511904
  -OEChem-10302200282D
 46 47  0     1  0  0  0  0  0999 V2000
    4.2690   -0.8450    0.0000 O   0  0  0  0  0  0  0  0  0  0  0  0
    6.0010   -0.8450    0.0000 O   0  0  0  0  0  0  0  0  0  0  0  0
    4.2690   -3.8450    0.0000 O   0  0  0  0  0  0  0  0  0  0  0  0
    2.5369   -2.8450    0.0000 O   0  0  0  0  0  0  0  0  0  0  0  0
    6.0010   -2.8450    0.0000 O   0  0  0  0  0  0  0  0  0  0  0  0
    2.5369    0.1550    0.0000 O   0  0  0  0  0  0  0  0  0  0  0  0
    4.2690   -2.8450    0.0000 C   0  0  1  0  0  0  0  0  0  0  0  0
    3.4030   -2.3450    0.0000 C   0  0  1  0  0  0  0  0  0  0  0  0
    5.1350   -2.3450    0.0000 C   0  0  2  0  0  0  0  0  0  0  0  0
    3.4030   -1.3450    0.0000 C   0  0  1  0  0  0  0  0  0  0  0  0
    5.1350   -1.3450    0.0000 C   0  0  1  0  0  0  0  0  0  0  0  0
    2.5369   -0.8450    0.0000 C   0  0  0  0  0  0  0  0  0  0  0  0
    6.0010    3.1550    0.0000 C   0  0  0  0  0  0  0  0  0  0  0  0
    6.0010    2.1550    0.0000 C   0  0  0  0  0  0  0  0  0  0  0  0
    6.0010    0.1550    0.0000 C   0  0  0  0  0  0  0  0  0  0  0  0
    6.0010    4.1550    0.0000 C   0  0  0  0  0  0  0  0  0  0  0  0
    7.0010    3.1550    0.0000 C   0  0  0  0  0  0  0  0  0  0  0  0
    5.0010    3.1550    0.0000 C   0  0  0  0  0  0  0  0  0  0  0  0
    6.8671    1.6550    0.0000 C   0  0  0  0  0  0  0  0  0  0  0  0
    5.1350    1.6550    0.0000 C   0  0  0  0  0  0  0  0  0  0  0  0
    6.8671    0.6550    0.0000 C   0  0  0  0  0  0  0  0  0  0  0  0
    5.1350    0.6550    0.0000 C   0  0  0  0  0  0  0  0  0  0  0  0
    3.7320   -3.1550    0.0000 H   0  0  0  0  0  0  0  0  0  0  0  0
    3.4030   -2.9650    0.0000 H   0  0  0  0  0  0  0  0  0  0  0  0
    5.1350   -2.9650    0.0000 H   0  0  0  0  0  0  0  0  0  0  0  0
    3.4030   -0.7250    0.0000 H   0  0  0  0  0  0  0  0  0  0  0  0
    5.6720   -1.6550    0.0000 H   0  0  0  0  0  0  0  0  0  0  0  0
    1.9264   -0.7373    0.0000 H   0  0  0  0  0  0  0  0  0  0  0  0
    2.3249   -1.4276    0.0000 H   0  0  0  0  0  0  0  0  0  0  0  0
    3.7320   -4.1550    0.0000 H   0  0  0  0  0  0  0  0  0  0  0  0
    2.0000   -2.5350    0.0000 H   0  0  0  0  0  0  0  0  0  0  0  0
    6.5380   -2.5350    0.0000 H   0  0  0  0  0  0  0  0  0  0  0  0
    6.6210    4.1550    0.0000 H   0  0  0  0  0  0  0  0  0  0  0  0
    6.0010    4.7750    0.0000 H   0  0  0  0  0  0  0  0  0  0  0  0
    5.3810    4.1550    0.0000 H   0  0  0  0  0  0  0  0  0  0  0  0
    7.0010    2.5350    0.0000 H   0  0  0  0  0  0  0  0  0  0  0  0
    7.6210    3.1550    0.0000 H   0  0  0  0  0  0  0  0  0  0  0  0
    7.0010    3.7750    0.0000 H   0  0  0  0  0  0  0  0  0  0  0  0
    5.0010    3.7750    0.0000 H   0  0  0  0  0  0  0  0  0  0  0  0
    4.3810    3.1550    0.0000 H   0  0  0  0  0  0  0  0  0  0  0  0
    5.0010    2.5350    0.0000 H   0  0  0  0  0  0  0  0  0  0  0  0
    7.4040    1.9650    0.0000 H   0  0  0  0  0  0  0  0  0  0  0  0
    4.5981    1.9650    0.0000 H   0  0  0  0  0  0  0  0  0  0  0  0
    7.4040    0.3450    0.0000 H   0  0  0  0  0  0  0  0  0  0  0  0
    4.5981    0.3450    0.0000 H   0  0  0  0  0  0  0  0  0  0  0  0
    2.0000    0.4650    0.0000 H   0  0  0  0  0  0  0  0  0  0  0  0
  1 10  1  0  0  0  0
  1 11  1  0  0  0  0
 11  2  1  1  0  0  0
  2 15  1  0  0  0  0
  7  3  1  1  0  0  0
  3 30  1  0  0  0  0
  8  4  1  6  0  0  0
  4 31  1  0  0  0  0
  9  5  1  6  0  0  0
  5 32  1  0  0  0  0
  6 12  1  0  0  0  0
  6 46  1  0  0  0  0
  7  8  1  0  0  0  0
  7  9  1  0  0  0  0
  7 23  1  0  0  0  0
  8 10  1  0  0  0  0
  8 24  1  0  0  0  0
  9 11  1  0  0  0  0
  9 25  1  0  0  0  0
 10 12  1  1  0  0  0
 10 26  1  0  0  0  0
 11 27  1  0  0  0  0
 12 28  1  0  0  0  0
 12 29  1  0  0  0  0
 13 14  1  0  0  0  0
 13 16  1  0  0  0  0
 13 17  1  0  0  0  0
 13 18  1  0  0  0  0
 14 19  2  0  0  0  0
 14 20  1  0  0  0  0
 15 21  2  0  0  0  0
 15 22  1  0  0  0  0
 16 33  1  0  0  0  0
 16 34  1  0  0  0  0
 16 35  1  0  0  0  0
 17 36  1  0  0  0  0
 17 37  1  0  0  0  0
 17 38  1  0  0  0  0
 18 39  1  0  0  0  0
 18 40  1  0  0  0  0
 18 41  1  0  0  0  0
 19 21  1  0  0  0  0
 19 42  1  0  0  0  0
 20 22  2  0  0  0  0
 20 43  1  0  0  0  0
 21 44  1  0  0  0  0
 22 45  1  0  0  0  0
M  END
> <PUBCHEM_COMPOUND_CID>
511904
> <PUBCHEM_COMPOUND_CANONICALIZED>
1
> <PUBCHEM_CACTVS_COMPLEXITY>
347
> <PUBCHEM_CACTVS_HBOND_ACCEPTOR>
6
> <PUBCHEM_CACTVS_HBOND_DONOR>
4
> <PUBCHEM_CACTVS_ROTATABLE_BOND>
4
> <PUBCHEM_CACTVS_SUBSKEYS>
AAADceB4OAAAAAAAAAAAAAAAAAAAAAAAAAA0QAAAAAAAAAABAAAAGgAACAAADhSwmAMyDoAABgCAAiBCAAACCAAgIAAIiAAGCIgdNiKEMRqieCClwBEPqAfA4NwPoAAAAAAAAABAAAAAAAAAAAAAAAAAAA==
> <PUBCHEM_IUPAC_OPENEYE_NAME>
(2S,3R,4S,5S,6R)-2-(4-tert-butylphenoxy)-6-(hydroxymethyl)tetrahydropyran-3,4,5-triol
> <PUBCHEM_IUPAC_CAS_NAME>
(2S,3R,4S,5S,6R)-2-(4-tert-butylphenoxy)-6-(hydroxymethyl)oxane-3,4,5-triol
> <PUBCHEM_IUPAC_NAME_MARKUP>
(2<I>S</I>,3<I>R</I>,4<I>S</I>,5<I>S</I>,6<I>R</I>)-2-(4-<I>tert</I>-butylphenoxy)-6-(hydroxymethyl)oxane-3,4,5-triol
> <PUBCHEM_IUPAC_NAME>
(2S,3R,4S,5S,6R)-2-(4-tert-butylphenoxy)-6-(hydroxymethyl)oxane-3,4,5-triol
> <PUBCHEM_IUPAC_SYSTEMATIC_NAME>
(2S,3R,4S,5S,6R)-2-(4-tert-butylphenoxy)-6-(hydroxymethyl)oxane-3,4,5-triol
> <PUBCHEM_IUPAC_TRADITIONAL_NAME>
(2S,3R,4S,5S,6R)-2-(4-tert-butylphenoxy)-6-methylol-tetrahydropyran-3,4,5-triol
> <PUBCHEM_IUPAC_INCHI>
InChI=1S/C16H24O6/c1-16(2,3)9-4-6-10(7-5-9)21-15-14(20)13(19)12(18)11(8-17)22-15/h4-7,11-15,17-20H,8H2,1-3H3/t11-,12-,13+,14-,15-/m1/s1
> <PUBCHEM_IUPAC_INCHIKEY>
NWGOCKBHUWIOMK-UXXRCYHCSA-N
> <PUBCHEM_XLOGP3>
1.2
> <PUBCHEM_EXACT_MASS>
312.15728848
> <PUBCHEM_MOLECULAR_FORMULA>
C16H24O6
> <PUBCHEM_MOLECULAR_WEIGHT>
312.36
> <PUBCHEM_OPENEYE_CAN_SMILES>
CC(C)(C)C1=CC=C(C=C1)OC2C(C(C(C(O2)CO)O)O)O
> <PUBCHEM_OPENEYE_ISO_SMILES>
CC(C)(C)C1=CC=C(C=C1)O[C@H]2[C@@H]([C@H]([C@@H]([C@H](O2)CO)O)O)O
> <PUBCHEM_CACTVS_TPSA>
99.4
> <PUBCHEM_MONOISOTOPIC_WEIGHT>
312.15728848
> <PUBCHEM_TOTAL_CHARGE>
0
> <PUBCHEM_HEAVY_ATOM_COUNT>
22
> <PUBCHEM_ATOM_DEF_STEREO_COUNT>
5
> <PUBCHEM_ATOM_UDEF_STEREO_COUNT>
0
> <PUBCHEM_BOND_DEF_STEREO_COUNT>
0
> <PUBCHEM_BOND_UDEF_STEREO_COUNT>
0
> <PUBCHEM_ISOTOPIC_ATOM_COUNT>
0
> <PUBCHEM_COMPONENT_COUNT>
1
> <PUBCHEM_CACTVS_TAUTO_COUNT>
-1
> <PUBCHEM_COORDINATE_TYPE>
1
5
255
> <PUBCHEM_BONDANNOTATIONS>
10  12  5
14  19  8
14  20  8
15  21  8
15  22  8
19  21  8
11  2  5
20  22  8
7  3  5
8  4  6
9  5  6
$$$$
