511918
  -OEChem-10302200282D
 39 39  0     1  0  0  0  0  0999 V2000
    4.2690   -0.3450    0.0000 O   0  0  0  0  0  0  0  0  0  0  0  0
    6.0010   -0.3450    0.0000 O   0  0  0  0  0  0  0  0  0  0  0  0
    4.2690   -3.3450    0.0000 O   0  0  0  0  0  0  0  0  0  0  0  0
    2.5369   -2.3450    0.0000 O   0  0  0  0  0  0  0  0  0  0  0  0
    6.0010   -2.3450    0.0000 O   0  0  0  0  0  0  0  0  0  0  0  0
    2.5369    0.6550    0.0000 O   0  0  0  0  0  0  0  0  0  0  0  0
    4.2690   -2.3450    0.0000 C   0  0  1  0  0  0  0  0  0  0  0  0
    3.4030   -1.8450    0.0000 C   0  0  1  0  0  0  0  0  0  0  0  0
    5.1350   -1.8450    0.0000 C   0  0  2  0  0  0  0  0  0  0  0  0
    3.4030   -0.8450    0.0000 C   0  0  1  0  0  0  0  0  0  0  0  0
    5.1350   -0.8450    0.0000 C   0  0  1  0  0  0  0  0  0  0  0  0
    2.5369   -0.3450    0.0000 C   0  0  0  0  0  0  0  0  0  0  0  0
    6.0010    0.6550    0.0000 C   0  0  0  0  0  0  0  0  0  0  0  0
    6.8671    1.1550    0.0000 C   0  0  0  0  0  0  0  0  0  0  0  0
    6.8671    2.1550    0.0000 C   0  0  0  0  0  0  0  0  0  0  0  0
    7.7331    2.6550    0.0000 C   0  0  0  0  0  0  0  0  0  0  0  0
    7.7331    3.6550    0.0000 C   0  0  0  0  0  0  0  0  0  0  0  0
    3.7320   -2.6550    0.0000 H   0  0  0  0  0  0  0  0  0  0  0  0
    3.4030   -2.4650    0.0000 H   0  0  0  0  0  0  0  0  0  0  0  0
    5.1350   -2.4650    0.0000 H   0  0  0  0  0  0  0  0  0  0  0  0
    3.4030   -0.2250    0.0000 H   0  0  0  0  0  0  0  0  0  0  0  0
    5.1350   -0.2250    0.0000 H   0  0  0  0  0  0  0  0  0  0  0  0
    1.9264   -0.2373    0.0000 H   0  0  0  0  0  0  0  0  0  0  0  0
    2.3249   -0.9276    0.0000 H   0  0  0  0  0  0  0  0  0  0  0  0
    5.7890    1.2376    0.0000 H   0  0  0  0  0  0  0  0  0  0  0  0
    5.3905    0.5473    0.0000 H   0  0  0  0  0  0  0  0  0  0  0  0
    3.7320   -3.6550    0.0000 H   0  0  0  0  0  0  0  0  0  0  0  0
    2.0000   -2.0350    0.0000 H   0  0  0  0  0  0  0  0  0  0  0  0
    6.5380   -2.0350    0.0000 H   0  0  0  0  0  0  0  0  0  0  0  0
    7.0791    0.5724    0.0000 H   0  0  0  0  0  0  0  0  0  0  0  0
    7.4776    1.2627    0.0000 H   0  0  0  0  0  0  0  0  0  0  0  0
    6.6550    2.7376    0.0000 H   0  0  0  0  0  0  0  0  0  0  0  0
    6.2565    2.0473    0.0000 H   0  0  0  0  0  0  0  0  0  0  0  0
    2.0000    0.9650    0.0000 H   0  0  0  0  0  0  0  0  0  0  0  0
    7.9451    2.0724    0.0000 H   0  0  0  0  0  0  0  0  0  0  0  0
    8.3437    2.7627    0.0000 H   0  0  0  0  0  0  0  0  0  0  0  0
    8.3531    3.6550    0.0000 H   0  0  0  0  0  0  0  0  0  0  0  0
    7.7331    4.2750    0.0000 H   0  0  0  0  0  0  0  0  0  0  0  0
    7.1131    3.6550    0.0000 H   0  0  0  0  0  0  0  0  0  0  0  0
  1 10  1  0  0  0  0
  1 11  1  0  0  0  0
 11  2  1  1  0  0  0
  2 13  1  0  0  0  0
  7  3  1  1  0  0  0
  3 27  1  0  0  0  0
  8  4  1  6  0  0  0
  4 28  1  0  0  0  0
  9  5  1  6  0  0  0
  5 29  1  0  0  0  0
  6 12  1  0  0  0  0
  6 34  1  0  0  0  0
  7  8  1  0  0  0  0
  7  9  1  0  0  0  0
  7 18  1  0  0  0  0
  8 10  1  0  0  0  0
  8 19  1  0  0  0  0
  9 11  1  0  0  0  0
  9 20  1  0  0  0  0
 10 12  1  1  0  0  0
 10 21  1  0  0  0  0
 11 22  1  0  0  0  0
 12 23  1  0  0  0  0
 12 24  1  0  0  0  0
 13 14  1  0  0  0  0
 13 25  1  0  0  0  0
 13 26  1  0  0  0  0
 14 15  1  0  0  0  0
 14 30  1  0  0  0  0
 14 31  1  0  0  0  0
 15 16  1  0  0  0  0
 15 32  1  0  0  0  0
 15 33  1  0  0  0  0
 16 17  1  0  0  0  0
 16 35  1  0  0  0  0
 16 36  1  0  0  0  0
 17 37  1  0  0  0  0
 17 38  1  0  0  0  0
 17 39  1  0  0  0  0
M  END
> <PUBCHEM_COMPOUND_CID>
511918
> <PUBCHEM_COMPOUND_CANONICALIZED>
1
> <PUBCHEM_CACTVS_COMPLEXITY>
212
> <PUBCHEM_CACTVS_HBOND_ACCEPTOR>
6
> <PUBCHEM_CACTVS_HBOND_DONOR>
4
> <PUBCHEM_CACTVS_ROTATABLE_BOND>
6
> <PUBCHEM_CACTVS_SUBSKEYS>
AAADceBwOAAAAAAAAAAAAAAAAAAAAAAAAAAkAAAAAAAAAAAAAAAAGgAACAAACBSwgAMCCAAABgAAAAAAAAAAAAAAAAAAAAAAAAAREAIAAAAiQAAFAAAHAAHAYAwAAAAAAAAAAAAAAAAAAAAAAAAAAAAAAA==
> <PUBCHEM_IUPAC_OPENEYE_NAME>
(2R,3S,4S,5R,6R)-2-(hydroxymethyl)-6-pentoxy-tetrahydropyran-3,4,5-triol
> <PUBCHEM_IUPAC_CAS_NAME>
(2R,3S,4S,5R,6R)-2-(hydroxymethyl)-6-pentoxyoxane-3,4,5-triol
> <PUBCHEM_IUPAC_NAME_MARKUP>
(2<I>R</I>,3<I>S</I>,4<I>S</I>,5<I>R</I>,6<I>R</I>)-2-(hydroxymethyl)-6-pentoxyoxane-3,4,5-triol
> <PUBCHEM_IUPAC_NAME>
(2R,3S,4S,5R,6R)-2-(hydroxymethyl)-6-pentoxyoxane-3,4,5-triol
> <PUBCHEM_IUPAC_SYSTEMATIC_NAME>
(2R,3S,4S,5R,6R)-2-(hydroxymethyl)-6-pentoxy-oxane-3,4,5-triol
> <PUBCHEM_IUPAC_TRADITIONAL_NAME>
(2R,3R,4S,5S,6R)-2-amoxy-6-methylol-tetrahydropyran-3,4,5-triol
> <PUBCHEM_IUPAC_INCHI>
InChI=1S/C11H22O6/c1-2-3-4-5-16-11-10(15)9(14)8(13)7(6-12)17-11/h7-15H,2-6H2,1H3/t7-,8-,9+,10-,11-/m1/s1
> <PUBCHEM_IUPAC_INCHIKEY>
RYIWDDCNJPSPRA-KAMPLNKDSA-N
> <PUBCHEM_XLOGP3>
-0.4
> <PUBCHEM_EXACT_MASS>
250.14163842
> <PUBCHEM_MOLECULAR_FORMULA>
C11H22O6
> <PUBCHEM_MOLECULAR_WEIGHT>
250.29
> <PUBCHEM_OPENEYE_CAN_SMILES>
CCCCCOC1C(C(C(C(O1)CO)O)O)O
> <PUBCHEM_OPENEYE_ISO_SMILES>
CCCCCO[C@H]1[C@@H]([C@H]([C@@H]([C@H](O1)CO)O)O)O
> <PUBCHEM_CACTVS_TPSA>
99.4
> <PUBCHEM_MONOISOTOPIC_WEIGHT>
250.14163842
> <PUBCHEM_TOTAL_CHARGE>
0
> <PUBCHEM_HEAVY_ATOM_COUNT>
17
> <PUBCHEM_ATOM_DEF_STEREO_COUNT>
5
> <PUBCHEM_ATOM_UDEF_STEREO_COUNT>
0
> <PUBCHEM_BOND_DEF_STEREO_COUNT>
0
> <PUBCHEM_BOND_UDEF_STEREO_COUNT>
0
> <PUBCHEM_ISOTOPIC_ATOM_COUNT>
0
> <PUBCHEM_COMPONENT_COUNT>
1
> <PUBCHEM_CACTVS_TAUTO_COUNT>
-1
> <PUBCHEM_COORDINATE_TYPE>
1
5
255
> <PUBCHEM_BONDANNOTATIONS>
10  12  5
11  2  5
7  3  5
8  4  6
9  5  6
$$$$
