511979
  -OEChem-10302200282D
 30 31  0     1  0  0  0  0  0999 V2000
    4.2320   -1.6573    0.0000 O   0  0  0  0  0  0  0  0  0  0  0  0
    3.0510   -3.3799    0.0000 O   0  0  0  0  0  0  0  0  0  0  0  0
    5.4641    0.8815    0.0000 O   0  0  0  0  0  0  0  0  0  0  0  0
    3.7320    3.8815    0.0000 O   0  0  0  0  0  0  0  0  0  0  0  0
    3.7320    0.8815    0.0000 N   0  0  0  0  0  0  0  0  0  0  0  0
    4.5981    2.3815    0.0000 N   0  0  0  0  0  0  0  0  0  0  0  0
    3.7320   -0.1185    0.0000 C   0  0  1  0  0  0  0  0  0  0  0  0
    2.9230   -0.7063    0.0000 C   0  0  0  0  0  0  0  0  0  0  0  0
    3.2320   -1.6573    0.0000 C   0  0  1  0  0  0  0  0  0  0  0  0
    4.5411   -0.7063    0.0000 C   0  0  0  0  0  0  0  0  0  0  0  0
    2.6443   -2.4664    0.0000 C   0  0  0  0  0  0  0  0  0  0  0  0
    2.8660    1.3815    0.0000 C   0  0  0  0  0  0  0  0  0  0  0  0
    4.5981    1.3815    0.0000 C   0  0  0  0  0  0  0  0  0  0  0  0
    2.8660    2.3815    0.0000 C   0  0  0  0  0  0  0  0  0  0  0  0
    3.7320    2.8815    0.0000 C   0  0  0  0  0  0  0  0  0  0  0  0
    2.0000    2.8815    0.0000 C   0  0  0  0  0  0  0  0  0  0  0  0
    4.2845    0.1630    0.0000 H   0  0  0  0  0  0  0  0  0  0  0  0
    2.6130   -0.1694    0.0000 H   0  0  0  0  0  0  0  0  0  0  0  0
    2.3566   -0.9585    0.0000 H   0  0  0  0  0  0  0  0  0  0  0  0
    3.5135   -2.2098    0.0000 H   0  0  0  0  0  0  0  0  0  0  0  0
    5.1075   -0.9585    0.0000 H   0  0  0  0  0  0  0  0  0  0  0  0
    4.8511   -0.1694    0.0000 H   0  0  0  0  0  0  0  0  0  0  0  0
    2.2136   -2.0204    0.0000 H   0  0  0  0  0  0  0  0  0  0  0  0
    2.1303   -2.8131    0.0000 H   0  0  0  0  0  0  0  0  0  0  0  0
    2.3291    1.0715    0.0000 H   0  0  0  0  0  0  0  0  0  0  0  0
    5.1350    2.6915    0.0000 H   0  0  0  0  0  0  0  0  0  0  0  0
    2.6866   -3.8815    0.0000 H   0  0  0  0  0  0  0  0  0  0  0  0
    2.3100    3.4184    0.0000 H   0  0  0  0  0  0  0  0  0  0  0  0
    1.4631    3.1915    0.0000 H   0  0  0  0  0  0  0  0  0  0  0  0
    1.6900    2.3446    0.0000 H   0  0  0  0  0  0  0  0  0  0  0  0
  1  9  1  0  0  0  0
  1 10  1  0  0  0  0
  2 11  1  0  0  0  0
  2 27  1  0  0  0  0
  3 13  2  0  0  0  0
  4 15  2  0  0  0  0
  7  5  1  6  0  0  0
  5 12  1  0  0  0  0
  5 13  1  0  0  0  0
  6 13  1  0  0  0  0
  6 15  1  0  0  0  0
  6 26  1  0  0  0  0
  7  8  1  0  0  0  0
  7 10  1  0  0  0  0
  7 17  1  0  0  0  0
  8  9  1  0  0  0  0
  8 18  1  0  0  0  0
  8 19  1  0  0  0  0
  9 11  1  6  0  0  0
  9 20  1  0  0  0  0
 10 21  1  0  0  0  0
 10 22  1  0  0  0  0
 11 23  1  0  0  0  0
 11 24  1  0  0  0  0
 12 14  2  0  0  0  0
 12 25  1  0  0  0  0
 14 15  1  0  0  0  0
 14 16  1  0  0  0  0
 16 28  1  0  0  0  0
 16 29  1  0  0  0  0
 16 30  1  0  0  0  0
M  END
> <PUBCHEM_COMPOUND_CID>
511979
> <PUBCHEM_COMPOUND_CANONICALIZED>
1
> <PUBCHEM_CACTVS_COMPLEXITY>
353
> <PUBCHEM_CACTVS_HBOND_ACCEPTOR>
4
> <PUBCHEM_CACTVS_HBOND_DONOR>
2
> <PUBCHEM_CACTVS_ROTATABLE_BOND>
2
> <PUBCHEM_CACTVS_SUBSKEYS>
AAADccBzOAAAAAAAAAAAAAAAAAAAASAAAAAgAAAAAAAAAAAAAAAAHgAQCAAADDzhgAYDAAPABgCIAgFWUACAAAAAAAAAAAEIAECDEAIAgQAHQAAOByITAMCgIAAAAAAAAAAAAAAAAAAAAAAAAAAAAAAAAA==
> <PUBCHEM_IUPAC_OPENEYE_NAME>
1-[(3S,5S)-5-(hydroxymethyl)tetrahydrofuran-3-yl]-5-methyl-pyrimidine-2,4-dione
> <PUBCHEM_IUPAC_CAS_NAME>
1-[(3S,5S)-5-(hydroxymethyl)-3-oxolanyl]-5-methylpyrimidine-2,4-dione
> <PUBCHEM_IUPAC_NAME_MARKUP>
1-[(3<I>S</I>,5<I>S</I>)-5-(hydroxymethyl)oxolan-3-yl]-5-methylpyrimidine-2,4-dione
> <PUBCHEM_IUPAC_NAME>
1-[(3S,5S)-5-(hydroxymethyl)oxolan-3-yl]-5-methylpyrimidine-2,4-dione
> <PUBCHEM_IUPAC_SYSTEMATIC_NAME>
1-[(3S,5S)-5-(hydroxymethyl)oxolan-3-yl]-5-methyl-pyrimidine-2,4-dione
> <PUBCHEM_IUPAC_TRADITIONAL_NAME>
5-methyl-1-[(3S,5S)-5-methyloltetrahydrofuran-3-yl]pyrimidine-2,4-quinone
> <PUBCHEM_IUPAC_INCHI>
InChI=1S/C10H14N2O4/c1-6-3-12(10(15)11-9(6)14)7-2-8(4-13)16-5-7/h3,7-8,13H,2,4-5H2,1H3,(H,11,14,15)/t7-,8-/m0/s1
> <PUBCHEM_IUPAC_INCHIKEY>
HOKZCKKHTJPEMZ-YUMQZZPRSA-N
> <PUBCHEM_XLOGP3_AA>
-1
> <PUBCHEM_EXACT_MASS>
226.09535693
> <PUBCHEM_MOLECULAR_FORMULA>
C10H14N2O4
> <PUBCHEM_MOLECULAR_WEIGHT>
226.23
> <PUBCHEM_OPENEYE_CAN_SMILES>
CC1=CN(C(=O)NC1=O)C2CC(OC2)CO
> <PUBCHEM_OPENEYE_ISO_SMILES>
CC1=CN(C(=O)NC1=O)[C@H]2C[C@H](OC2)CO
> <PUBCHEM_CACTVS_TPSA>
78.9
> <PUBCHEM_MONOISOTOPIC_WEIGHT>
226.09535693
> <PUBCHEM_TOTAL_CHARGE>
0
> <PUBCHEM_HEAVY_ATOM_COUNT>
16
> <PUBCHEM_ATOM_DEF_STEREO_COUNT>
2
> <PUBCHEM_ATOM_UDEF_STEREO_COUNT>
0
> <PUBCHEM_BOND_DEF_STEREO_COUNT>
0
> <PUBCHEM_BOND_UDEF_STEREO_COUNT>
0
> <PUBCHEM_ISOTOPIC_ATOM_COUNT>
0
> <PUBCHEM_COMPONENT_COUNT>
1
> <PUBCHEM_CACTVS_TAUTO_COUNT>
-1
> <PUBCHEM_COORDINATE_TYPE>
1
5
255
> <PUBCHEM_BONDANNOTATIONS>
12  14  8
14  15  8
5  12  8
5  13  8
7  5  6
6  13  8
6  15  8
9  11  6
$$$$
