511987
  -OEChem-10302200282D
 42 44  0     1  0  0  0  0  0999 V2000
    8.0646    1.1270    0.0000 F   0  0  0  0  0  0  0  0  0  0  0  0
    8.5646    1.9930    0.0000 F   0  0  0  0  0  0  0  0  0  0  0  0
   10.4307    2.4930    0.0000 F   0  0  0  0  0  0  0  0  0  0  0  0
    9.4307    2.4930    0.0000 F   0  0  0  0  0  0  0  0  0  0  0  0
   11.7967    1.1270    0.0000 F   0  0  0  0  0  0  0  0  0  0  0  0
   11.2967    1.9930    0.0000 F   0  0  0  0  0  0  0  0  0  0  0  0
   11.2967   -0.7390    0.0000 F   0  0  0  0  0  0  0  0  0  0  0  0
   11.7967    0.1270    0.0000 F   0  0  0  0  0  0  0  0  0  0  0  0
    9.9307   -1.3730    0.0000 F   0  0  0  0  0  0  0  0  0  0  0  0
    4.6870   -0.2797    0.0000 O   0  0  0  0  0  0  0  0  0  0  0  0
    4.1111    2.2430    0.0000 O   0  0  0  0  0  0  0  0  0  0  0  0
    2.6166   -0.5547    0.0000 O   0  0  0  0  0  0  0  0  0  0  0  0
    5.6005   -1.8730    0.0000 O   0  0  0  0  0  0  0  0  0  0  0  0
    9.0646   -1.8730    0.0000 O   0  0  0  0  0  0  0  0  0  0  0  0
    6.4666   -0.3730    0.0000 N   0  0  0  0  0  0  0  0  0  0  0  0
    7.3326   -1.8730    0.0000 N   0  0  0  0  0  0  0  0  0  0  0  0
    5.6005    0.1270    0.0000 C   0  0  1  0  0  0  0  0  0  0  0  0
    5.4960    1.1215    0.0000 C   0  0  0  0  0  0  0  0  0  0  0  0
    4.5179    1.3294    0.0000 C   0  0  1  0  0  0  0  0  0  0  0  0
    4.0179    0.4634    0.0000 C   0  0  1  0  0  0  0  0  0  0  0  0
    9.0646    1.1270    0.0000 C   0  0  0  0  0  0  0  0  0  0  0  0
    9.0646    0.1270    0.0000 C   0  0  0  0  0  0  0  0  0  0  0  0
    9.9307    1.6270    0.0000 C   0  0  0  0  0  0  0  0  0  0  0  0
   10.7967    1.1270    0.0000 C   0  0  0  0  0  0  0  0  0  0  0  0
    8.1986   -0.3730    0.0000 C   0  0  0  0  0  0  0  0  0  0  0  0
   10.7967    0.1270    0.0000 C   0  0  0  0  0  0  0  0  0  0  0  0
    3.0233    0.3589    0.0000 C   0  0  0  0  0  0  0  0  0  0  0  0
    7.3326    0.1270    0.0000 C   0  0  0  0  0  0  0  0  0  0  0  0
    9.9307   -0.3730    0.0000 C   0  0  0  0  0  0  0  0  0  0  0  0
    6.4666   -1.3730    0.0000 C   0  0  0  0  0  0  0  0  0  0  0  0
    8.1986   -1.3730    0.0000 C   0  0  0  0  0  0  0  0  0  0  0  0
    5.5681   -0.4922    0.0000 H   0  0  0  0  0  0  0  0  0  0  0  0
    6.1160    1.1215    0.0000 H   0  0  0  0  0  0  0  0  0  0  0  0
    5.5608    1.7381    0.0000 H   0  0  0  0  0  0  0  0  0  0  0  0
    4.9080    1.8112    0.0000 H   0  0  0  0  0  0  0  0  0  0  0  0
    3.7957   -0.1154    0.0000 H   0  0  0  0  0  0  0  0  0  0  0  0
    3.0666    0.9774    0.0000 H   0  0  0  0  0  0  0  0  0  0  0  0
    2.4218    0.5089    0.0000 H   0  0  0  0  0  0  0  0  0  0  0  0
    7.3326    0.7470    0.0000 H   0  0  0  0  0  0  0  0  0  0  0  0
    3.4945    2.3078    0.0000 H   0  0  0  0  0  0  0  0  0  0  0  0
    7.3326   -2.4930    0.0000 H   0  0  0  0  0  0  0  0  0  0  0  0
    2.0000   -0.6195    0.0000 H   0  0  0  0  0  0  0  0  0  0  0  0
  1 21  1  0  0  0  0
  2 21  1  0  0  0  0
  3 23  1  0  0  0  0
  4 23  1  0  0  0  0
  5 24  1  0  0  0  0
  6 24  1  0  0  0  0
  7 26  1  0  0  0  0
  8 26  1  0  0  0  0
  9 29  1  0  0  0  0
 10 17  1  0  0  0  0
 10 20  1  0  0  0  0
 19 11  1  1  0  0  0
 11 40  1  0  0  0  0
 12 27  1  0  0  0  0
 12 42  1  0  0  0  0
 13 30  2  0  0  0  0
 14 31  2  0  0  0  0
 17 15  1  6  0  0  0
 15 28  1  0  0  0  0
 15 30  1  0  0  0  0
 16 30  1  0  0  0  0
 16 31  1  0  0  0  0
 16 41  1  0  0  0  0
 17 18  1  0  0  0  0
 17 32  1  0  0  0  0
 18 19  1  0  0  0  0
 18 33  1  0  0  0  0
 18 34  1  0  0  0  0
 19 20  1  0  0  0  0
 19 35  1  0  0  0  0
 20 27  1  6  0  0  0
 20 36  1  0  0  0  0
 21 22  1  0  0  0  0
 21 23  1  0  0  0  0
 22 25  1  0  0  0  0
 22 29  2  0  0  0  0
 23 24  1  0  0  0  0
 24 26  1  0  0  0  0
 25 28  2  0  0  0  0
 25 31  1  0  0  0  0
 26 29  1  0  0  0  0
 27 37  1  0  0  0  0
 27 38  1  0  0  0  0
 28 39  1  0  0  0  0
M  END
> <PUBCHEM_COMPOUND_CID>
511987
> <PUBCHEM_COMPOUND_CANONICALIZED>
1
> <PUBCHEM_CACTVS_COMPLEXITY>
888
> <PUBCHEM_CACTVS_HBOND_ACCEPTOR>
14
> <PUBCHEM_CACTVS_HBOND_DONOR>
3
> <PUBCHEM_CACTVS_ROTATABLE_BOND>
3
> <PUBCHEM_CACTVS_SUBSKEYS>
AAADccBzOcAAAAAAAAAAAAAAAAAAASAAAAAgQAAAAAAAAAAAAAAAHwAQCAAADBThgBYBAAPABgCIAgFWUACAAAAgAAAACAEIAEiJEBIAgAAOQAAPhyILgMO4uIKAAAAAAAAAAAAAAAAAAAAAAAAAAAAAAA==
> <PUBCHEM_IUPAC_OPENEYE_NAME>
1-[(2R,4S,5R)-4-hydroxy-5-(hydroxymethyl)tetrahydrofuran-2-yl]-5-(2,3,3,4,4,5,5,6,6-nonafluorocyclohexen-1-yl)pyrimidine-2,4-dione
> <PUBCHEM_IUPAC_CAS_NAME>
1-[(2R,4S,5R)-4-hydroxy-5-(hydroxymethyl)-2-oxolanyl]-5-(2,3,3,4,4,5,5,6,6-nonafluoro-1-cyclohexenyl)pyrimidine-2,4-dione
> <PUBCHEM_IUPAC_NAME_MARKUP>
1-[(2<I>R</I>,4<I>S</I>,5<I>R</I>)-4-hydroxy-5-(hydroxymethyl)oxolan-2-yl]-5-(2,3,3,4,4,5,5,6,6-nonafluorocyclohexen-1-yl)pyrimidine-2,4-dione
> <PUBCHEM_IUPAC_NAME>
1-[(2R,4S,5R)-4-hydroxy-5-(hydroxymethyl)oxolan-2-yl]-5-(2,3,3,4,4,5,5,6,6-nonafluorocyclohexen-1-yl)pyrimidine-2,4-dione
> <PUBCHEM_IUPAC_SYSTEMATIC_NAME>
1-[(2R,4S,5R)-5-(hydroxymethyl)-4-oxidanyl-oxolan-2-yl]-5-[2,3,3,4,4,5,5,6,6-nonakis(fluoranyl)cyclohexen-1-yl]pyrimidine-2,4-dione
> <PUBCHEM_IUPAC_TRADITIONAL_NAME>
1-[(2R,4S,5R)-4-hydroxy-5-methylol-tetrahydrofuran-2-yl]-5-(2,3,3,4,4,5,5,6,6-nonafluorocyclohexen-1-yl)pyrimidine-2,4-quinone
> <PUBCHEM_IUPAC_INCHI>
InChI=1S/C15H11F9N2O5/c16-9-8(12(17,18)14(21,22)15(23,24)13(9,19)20)4-2-26(11(30)25-10(4)29)7-1-5(28)6(3-27)31-7/h2,5-7,27-28H,1,3H2,(H,25,29,30)/t5-,6+,7+/m0/s1
> <PUBCHEM_IUPAC_INCHIKEY>
ROIZBDVPMJECDV-RRKCRQDMSA-N
> <PUBCHEM_XLOGP3>
0.6
> <PUBCHEM_EXACT_MASS>
470.05242491
> <PUBCHEM_MOLECULAR_FORMULA>
C15H11F9N2O5
> <PUBCHEM_MOLECULAR_WEIGHT>
470.24
> <PUBCHEM_OPENEYE_CAN_SMILES>
C1C(C(OC1N2C=C(C(=O)NC2=O)C3=C(C(C(C(C3(F)F)(F)F)(F)F)(F)F)F)CO)O
> <PUBCHEM_OPENEYE_ISO_SMILES>
C1[C@@H]([C@H](O[C@H]1N2C=C(C(=O)NC2=O)C3=C(C(C(C(C3(F)F)(F)F)(F)F)(F)F)F)CO)O
> <PUBCHEM_CACTVS_TPSA>
99.1
> <PUBCHEM_MONOISOTOPIC_WEIGHT>
470.05242491
> <PUBCHEM_TOTAL_CHARGE>
0
> <PUBCHEM_HEAVY_ATOM_COUNT>
31
> <PUBCHEM_ATOM_DEF_STEREO_COUNT>
3
> <PUBCHEM_ATOM_UDEF_STEREO_COUNT>
0
> <PUBCHEM_BOND_DEF_STEREO_COUNT>
0
> <PUBCHEM_BOND_UDEF_STEREO_COUNT>
0
> <PUBCHEM_ISOTOPIC_ATOM_COUNT>
0
> <PUBCHEM_COMPONENT_COUNT>
1
> <PUBCHEM_CACTVS_TAUTO_COUNT>
-1
> <PUBCHEM_COORDINATE_TYPE>
1
5
255
> <PUBCHEM_BONDANNOTATIONS>
19  11  5
17  15  6
15  28  8
15  30  8
16  30  8
16  31  8
20  27  6
25  28  8
25  31  8
$$$$
