511910
  -OEChem-10302200282D
 33 34  0     1  0  0  0  0  0999 V2000
    5.1350   -3.5000    0.0000 Cl  0  0  0  0  0  0  0  0  0  0  0  0
    6.8671    3.5000    0.0000 Cl  0  0  0  0  0  0  0  0  0  0  0  0
    5.1350   -0.5000    0.0000 O   0  0  0  0  0  0  0  0  0  0  0  0
    6.8671   -0.5000    0.0000 O   0  0  0  0  0  0  0  0  0  0  0  0
    3.4030   -2.5000    0.0000 O   0  0  0  0  0  0  0  0  0  0  0  0
    6.8671   -2.5000    0.0000 O   0  0  0  0  0  0  0  0  0  0  0  0
    2.5369   -1.0000    0.0000 O   0  0  0  0  0  0  0  0  0  0  0  0
    4.2690   -2.0000    0.0000 C   0  0  1  0  0  0  0  0  0  0  0  0
    5.1350   -2.5000    0.0000 C   0  0  2  0  0  0  0  0  0  0  0  0
    4.2690   -1.0000    0.0000 C   0  0  1  0  0  0  0  0  0  0  0  0
    6.0010   -2.0000    0.0000 C   0  0  2  0  0  0  0  0  0  0  0  0
    6.0010   -1.0000    0.0000 C   0  0  1  0  0  0  0  0  0  0  0  0
    3.4030   -0.5000    0.0000 C   0  0  0  0  0  0  0  0  0  0  0  0
    6.8671    0.5000    0.0000 C   0  0  0  0  0  0  0  0  0  0  0  0
    7.7331    1.0000    0.0000 C   0  0  0  0  0  0  0  0  0  0  0  0
    6.0010    1.0000    0.0000 C   0  0  0  0  0  0  0  0  0  0  0  0
    7.7331    2.0000    0.0000 C   0  0  0  0  0  0  0  0  0  0  0  0
    6.0010    2.0000    0.0000 C   0  0  0  0  0  0  0  0  0  0  0  0
    6.8671    2.5000    0.0000 C   0  0  0  0  0  0  0  0  0  0  0  0
    4.2690   -2.6200    0.0000 H   0  0  0  0  0  0  0  0  0  0  0  0
    5.6720   -2.8100    0.0000 H   0  0  0  0  0  0  0  0  0  0  0  0
    4.2690   -0.3800    0.0000 H   0  0  0  0  0  0  0  0  0  0  0  0
    6.5380   -1.6900    0.0000 H   0  0  0  0  0  0  0  0  0  0  0  0
    6.0010   -0.3800    0.0000 H   0  0  0  0  0  0  0  0  0  0  0  0
    3.8015   -0.0251    0.0000 H   0  0  0  0  0  0  0  0  0  0  0  0
    3.0044   -0.0251    0.0000 H   0  0  0  0  0  0  0  0  0  0  0  0
    3.4030   -3.1200    0.0000 H   0  0  0  0  0  0  0  0  0  0  0  0
    6.8671   -3.1200    0.0000 H   0  0  0  0  0  0  0  0  0  0  0  0
    2.0000   -0.6900    0.0000 H   0  0  0  0  0  0  0  0  0  0  0  0
    8.2700    0.6900    0.0000 H   0  0  0  0  0  0  0  0  0  0  0  0
    5.4641    0.6900    0.0000 H   0  0  0  0  0  0  0  0  0  0  0  0
    8.2700    2.3100    0.0000 H   0  0  0  0  0  0  0  0  0  0  0  0
    5.4641    2.3100    0.0000 H   0  0  0  0  0  0  0  0  0  0  0  0
  9  1  1  6  0  0  0
  2 19  1  0  0  0  0
  3 10  1  0  0  0  0
  3 12  1  0  0  0  0
 12  4  1  1  0  0  0
  4 14  1  0  0  0  0
  8  5  1  6  0  0  0
  5 27  1  0  0  0  0
 11  6  1  6  0  0  0
  6 28  1  0  0  0  0
  7 13  1  0  0  0  0
  7 29  1  0  0  0  0
  8  9  1  0  0  0  0
  8 10  1  0  0  0  0
  8 20  1  0  0  0  0
  9 11  1  0  0  0  0
  9 21  1  0  0  0  0
 10 13  1  1  0  0  0
 10 22  1  0  0  0  0
 11 12  1  0  0  0  0
 11 23  1  0  0  0  0
 12 24  1  0  0  0  0
 13 25  1  0  0  0  0
 13 26  1  0  0  0  0
 14 15  2  0  0  0  0
 14 16  1  0  0  0  0
 15 17  1  0  0  0  0
 15 30  1  0  0  0  0
 16 18  2  0  0  0  0
 16 31  1  0  0  0  0
 17 19  2  0  0  0  0
 17 32  1  0  0  0  0
 18 19  1  0  0  0  0
 18 33  1  0  0  0  0
M  END
> <PUBCHEM_COMPOUND_CID>
511910
> <PUBCHEM_COMPOUND_CANONICALIZED>
1
> <PUBCHEM_CACTVS_COMPLEXITY>
285
> <PUBCHEM_CACTVS_HBOND_ACCEPTOR>
5
> <PUBCHEM_CACTVS_HBOND_DONOR>
3
> <PUBCHEM_CACTVS_ROTATABLE_BOND>
3
> <PUBCHEM_CACTVS_SUBSKEYS>
AAADccBwOAAGAAAAAAAAAAAAAAAAAAAAAAA0QAAAAAAAAAABAAAAGgIACAAACBewkGMwDoAABgCAACBCAAACCAAgJQAIiAAGC4gdNiKFMxqieCClwBEPqAfAYAwAACAAAAAAAAAAQAAAAAAAAAAAAAAAAA==
> <PUBCHEM_IUPAC_OPENEYE_NAME>
(2S,3S,4R,5R,6R)-4-chloro-2-(4-chlorophenoxy)-6-(hydroxymethyl)tetrahydropyran-3,5-diol
> <PUBCHEM_IUPAC_CAS_NAME>
(2S,3S,4R,5R,6R)-4-chloro-2-(4-chlorophenoxy)-6-(hydroxymethyl)oxane-3,5-diol
> <PUBCHEM_IUPAC_NAME_MARKUP>
(2<I>S</I>,3<I>S</I>,4<I>R</I>,5<I>R</I>,6<I>R</I>)-4-chloro-2-(4-chlorophenoxy)-6-(hydroxymethyl)oxane-3,5-diol
> <PUBCHEM_IUPAC_NAME>
(2S,3S,4R,5R,6R)-4-chloro-2-(4-chlorophenoxy)-6-(hydroxymethyl)oxane-3,5-diol
> <PUBCHEM_IUPAC_SYSTEMATIC_NAME>
(2S,3S,4R,5R,6R)-4-chloranyl-2-(4-chloranylphenoxy)-6-(hydroxymethyl)oxane-3,5-diol
> <PUBCHEM_IUPAC_TRADITIONAL_NAME>
(2S,3S,4R,5R,6R)-4-chloro-2-(4-chlorophenoxy)-6-methylol-tetrahydropyran-3,5-diol
> <PUBCHEM_IUPAC_INCHI>
InChI=1S/C12H14Cl2O5/c13-6-1-3-7(4-2-6)18-12-11(17)9(14)10(16)8(5-15)19-12/h1-4,8-12,15-17H,5H2/t8-,9-,10-,11-,12-/m1/s1
> <PUBCHEM_IUPAC_INCHIKEY>
YATAWMZWJPKMHG-LZQZFOIKSA-N
> <PUBCHEM_XLOGP3>
1.5
> <PUBCHEM_EXACT_MASS>
308.0218289
> <PUBCHEM_MOLECULAR_FORMULA>
C12H14Cl2O5
> <PUBCHEM_MOLECULAR_WEIGHT>
309.14
> <PUBCHEM_OPENEYE_CAN_SMILES>
C1=CC(=CC=C1OC2C(C(C(C(O2)CO)O)Cl)O)Cl
> <PUBCHEM_OPENEYE_ISO_SMILES>
C1=CC(=CC=C1O[C@H]2[C@@H]([C@@H]([C@@H]([C@H](O2)CO)O)Cl)O)Cl
> <PUBCHEM_CACTVS_TPSA>
79.2
> <PUBCHEM_MONOISOTOPIC_WEIGHT>
308.0218289
> <PUBCHEM_TOTAL_CHARGE>
0
> <PUBCHEM_HEAVY_ATOM_COUNT>
19
> <PUBCHEM_ATOM_DEF_STEREO_COUNT>
5
> <PUBCHEM_ATOM_UDEF_STEREO_COUNT>
0
> <PUBCHEM_BOND_DEF_STEREO_COUNT>
0
> <PUBCHEM_BOND_UDEF_STEREO_COUNT>
0
> <PUBCHEM_ISOTOPIC_ATOM_COUNT>
0
> <PUBCHEM_COMPONENT_COUNT>
1
> <PUBCHEM_CACTVS_TAUTO_COUNT>
-1
> <PUBCHEM_COORDINATE_TYPE>
1
5
255
> <PUBCHEM_BONDANNOTATIONS>
9  1  6
10  13  5
14  15  8
14  16  8
15  17  8
16  18  8
17  19  8
18  19  8
12  4  5
8  5  6
11  6  6
$$$$
