511921
  -OEChem-10302200282D
 47 50  0     1  0  0  0  0  0999 V2000
    4.9575    1.1629    0.0000 N   0  0  3  0  0  0  0  0  0  0  0  0
    4.5092   -0.5102    0.0000 C   0  0  0  0  0  0  0  0  0  0  0  0
    3.6730   -0.0274    0.0000 C   0  0  0  0  0  0  0  0  0  0  0  0
    4.5092   -1.4757    0.0000 C   0  0  0  0  0  0  0  0  0  0  0  0
    2.8368   -1.4757    0.0000 C   0  0  0  0  0  0  0  0  0  0  0  0
    2.9819   -1.9108    0.0000 C   0  0  0  0  0  0  0  0  0  0  0  0
    2.8368   -0.5102    0.0000 C   0  0  0  0  0  0  0  0  0  0  0  0
    2.9819   -0.8655    0.0000 C   0  0  0  0  0  0  0  0  0  0  0  0
    3.6730   -1.7785    0.0000 C   0  0  0  0  0  0  0  0  0  0  0  0
    3.8876   -2.3876    0.0000 C   0  0  0  0  0  0  0  0  0  0  0  0
    2.0000   -1.9585    0.0000 C   0  0  0  0  0  0  0  0  0  0  0  0
    5.2163    0.1969    0.0000 C   0  0  3  0  0  0  0  0  0  0  0  0
    6.1822   -0.0619    0.0000 C   0  0  0  0  0  0  0  0  0  0  0  0
    6.8893    0.6452    0.0000 C   0  0  0  0  0  0  0  0  0  0  0  0
    5.6646    1.8700    0.0000 C   0  0  0  0  0  0  0  0  0  0  0  0
    6.6305    1.6112    0.0000 C   0  0  0  0  0  0  0  0  0  0  0  0
    3.9915    1.4217    0.0000 C   0  0  0  0  0  0  0  0  0  0  0  0
    3.7327    2.3876    0.0000 C   0  0  0  0  0  0  0  0  0  0  0  0
    5.0820   -0.7474    0.0000 H   0  0  0  0  0  0  0  0  0  0  0  0
    3.6730    0.5926    0.0000 H   0  0  0  0  0  0  0  0  0  0  0  0
    5.1016   -1.6584    0.0000 H   0  0  0  0  0  0  0  0  0  0  0  0
    3.3444   -1.1197    0.0000 H   0  0  0  0  0  0  0  0  0  0  0  0
    2.8478   -2.5161    0.0000 H   0  0  0  0  0  0  0  0  0  0  0  0
    2.6247    0.0724    0.0000 H   0  0  0  0  0  0  0  0  0  0  0  0
    2.2262   -0.6178    0.0000 H   0  0  0  0  0  0  0  0  0  0  0  0
    2.6383   -0.3495    0.0000 H   0  0  0  0  0  0  0  0  0  0  0  0
    2.3885   -1.0450    0.0000 H   0  0  0  0  0  0  0  0  0  0  0  0
    3.3030   -2.2760    0.0000 H   0  0  0  0  0  0  0  0  0  0  0  0
    4.0430   -2.2760    0.0000 H   0  0  0  0  0  0  0  0  0  0  0  0
    3.5782   -2.9249    0.0000 H   0  0  0  0  0  0  0  0  0  0  0  0
    4.4127   -2.7172    0.0000 H   0  0  0  0  0  0  0  0  0  0  0  0
    1.5188   -1.5676    0.0000 H   0  0  0  0  0  0  0  0  0  0  0  0
    1.8068   -2.5476    0.0000 H   0  0  0  0  0  0  0  0  0  0  0  0
    5.6547    0.6353    0.0000 H   0  0  0  0  0  0  0  0  0  0  0  0
    5.9202   -0.6238    0.0000 H   0  0  0  0  0  0  0  0  0  0  0  0
    6.6901   -0.4175    0.0000 H   0  0  0  0  0  0  0  0  0  0  0  0
    7.2449    0.1374    0.0000 H   0  0  0  0  0  0  0  0  0  0  0  0
    7.4512    0.9073    0.0000 H   0  0  0  0  0  0  0  0  0  0  0  0
    5.9266    2.4319    0.0000 H   0  0  0  0  0  0  0  0  0  0  0  0
    5.1567    2.2256    0.0000 H   0  0  0  0  0  0  0  0  0  0  0  0
    7.2481    1.6652    0.0000 H   0  0  0  0  0  0  0  0  0  0  0  0
    6.6845    2.2288    0.0000 H   0  0  0  0  0  0  0  0  0  0  0  0
    3.3739    1.3676    0.0000 H   0  0  0  0  0  0  0  0  0  0  0  0
    3.9375    0.8040    0.0000 H   0  0  0  0  0  0  0  0  0  0  0  0
    4.3316    2.5481    0.0000 H   0  0  0  0  0  0  0  0  0  0  0  0
    3.5722    2.9865    0.0000 H   0  0  0  0  0  0  0  0  0  0  0  0
    3.1338    2.2271    0.0000 H   0  0  0  0  0  0  0  0  0  0  0  0
  1 12  1  0  0  0  0
  1 15  1  0  0  0  0
  1 17  1  0  0  0  0
  2  3  1  0  0  0  0
  2  4  1  0  0  0  0
  2 12  1  0  0  0  0
  2 19  1  0  0  0  0
  3  7  1  0  0  0  0
  3  8  1  0  0  0  0
  3 20  1  0  0  0  0
  4  9  1  0  0  0  0
  4 10  1  0  0  0  0
  4 21  1  0  0  0  0
  5  7  1  0  0  0  0
  5  9  1  0  0  0  0
  5 11  1  0  0  0  0
  5 22  1  0  0  0  0
  6  8  1  0  0  0  0
  6 10  1  0  0  0  0
  6 11  1  0  0  0  0
  6 23  1  0  0  0  0
  7 24  1  0  0  0  0
  7 25  1  0  0  0  0
  8 26  1  0  0  0  0
  8 27  1  0  0  0  0
  9 28  1  0  0  0  0
  9 29  1  0  0  0  0
 10 30  1  0  0  0  0
 10 31  1  0  0  0  0
 11 32  1  0  0  0  0
 11 33  1  0  0  0  0
 12 13  1  0  0  0  0
 12 34  1  0  0  0  0
 13 14  1  0  0  0  0
 13 35  1  0  0  0  0
 13 36  1  0  0  0  0
 14 16  1  0  0  0  0
 14 37  1  0  0  0  0
 14 38  1  0  0  0  0
 15 16  1  0  0  0  0
 15 39  1  0  0  0  0
 15 40  1  0  0  0  0
 16 41  1  0  0  0  0
 16 42  1  0  0  0  0
 17 18  1  0  0  0  0
 17 43  1  0  0  0  0
 17 44  1  0  0  0  0
 18 45  1  0  0  0  0
 18 46  1  0  0  0  0
 18 47  1  0  0  0  0
M  END
> <PUBCHEM_COMPOUND_CID>
511921
> <PUBCHEM_COMPOUND_CANONICALIZED>
1
> <PUBCHEM_CACTVS_COMPLEXITY>
283
> <PUBCHEM_CACTVS_HBOND_ACCEPTOR>
1
> <PUBCHEM_CACTVS_HBOND_DONOR>
0
> <PUBCHEM_CACTVS_ROTATABLE_BOND>
2
> <PUBCHEM_CACTVS_SUBSKEYS>
AAADceB6AAAAAAAAAAAAAAAAAAAAAAAAAAA8YMGCAAAAAAAAAAAAHAAAAAAADSjBAAQCAAMAAAAAAAAAAAAAAAAAAAAAAAAIAAAAAAIAgAAEAAAAAACAAAEQgMAOgAAAAAAAAACAAAQAACAAAAAAAAAAAA==
> <PUBCHEM_IUPAC_OPENEYE_NAME>
2-(2-adamantyl)-1-ethyl-piperidine
> <PUBCHEM_IUPAC_CAS_NAME>
2-(2-adamantyl)-1-ethylpiperidine
> <PUBCHEM_IUPAC_NAME_MARKUP>
2-(2-adamantyl)-1-ethylpiperidine
> <PUBCHEM_IUPAC_NAME>
2-(2-adamantyl)-1-ethylpiperidine
> <PUBCHEM_IUPAC_SYSTEMATIC_NAME>
2-(2-adamantyl)-1-ethyl-piperidine
> <PUBCHEM_IUPAC_TRADITIONAL_NAME>
2-(2-adamantyl)-1-ethyl-piperidine
> <PUBCHEM_IUPAC_INCHI>
InChI=1S/C17H29N/c1-2-18-6-4-3-5-16(18)17-14-8-12-7-13(10-14)11-15(17)9-12/h12-17H,2-11H2,1H3
> <PUBCHEM_IUPAC_INCHIKEY>
XLAGMECHVFKECM-UHFFFAOYSA-N
> <PUBCHEM_XLOGP3_AA>
4.9
> <PUBCHEM_EXACT_MASS>
247.229999929
> <PUBCHEM_MOLECULAR_FORMULA>
C17H29N
> <PUBCHEM_MOLECULAR_WEIGHT>
247.4
> <PUBCHEM_OPENEYE_CAN_SMILES>
CCN1CCCCC1C2C3CC4CC(C3)CC2C4
> <PUBCHEM_OPENEYE_ISO_SMILES>
CCN1CCCCC1C2C3CC4CC(C3)CC2C4
> <PUBCHEM_CACTVS_TPSA>
3.2
> <PUBCHEM_MONOISOTOPIC_WEIGHT>
247.229999929
> <PUBCHEM_TOTAL_CHARGE>
0
> <PUBCHEM_HEAVY_ATOM_COUNT>
18
> <PUBCHEM_ATOM_DEF_STEREO_COUNT>
0
> <PUBCHEM_ATOM_UDEF_STEREO_COUNT>
1
> <PUBCHEM_BOND_DEF_STEREO_COUNT>
0
> <PUBCHEM_BOND_UDEF_STEREO_COUNT>
0
> <PUBCHEM_ISOTOPIC_ATOM_COUNT>
0
> <PUBCHEM_COMPONENT_COUNT>
1
> <PUBCHEM_CACTVS_TAUTO_COUNT>
-1
> <PUBCHEM_COORDINATE_TYPE>
1
5
255
> <PUBCHEM_BONDANNOTATIONS>
12  2  3
$$$$
