511992
  -OEChem-10302200282D
 38 39  0     1  0  0  0  0  0999 V2000
    8.0052   -1.2153    0.0000 O   0  0  0  0  0  0  0  0  0  0  0  0
    6.1084   -2.9754    0.0000 O   0  0  0  0  0  0  0  0  0  0  0  0
    9.2785   -2.8709    0.0000 O   0  0  0  0  0  0  0  0  0  0  0  0
    8.9282    0.3725    0.0000 O   0  0  0  0  0  0  0  0  0  0  0  0
    7.1962    3.3725    0.0000 O   0  0  0  0  0  0  0  0  0  0  0  0
    2.8660    1.8725    0.0000 O   0  0  0  0  0  0  0  0  0  0  0  0
    3.7320    3.3725    0.0000 O   0  0  0  0  0  0  0  0  0  0  0  0
    7.1962    0.3725    0.0000 N   0  0  0  0  0  0  0  0  0  0  0  0
    8.0622    1.8725    0.0000 N   0  0  0  0  0  0  0  0  0  0  0  0
    6.6962   -2.1664    0.0000 C   0  0  1  0  0  0  0  0  0  0  0  0
    7.1962   -0.6275    0.0000 C   0  0  1  0  0  0  0  0  0  0  0  0
    6.3871   -1.2153    0.0000 C   0  0  0  0  0  0  0  0  0  0  0  0
    7.6962   -2.1664    0.0000 C   0  0  1  0  0  0  0  0  0  0  0  0
    8.2839   -2.9754    0.0000 C   0  0  0  0  0  0  0  0  0  0  0  0
    6.3301    0.8725    0.0000 C   0  0  0  0  0  0  0  0  0  0  0  0
    8.0622    0.8725    0.0000 C   0  0  0  0  0  0  0  0  0  0  0  0
    6.3301    1.8725    0.0000 C   0  0  0  0  0  0  0  0  0  0  0  0
    7.1962    2.3725    0.0000 C   0  0  0  0  0  0  0  0  0  0  0  0
    5.4641    2.3725    0.0000 C   0  0  0  0  0  0  0  0  0  0  0  0
    4.5981    1.8725    0.0000 C   0  0  0  0  0  0  0  0  0  0  0  0
    3.7320    2.3725    0.0000 C   0  0  0  0  0  0  0  0  0  0  0  0
    2.0000    2.3725    0.0000 C   0  0  0  0  0  0  0  0  0  0  0  0
    6.0838   -2.0694    0.0000 H   0  0  0  0  0  0  0  0  0  0  0  0
    6.6437   -0.3461    0.0000 H   0  0  0  0  0  0  0  0  0  0  0  0
    6.0771   -0.6784    0.0000 H   0  0  0  0  0  0  0  0  0  0  0  0
    5.8207   -1.4675    0.0000 H   0  0  0  0  0  0  0  0  0  0  0  0
    8.3085   -2.0694    0.0000 H   0  0  0  0  0  0  0  0  0  0  0  0
    7.7267   -3.2472    0.0000 H   0  0  0  0  0  0  0  0  0  0  0  0
    8.4548   -3.5714    0.0000 H   0  0  0  0  0  0  0  0  0  0  0  0
    5.4918   -2.9106    0.0000 H   0  0  0  0  0  0  0  0  0  0  0  0
    5.7932    0.5625    0.0000 H   0  0  0  0  0  0  0  0  0  0  0  0
    8.5991    2.1825    0.0000 H   0  0  0  0  0  0  0  0  0  0  0  0
    9.6429   -3.3725    0.0000 H   0  0  0  0  0  0  0  0  0  0  0  0
    5.4641    2.9925    0.0000 H   0  0  0  0  0  0  0  0  0  0  0  0
    4.5981    1.2525    0.0000 H   0  0  0  0  0  0  0  0  0  0  0  0
    2.3100    2.9094    0.0000 H   0  0  0  0  0  0  0  0  0  0  0  0
    1.4631    2.6825    0.0000 H   0  0  0  0  0  0  0  0  0  0  0  0
    1.6900    1.8355    0.0000 H   0  0  0  0  0  0  0  0  0  0  0  0
  1 11  1  0  0  0  0
  1 13  1  0  0  0  0
 10  2  1  1  0  0  0
  2 30  1  0  0  0  0
  3 14  1  0  0  0  0
  3 33  1  0  0  0  0
  4 16  2  0  0  0  0
  5 18  2  0  0  0  0
  6 21  1  0  0  0  0
  6 22  1  0  0  0  0
  7 21  2  0  0  0  0
 11  8  1  6  0  0  0
  8 15  1  0  0  0  0
  8 16  1  0  0  0  0
  9 16  1  0  0  0  0
  9 18  1  0  0  0  0
  9 32  1  0  0  0  0
 10 12  1  0  0  0  0
 10 13  1  0  0  0  0
 10 23  1  0  0  0  0
 11 12  1  0  0  0  0
 11 24  1  0  0  0  0
 12 25  1  0  0  0  0
 12 26  1  0  0  0  0
 13 14  1  6  0  0  0
 13 27  1  0  0  0  0
 14 28  1  0  0  0  0
 14 29  1  0  0  0  0
 15 17  2  0  0  0  0
 15 31  1  0  0  0  0
 17 18  1  0  0  0  0
 17 19  1  0  0  0  0
 19 20  2  3  0  0  0
 19 34  1  0  0  0  0
 20 21  1  0  0  0  0
 20 35  1  0  0  0  0
 22 36  1  0  0  0  0
 22 37  1  0  0  0  0
 22 38  1  0  0  0  0
M  END
> <PUBCHEM_COMPOUND_CID>
511992
> <PUBCHEM_COMPOUND_CANONICALIZED>
1
> <PUBCHEM_CACTVS_COMPLEXITY>
543
> <PUBCHEM_CACTVS_HBOND_ACCEPTOR>
7
> <PUBCHEM_CACTVS_HBOND_DONOR>
3
> <PUBCHEM_CACTVS_ROTATABLE_BOND>
5
> <PUBCHEM_CACTVS_SUBSKEYS>
AAADceBzOAAAAAAAAAAAAAAAAAAAASAAAAAgAAAAAAAAAAAAAAAAHgAQCAAADBThgAYDCAPABgCIAiHWWACAAAAgAAAICAEIAEiJFAIAoQAOUAAPByILocKwMAIAAAAAAAAAAAAAAAAAAAAAAAAAAAAAAA==
> <PUBCHEM_IUPAC_OPENEYE_NAME>
methyl 3-[1-[(2R,4S,5R)-4-hydroxy-5-(hydroxymethyl)tetrahydrofuran-2-yl]-2,4-dioxo-pyrimidin-5-yl]prop-2-enoate
> <PUBCHEM_IUPAC_CAS_NAME>
3-[1-[(2R,4S,5R)-4-hydroxy-5-(hydroxymethyl)-2-oxolanyl]-2,4-dioxo-5-pyrimidinyl]-2-propenoic acid methyl ester
> <PUBCHEM_IUPAC_NAME_MARKUP>
methyl 3-[1-[(2<I>R</I>,4<I>S</I>,5<I>R</I>)-4-hydroxy-5-(hydroxymethyl)oxolan-2-yl]-2,4-dioxopyrimidin-5-yl]prop-2-enoate
> <PUBCHEM_IUPAC_NAME>
methyl 3-[1-[(2R,4S,5R)-4-hydroxy-5-(hydroxymethyl)oxolan-2-yl]-2,4-dioxopyrimidin-5-yl]prop-2-enoate
> <PUBCHEM_IUPAC_SYSTEMATIC_NAME>
methyl 3-[1-[(2R,4S,5R)-5-(hydroxymethyl)-4-oxidanyl-oxolan-2-yl]-2,4-bis(oxidanylidene)pyrimidin-5-yl]prop-2-enoate
> <PUBCHEM_IUPAC_TRADITIONAL_NAME>
3-[1-[(2R,4S,5R)-4-hydroxy-5-methylol-tetrahydrofuran-2-yl]-2,4-diketo-pyrimidin-5-yl]acrylic acid methyl ester
> <PUBCHEM_IUPAC_INCHI>
InChI=1S/C13H16N2O7/c1-21-11(18)3-2-7-5-15(13(20)14-12(7)19)10-4-8(17)9(6-16)22-10/h2-3,5,8-10,16-17H,4,6H2,1H3,(H,14,19,20)/t8-,9+,10+/m0/s1
> <PUBCHEM_IUPAC_INCHIKEY>
RKTRMSPWWLPPAY-IVZWLZJFSA-N
> <PUBCHEM_XLOGP3>
-1.3
> <PUBCHEM_EXACT_MASS>
312.09575085
> <PUBCHEM_MOLECULAR_FORMULA>
C13H16N2O7
> <PUBCHEM_MOLECULAR_WEIGHT>
312.27
> <PUBCHEM_OPENEYE_CAN_SMILES>
COC(=O)C=CC1=CN(C(=O)NC1=O)C2CC(C(O2)CO)O
> <PUBCHEM_OPENEYE_ISO_SMILES>
COC(=O)C=CC1=CN(C(=O)NC1=O)[C@H]2C[C@@H]([C@H](O2)CO)O
> <PUBCHEM_CACTVS_TPSA>
125
> <PUBCHEM_MONOISOTOPIC_WEIGHT>
312.09575085
> <PUBCHEM_TOTAL_CHARGE>
0
> <PUBCHEM_HEAVY_ATOM_COUNT>
22
> <PUBCHEM_ATOM_DEF_STEREO_COUNT>
3
> <PUBCHEM_ATOM_UDEF_STEREO_COUNT>
0
> <PUBCHEM_BOND_DEF_STEREO_COUNT>
0
> <PUBCHEM_BOND_UDEF_STEREO_COUNT>
1
> <PUBCHEM_ISOTOPIC_ATOM_COUNT>
0
> <PUBCHEM_COMPONENT_COUNT>
1
> <PUBCHEM_CACTVS_TAUTO_COUNT>
-1
> <PUBCHEM_COORDINATE_TYPE>
1
5
255
> <PUBCHEM_BONDANNOTATIONS>
13  14  6
15  17  8
17  18  8
19  20  1
10  2  5
11  8  6
8  15  8
8  16  8
9  16  8
9  18  8
$$$$
