511988
  -OEChem-10302200282D
 39 41  0     1  0  0  0  0  0999 V2000
    5.3387    2.8812    0.0000 F   0  0  0  0  0  0  0  0  0  0  0  0
    4.5521    3.7548    0.0000 F   0  0  0  0  0  0  0  0  0  0  0  0
    2.5000    3.4846    0.0000 F   0  0  0  0  0  0  0  0  0  0  0  0
    3.5739    3.9628    0.0000 F   0  0  0  0  0  0  0  0  0  0  0  0
    2.1229    1.4494    0.0000 F   0  0  0  0  0  0  0  0  0  0  0  0
    2.0000    2.6186    0.0000 F   0  0  0  0  0  0  0  0  0  0  0  0
    3.3272    0.3973    0.0000 F   0  0  0  0  0  0  0  0  0  0  0  0
    6.9898   -1.8056    0.0000 O   0  0  0  0  0  0  0  0  0  0  0  0
    5.0930   -3.5657    0.0000 O   0  0  0  0  0  0  0  0  0  0  0  0
    8.2631   -3.4612    0.0000 O   0  0  0  0  0  0  0  0  0  0  0  0
    7.9128   -0.2178    0.0000 O   0  0  0  0  0  0  0  0  0  0  0  0
    6.1808    2.7822    0.0000 O   0  0  0  0  0  0  0  0  0  0  0  0
    6.1808   -0.2178    0.0000 N   0  0  0  0  0  0  0  0  0  0  0  0
    7.0468    1.2822    0.0000 N   0  0  0  0  0  0  0  0  0  0  0  0
    6.1808   -1.2178    0.0000 C   0  0  1  0  0  0  0  0  0  0  0  0
    5.3717   -1.8056    0.0000 C   0  0  0  0  0  0  0  0  0  0  0  0
    5.6808   -2.7567    0.0000 C   0  0  1  0  0  0  0  0  0  0  0  0
    6.6808   -2.7567    0.0000 C   0  0  1  0  0  0  0  0  0  0  0  0
    4.4487    1.7822    0.0000 C   0  0  0  0  0  0  0  0  0  0  0  0
    4.3442    2.7767    0.0000 C   0  0  0  0  0  0  0  0  0  0  0  0
    3.3660    2.9846    0.0000 C   0  0  0  0  0  0  0  0  0  0  0  0
    5.3147    1.2822    0.0000 C   0  0  0  0  0  0  0  0  0  0  0  0
    7.2685   -3.5657    0.0000 C   0  0  0  0  0  0  0  0  0  0  0  0
    2.8660    2.1186    0.0000 C   0  0  0  0  0  0  0  0  0  0  0  0
    5.3147    0.2822    0.0000 C   0  0  0  0  0  0  0  0  0  0  0  0
    3.5352    1.3754    0.0000 C   0  0  0  0  0  0  0  0  0  0  0  0
    7.0468    0.2822    0.0000 C   0  0  0  0  0  0  0  0  0  0  0  0
    6.1808    1.7822    0.0000 C   0  0  0  0  0  0  0  0  0  0  0  0
    6.7332   -0.9364    0.0000 H   0  0  0  0  0  0  0  0  0  0  0  0
    5.0617   -1.2687    0.0000 H   0  0  0  0  0  0  0  0  0  0  0  0
    4.8053   -2.0578    0.0000 H   0  0  0  0  0  0  0  0  0  0  0  0
    5.9622   -3.3091    0.0000 H   0  0  0  0  0  0  0  0  0  0  0  0
    7.2931   -2.6597    0.0000 H   0  0  0  0  0  0  0  0  0  0  0  0
    6.7113   -3.8375    0.0000 H   0  0  0  0  0  0  0  0  0  0  0  0
    7.4394   -4.1617    0.0000 H   0  0  0  0  0  0  0  0  0  0  0  0
    4.7778   -0.0278    0.0000 H   0  0  0  0  0  0  0  0  0  0  0  0
    4.4764   -3.5009    0.0000 H   0  0  0  0  0  0  0  0  0  0  0  0
    7.5837    1.5922    0.0000 H   0  0  0  0  0  0  0  0  0  0  0  0
    8.6275   -3.9628    0.0000 H   0  0  0  0  0  0  0  0  0  0  0  0
  1 20  1  0  0  0  0
  2 20  1  0  0  0  0
  3 21  1  0  0  0  0
  4 21  1  0  0  0  0
  5 24  1  0  0  0  0
  6 24  1  0  0  0  0
  7 26  1  0  0  0  0
  8 15  1  0  0  0  0
  8 18  1  0  0  0  0
 17  9  1  1  0  0  0
  9 37  1  0  0  0  0
 10 23  1  0  0  0  0
 10 39  1  0  0  0  0
 11 27  2  0  0  0  0
 12 28  2  0  0  0  0
 15 13  1  6  0  0  0
 13 25  1  0  0  0  0
 13 27  1  0  0  0  0
 14 27  1  0  0  0  0
 14 28  1  0  0  0  0
 14 38  1  0  0  0  0
 15 16  1  0  0  0  0
 15 29  1  0  0  0  0
 16 17  1  0  0  0  0
 16 30  1  0  0  0  0
 16 31  1  0  0  0  0
 17 18  1  0  0  0  0
 17 32  1  0  0  0  0
 18 23  1  6  0  0  0
 18 33  1  0  0  0  0
 19 20  1  0  0  0  0
 19 22  1  0  0  0  0
 19 26  2  0  0  0  0
 20 21  1  0  0  0  0
 21 24  1  0  0  0  0
 22 25  2  0  0  0  0
 22 28  1  0  0  0  0
 23 34  1  0  0  0  0
 23 35  1  0  0  0  0
 24 26  1  0  0  0  0
 25 36  1  0  0  0  0
M  END
> <PUBCHEM_COMPOUND_CID>
511988
> <PUBCHEM_COMPOUND_CANONICALIZED>
1
> <PUBCHEM_CACTVS_COMPLEXITY>
797
> <PUBCHEM_CACTVS_HBOND_ACCEPTOR>
12
> <PUBCHEM_CACTVS_HBOND_DONOR>
3
> <PUBCHEM_CACTVS_ROTATABLE_BOND>
3
> <PUBCHEM_CACTVS_SUBSKEYS>
AAADccBzOcAAAAAAAAAAAAAAAAAAASIAAAAgAAAAAAAAAAAAAAAAHwAQCAAADBThgBYBAAPABgCIAgFWUACAAAAgAAAACAEIAEiJEBIAgAAOQAAPhyILgMO4uAKAAAAAAAAAAAAAAAAAAAAAAAAAAAAAAA==
> <PUBCHEM_IUPAC_OPENEYE_NAME>
5-(2,3,3,4,4,5,5-heptafluorocyclopenten-1-yl)-1-[(2R,4S,5R)-4-hydroxy-5-(hydroxymethyl)tetrahydrofuran-2-yl]pyrimidine-2,4-dione
> <PUBCHEM_IUPAC_CAS_NAME>
5-(2,3,3,4,4,5,5-heptafluoro-1-cyclopentenyl)-1-[(2R,4S,5R)-4-hydroxy-5-(hydroxymethyl)-2-oxolanyl]pyrimidine-2,4-dione
> <PUBCHEM_IUPAC_NAME_MARKUP>
5-(2,3,3,4,4,5,5-heptafluorocyclopenten-1-yl)-1-[(2<I>R</I>,4<I>S</I>,5<I>R</I>)-4-hydroxy-5-(hydroxymethyl)oxolan-2-yl]pyrimidine-2,4-dione
> <PUBCHEM_IUPAC_NAME>
5-(2,3,3,4,4,5,5-heptafluorocyclopenten-1-yl)-1-[(2R,4S,5R)-4-hydroxy-5-(hydroxymethyl)oxolan-2-yl]pyrimidine-2,4-dione
> <PUBCHEM_IUPAC_SYSTEMATIC_NAME>
5-[2,3,3,4,4,5,5-heptakis(fluoranyl)cyclopenten-1-yl]-1-[(2R,4S,5R)-5-(hydroxymethyl)-4-oxidanyl-oxolan-2-yl]pyrimidine-2,4-dione
> <PUBCHEM_IUPAC_TRADITIONAL_NAME>
5-(2,3,3,4,4,5,5-heptafluorocyclopenten-1-yl)-1-[(2R,4S,5R)-4-hydroxy-5-methylol-tetrahydrofuran-2-yl]pyrimidine-2,4-quinone
> <PUBCHEM_IUPAC_INCHI>
InChI=1S/C14H11F7N2O5/c15-9-8(12(16,17)14(20,21)13(9,18)19)4-2-23(11(27)22-10(4)26)7-1-5(25)6(3-24)28-7/h2,5-7,24-25H,1,3H2,(H,22,26,27)/t5-,6+,7+/m0/s1
> <PUBCHEM_IUPAC_INCHIKEY>
HBEWTGAPDNJOPE-RRKCRQDMSA-N
> <PUBCHEM_XLOGP3>
0
> <PUBCHEM_EXACT_MASS>
420.05561859
> <PUBCHEM_MOLECULAR_FORMULA>
C14H11F7N2O5
> <PUBCHEM_MOLECULAR_WEIGHT>
420.24
> <PUBCHEM_OPENEYE_CAN_SMILES>
C1C(C(OC1N2C=C(C(=O)NC2=O)C3=C(C(C(C3(F)F)(F)F)(F)F)F)CO)O
> <PUBCHEM_OPENEYE_ISO_SMILES>
C1[C@@H]([C@H](O[C@H]1N2C=C(C(=O)NC2=O)C3=C(C(C(C3(F)F)(F)F)(F)F)F)CO)O
> <PUBCHEM_CACTVS_TPSA>
99.1
> <PUBCHEM_MONOISOTOPIC_WEIGHT>
420.05561859
> <PUBCHEM_TOTAL_CHARGE>
0
> <PUBCHEM_HEAVY_ATOM_COUNT>
28
> <PUBCHEM_ATOM_DEF_STEREO_COUNT>
3
> <PUBCHEM_ATOM_UDEF_STEREO_COUNT>
0
> <PUBCHEM_BOND_DEF_STEREO_COUNT>
0
> <PUBCHEM_BOND_UDEF_STEREO_COUNT>
0
> <PUBCHEM_ISOTOPIC_ATOM_COUNT>
0
> <PUBCHEM_COMPONENT_COUNT>
1
> <PUBCHEM_CACTVS_TAUTO_COUNT>
-1
> <PUBCHEM_COORDINATE_TYPE>
1
5
255
> <PUBCHEM_BONDANNOTATIONS>
15  13  6
13  25  8
13  27  8
14  27  8
14  28  8
18  23  6
22  25  8
22  28  8
17  9  5
$$$$
