512011
  -OEChem-10302200282D
 36 37  0     1  0  0  0  0  0999 V2000
    7.3704   -0.0490    0.0000 O   0  0  0  0  0  0  0  0  0  0  0  0
    4.2690   -4.0105    0.0000 O   0  0  0  0  0  0  0  0  0  0  0  0
    8.9702    2.0582    0.0000 O   0  0  0  0  0  0  0  0  0  0  0  0
   10.6166    1.5201    0.0000 O   0  0  0  0  0  0  0  0  0  0  0  0
    6.0812   -1.2058    0.0000 N   0  0  0  0  0  0  0  0  0  0  0  0
    6.0812   -2.8152    0.0000 N   0  0  0  0  0  0  0  0  0  0  0  0
    4.2690   -1.0105    0.0000 N   0  0  0  0  0  0  0  0  0  0  0  0
    3.4030   -2.5105    0.0000 N   0  0  0  0  0  0  0  0  0  0  0  0
    2.5369   -1.0105    0.0000 N   0  0  0  0  0  0  0  0  0  0  0  0
   11.2379    3.4212    0.0000 N   0  0  0  0  0  0  0  0  0  0  0  0
    5.1350   -1.5105    0.0000 C   0  0  3  0  0  0  0  0  0  0  0  0
    5.1350   -2.5105    0.0000 C   0  0  3  0  0  0  0  0  0  0  0  0
    4.2690   -3.0105    0.0000 C   0  0  0  0  0  0  0  0  0  0  0  0
    6.6648   -2.0105    0.0000 C   0  0  0  0  0  0  0  0  0  0  0  0
    6.3919   -0.2553    0.0000 C   0  0  0  0  0  0  0  0  0  0  0  0
    3.4030   -1.5105    0.0000 C   0  0  0  0  0  0  0  0  0  0  0  0
    7.6811    0.9015    0.0000 C   0  0  0  0  0  0  0  0  0  0  0  0
    8.6596    1.1077    0.0000 C   0  0  0  0  0  0  0  0  0  0  0  0
    9.9487    2.2644    0.0000 C   0  0  0  0  0  0  0  0  0  0  0  0
   10.2594    3.2150    0.0000 C   0  0  0  0  0  0  0  0  0  0  0  0
    5.2250   -0.6653    0.0000 H   0  0  0  0  0  0  0  0  0  0  0  0
    5.2250   -3.3557    0.0000 H   0  0  0  0  0  0  0  0  0  0  0  0
    7.2848   -2.0105    0.0000 H   0  0  0  0  0  0  0  0  0  0  0  0
    6.3713    0.3644    0.0000 H   0  0  0  0  0  0  0  0  0  0  0  0
    5.7781   -0.1679    0.0000 H   0  0  0  0  0  0  0  0  0  0  0  0
    2.8660   -2.8205    0.0000 H   0  0  0  0  0  0  0  0  0  0  0  0
    7.6605    1.5211    0.0000 H   0  0  0  0  0  0  0  0  0  0  0  0
    7.0672    0.9888    0.0000 H   0  0  0  0  0  0  0  0  0  0  0  0
    2.5369   -0.3905    0.0000 H   0  0  0  0  0  0  0  0  0  0  0  0
    2.0000   -1.3205    0.0000 H   0  0  0  0  0  0  0  0  0  0  0  0
    8.6801    0.4880    0.0000 H   0  0  0  0  0  0  0  0  0  0  0  0
    9.2734    1.0204    0.0000 H   0  0  0  0  0  0  0  0  0  0  0  0
   10.2388    3.8346    0.0000 H   0  0  0  0  0  0  0  0  0  0  0  0
    9.6456    3.3023    0.0000 H   0  0  0  0  0  0  0  0  0  0  0  0
   11.4305    4.0105    0.0000 H   0  0  0  0  0  0  0  0  0  0  0  0
   11.6520    2.9597    0.0000 H   0  0  0  0  0  0  0  0  0  0  0  0
  1 15  1  0  0  0  0
  1 17  1  0  0  0  0
  2 13  2  0  0  0  0
  3 18  1  0  0  0  0
  3 19  1  0  0  0  0
  4 19  2  0  0  0  0
  5 11  1  0  0  0  0
  5 14  1  0  0  0  0
  5 15  1  0  0  0  0
  6 12  1  0  0  0  0
  6 14  2  0  0  0  0
  7 11  1  0  0  0  0
  7 16  2  0  0  0  0
  8 13  1  0  0  0  0
  8 16  1  0  0  0  0
  8 26  1  0  0  0  0
  9 16  1  0  0  0  0
  9 29  1  0  0  0  0
  9 30  1  0  0  0  0
 10 20  1  0  0  0  0
 10 35  1  0  0  0  0
 10 36  1  0  0  0  0
 11 12  1  0  0  0  0
 11 21  1  0  0  0  0
 12 13  1  0  0  0  0
 12 22  1  0  0  0  0
 14 23  1  0  0  0  0
 15 24  1  0  0  0  0
 15 25  1  0  0  0  0
 17 18  1  0  0  0  0
 17 27  1  0  0  0  0
 17 28  1  0  0  0  0
 18 31  1  0  0  0  0
 18 32  1  0  0  0  0
 19 20  1  0  0  0  0
 20 33  1  0  0  0  0
 20 34  1  0  0  0  0
M  END
> <PUBCHEM_COMPOUND_CID>
512011
> <PUBCHEM_COMPOUND_CANONICALIZED>
1
> <PUBCHEM_CACTVS_COMPLEXITY>
451
> <PUBCHEM_CACTVS_HBOND_ACCEPTOR>
7
> <PUBCHEM_CACTVS_HBOND_DONOR>
3
> <PUBCHEM_CACTVS_ROTATABLE_BOND>
7
> <PUBCHEM_CACTVS_SUBSKEYS>
AAADceBzuAAAAAAAAAAAAAAAAAAAAQAAAAAgAAAAAAAAAEAAAAAAHgAQAAAACCjhgAYBCAPABAAoAAGRPAAAAAEAAAABAIGIAACDQAgASAAfAAAAEQICAAAAAAAAAAAAAAAAAAAAAAAAAAAAAAAAAAAAAA==
> <PUBCHEM_IUPAC_OPENEYE_NAME>
2-[(2-amino-6-oxo-4,5-dihydro-1H-purin-9-yl)methoxy]ethyl 2-aminoacetate
> <PUBCHEM_IUPAC_CAS_NAME>
2-aminoacetic acid 2-[(2-amino-6-oxo-4,5-dihydro-1H-purin-9-yl)methoxy]ethyl ester
> <PUBCHEM_IUPAC_NAME_MARKUP>
2-[(2-amino-6-oxo-4,5-dihydro-1<I>H</I>-purin-9-yl)methoxy]ethyl 2-aminoacetate
> <PUBCHEM_IUPAC_NAME>
2-[(2-amino-6-oxo-4,5-dihydro-1H-purin-9-yl)methoxy]ethyl 2-aminoacetate
> <PUBCHEM_IUPAC_SYSTEMATIC_NAME>
2-[(2-azanyl-6-oxidanylidene-4,5-dihydro-1H-purin-9-yl)methoxy]ethyl 2-azanylethanoate
> <PUBCHEM_IUPAC_TRADITIONAL_NAME>
2-aminoacetic acid 2-[(2-amino-6-keto-4,5-dihydro-1H-purin-9-yl)methoxy]ethyl ester
> <PUBCHEM_IUPAC_INCHI>
InChI=1S/C10H16N6O4/c11-3-6(17)20-2-1-19-5-16-4-13-7-8(16)14-10(12)15-9(7)18/h4,7-8H,1-3,5,11H2,(H3,12,14,15,18)
> <PUBCHEM_IUPAC_INCHIKEY>
TYMAJVWKRIOWBD-UHFFFAOYSA-N
> <PUBCHEM_XLOGP3_AA>
-3.1
> <PUBCHEM_EXACT_MASS>
284.12330301
> <PUBCHEM_MOLECULAR_FORMULA>
C10H16N6O4
> <PUBCHEM_MOLECULAR_WEIGHT>
284.27
> <PUBCHEM_OPENEYE_CAN_SMILES>
C1=NC2C(N1COCCOC(=O)CN)N=C(NC2=O)N
> <PUBCHEM_OPENEYE_ISO_SMILES>
C1=NC2C(N1COCCOC(=O)CN)N=C(NC2=O)N
> <PUBCHEM_CACTVS_TPSA>
145
> <PUBCHEM_MONOISOTOPIC_WEIGHT>
284.12330301
> <PUBCHEM_TOTAL_CHARGE>
0
> <PUBCHEM_HEAVY_ATOM_COUNT>
20
> <PUBCHEM_ATOM_DEF_STEREO_COUNT>
0
> <PUBCHEM_ATOM_UDEF_STEREO_COUNT>
2
> <PUBCHEM_BOND_DEF_STEREO_COUNT>
0
> <PUBCHEM_BOND_UDEF_STEREO_COUNT>
0
> <PUBCHEM_ISOTOPIC_ATOM_COUNT>
0
> <PUBCHEM_COMPONENT_COUNT>
1
> <PUBCHEM_CACTVS_TAUTO_COUNT>
8
> <PUBCHEM_COORDINATE_TYPE>
1
5
255
> <PUBCHEM_BONDANNOTATIONS>
11  21  3
12  22  3
$$$$
