512015
  -OEChem-10302200282D
 36 37  0     1  0  0  0  0  0999 V2000
    7.3704   -0.7049    0.0000 O   0  0  0  0  0  0  0  0  0  0  0  0
    4.2690   -4.6664    0.0000 O   0  0  0  0  0  0  0  0  0  0  0  0
    8.9702    1.4024    0.0000 O   0  0  0  0  0  0  0  0  0  0  0  0
   10.6166    0.8643    0.0000 O   0  0  0  0  0  0  0  0  0  0  0  0
    6.0812   -1.8616    0.0000 N   0  0  0  0  0  0  0  0  0  0  0  0
    6.0812   -3.4711    0.0000 N   0  0  0  0  0  0  0  0  0  0  0  0
    4.2690   -1.6664    0.0000 N   0  0  0  0  0  0  0  0  0  0  0  0
    3.4030   -3.1664    0.0000 N   0  0  0  0  0  0  0  0  0  0  0  0
    2.5369   -1.6664    0.0000 N   0  0  0  0  0  0  0  0  0  0  0  0
   11.2379    2.7653    0.0000 N   0  0  0  0  0  0  0  0  0  0  0  0
   11.5486    3.7158    0.0000 N   0  3  0  0  0  0  0  0  0  0  0  0
   11.8592    4.6664    0.0000 N   0  5  0  0  0  0  0  0  0  0  0  0
    5.1350   -2.1664    0.0000 C   0  0  3  0  0  0  0  0  0  0  0  0
    5.1350   -3.1664    0.0000 C   0  0  3  0  0  0  0  0  0  0  0  0
    4.2690   -3.6664    0.0000 C   0  0  0  0  0  0  0  0  0  0  0  0
    6.6648   -2.6664    0.0000 C   0  0  0  0  0  0  0  0  0  0  0  0
    6.3919   -0.9111    0.0000 C   0  0  0  0  0  0  0  0  0  0  0  0
    3.4030   -2.1664    0.0000 C   0  0  0  0  0  0  0  0  0  0  0  0
    7.6811    0.2456    0.0000 C   0  0  0  0  0  0  0  0  0  0  0  0
    8.6596    0.4518    0.0000 C   0  0  0  0  0  0  0  0  0  0  0  0
    9.9487    1.6086    0.0000 C   0  0  0  0  0  0  0  0  0  0  0  0
   10.2594    2.5591    0.0000 C   0  0  0  0  0  0  0  0  0  0  0  0
    5.2250   -1.3211    0.0000 H   0  0  0  0  0  0  0  0  0  0  0  0
    5.2250   -4.0116    0.0000 H   0  0  0  0  0  0  0  0  0  0  0  0
    7.2848   -2.6664    0.0000 H   0  0  0  0  0  0  0  0  0  0  0  0
    6.3713   -0.2915    0.0000 H   0  0  0  0  0  0  0  0  0  0  0  0
    5.7781   -0.8238    0.0000 H   0  0  0  0  0  0  0  0  0  0  0  0
    2.8660   -3.4764    0.0000 H   0  0  0  0  0  0  0  0  0  0  0  0
    7.6605    0.8653    0.0000 H   0  0  0  0  0  0  0  0  0  0  0  0
    7.0672    0.3330    0.0000 H   0  0  0  0  0  0  0  0  0  0  0  0
    2.5369   -1.0464    0.0000 H   0  0  0  0  0  0  0  0  0  0  0  0
    2.0000   -1.9764    0.0000 H   0  0  0  0  0  0  0  0  0  0  0  0
    8.6801   -0.1678    0.0000 H   0  0  0  0  0  0  0  0  0  0  0  0
    9.2734    0.3645    0.0000 H   0  0  0  0  0  0  0  0  0  0  0  0
   10.2388    3.1788    0.0000 H   0  0  0  0  0  0  0  0  0  0  0  0
    9.6456    2.6465    0.0000 H   0  0  0  0  0  0  0  0  0  0  0  0
  1 17  1  0  0  0  0
  1 19  1  0  0  0  0
  2 15  2  0  0  0  0
  3 20  1  0  0  0  0
  3 21  1  0  0  0  0
  4 21  2  0  0  0  0
  5 13  1  0  0  0  0
  5 16  1  0  0  0  0
  5 17  1  0  0  0  0
  6 14  1  0  0  0  0
  6 16  2  0  0  0  0
  7 13  1  0  0  0  0
  7 18  2  0  0  0  0
  8 15  1  0  0  0  0
  8 18  1  0  0  0  0
  8 28  1  0  0  0  0
  9 18  1  0  0  0  0
  9 31  1  0  0  0  0
  9 32  1  0  0  0  0
 10 11  2  0  0  0  0
 10 22  1  0  0  0  0
 11 12  2  0  0  0  0
 13 14  1  0  0  0  0
 13 23  1  0  0  0  0
 14 15  1  0  0  0  0
 14 24  1  0  0  0  0
 16 25  1  0  0  0  0
 17 26  1  0  0  0  0
 17 27  1  0  0  0  0
 19 20  1  0  0  0  0
 19 29  1  0  0  0  0
 19 30  1  0  0  0  0
 20 33  1  0  0  0  0
 20 34  1  0  0  0  0
 21 22  1  0  0  0  0
 22 35  1  0  0  0  0
 22 36  1  0  0  0  0
M  CHG  2  11   1  12  -1
M  END
> <PUBCHEM_COMPOUND_CID>
512015
> <PUBCHEM_COMPOUND_CANONICALIZED>
1
> <PUBCHEM_CACTVS_COMPLEXITY>
555
> <PUBCHEM_CACTVS_HBOND_ACCEPTOR>
8
> <PUBCHEM_CACTVS_HBOND_DONOR>
2
> <PUBCHEM_CACTVS_ROTATABLE_BOND>
8
> <PUBCHEM_CACTVS_SUBSKEYS>
AAADccBz+AAAAAAAAAAAAAAAAAAAAQAAAAAgAAAAAAAAAEAAAAAAHgAYAAAACCjhgAYBCAPABAAqAAGRPAAAAAEAAAABAAGIAACDQAgASAAfAAAAEQICAAAAAAAAAAAAAAAAAAAAAAAAAAAAAAAAAAAAAA==
> <PUBCHEM_IUPAC_OPENEYE_NAME>
2-[(2-amino-6-oxo-4,5-dihydro-1H-purin-9-yl)methoxy]ethyl 2-azidoacetate
> <PUBCHEM_IUPAC_CAS_NAME>
2-azidoacetic acid 2-[(2-amino-6-oxo-4,5-dihydro-1H-purin-9-yl)methoxy]ethyl ester
> <PUBCHEM_IUPAC_NAME_MARKUP>
2-[(2-amino-6-oxo-4,5-dihydro-1<I>H</I>-purin-9-yl)methoxy]ethyl 2-azidoacetate
> <PUBCHEM_IUPAC_NAME>
2-[(2-amino-6-oxo-4,5-dihydro-1H-purin-9-yl)methoxy]ethyl 2-azidoacetate
> <PUBCHEM_IUPAC_SYSTEMATIC_NAME>
2-[(2-azanyl-6-oxidanylidene-4,5-dihydro-1H-purin-9-yl)methoxy]ethyl 2-azidoethanoate
> <PUBCHEM_IUPAC_TRADITIONAL_NAME>
2-azidoacetic acid 2-[(2-amino-6-keto-4,5-dihydro-1H-purin-9-yl)methoxy]ethyl ester
> <PUBCHEM_IUPAC_INCHI>
InChI=1S/C10H14N8O4/c11-10-15-8-7(9(20)16-10)13-4-18(8)5-21-1-2-22-6(19)3-14-17-12/h4,7-8H,1-3,5H2,(H3,11,15,16,20)
> <PUBCHEM_IUPAC_INCHIKEY>
BLQIWSJLQOCUDU-UHFFFAOYSA-N
> <PUBCHEM_XLOGP3_AA>
-1.1
> <PUBCHEM_EXACT_MASS>
310.11380096
> <PUBCHEM_MOLECULAR_FORMULA>
C10H14N8O4
> <PUBCHEM_MOLECULAR_WEIGHT>
310.27
> <PUBCHEM_OPENEYE_CAN_SMILES>
C1=NC2C(N1COCCOC(=O)CN=[N+]=[N-])N=C(NC2=O)N
> <PUBCHEM_OPENEYE_ISO_SMILES>
C1=NC2C(N1COCCOC(=O)CN=[N+]=[N-])N=C(NC2=O)N
> <PUBCHEM_CACTVS_TPSA>
133
> <PUBCHEM_MONOISOTOPIC_WEIGHT>
310.11380096
> <PUBCHEM_TOTAL_CHARGE>
0
> <PUBCHEM_HEAVY_ATOM_COUNT>
22
> <PUBCHEM_ATOM_DEF_STEREO_COUNT>
0
> <PUBCHEM_ATOM_UDEF_STEREO_COUNT>
2
> <PUBCHEM_BOND_DEF_STEREO_COUNT>
0
> <PUBCHEM_BOND_UDEF_STEREO_COUNT>
0
> <PUBCHEM_ISOTOPIC_ATOM_COUNT>
0
> <PUBCHEM_COMPONENT_COUNT>
1
> <PUBCHEM_CACTVS_TAUTO_COUNT>
8
> <PUBCHEM_COORDINATE_TYPE>
1
5
255
> <PUBCHEM_BONDANNOTATIONS>
13  23  3
14  24  3
$$$$
