512182
  -OEChem-10302200282D
 69 70  0     1  0  0  0  0  0999 V2000
   12.1652   -0.8216    0.0000 O   0  0  0  0  0  0  0  0  0  0  0  0
   12.8375   -2.8907    0.0000 O   0  0  0  0  0  0  0  0  0  0  0  0
   16.0076   -2.7862    0.0000 O   0  0  0  0  0  0  0  0  0  0  0  0
   15.6573    0.4571    0.0000 O   0  0  0  0  0  0  0  0  0  0  0  0
   11.6300   -2.4689    0.0000 O   0  0  0  0  0  0  0  0  0  0  0  0
   13.9253    3.4571    0.0000 O   0  0  0  0  0  0  0  0  0  0  0  0
   13.9253    0.4571    0.0000 N   0  0  0  0  0  0  0  0  0  0  0  0
   14.7913    1.9571    0.0000 N   0  0  0  0  0  0  0  0  0  0  0  0
   13.9253   -0.5429    0.0000 C   0  0  1  0  0  0  0  0  0  0  0  0
   14.4253   -2.0817    0.0000 C   0  0  2  0  0  0  0  0  0  0  0  0
   13.1163   -1.1307    0.0000 C   0  0  2  0  0  0  0  0  0  0  0  0
   13.4253   -2.0817    0.0000 C   0  0  2  0  0  0  0  0  0  0  0  0
   14.7343   -1.1307    0.0000 C   0  0  0  0  0  0  0  0  0  0  0  0
   15.0131   -2.8907    0.0000 C   0  0  0  0  0  0  0  0  0  0  0  0
   13.0593    0.9571    0.0000 C   0  0  0  0  0  0  0  0  0  0  0  0
   14.7913    0.9571    0.0000 C   0  0  0  0  0  0  0  0  0  0  0  0
   11.4221   -1.4908    0.0000 C   0  0  0  0  0  0  0  0  0  0  0  0
   13.0593    1.9571    0.0000 C   0  0  0  0  0  0  0  0  0  0  0  0
   10.4710   -1.1818    0.0000 C   0  0  0  0  0  0  0  0  0  0  0  0
   13.9253    2.4571    0.0000 C   0  0  0  0  0  0  0  0  0  0  0  0
    9.7279   -1.8509    0.0000 C   0  0  0  0  0  0  0  0  0  0  0  0
    8.7768   -1.5419    0.0000 C   0  0  0  0  0  0  0  0  0  0  0  0
   12.1932    2.4571    0.0000 C   0  0  0  0  0  0  0  0  0  0  0  0
    8.0337   -2.2110    0.0000 C   0  0  0  0  0  0  0  0  0  0  0  0
    7.0826   -1.9020    0.0000 C   0  0  0  0  0  0  0  0  0  0  0  0
    6.3395   -2.5711    0.0000 C   0  0  0  0  0  0  0  0  0  0  0  0
    5.3884   -2.2621    0.0000 C   0  0  0  0  0  0  0  0  0  0  0  0
    4.6453   -2.9312    0.0000 C   0  0  0  0  0  0  0  0  0  0  0  0
    3.6942   -2.6222    0.0000 C   0  0  0  0  0  0  0  0  0  0  0  0
    2.9511   -3.2913    0.0000 C   0  0  0  0  0  0  0  0  0  0  0  0
    2.0000   -2.9823    0.0000 C   0  0  0  0  0  0  0  0  0  0  0  0
   13.3729   -0.2614    0.0000 H   0  0  0  0  0  0  0  0  0  0  0  0
   14.1438   -2.6341    0.0000 H   0  0  0  0  0  0  0  0  0  0  0  0
   12.6779   -1.5691    0.0000 H   0  0  0  0  0  0  0  0  0  0  0  0
   12.8129   -1.9847    0.0000 H   0  0  0  0  0  0  0  0  0  0  0  0
   15.3007   -1.3828    0.0000 H   0  0  0  0  0  0  0  0  0  0  0  0
   15.0443   -0.5937    0.0000 H   0  0  0  0  0  0  0  0  0  0  0  0
   14.4558   -3.1625    0.0000 H   0  0  0  0  0  0  0  0  0  0  0  0
   15.1840   -3.4867    0.0000 H   0  0  0  0  0  0  0  0  0  0  0  0
   13.0897   -3.4571    0.0000 H   0  0  0  0  0  0  0  0  0  0  0  0
   12.5223    0.6471    0.0000 H   0  0  0  0  0  0  0  0  0  0  0  0
   16.3720   -3.2878    0.0000 H   0  0  0  0  0  0  0  0  0  0  0  0
   10.7621   -0.6343    0.0000 H   0  0  0  0  0  0  0  0  0  0  0  0
    9.9824   -0.8000    0.0000 H   0  0  0  0  0  0  0  0  0  0  0  0
   15.3282    2.2671    0.0000 H   0  0  0  0  0  0  0  0  0  0  0  0
    9.4368   -2.3983    0.0000 H   0  0  0  0  0  0  0  0  0  0  0  0
   10.2164   -2.2326    0.0000 H   0  0  0  0  0  0  0  0  0  0  0  0
    9.0679   -0.9944    0.0000 H   0  0  0  0  0  0  0  0  0  0  0  0
    8.2882   -1.1602    0.0000 H   0  0  0  0  0  0  0  0  0  0  0  0
   12.5032    2.9941    0.0000 H   0  0  0  0  0  0  0  0  0  0  0  0
   11.6563    2.7671    0.0000 H   0  0  0  0  0  0  0  0  0  0  0  0
   11.8832    1.9202    0.0000 H   0  0  0  0  0  0  0  0  0  0  0  0
    7.7426   -2.7584    0.0000 H   0  0  0  0  0  0  0  0  0  0  0  0
    8.5222   -2.5927    0.0000 H   0  0  0  0  0  0  0  0  0  0  0  0
    7.3737   -1.3546    0.0000 H   0  0  0  0  0  0  0  0  0  0  0  0
    6.5940   -1.5203    0.0000 H   0  0  0  0  0  0  0  0  0  0  0  0
    6.0484   -3.1185    0.0000 H   0  0  0  0  0  0  0  0  0  0  0  0
    6.8280   -2.9528    0.0000 H   0  0  0  0  0  0  0  0  0  0  0  0
    5.6795   -1.7147    0.0000 H   0  0  0  0  0  0  0  0  0  0  0  0
    4.8998   -1.8804    0.0000 H   0  0  0  0  0  0  0  0  0  0  0  0
    4.3542   -3.4786    0.0000 H   0  0  0  0  0  0  0  0  0  0  0  0
    5.1338   -3.3129    0.0000 H   0  0  0  0  0  0  0  0  0  0  0  0
    3.9853   -2.0748    0.0000 H   0  0  0  0  0  0  0  0  0  0  0  0
    3.2056   -2.2405    0.0000 H   0  0  0  0  0  0  0  0  0  0  0  0
    2.6600   -3.8388    0.0000 H   0  0  0  0  0  0  0  0  0  0  0  0
    3.4396   -3.6730    0.0000 H   0  0  0  0  0  0  0  0  0  0  0  0
    2.1916   -2.3927    0.0000 H   0  0  0  0  0  0  0  0  0  0  0  0
    1.4103   -2.7907    0.0000 H   0  0  0  0  0  0  0  0  0  0  0  0
    1.8084   -3.5720    0.0000 H   0  0  0  0  0  0  0  0  0  0  0  0
 11  1  1  6  0  0  0
  1 17  1  0  0  0  0
 12  2  1  1  0  0  0
  2 40  1  0  0  0  0
  3 14  1  0  0  0  0
  3 42  1  0  0  0  0
  4 16  2  0  0  0  0
  5 17  2  0  0  0  0
  6 20  2  0  0  0  0
  9  7  1  6  0  0  0
  7 15  1  0  0  0  0
  7 16  1  0  0  0  0
  8 16  1  0  0  0  0
  8 20  1  0  0  0  0
  8 45  1  0  0  0  0
  9 11  1  0  0  0  0
  9 13  1  0  0  0  0
  9 32  1  0  0  0  0
 10 12  1  0  0  0  0
 10 13  1  0  0  0  0
 10 14  1  6  0  0  0
 10 33  1  0  0  0  0
 11 12  1  0  0  0  0
 11 34  1  0  0  0  0
 12 35  1  0  0  0  0
 13 36  1  0  0  0  0
 13 37  1  0  0  0  0
 14 38  1  0  0  0  0
 14 39  1  0  0  0  0
 15 18  2  0  0  0  0
 15 41  1  0  0  0  0
 17 19  1  0  0  0  0
 18 20  1  0  0  0  0
 18 23  1  0  0  0  0
 19 21  1  0  0  0  0
 19 43  1  0  0  0  0
 19 44  1  0  0  0  0
 21 22  1  0  0  0  0
 21 46  1  0  0  0  0
 21 47  1  0  0  0  0
 22 24  1  0  0  0  0
 22 48  1  0  0  0  0
 22 49  1  0  0  0  0
 23 50  1  0  0  0  0
 23 51  1  0  0  0  0
 23 52  1  0  0  0  0
 24 25  1  0  0  0  0
 24 53  1  0  0  0  0
 24 54  1  0  0  0  0
 25 26  1  0  0  0  0
 25 55  1  0  0  0  0
 25 56  1  0  0  0  0
 26 27  1  0  0  0  0
 26 57  1  0  0  0  0
 26 58  1  0  0  0  0
 27 28  1  0  0  0  0
 27 59  1  0  0  0  0
 27 60  1  0  0  0  0
 28 29  1  0  0  0  0
 28 61  1  0  0  0  0
 28 62  1  0  0  0  0
 29 30  1  0  0  0  0
 29 63  1  0  0  0  0
 29 64  1  0  0  0  0
 30 31  1  0  0  0  0
 30 65  1  0  0  0  0
 30 66  1  0  0  0  0
 31 67  1  0  0  0  0
 31 68  1  0  0  0  0
 31 69  1  0  0  0  0
M  END
> <PUBCHEM_COMPOUND_CID>
512182
> <PUBCHEM_COMPOUND_CANONICALIZED>
1
> <PUBCHEM_CACTVS_COMPLEXITY>
650
> <PUBCHEM_CACTVS_HBOND_ACCEPTOR>
6
> <PUBCHEM_CACTVS_HBOND_DONOR>
3
> <PUBCHEM_CACTVS_ROTATABLE_BOND>
14
> <PUBCHEM_CACTVS_SUBSKEYS>
AAADcfB7OAAAAAAAAAAAAAAAAAAAAYAAAAAgAAAAAAAAAAAAAAAAHgAQCAAADTzhgAYDCAPABgCIAgHWWACAAAAAAAAAAAEIAECDEBIAgQAHQAAPByITAMH4+K+OAAAAAAAAAAAAAAAAAAAAAKEABCgAAA==
> <PUBCHEM_IUPAC_OPENEYE_NAME>
[(1R,2R,3R,5R)-2-hydroxy-3-(hydroxymethyl)-5-(5-methyl-2,4-dioxo-pyrimidin-1-yl)cyclopentyl] dodecanoate
> <PUBCHEM_IUPAC_CAS_NAME>
dodecanoic acid [(1R,2R,3R,5R)-2-hydroxy-3-(hydroxymethyl)-5-(5-methyl-2,4-dioxo-1-pyrimidinyl)cyclopentyl] ester
> <PUBCHEM_IUPAC_NAME_MARKUP>
[(1<I>R</I>,2<I>R</I>,3<I>R</I>,5<I>R</I>)-2-hydroxy-3-(hydroxymethyl)-5-(5-methyl-2,4-dioxopyrimidin-1-yl)cyclopentyl] dodecanoate
> <PUBCHEM_IUPAC_NAME>
[(1R,2R,3R,5R)-2-hydroxy-3-(hydroxymethyl)-5-(5-methyl-2,4-dioxopyrimidin-1-yl)cyclopentyl] dodecanoate
> <PUBCHEM_IUPAC_SYSTEMATIC_NAME>
[(1R,2R,3R,5R)-3-(hydroxymethyl)-5-[5-methyl-2,4-bis(oxidanylidene)pyrimidin-1-yl]-2-oxidanyl-cyclopentyl] dodecanoate
> <PUBCHEM_IUPAC_TRADITIONAL_NAME>
lauric acid [(1R,2R,3R,5R)-5-(2,4-diketo-5-methyl-pyrimidin-1-yl)-2-hydroxy-3-methylol-cyclopentyl] ester
> <PUBCHEM_IUPAC_INCHI>
InChI=1S/C23H38N2O6/c1-3-4-5-6-7-8-9-10-11-12-19(27)31-21-18(13-17(15-26)20(21)28)25-14-16(2)22(29)24-23(25)30/h14,17-18,20-21,26,28H,3-13,15H2,1-2H3,(H,24,29,30)/t17-,18-,20-,21-/m1/s1
> <PUBCHEM_IUPAC_INCHIKEY>
DRAVRQQFBGIWJV-VURPSTOHSA-N
> <PUBCHEM_XLOGP3_AA>
4.4
> <PUBCHEM_EXACT_MASS>
438.27298694
> <PUBCHEM_MOLECULAR_FORMULA>
C23H38N2O6
> <PUBCHEM_MOLECULAR_WEIGHT>
438.6
> <PUBCHEM_OPENEYE_CAN_SMILES>
CCCCCCCCCCCC(=O)OC1C(CC(C1O)CO)N2C=C(C(=O)NC2=O)C
> <PUBCHEM_OPENEYE_ISO_SMILES>
CCCCCCCCCCCC(=O)O[C@@H]1[C@@H](C[C@@H]([C@H]1O)CO)N2C=C(C(=O)NC2=O)C
> <PUBCHEM_CACTVS_TPSA>
116
> <PUBCHEM_MONOISOTOPIC_WEIGHT>
438.27298694
> <PUBCHEM_TOTAL_CHARGE>
0
> <PUBCHEM_HEAVY_ATOM_COUNT>
31
> <PUBCHEM_ATOM_DEF_STEREO_COUNT>
4
> <PUBCHEM_ATOM_UDEF_STEREO_COUNT>
0
> <PUBCHEM_BOND_DEF_STEREO_COUNT>
0
> <PUBCHEM_BOND_UDEF_STEREO_COUNT>
0
> <PUBCHEM_ISOTOPIC_ATOM_COUNT>
0
> <PUBCHEM_COMPONENT_COUNT>
1
> <PUBCHEM_CACTVS_TAUTO_COUNT>
-1
> <PUBCHEM_COORDINATE_TYPE>
1
5
255
> <PUBCHEM_BONDANNOTATIONS>
11  1  6
10  14  6
15  18  8
18  20  8
12  2  5
7  15  8
7  16  8
9  7  6
8  16  8
8  20  8
$$$$
