512167
  -OEChem-10302200282D
 35 36  0     1  0  0  0  0  0999 V2000
    3.7320    0.5880    0.0000 O   0  0  0  0  0  0  0  0  0  0  0  0
    5.9641   -3.2780    0.0000 O   0  0  0  0  0  0  0  0  0  0  0  0
    7.1962    0.5880    0.0000 O   0  0  0  0  0  0  0  0  0  0  0  0
    5.4641    3.5880    0.0000 O   0  0  0  0  0  0  0  0  0  0  0  0
    5.4641    0.5880    0.0000 N   0  0  0  0  0  0  0  0  0  0  0  0
    6.3301    2.0880    0.0000 N   0  0  0  0  0  0  0  0  0  0  0  0
    4.5981   -0.9120    0.0000 C   0  0  1  0  0  0  0  0  0  0  0  0
    5.0981   -1.7780    0.0000 C   0  0  1  0  0  0  0  0  0  0  0  0
    4.0981   -1.7780    0.0000 C   0  0  0  0  0  0  0  0  0  0  0  0
    5.4641   -0.4120    0.0000 C   0  0  0  0  0  0  0  0  0  0  0  0
    3.7320   -0.4120    0.0000 C   0  0  0  0  0  0  0  0  0  0  0  0
    5.9641   -2.2780    0.0000 C   0  0  0  0  0  0  0  0  0  0  0  0
    4.5981    1.0880    0.0000 C   0  0  0  0  0  0  0  0  0  0  0  0
    6.3301    1.0880    0.0000 C   0  0  0  0  0  0  0  0  0  0  0  0
    4.5981    2.0880    0.0000 C   0  0  0  0  0  0  0  0  0  0  0  0
    5.4641    2.5880    0.0000 C   0  0  0  0  0  0  0  0  0  0  0  0
    3.7320    2.5880    0.0000 C   0  0  0  0  0  0  0  0  0  0  0  0
    2.8660    3.0880    0.0000 C   0  0  0  0  0  0  0  0  0  0  0  0
    2.0000    3.5880    0.0000 C   0  0  0  0  0  0  0  0  0  0  0  0
    4.9376   -2.3769    0.0000 H   0  0  0  0  0  0  0  0  0  0  0  0
    3.5155   -1.5660    0.0000 H   0  0  0  0  0  0  0  0  0  0  0  0
    3.9904   -2.3886    0.0000 H   0  0  0  0  0  0  0  0  0  0  0  0
    5.6762   -0.9946    0.0000 H   0  0  0  0  0  0  0  0  0  0  0  0
    6.0747   -0.3043    0.0000 H   0  0  0  0  0  0  0  0  0  0  0  0
    3.1215   -0.3043    0.0000 H   0  0  0  0  0  0  0  0  0  0  0  0
    3.5200   -0.9946    0.0000 H   0  0  0  0  0  0  0  0  0  0  0  0
    6.5747   -2.3857    0.0000 H   0  0  0  0  0  0  0  0  0  0  0  0
    6.1762   -1.6954    0.0000 H   0  0  0  0  0  0  0  0  0  0  0  0
    3.1951    0.8980    0.0000 H   0  0  0  0  0  0  0  0  0  0  0  0
    5.4272   -3.5880    0.0000 H   0  0  0  0  0  0  0  0  0  0  0  0
    4.0611    0.7780    0.0000 H   0  0  0  0  0  0  0  0  0  0  0  0
    6.8671    2.3980    0.0000 H   0  0  0  0  0  0  0  0  0  0  0  0
    2.3100    4.1250    0.0000 H   0  0  0  0  0  0  0  0  0  0  0  0
    1.4631    3.8980    0.0000 H   0  0  0  0  0  0  0  0  0  0  0  0
    1.6900    3.0511    0.0000 H   0  0  0  0  0  0  0  0  0  0  0  0
  1 11  1  0  0  0  0
  1 29  1  0  0  0  0
  2 12  1  0  0  0  0
  2 30  1  0  0  0  0
  3 14  2  0  0  0  0
  4 16  2  0  0  0  0
  5 10  1  0  0  0  0
  5 13  1  0  0  0  0
  5 14  1  0  0  0  0
  6 14  1  0  0  0  0
  6 16  1  0  0  0  0
  6 32  1  0  0  0  0
  7  8  1  0  0  0  0
  7  9  1  0  0  0  0
  7 10  1  0  0  0  0
  7 11  1  6  0  0  0
  8  9  1  0  0  0  0
  8 12  1  6  0  0  0
  8 20  1  0  0  0  0
  9 21  1  0  0  0  0
  9 22  1  0  0  0  0
 10 23  1  0  0  0  0
 10 24  1  0  0  0  0
 11 25  1  0  0  0  0
 11 26  1  0  0  0  0
 12 27  1  0  0  0  0
 12 28  1  0  0  0  0
 13 15  2  0  0  0  0
 13 31  1  0  0  0  0
 15 16  1  0  0  0  0
 15 17  1  0  0  0  0
 17 18  3  0  0  0  0
 18 19  1  0  0  0  0
 19 33  1  0  0  0  0
 19 34  1  0  0  0  0
 19 35  1  0  0  0  0
M  END
> <PUBCHEM_COMPOUND_CID>
512167
> <PUBCHEM_COMPOUND_CANONICALIZED>
1
> <PUBCHEM_CACTVS_COMPLEXITY>
513
> <PUBCHEM_CACTVS_HBOND_ACCEPTOR>
4
> <PUBCHEM_CACTVS_HBOND_DONOR>
3
> <PUBCHEM_CACTVS_ROTATABLE_BOND>
5
> <PUBCHEM_CACTVS_SUBSKEYS>
AAADceBzOAAAAAAAAAAAAAAAGAAAAAAAAAAgAAAAAAAAAAAAAAAAHgAQCAAADwDhgAYDAAPAAgDIEgFWUAiAAAAAAAAAAAEIAECAEAIAgAAEQAAOByIAAMDwMAINgAAAAAAAAAAAAAAAAAAAAAAAAAAAAA==
> <PUBCHEM_IUPAC_OPENEYE_NAME>
1-[[(1S,2R)-1,2-bis(hydroxymethyl)cyclopropyl]methyl]-5-prop-1-ynyl-pyrimidine-2,4-dione
> <PUBCHEM_IUPAC_CAS_NAME>
1-[[(1S,2R)-1,2-bis(hydroxymethyl)cyclopropyl]methyl]-5-prop-1-ynylpyrimidine-2,4-dione
> <PUBCHEM_IUPAC_NAME_MARKUP>
1-[[(1<I>S</I>,2<I>R</I>)-1,2-bis(hydroxymethyl)cyclopropyl]methyl]-5-prop-1-ynylpyrimidine-2,4-dione
> <PUBCHEM_IUPAC_NAME>
1-[[(1S,2R)-1,2-bis(hydroxymethyl)cyclopropyl]methyl]-5-prop-1-ynylpyrimidine-2,4-dione
> <PUBCHEM_IUPAC_SYSTEMATIC_NAME>
1-[[(1S,2R)-1,2-bis(hydroxymethyl)cyclopropyl]methyl]-5-prop-1-ynyl-pyrimidine-2,4-dione
> <PUBCHEM_IUPAC_TRADITIONAL_NAME>
1-[[(1S,2R)-1,2-dimethylolcyclopropyl]methyl]-5-prop-1-ynyl-pyrimidine-2,4-quinone
> <PUBCHEM_IUPAC_INCHI>
InChI=1S/C13H16N2O4/c1-2-3-9-5-15(12(19)14-11(9)18)7-13(8-17)4-10(13)6-16/h5,10,16-17H,4,6-8H2,1H3,(H,14,18,19)/t10-,13-/m0/s1
> <PUBCHEM_IUPAC_INCHIKEY>
YMBCNSSHPLGCAG-GWCFXTLKSA-N
> <PUBCHEM_XLOGP3_AA>
-0.9
> <PUBCHEM_EXACT_MASS>
264.11100700
> <PUBCHEM_MOLECULAR_FORMULA>
C13H16N2O4
> <PUBCHEM_MOLECULAR_WEIGHT>
264.28
> <PUBCHEM_OPENEYE_CAN_SMILES>
CC#CC1=CN(C(=O)NC1=O)CC2(CC2CO)CO
> <PUBCHEM_OPENEYE_ISO_SMILES>
CC#CC1=CN(C(=O)NC1=O)C[C@@]2(C[C@H]2CO)CO
> <PUBCHEM_CACTVS_TPSA>
89.9
> <PUBCHEM_MONOISOTOPIC_WEIGHT>
264.11100700
> <PUBCHEM_TOTAL_CHARGE>
0
> <PUBCHEM_HEAVY_ATOM_COUNT>
19
> <PUBCHEM_ATOM_DEF_STEREO_COUNT>
2
> <PUBCHEM_ATOM_UDEF_STEREO_COUNT>
0
> <PUBCHEM_BOND_DEF_STEREO_COUNT>
0
> <PUBCHEM_BOND_UDEF_STEREO_COUNT>
0
> <PUBCHEM_ISOTOPIC_ATOM_COUNT>
0
> <PUBCHEM_COMPONENT_COUNT>
1
> <PUBCHEM_CACTVS_TAUTO_COUNT>
-1
> <PUBCHEM_COORDINATE_TYPE>
1
5
255
> <PUBCHEM_BONDANNOTATIONS>
13  15  8
15  16  8
5  13  8
5  14  8
6  14  8
6  16  8
7  11  6
8  12  6
$$$$
