512183
  -OEChem-10302200282D
 48 49  0     1  0  0  0  0  0999 V2000
    6.1316   -0.8216    0.0000 O   0  0  0  0  0  0  0  0  0  0  0  0
    6.8038   -2.8907    0.0000 O   0  0  0  0  0  0  0  0  0  0  0  0
    9.9739   -2.7862    0.0000 O   0  0  0  0  0  0  0  0  0  0  0  0
    9.6237    0.4571    0.0000 O   0  0  0  0  0  0  0  0  0  0  0  0
    5.5963   -2.4689    0.0000 O   0  0  0  0  0  0  0  0  0  0  0  0
    7.8916    3.4571    0.0000 O   0  0  0  0  0  0  0  0  0  0  0  0
    7.8916    0.4571    0.0000 N   0  0  0  0  0  0  0  0  0  0  0  0
    8.7576    1.9571    0.0000 N   0  0  0  0  0  0  0  0  0  0  0  0
    7.8916   -0.5429    0.0000 C   0  0  1  0  0  0  0  0  0  0  0  0
    8.3916   -2.0817    0.0000 C   0  0  2  0  0  0  0  0  0  0  0  0
    7.0826   -1.1307    0.0000 C   0  0  2  0  0  0  0  0  0  0  0  0
    7.3916   -2.0817    0.0000 C   0  0  2  0  0  0  0  0  0  0  0  0
    8.7006   -1.1307    0.0000 C   0  0  0  0  0  0  0  0  0  0  0  0
    8.9794   -2.8907    0.0000 C   0  0  0  0  0  0  0  0  0  0  0  0
    7.0256    0.9571    0.0000 C   0  0  0  0  0  0  0  0  0  0  0  0
    8.7576    0.9571    0.0000 C   0  0  0  0  0  0  0  0  0  0  0  0
    5.3884   -1.4908    0.0000 C   0  0  0  0  0  0  0  0  0  0  0  0
    7.0256    1.9571    0.0000 C   0  0  0  0  0  0  0  0  0  0  0  0
    4.4374   -1.1818    0.0000 C   0  0  0  0  0  0  0  0  0  0  0  0
    7.8916    2.4571    0.0000 C   0  0  0  0  0  0  0  0  0  0  0  0
    3.6942   -1.8509    0.0000 C   0  0  0  0  0  0  0  0  0  0  0  0
    6.1596    2.4571    0.0000 C   0  0  0  0  0  0  0  0  0  0  0  0
    2.7431   -1.5419    0.0000 C   0  0  0  0  0  0  0  0  0  0  0  0
    2.0000   -2.2110    0.0000 C   0  0  0  0  0  0  0  0  0  0  0  0
    8.4440   -0.2614    0.0000 H   0  0  0  0  0  0  0  0  0  0  0  0
    8.1102   -2.6341    0.0000 H   0  0  0  0  0  0  0  0  0  0  0  0
    6.6442   -1.5691    0.0000 H   0  0  0  0  0  0  0  0  0  0  0  0
    6.7792   -1.9847    0.0000 H   0  0  0  0  0  0  0  0  0  0  0  0
    9.2670   -1.3828    0.0000 H   0  0  0  0  0  0  0  0  0  0  0  0
    9.0106   -0.5937    0.0000 H   0  0  0  0  0  0  0  0  0  0  0  0
    8.4222   -3.1625    0.0000 H   0  0  0  0  0  0  0  0  0  0  0  0
    9.1503   -3.4867    0.0000 H   0  0  0  0  0  0  0  0  0  0  0  0
    7.0560   -3.4571    0.0000 H   0  0  0  0  0  0  0  0  0  0  0  0
    6.4887    0.6471    0.0000 H   0  0  0  0  0  0  0  0  0  0  0  0
   10.3384   -3.2878    0.0000 H   0  0  0  0  0  0  0  0  0  0  0  0
    9.2946    2.2671    0.0000 H   0  0  0  0  0  0  0  0  0  0  0  0
    4.7284   -0.6343    0.0000 H   0  0  0  0  0  0  0  0  0  0  0  0
    3.9488   -0.8000    0.0000 H   0  0  0  0  0  0  0  0  0  0  0  0
    3.4031   -2.3983    0.0000 H   0  0  0  0  0  0  0  0  0  0  0  0
    4.1828   -2.2326    0.0000 H   0  0  0  0  0  0  0  0  0  0  0  0
    6.4696    2.9941    0.0000 H   0  0  0  0  0  0  0  0  0  0  0  0
    5.6226    2.7671    0.0000 H   0  0  0  0  0  0  0  0  0  0  0  0
    5.8496    1.9202    0.0000 H   0  0  0  0  0  0  0  0  0  0  0  0
    3.0342   -0.9944    0.0000 H   0  0  0  0  0  0  0  0  0  0  0  0
    2.2546   -1.1602    0.0000 H   0  0  0  0  0  0  0  0  0  0  0  0
    1.5851   -1.7502    0.0000 H   0  0  0  0  0  0  0  0  0  0  0  0
    1.5392   -2.6259    0.0000 H   0  0  0  0  0  0  0  0  0  0  0  0
    2.4149   -2.6718    0.0000 H   0  0  0  0  0  0  0  0  0  0  0  0
 11  1  1  6  0  0  0
  1 17  1  0  0  0  0
 12  2  1  1  0  0  0
  2 33  1  0  0  0  0
  3 14  1  0  0  0  0
  3 35  1  0  0  0  0
  4 16  2  0  0  0  0
  5 17  2  0  0  0  0
  6 20  2  0  0  0  0
  9  7  1  6  0  0  0
  7 15  1  0  0  0  0
  7 16  1  0  0  0  0
  8 16  1  0  0  0  0
  8 20  1  0  0  0  0
  8 36  1  0  0  0  0
  9 11  1  0  0  0  0
  9 13  1  0  0  0  0
  9 25  1  0  0  0  0
 10 12  1  0  0  0  0
 10 13  1  0  0  0  0
 10 14  1  6  0  0  0
 10 26  1  0  0  0  0
 11 12  1  0  0  0  0
 11 27  1  0  0  0  0
 12 28  1  0  0  0  0
 13 29  1  0  0  0  0
 13 30  1  0  0  0  0
 14 31  1  0  0  0  0
 14 32  1  0  0  0  0
 15 18  2  0  0  0  0
 15 34  1  0  0  0  0
 17 19  1  0  0  0  0
 18 20  1  0  0  0  0
 18 22  1  0  0  0  0
 19 21  1  0  0  0  0
 19 37  1  0  0  0  0
 19 38  1  0  0  0  0
 21 23  1  0  0  0  0
 21 39  1  0  0  0  0
 21 40  1  0  0  0  0
 22 41  1  0  0  0  0
 22 42  1  0  0  0  0
 22 43  1  0  0  0  0
 23 24  1  0  0  0  0
 23 44  1  0  0  0  0
 23 45  1  0  0  0  0
 24 46  1  0  0  0  0
 24 47  1  0  0  0  0
 24 48  1  0  0  0  0
M  END
> <PUBCHEM_COMPOUND_CID>
512183
> <PUBCHEM_COMPOUND_CANONICALIZED>
1
> <PUBCHEM_CACTVS_COMPLEXITY>
547
> <PUBCHEM_CACTVS_HBOND_ACCEPTOR>
6
> <PUBCHEM_CACTVS_HBOND_DONOR>
3
> <PUBCHEM_CACTVS_ROTATABLE_BOND>
7
> <PUBCHEM_CACTVS_SUBSKEYS>
AAADceB7OAAAAAAAAAAAAAAAAAAAAYAAAAAgAAAAAAAAAAAAAAAAHgAQCAAADTzhgAYDCAPABgCIAgHWWACAAAAAAAAAAAEIAECDEBIAgQAHQAAPByITAMH4cA8OAAAAAAAAAAAAAAAAAAAAAKEABCgAAA==
> <PUBCHEM_IUPAC_OPENEYE_NAME>
[(1R,2R,3R,5R)-2-hydroxy-3-(hydroxymethyl)-5-(5-methyl-2,4-dioxo-pyrimidin-1-yl)cyclopentyl] pentanoate
> <PUBCHEM_IUPAC_CAS_NAME>
pentanoic acid [(1R,2R,3R,5R)-2-hydroxy-3-(hydroxymethyl)-5-(5-methyl-2,4-dioxo-1-pyrimidinyl)cyclopentyl] ester
> <PUBCHEM_IUPAC_NAME_MARKUP>
[(1<I>R</I>,2<I>R</I>,3<I>R</I>,5<I>R</I>)-2-hydroxy-3-(hydroxymethyl)-5-(5-methyl-2,4-dioxopyrimidin-1-yl)cyclopentyl] pentanoate
> <PUBCHEM_IUPAC_NAME>
[(1R,2R,3R,5R)-2-hydroxy-3-(hydroxymethyl)-5-(5-methyl-2,4-dioxopyrimidin-1-yl)cyclopentyl] pentanoate
> <PUBCHEM_IUPAC_SYSTEMATIC_NAME>
[(1R,2R,3R,5R)-3-(hydroxymethyl)-5-[5-methyl-2,4-bis(oxidanylidene)pyrimidin-1-yl]-2-oxidanyl-cyclopentyl] pentanoate
> <PUBCHEM_IUPAC_TRADITIONAL_NAME>
valeric acid [(1R,2R,3R,5R)-5-(2,4-diketo-5-methyl-pyrimidin-1-yl)-2-hydroxy-3-methylol-cyclopentyl] ester
> <PUBCHEM_IUPAC_INCHI>
InChI=1S/C16H24N2O6/c1-3-4-5-12(20)24-14-11(6-10(8-19)13(14)21)18-7-9(2)15(22)17-16(18)23/h7,10-11,13-14,19,21H,3-6,8H2,1-2H3,(H,17,22,23)/t10-,11-,13-,14-/m1/s1
> <PUBCHEM_IUPAC_INCHIKEY>
UWONRTYPXCXINA-HBJVGIJOSA-N
> <PUBCHEM_XLOGP3_AA>
0.6
> <PUBCHEM_EXACT_MASS>
340.16343649
> <PUBCHEM_MOLECULAR_FORMULA>
C16H24N2O6
> <PUBCHEM_MOLECULAR_WEIGHT>
340.37
> <PUBCHEM_OPENEYE_CAN_SMILES>
CCCCC(=O)OC1C(CC(C1O)CO)N2C=C(C(=O)NC2=O)C
> <PUBCHEM_OPENEYE_ISO_SMILES>
CCCCC(=O)O[C@@H]1[C@@H](C[C@@H]([C@H]1O)CO)N2C=C(C(=O)NC2=O)C
> <PUBCHEM_CACTVS_TPSA>
116
> <PUBCHEM_MONOISOTOPIC_WEIGHT>
340.16343649
> <PUBCHEM_TOTAL_CHARGE>
0
> <PUBCHEM_HEAVY_ATOM_COUNT>
24
> <PUBCHEM_ATOM_DEF_STEREO_COUNT>
4
> <PUBCHEM_ATOM_UDEF_STEREO_COUNT>
0
> <PUBCHEM_BOND_DEF_STEREO_COUNT>
0
> <PUBCHEM_BOND_UDEF_STEREO_COUNT>
0
> <PUBCHEM_ISOTOPIC_ATOM_COUNT>
0
> <PUBCHEM_COMPONENT_COUNT>
1
> <PUBCHEM_CACTVS_TAUTO_COUNT>
-1
> <PUBCHEM_COORDINATE_TYPE>
1
5
255
> <PUBCHEM_BONDANNOTATIONS>
11  1  6
10  14  6
15  18  8
18  20  8
12  2  5
7  15  8
7  16  8
9  7  6
8  16  8
8  20  8
$$$$
