512179
  -OEChem-10302200282D
 35 36  0     1  0  0  0  0  0999 V2000
    3.3749   -0.8216    0.0000 O   0  0  0  0  0  0  0  0  0  0  0  0
    4.0472   -2.8907    0.0000 O   0  0  0  0  0  0  0  0  0  0  0  0
    7.2173   -2.7862    0.0000 O   0  0  0  0  0  0  0  0  0  0  0  0
    6.8671    0.4571    0.0000 O   0  0  0  0  0  0  0  0  0  0  0  0
    5.1350    3.4571    0.0000 O   0  0  0  0  0  0  0  0  0  0  0  0
    2.5369    1.9571    0.0000 O   0  0  0  0  0  0  0  0  0  0  0  0
    5.1350    0.4571    0.0000 N   0  0  0  0  0  0  0  0  0  0  0  0
    6.0010    1.9571    0.0000 N   0  0  0  0  0  0  0  0  0  0  0  0
    5.1350   -0.5429    0.0000 C   0  0  2  0  0  0  0  0  0  0  0  0
    5.6350   -2.0817    0.0000 C   0  0  1  0  0  0  0  0  0  0  0  0
    5.9440   -1.1307    0.0000 C   0  0  0  0  0  0  0  0  0  0  0  0
    4.3260   -1.1307    0.0000 C   0  0  1  0  0  0  0  0  0  0  0  0
    4.6350   -2.0817    0.0000 C   0  0  2  0  0  0  0  0  0  0  0  0
    6.2228   -2.8907    0.0000 C   0  0  0  0  0  0  0  0  0  0  0  0
    4.2690    0.9571    0.0000 C   0  0  0  0  0  0  0  0  0  0  0  0
    6.0010    0.9571    0.0000 C   0  0  0  0  0  0  0  0  0  0  0  0
    4.2690    1.9571    0.0000 C   0  0  0  0  0  0  0  0  0  0  0  0
    5.1350    2.4571    0.0000 C   0  0  0  0  0  0  0  0  0  0  0  0
    3.4030    2.4571    0.0000 C   0  0  0  0  0  0  0  0  0  0  0  0
    5.6874   -0.2614    0.0000 H   0  0  0  0  0  0  0  0  0  0  0  0
    6.2474   -1.9847    0.0000 H   0  0  0  0  0  0  0  0  0  0  0  0
    6.5104   -1.3828    0.0000 H   0  0  0  0  0  0  0  0  0  0  0  0
    6.2540   -0.5937    0.0000 H   0  0  0  0  0  0  0  0  0  0  0  0
    3.8876   -1.5691    0.0000 H   0  0  0  0  0  0  0  0  0  0  0  0
    4.0226   -1.9847    0.0000 H   0  0  0  0  0  0  0  0  0  0  0  0
    5.6655   -3.1625    0.0000 H   0  0  0  0  0  0  0  0  0  0  0  0
    6.3937   -3.4867    0.0000 H   0  0  0  0  0  0  0  0  0  0  0  0
    2.9142   -1.2365    0.0000 H   0  0  0  0  0  0  0  0  0  0  0  0
    4.2994   -3.4571    0.0000 H   0  0  0  0  0  0  0  0  0  0  0  0
    3.7320    0.6471    0.0000 H   0  0  0  0  0  0  0  0  0  0  0  0
    7.5818   -3.2878    0.0000 H   0  0  0  0  0  0  0  0  0  0  0  0
    6.5380    2.2671    0.0000 H   0  0  0  0  0  0  0  0  0  0  0  0
    3.8015    2.9321    0.0000 H   0  0  0  0  0  0  0  0  0  0  0  0
    3.0044    2.9321    0.0000 H   0  0  0  0  0  0  0  0  0  0  0  0
    2.0000    2.2671    0.0000 H   0  0  0  0  0  0  0  0  0  0  0  0
 12  1  1  1  0  0  0
  1 28  1  0  0  0  0
 13  2  1  1  0  0  0
  2 29  1  0  0  0  0
  3 14  1  0  0  0  0
  3 31  1  0  0  0  0
  4 16  2  0  0  0  0
  5 18  2  0  0  0  0
  6 19  1  0  0  0  0
  6 35  1  0  0  0  0
  9  7  1  6  0  0  0
  7 15  1  0  0  0  0
  7 16  1  0  0  0  0
  8 16  1  0  0  0  0
  8 18  1  0  0  0  0
  8 32  1  0  0  0  0
  9 11  1  0  0  0  0
  9 12  1  0  0  0  0
  9 20  1  0  0  0  0
 10 11  1  0  0  0  0
 10 13  1  0  0  0  0
 10 14  1  6  0  0  0
 10 21  1  0  0  0  0
 11 22  1  0  0  0  0
 11 23  1  0  0  0  0
 12 13  1  0  0  0  0
 12 24  1  0  0  0  0
 13 25  1  0  0  0  0
 14 26  1  0  0  0  0
 14 27  1  0  0  0  0
 15 17  2  0  0  0  0
 15 30  1  0  0  0  0
 17 18  1  0  0  0  0
 17 19  1  0  0  0  0
 19 33  1  0  0  0  0
 19 34  1  0  0  0  0
M  END
> <PUBCHEM_COMPOUND_CID>
512179
> <PUBCHEM_COMPOUND_CANONICALIZED>
1
> <PUBCHEM_CACTVS_COMPLEXITY>
423
> <PUBCHEM_CACTVS_HBOND_ACCEPTOR>
6
> <PUBCHEM_CACTVS_HBOND_DONOR>
5
> <PUBCHEM_CACTVS_ROTATABLE_BOND>
3
> <PUBCHEM_CACTVS_SUBSKEYS>
AAADceBzOAAAAAAAAAAAAAAAAAAAAYAAAAAgAAAAAAAAAAAAAAAAHgAQCAAADTzhgAYBAAPAAgCIAgFWUACAAAAAAAAAAAEIAECDFAYAgQAEQAAPJyIREMHwcAcOAAAAAAAAAAAAAAAAAAAAAKEABCgAAA==
> <PUBCHEM_IUPAC_OPENEYE_NAME>
1-[(1R,2S,3R,4R)-2,3-dihydroxy-4-(hydroxymethyl)cyclopentyl]-5-(hydroxymethyl)pyrimidine-2,4-dione
> <PUBCHEM_IUPAC_CAS_NAME>
1-[(1R,2S,3R,4R)-2,3-dihydroxy-4-(hydroxymethyl)cyclopentyl]-5-(hydroxymethyl)pyrimidine-2,4-dione
> <PUBCHEM_IUPAC_NAME_MARKUP>
1-[(1<I>R</I>,2<I>S</I>,3<I>R</I>,4<I>R</I>)-2,3-dihydroxy-4-(hydroxymethyl)cyclopentyl]-5-(hydroxymethyl)pyrimidine-2,4-dione
> <PUBCHEM_IUPAC_NAME>
1-[(1R,2S,3R,4R)-2,3-dihydroxy-4-(hydroxymethyl)cyclopentyl]-5-(hydroxymethyl)pyrimidine-2,4-dione
> <PUBCHEM_IUPAC_SYSTEMATIC_NAME>
5-(hydroxymethyl)-1-[(1R,2S,3R,4R)-4-(hydroxymethyl)-2,3-bis(oxidanyl)cyclopentyl]pyrimidine-2,4-dione
> <PUBCHEM_IUPAC_TRADITIONAL_NAME>
1-[(1R,2S,3R,4R)-2,3-dihydroxy-4-methylol-cyclopentyl]-5-methylol-pyrimidine-2,4-quinone
> <PUBCHEM_IUPAC_INCHI>
InChI=1S/C11H16N2O6/c14-3-5-1-7(9(17)8(5)16)13-2-6(4-15)10(18)12-11(13)19/h2,5,7-9,14-17H,1,3-4H2,(H,12,18,19)/t5-,7-,8-,9+/m1/s1
> <PUBCHEM_IUPAC_INCHIKEY>
BMGFRCQWFBQPLV-YYNOVJQHSA-N
> <PUBCHEM_XLOGP3_AA>
-2
> <PUBCHEM_EXACT_MASS>
272.10083623
> <PUBCHEM_MOLECULAR_FORMULA>
C11H16N2O6
> <PUBCHEM_MOLECULAR_WEIGHT>
272.25
> <PUBCHEM_OPENEYE_CAN_SMILES>
C1C(C(C(C1N2C=C(C(=O)NC2=O)CO)O)O)CO
> <PUBCHEM_OPENEYE_ISO_SMILES>
C1[C@@H]([C@H]([C@H]([C@@H]1N2C=C(C(=O)NC2=O)CO)O)O)CO
> <PUBCHEM_CACTVS_TPSA>
130
> <PUBCHEM_MONOISOTOPIC_WEIGHT>
272.10083623
> <PUBCHEM_TOTAL_CHARGE>
0
> <PUBCHEM_HEAVY_ATOM_COUNT>
19
> <PUBCHEM_ATOM_DEF_STEREO_COUNT>
4
> <PUBCHEM_ATOM_UDEF_STEREO_COUNT>
0
> <PUBCHEM_BOND_DEF_STEREO_COUNT>
0
> <PUBCHEM_BOND_UDEF_STEREO_COUNT>
0
> <PUBCHEM_ISOTOPIC_ATOM_COUNT>
0
> <PUBCHEM_COMPONENT_COUNT>
1
> <PUBCHEM_CACTVS_TAUTO_COUNT>
-1
> <PUBCHEM_COORDINATE_TYPE>
1
5
255
> <PUBCHEM_BONDANNOTATIONS>
12  1  5
10  14  6
15  17  8
17  18  8
13  2  5
7  15  8
7  16  8
9  7  6
8  16  8
8  18  8
$$$$
