512171
  -OEChem-10302200282D
 44 45  0     1  0  0  0  0  0999 V2000
    8.2839   -2.9754    0.0000 O   0  0  0  0  0  0  0  0  0  0  0  0
    5.1138   -2.8709    0.0000 O   0  0  0  0  0  0  0  0  0  0  0  0
    8.9282    0.3725    0.0000 O   0  0  0  0  0  0  0  0  0  0  0  0
    7.1962    3.3725    0.0000 O   0  0  0  0  0  0  0  0  0  0  0  0
    7.1962    0.3725    0.0000 N   0  0  0  0  0  0  0  0  0  0  0  0
    8.0622    1.8725    0.0000 N   0  0  0  0  0  0  0  0  0  0  0  0
    5.4641    2.3725    0.0000 N   0  0  0  0  0  0  0  0  0  0  0  0
    6.6962   -2.1664    0.0000 C   0  0  1  0  0  0  0  0  0  0  0  0
    7.1962   -0.6275    0.0000 C   0  0  2  0  0  0  0  0  0  0  0  0
    6.3871   -1.2153    0.0000 C   0  0  0  0  0  0  0  0  0  0  0  0
    7.6962   -2.1664    0.0000 C   0  0  2  0  0  0  0  0  0  0  0  0
    8.0052   -1.2153    0.0000 C   0  0  0  0  0  0  0  0  0  0  0  0
    6.1084   -2.9754    0.0000 C   0  0  0  0  0  0  0  0  0  0  0  0
    6.3301    0.8725    0.0000 C   0  0  0  0  0  0  0  0  0  0  0  0
    8.0622    0.8725    0.0000 C   0  0  0  0  0  0  0  0  0  0  0  0
    6.3301    1.8725    0.0000 C   0  0  0  0  0  0  0  0  0  0  0  0
    7.1962    2.3725    0.0000 C   0  0  0  0  0  0  0  0  0  0  0  0
    4.5981    1.8725    0.0000 C   0  0  0  0  0  0  0  0  0  0  0  0
    3.7320    2.3725    0.0000 C   0  0  0  0  0  0  0  0  0  0  0  0
    2.8660    1.8725    0.0000 C   0  0  0  0  0  0  0  0  0  0  0  0
    2.0000    2.3725    0.0000 C   0  0  0  0  0  0  0  0  0  0  0  0
    6.0838   -2.0694    0.0000 H   0  0  0  0  0  0  0  0  0  0  0  0
    6.6437   -0.3461    0.0000 H   0  0  0  0  0  0  0  0  0  0  0  0
    6.0771   -0.6784    0.0000 H   0  0  0  0  0  0  0  0  0  0  0  0
    5.8207   -1.4675    0.0000 H   0  0  0  0  0  0  0  0  0  0  0  0
    7.4147   -2.7188    0.0000 H   0  0  0  0  0  0  0  0  0  0  0  0
    8.5716   -1.4675    0.0000 H   0  0  0  0  0  0  0  0  0  0  0  0
    8.3152   -0.6784    0.0000 H   0  0  0  0  0  0  0  0  0  0  0  0
    5.9375   -3.5714    0.0000 H   0  0  0  0  0  0  0  0  0  0  0  0
    6.6656   -3.2472    0.0000 H   0  0  0  0  0  0  0  0  0  0  0  0
    8.9005   -2.9106    0.0000 H   0  0  0  0  0  0  0  0  0  0  0  0
    5.7932    0.5625    0.0000 H   0  0  0  0  0  0  0  0  0  0  0  0
    4.7494   -3.3725    0.0000 H   0  0  0  0  0  0  0  0  0  0  0  0
    8.5991    2.1825    0.0000 H   0  0  0  0  0  0  0  0  0  0  0  0
    5.4641    2.9925    0.0000 H   0  0  0  0  0  0  0  0  0  0  0  0
    4.1996    1.3975    0.0000 H   0  0  0  0  0  0  0  0  0  0  0  0
    4.9966    1.3975    0.0000 H   0  0  0  0  0  0  0  0  0  0  0  0
    4.1306    2.8474    0.0000 H   0  0  0  0  0  0  0  0  0  0  0  0
    3.3335    2.8474    0.0000 H   0  0  0  0  0  0  0  0  0  0  0  0
    2.4675    1.3975    0.0000 H   0  0  0  0  0  0  0  0  0  0  0  0
    3.2646    1.3975    0.0000 H   0  0  0  0  0  0  0  0  0  0  0  0
    2.3100    2.9094    0.0000 H   0  0  0  0  0  0  0  0  0  0  0  0
    1.4631    2.6825    0.0000 H   0  0  0  0  0  0  0  0  0  0  0  0
    1.6900    1.8355    0.0000 H   0  0  0  0  0  0  0  0  0  0  0  0
 11  1  1  6  0  0  0
  1 31  1  0  0  0  0
  2 13  1  0  0  0  0
  2 33  1  0  0  0  0
  3 15  2  0  0  0  0
  4 17  2  0  0  0  0
  9  5  1  1  0  0  0
  5 14  1  0  0  0  0
  5 15  1  0  0  0  0
  6 15  1  0  0  0  0
  6 17  1  0  0  0  0
  6 34  1  0  0  0  0
  7 16  1  0  0  0  0
  7 18  1  0  0  0  0
  7 35  1  0  0  0  0
  8 10  1  0  0  0  0
  8 11  1  0  0  0  0
  8 13  1  1  0  0  0
  8 22  1  0  0  0  0
  9 10  1  0  0  0  0
  9 12  1  0  0  0  0
  9 23  1  0  0  0  0
 10 24  1  0  0  0  0
 10 25  1  0  0  0  0
 11 12  1  0  0  0  0
 11 26  1  0  0  0  0
 12 27  1  0  0  0  0
 12 28  1  0  0  0  0
 13 29  1  0  0  0  0
 13 30  1  0  0  0  0
 14 16  2  0  0  0  0
 14 32  1  0  0  0  0
 16 17  1  0  0  0  0
 18 19  1  0  0  0  0
 18 36  1  0  0  0  0
 18 37  1  0  0  0  0
 19 20  1  0  0  0  0
 19 38  1  0  0  0  0
 19 39  1  0  0  0  0
 20 21  1  0  0  0  0
 20 40  1  0  0  0  0
 20 41  1  0  0  0  0
 21 42  1  0  0  0  0
 21 43  1  0  0  0  0
 21 44  1  0  0  0  0
M  END
> <PUBCHEM_COMPOUND_CID>
512171
> <PUBCHEM_COMPOUND_CANONICALIZED>
1
> <PUBCHEM_CACTVS_COMPLEXITY>
438
> <PUBCHEM_CACTVS_HBOND_ACCEPTOR>
5
> <PUBCHEM_CACTVS_HBOND_DONOR>
4
> <PUBCHEM_CACTVS_ROTATABLE_BOND>
6
> <PUBCHEM_CACTVS_SUBSKEYS>
AAADceBzOAAAAAAAAAAAAAAAAAAAAYAAAAAgAAAAAAAAAAAAAAAAHgAQCAAADTzhgAYDAAPAAgCIAAVWUACAAAAAAgAAAICIAECAUAIAgCAUQAAPFyKAAMGwUAMOAAAAAAAAAAAAAAAAAAAAACEABAAAAA==
> <PUBCHEM_IUPAC_OPENEYE_NAME>
5-(butylamino)-1-[(1R,3S,4R)-3-hydroxy-4-(hydroxymethyl)cyclopentyl]pyrimidine-2,4-dione
> <PUBCHEM_IUPAC_CAS_NAME>
5-(butylamino)-1-[(1R,3S,4R)-3-hydroxy-4-(hydroxymethyl)cyclopentyl]pyrimidine-2,4-dione
> <PUBCHEM_IUPAC_NAME_MARKUP>
5-(butylamino)-1-[(1<I>R</I>,3<I>S</I>,4<I>R</I>)-3-hydroxy-4-(hydroxymethyl)cyclopentyl]pyrimidine-2,4-dione
> <PUBCHEM_IUPAC_NAME>
5-(butylamino)-1-[(1R,3S,4R)-3-hydroxy-4-(hydroxymethyl)cyclopentyl]pyrimidine-2,4-dione
> <PUBCHEM_IUPAC_SYSTEMATIC_NAME>
5-(butylamino)-1-[(1R,3R,4S)-3-(hydroxymethyl)-4-oxidanyl-cyclopentyl]pyrimidine-2,4-dione
> <PUBCHEM_IUPAC_TRADITIONAL_NAME>
5-(butylamino)-1-[(1R,3S,4R)-3-hydroxy-4-methylol-cyclopentyl]pyrimidine-2,4-quinone
> <PUBCHEM_IUPAC_INCHI>
InChI=1S/C14H23N3O4/c1-2-3-4-15-11-7-17(14(21)16-13(11)20)10-5-9(8-18)12(19)6-10/h7,9-10,12,15,18-19H,2-6,8H2,1H3,(H,16,20,21)/t9-,10-,12+/m1/s1
> <PUBCHEM_IUPAC_INCHIKEY>
DUTQYEBCZIDYOP-FOGDFJRCSA-N
> <PUBCHEM_XLOGP3_AA>
0.7
> <PUBCHEM_EXACT_MASS>
297.16885622
> <PUBCHEM_MOLECULAR_FORMULA>
C14H23N3O4
> <PUBCHEM_MOLECULAR_WEIGHT>
297.35
> <PUBCHEM_OPENEYE_CAN_SMILES>
CCCCNC1=CN(C(=O)NC1=O)C2CC(C(C2)O)CO
> <PUBCHEM_OPENEYE_ISO_SMILES>
CCCCNC1=CN(C(=O)NC1=O)[C@@H]2C[C@@H]([C@H](C2)O)CO
> <PUBCHEM_CACTVS_TPSA>
102
> <PUBCHEM_MONOISOTOPIC_WEIGHT>
297.16885622
> <PUBCHEM_TOTAL_CHARGE>
0
> <PUBCHEM_HEAVY_ATOM_COUNT>
21
> <PUBCHEM_ATOM_DEF_STEREO_COUNT>
3
> <PUBCHEM_ATOM_UDEF_STEREO_COUNT>
0
> <PUBCHEM_BOND_DEF_STEREO_COUNT>
0
> <PUBCHEM_BOND_UDEF_STEREO_COUNT>
0
> <PUBCHEM_ISOTOPIC_ATOM_COUNT>
0
> <PUBCHEM_COMPONENT_COUNT>
1
> <PUBCHEM_CACTVS_TAUTO_COUNT>
-1
> <PUBCHEM_COORDINATE_TYPE>
1
5
255
> <PUBCHEM_BONDANNOTATIONS>
11  1  6
14  16  8
16  17  8
5  14  8
5  15  8
9  5  5
6  15  8
6  17  8
8  13  5
$$$$
