512187
  -OEChem-10302200282D
 58 59  0     1  0  0  0  0  0999 V2000
    7.0728    2.4571    0.0000 Br  0  0  0  0  0  0  0  0  0  0  0  0
    8.7768   -0.8216    0.0000 O   0  0  0  0  0  0  0  0  0  0  0  0
    9.4491   -2.8907    0.0000 O   0  0  0  0  0  0  0  0  0  0  0  0
   12.6192   -2.7862    0.0000 O   0  0  0  0  0  0  0  0  0  0  0  0
   12.2689    0.4571    0.0000 O   0  0  0  0  0  0  0  0  0  0  0  0
    8.2416   -2.4689    0.0000 O   0  0  0  0  0  0  0  0  0  0  0  0
   10.5369    3.4571    0.0000 O   0  0  0  0  0  0  0  0  0  0  0  0
   10.5369    0.4571    0.0000 N   0  0  0  0  0  0  0  0  0  0  0  0
   11.4029    1.9571    0.0000 N   0  0  0  0  0  0  0  0  0  0  0  0
   10.5369   -0.5429    0.0000 C   0  0  1  0  0  0  0  0  0  0  0  0
   11.0369   -2.0817    0.0000 C   0  0  2  0  0  0  0  0  0  0  0  0
    9.7279   -1.1307    0.0000 C   0  0  2  0  0  0  0  0  0  0  0  0
   10.0369   -2.0817    0.0000 C   0  0  2  0  0  0  0  0  0  0  0  0
   11.3459   -1.1307    0.0000 C   0  0  0  0  0  0  0  0  0  0  0  0
   11.6247   -2.8907    0.0000 C   0  0  0  0  0  0  0  0  0  0  0  0
    9.6708    0.9571    0.0000 C   0  0  0  0  0  0  0  0  0  0  0  0
   11.4029    0.9571    0.0000 C   0  0  0  0  0  0  0  0  0  0  0  0
    8.0337   -1.4908    0.0000 C   0  0  0  0  0  0  0  0  0  0  0  0
    9.6708    1.9571    0.0000 C   0  0  0  0  0  0  0  0  0  0  0  0
    7.0826   -1.1818    0.0000 C   0  0  0  0  0  0  0  0  0  0  0  0
   10.5369    2.4571    0.0000 C   0  0  0  0  0  0  0  0  0  0  0  0
    6.3395   -1.8509    0.0000 C   0  0  0  0  0  0  0  0  0  0  0  0
    5.3884   -1.5419    0.0000 C   0  0  0  0  0  0  0  0  0  0  0  0
    4.6453   -2.2110    0.0000 C   0  0  0  0  0  0  0  0  0  0  0  0
    8.8048    2.4571    0.0000 C   0  0  0  0  0  0  0  0  0  0  0  0
    3.6942   -1.9020    0.0000 C   0  0  0  0  0  0  0  0  0  0  0  0
    2.9511   -2.5711    0.0000 C   0  0  0  0  0  0  0  0  0  0  0  0
    7.9388    1.9571    0.0000 C   0  0  0  0  0  0  0  0  0  0  0  0
    2.0000   -2.2621    0.0000 C   0  0  0  0  0  0  0  0  0  0  0  0
    9.9844   -0.2614    0.0000 H   0  0  0  0  0  0  0  0  0  0  0  0
   10.7554   -2.6341    0.0000 H   0  0  0  0  0  0  0  0  0  0  0  0
    9.6309   -0.5183    0.0000 H   0  0  0  0  0  0  0  0  0  0  0  0
    9.4245   -1.9847    0.0000 H   0  0  0  0  0  0  0  0  0  0  0  0
   11.9123   -1.3828    0.0000 H   0  0  0  0  0  0  0  0  0  0  0  0
   11.6559   -0.5937    0.0000 H   0  0  0  0  0  0  0  0  0  0  0  0
   11.0674   -3.1625    0.0000 H   0  0  0  0  0  0  0  0  0  0  0  0
   11.7956   -3.4867    0.0000 H   0  0  0  0  0  0  0  0  0  0  0  0
    9.7013   -3.4571    0.0000 H   0  0  0  0  0  0  0  0  0  0  0  0
    9.1339    0.6471    0.0000 H   0  0  0  0  0  0  0  0  0  0  0  0
   12.9836   -3.2878    0.0000 H   0  0  0  0  0  0  0  0  0  0  0  0
    7.3737   -0.6343    0.0000 H   0  0  0  0  0  0  0  0  0  0  0  0
    6.5940   -0.8000    0.0000 H   0  0  0  0  0  0  0  0  0  0  0  0
   11.9398    2.2671    0.0000 H   0  0  0  0  0  0  0  0  0  0  0  0
    6.0484   -2.3983    0.0000 H   0  0  0  0  0  0  0  0  0  0  0  0
    6.8280   -2.2326    0.0000 H   0  0  0  0  0  0  0  0  0  0  0  0
    5.6795   -0.9944    0.0000 H   0  0  0  0  0  0  0  0  0  0  0  0
    4.8998   -1.1602    0.0000 H   0  0  0  0  0  0  0  0  0  0  0  0
    4.3542   -2.7584    0.0000 H   0  0  0  0  0  0  0  0  0  0  0  0
    5.1338   -2.5927    0.0000 H   0  0  0  0  0  0  0  0  0  0  0  0
    8.8048    3.0771    0.0000 H   0  0  0  0  0  0  0  0  0  0  0  0
    3.9853   -1.3546    0.0000 H   0  0  0  0  0  0  0  0  0  0  0  0
    3.2056   -1.5203    0.0000 H   0  0  0  0  0  0  0  0  0  0  0  0
    2.6600   -3.1185    0.0000 H   0  0  0  0  0  0  0  0  0  0  0  0
    3.4396   -2.9528    0.0000 H   0  0  0  0  0  0  0  0  0  0  0  0
    7.9388    1.3371    0.0000 H   0  0  0  0  0  0  0  0  0  0  0  0
    2.1916   -1.6724    0.0000 H   0  0  0  0  0  0  0  0  0  0  0  0
    1.4103   -2.0705    0.0000 H   0  0  0  0  0  0  0  0  0  0  0  0
    1.8084   -2.8518    0.0000 H   0  0  0  0  0  0  0  0  0  0  0  0
  1 28  1  0  0  0  0
 12  2  1  6  0  0  0
  2 18  1  0  0  0  0
 13  3  1  1  0  0  0
  3 38  1  0  0  0  0
  4 15  1  0  0  0  0
  4 40  1  0  0  0  0
  5 17  2  0  0  0  0
  6 18  2  0  0  0  0
  7 21  2  0  0  0  0
 10  8  1  6  0  0  0
  8 16  1  0  0  0  0
  8 17  1  0  0  0  0
  9 17  1  0  0  0  0
  9 21  1  0  0  0  0
  9 43  1  0  0  0  0
 10 12  1  0  0  0  0
 10 14  1  0  0  0  0
 10 30  1  0  0  0  0
 11 13  1  0  0  0  0
 11 14  1  0  0  0  0
 11 15  1  6  0  0  0
 11 31  1  0  0  0  0
 12 13  1  0  0  0  0
 12 32  1  0  0  0  0
 13 33  1  0  0  0  0
 14 34  1  0  0  0  0
 14 35  1  0  0  0  0
 15 36  1  0  0  0  0
 15 37  1  0  0  0  0
 16 19  2  0  0  0  0
 16 39  1  0  0  0  0
 18 20  1  0  0  0  0
 19 21  1  0  0  0  0
 19 25  1  0  0  0  0
 20 22  1  0  0  0  0
 20 41  1  0  0  0  0
 20 42  1  0  0  0  0
 22 23  1  0  0  0  0
 22 44  1  0  0  0  0
 22 45  1  0  0  0  0
 23 24  1  0  0  0  0
 23 46  1  0  0  0  0
 23 47  1  0  0  0  0
 24 26  1  0  0  0  0
 24 48  1  0  0  0  0
 24 49  1  0  0  0  0
 25 28  2  3  0  0  0
 25 50  1  0  0  0  0
 26 27  1  0  0  0  0
 26 51  1  0  0  0  0
 26 52  1  0  0  0  0
 27 29  1  0  0  0  0
 27 53  1  0  0  0  0
 27 54  1  0  0  0  0
 28 55  1  0  0  0  0
 29 56  1  0  0  0  0
 29 57  1  0  0  0  0
 29 58  1  0  0  0  0
M  END
> <PUBCHEM_COMPOUND_CID>
512187
> <PUBCHEM_COMPOUND_CANONICALIZED>
1
> <PUBCHEM_CACTVS_COMPLEXITY>
665
> <PUBCHEM_CACTVS_HBOND_ACCEPTOR>
6
> <PUBCHEM_CACTVS_HBOND_DONOR>
3
> <PUBCHEM_CACTVS_ROTATABLE_BOND>
11
> <PUBCHEM_CACTVS_SUBSKEYS>
AAADceB7OAAAEAAAAAAAAAAAAAAAAYAAAAAgAAAAAAAAAAAAAAAAHgBQCAABTTzhgAYDCAPABgCIAiHWWACAAAAgAAAIAAEIAEiLEBIAgQAHQAAPByITAMH4+K+OAAAAAAAAAAAAAAAAAAAAAKEABCgAAA==
> <PUBCHEM_IUPAC_OPENEYE_NAME>
[(1R,2R,3R,5R)-5-[5-(2-bromovinyl)-2,4-dioxo-pyrimidin-1-yl]-2-hydroxy-3-(hydroxymethyl)cyclopentyl] octanoate
> <PUBCHEM_IUPAC_CAS_NAME>
octanoic acid [(1R,2R,3R,5R)-5-[5-(2-bromoethenyl)-2,4-dioxo-1-pyrimidinyl]-2-hydroxy-3-(hydroxymethyl)cyclopentyl] ester
> <PUBCHEM_IUPAC_NAME_MARKUP>
[(1<I>R</I>,2<I>R</I>,3<I>R</I>,5<I>R</I>)-5-[5-(2-bromoethenyl)-2,4-dioxopyrimidin-1-yl]-2-hydroxy-3-(hydroxymethyl)cyclopentyl] octanoate
> <PUBCHEM_IUPAC_NAME>
[(1R,2R,3R,5R)-5-[5-(2-bromoethenyl)-2,4-dioxopyrimidin-1-yl]-2-hydroxy-3-(hydroxymethyl)cyclopentyl] octanoate
> <PUBCHEM_IUPAC_SYSTEMATIC_NAME>
[(1R,2R,3R,5R)-5-[5-(2-bromanylethenyl)-2,4-bis(oxidanylidene)pyrimidin-1-yl]-3-(hydroxymethyl)-2-oxidanyl-cyclopentyl] octanoate
> <PUBCHEM_IUPAC_TRADITIONAL_NAME>
caprylic acid [(1R,2R,3R,5R)-5-[5-(2-bromovinyl)-2,4-diketo-pyrimidin-1-yl]-2-hydroxy-3-methylol-cyclopentyl] ester
> <PUBCHEM_IUPAC_INCHI>
InChI=1S/C20H29BrN2O6/c1-2-3-4-5-6-7-16(25)29-18-15(10-14(12-24)17(18)26)23-11-13(8-9-21)19(27)22-20(23)28/h8-9,11,14-15,17-18,24,26H,2-7,10,12H2,1H3,(H,22,27,28)/t14-,15-,17-,18-/m1/s1
> <PUBCHEM_IUPAC_INCHIKEY>
MJTXYSHUQSWATH-JOCBIADPSA-N
> <PUBCHEM_XLOGP3_AA>
3
> <PUBCHEM_EXACT_MASS>
472.12090
> <PUBCHEM_MOLECULAR_FORMULA>
C20H29BrN2O6
> <PUBCHEM_MOLECULAR_WEIGHT>
473.4
> <PUBCHEM_OPENEYE_CAN_SMILES>
CCCCCCCC(=O)OC1C(CC(C1O)CO)N2C=C(C(=O)NC2=O)C=CBr
> <PUBCHEM_OPENEYE_ISO_SMILES>
CCCCCCCC(=O)O[C@@H]1[C@@H](C[C@@H]([C@H]1O)CO)N2C=C(C(=O)NC2=O)C=CBr
> <PUBCHEM_CACTVS_TPSA>
116
> <PUBCHEM_MONOISOTOPIC_WEIGHT>
472.12090
> <PUBCHEM_TOTAL_CHARGE>
0
> <PUBCHEM_HEAVY_ATOM_COUNT>
29
> <PUBCHEM_ATOM_DEF_STEREO_COUNT>
4
> <PUBCHEM_ATOM_UDEF_STEREO_COUNT>
0
> <PUBCHEM_BOND_DEF_STEREO_COUNT>
0
> <PUBCHEM_BOND_UDEF_STEREO_COUNT>
1
> <PUBCHEM_ISOTOPIC_ATOM_COUNT>
0
> <PUBCHEM_COMPONENT_COUNT>
1
> <PUBCHEM_CACTVS_TAUTO_COUNT>
-1
> <PUBCHEM_COORDINATE_TYPE>
1
5
255
> <PUBCHEM_BONDANNOTATIONS>
11  15  6
16  19  8
19  21  8
12  2  6
25  28  1
13  3  5
10  8  6
8  16  8
8  17  8
9  17  8
9  21  8
$$$$
