512172
  -OEChem-10302200282D
 38 39  0     1  0  0  0  0  0999 V2000
    5.6859   -2.9754    0.0000 O   0  0  0  0  0  0  0  0  0  0  0  0
    2.5158   -2.8709    0.0000 O   0  0  0  0  0  0  0  0  0  0  0  0
    6.3301    0.3725    0.0000 O   0  0  0  0  0  0  0  0  0  0  0  0
    4.5981    3.3725    0.0000 O   0  0  0  0  0  0  0  0  0  0  0  0
    4.5981    0.3725    0.0000 N   0  0  0  0  0  0  0  0  0  0  0  0
    5.4641    1.8725    0.0000 N   0  0  0  0  0  0  0  0  0  0  0  0
    2.8660    2.3725    0.0000 N   0  0  0  0  0  0  0  0  0  0  0  0
    4.5981   -0.6275    0.0000 C   0  0  2  0  0  0  0  0  0  0  0  0
    4.0981   -2.1664    0.0000 C   0  0  1  0  0  0  0  0  0  0  0  0
    3.7891   -1.2153    0.0000 C   0  0  0  0  0  0  0  0  0  0  0  0
    5.0981   -2.1664    0.0000 C   0  0  2  0  0  0  0  0  0  0  0  0
    5.4071   -1.2153    0.0000 C   0  0  0  0  0  0  0  0  0  0  0  0
    3.5103   -2.9754    0.0000 C   0  0  0  0  0  0  0  0  0  0  0  0
    3.7320    0.8725    0.0000 C   0  0  0  0  0  0  0  0  0  0  0  0
    5.4641    0.8725    0.0000 C   0  0  0  0  0  0  0  0  0  0  0  0
    3.7320    1.8725    0.0000 C   0  0  0  0  0  0  0  0  0  0  0  0
    4.5981    2.3725    0.0000 C   0  0  0  0  0  0  0  0  0  0  0  0
    2.0000    1.8725    0.0000 C   0  0  0  0  0  0  0  0  0  0  0  0
    2.8660    3.3725    0.0000 C   0  0  0  0  0  0  0  0  0  0  0  0
    5.1505   -0.3461    0.0000 H   0  0  0  0  0  0  0  0  0  0  0  0
    4.3796   -2.7188    0.0000 H   0  0  0  0  0  0  0  0  0  0  0  0
    3.4791   -0.6784    0.0000 H   0  0  0  0  0  0  0  0  0  0  0  0
    3.2227   -1.4675    0.0000 H   0  0  0  0  0  0  0  0  0  0  0  0
    5.7104   -2.0694    0.0000 H   0  0  0  0  0  0  0  0  0  0  0  0
    5.9735   -1.4675    0.0000 H   0  0  0  0  0  0  0  0  0  0  0  0
    5.7171   -0.6784    0.0000 H   0  0  0  0  0  0  0  0  0  0  0  0
    3.3394   -3.5714    0.0000 H   0  0  0  0  0  0  0  0  0  0  0  0
    4.0675   -3.2472    0.0000 H   0  0  0  0  0  0  0  0  0  0  0  0
    6.3025   -2.9106    0.0000 H   0  0  0  0  0  0  0  0  0  0  0  0
    3.1951    0.5625    0.0000 H   0  0  0  0  0  0  0  0  0  0  0  0
    2.1513   -3.3725    0.0000 H   0  0  0  0  0  0  0  0  0  0  0  0
    6.0010    2.1825    0.0000 H   0  0  0  0  0  0  0  0  0  0  0  0
    1.6900    2.4094    0.0000 H   0  0  0  0  0  0  0  0  0  0  0  0
    1.4631    1.5625    0.0000 H   0  0  0  0  0  0  0  0  0  0  0  0
    2.3100    1.3355    0.0000 H   0  0  0  0  0  0  0  0  0  0  0  0
    3.4860    3.3725    0.0000 H   0  0  0  0  0  0  0  0  0  0  0  0
    2.8660    3.9925    0.0000 H   0  0  0  0  0  0  0  0  0  0  0  0
    2.2460    3.3725    0.0000 H   0  0  0  0  0  0  0  0  0  0  0  0
 11  1  1  6  0  0  0
  1 29  1  0  0  0  0
  2 13  1  0  0  0  0
  2 31  1  0  0  0  0
  3 15  2  0  0  0  0
  4 17  2  0  0  0  0
  8  5  1  1  0  0  0
  5 14  1  0  0  0  0
  5 15  1  0  0  0  0
  6 15  1  0  0  0  0
  6 17  1  0  0  0  0
  6 32  1  0  0  0  0
  7 16  1  0  0  0  0
  7 18  1  0  0  0  0
  7 19  1  0  0  0  0
  8 10  1  0  0  0  0
  8 12  1  0  0  0  0
  8 20  1  0  0  0  0
  9 10  1  0  0  0  0
  9 11  1  0  0  0  0
  9 13  1  1  0  0  0
  9 21  1  0  0  0  0
 10 22  1  0  0  0  0
 10 23  1  0  0  0  0
 11 12  1  0  0  0  0
 11 24  1  0  0  0  0
 12 25  1  0  0  0  0
 12 26  1  0  0  0  0
 13 27  1  0  0  0  0
 13 28  1  0  0  0  0
 14 16  2  0  0  0  0
 14 30  1  0  0  0  0
 16 17  1  0  0  0  0
 18 33  1  0  0  0  0
 18 34  1  0  0  0  0
 18 35  1  0  0  0  0
 19 36  1  0  0  0  0
 19 37  1  0  0  0  0
 19 38  1  0  0  0  0
M  END
> <PUBCHEM_COMPOUND_CID>
512172
> <PUBCHEM_COMPOUND_CANONICALIZED>
1
> <PUBCHEM_CACTVS_COMPLEXITY>
421
> <PUBCHEM_CACTVS_HBOND_ACCEPTOR>
5
> <PUBCHEM_CACTVS_HBOND_DONOR>
3
> <PUBCHEM_CACTVS_ROTATABLE_BOND>
3
> <PUBCHEM_CACTVS_SUBSKEYS>
AAADceBzOAAAAAAAAAAAAAAAAAAAAYAAAAAgAAAAAAAAAAAAAAAAHgAQCAAADTzhgAYDAAPAAgCIAAVWUACAAAAAAgAAAACIAECAUAIAgCAUQAAPByIAAMGwUAMOAAAAAAAAAAAAAAAAAAAAACEABAAAAA==
> <PUBCHEM_IUPAC_OPENEYE_NAME>
5-(dimethylamino)-1-[(1R,3S,4R)-3-hydroxy-4-(hydroxymethyl)cyclopentyl]pyrimidine-2,4-dione
> <PUBCHEM_IUPAC_CAS_NAME>
5-(dimethylamino)-1-[(1R,3S,4R)-3-hydroxy-4-(hydroxymethyl)cyclopentyl]pyrimidine-2,4-dione
> <PUBCHEM_IUPAC_NAME_MARKUP>
5-(dimethylamino)-1-[(1<I>R</I>,3<I>S</I>,4<I>R</I>)-3-hydroxy-4-(hydroxymethyl)cyclopentyl]pyrimidine-2,4-dione
> <PUBCHEM_IUPAC_NAME>
5-(dimethylamino)-1-[(1R,3S,4R)-3-hydroxy-4-(hydroxymethyl)cyclopentyl]pyrimidine-2,4-dione
> <PUBCHEM_IUPAC_SYSTEMATIC_NAME>
5-(dimethylamino)-1-[(1R,3R,4S)-3-(hydroxymethyl)-4-oxidanyl-cyclopentyl]pyrimidine-2,4-dione
> <PUBCHEM_IUPAC_TRADITIONAL_NAME>
5-(dimethylamino)-1-[(1R,3S,4R)-3-hydroxy-4-methylol-cyclopentyl]pyrimidine-2,4-quinone
> <PUBCHEM_IUPAC_INCHI>
InChI=1S/C12H19N3O4/c1-14(2)9-5-15(12(19)13-11(9)18)8-3-7(6-16)10(17)4-8/h5,7-8,10,16-17H,3-4,6H2,1-2H3,(H,13,18,19)/t7-,8-,10+/m1/s1
> <PUBCHEM_IUPAC_INCHIKEY>
VPOFQCMYQVSGLF-MRTMQBJTSA-N
> <PUBCHEM_XLOGP3_AA>
-0.4
> <PUBCHEM_EXACT_MASS>
269.13755610
> <PUBCHEM_MOLECULAR_FORMULA>
C12H19N3O4
> <PUBCHEM_MOLECULAR_WEIGHT>
269.30
> <PUBCHEM_OPENEYE_CAN_SMILES>
CN(C)C1=CN(C(=O)NC1=O)C2CC(C(C2)O)CO
> <PUBCHEM_OPENEYE_ISO_SMILES>
CN(C)C1=CN(C(=O)NC1=O)[C@@H]2C[C@@H]([C@H](C2)O)CO
> <PUBCHEM_CACTVS_TPSA>
93.1
> <PUBCHEM_MONOISOTOPIC_WEIGHT>
269.13755610
> <PUBCHEM_TOTAL_CHARGE>
0
> <PUBCHEM_HEAVY_ATOM_COUNT>
19
> <PUBCHEM_ATOM_DEF_STEREO_COUNT>
3
> <PUBCHEM_ATOM_UDEF_STEREO_COUNT>
0
> <PUBCHEM_BOND_DEF_STEREO_COUNT>
0
> <PUBCHEM_BOND_UDEF_STEREO_COUNT>
0
> <PUBCHEM_ISOTOPIC_ATOM_COUNT>
0
> <PUBCHEM_COMPONENT_COUNT>
1
> <PUBCHEM_CACTVS_TAUTO_COUNT>
-1
> <PUBCHEM_COORDINATE_TYPE>
1
5
255
> <PUBCHEM_BONDANNOTATIONS>
11  1  6
14  16  8
16  17  8
5  14  8
5  15  8
8  5  5
6  15  8
6  17  8
9  13  5
$$$$
