512168
  -OEChem-10302200282D
 30 31  0     1  0  0  0  0  0999 V2000
    5.5345   -2.9754    0.0000 O   0  0  0  0  0  0  0  0  0  0  0  0
    2.3644   -2.8709    0.0000 O   0  0  0  0  0  0  0  0  0  0  0  0
    6.1788    0.3725    0.0000 O   0  0  0  0  0  0  0  0  0  0  0  0
    4.4467    3.3725    0.0000 O   0  0  0  0  0  0  0  0  0  0  0  0
    4.4467    0.3725    0.0000 N   0  0  0  0  0  0  0  0  0  0  0  0
    5.3128    1.8725    0.0000 N   0  0  0  0  0  0  0  0  0  0  0  0
    3.9467   -2.1664    0.0000 C   0  0  1  0  0  0  0  0  0  0  0  0
    4.4467   -0.6275    0.0000 C   0  0  2  0  0  0  0  0  0  0  0  0
    3.6377   -1.2153    0.0000 C   0  0  0  0  0  0  0  0  0  0  0  0
    4.9467   -2.1664    0.0000 C   0  0  2  0  0  0  0  0  0  0  0  0
    5.2558   -1.2153    0.0000 C   0  0  0  0  0  0  0  0  0  0  0  0
    3.3590   -2.9754    0.0000 C   0  0  0  0  0  0  0  0  0  0  0  0
    5.3128    0.8725    0.0000 C   0  0  0  0  0  0  0  0  0  0  0  0
    3.5807    0.8725    0.0000 C   0  0  0  0  0  0  0  0  0  0  0  0
    3.5807    1.8725    0.0000 C   0  0  0  0  0  0  0  0  0  0  0  0
    4.4467    2.3725    0.0000 C   0  0  0  0  0  0  0  0  0  0  0  0
    4.2282   -2.7188    0.0000 H   0  0  0  0  0  0  0  0  0  0  0  0
    3.8943   -0.3461    0.0000 H   0  0  0  0  0  0  0  0  0  0  0  0
    3.3277   -0.6784    0.0000 H   0  0  0  0  0  0  0  0  0  0  0  0
    3.0713   -1.4675    0.0000 H   0  0  0  0  0  0  0  0  0  0  0  0
    4.6653   -2.7188    0.0000 H   0  0  0  0  0  0  0  0  0  0  0  0
    5.8222   -1.4675    0.0000 H   0  0  0  0  0  0  0  0  0  0  0  0
    5.5658   -0.6784    0.0000 H   0  0  0  0  0  0  0  0  0  0  0  0
    3.1880   -3.5714    0.0000 H   0  0  0  0  0  0  0  0  0  0  0  0
    3.9162   -3.2472    0.0000 H   0  0  0  0  0  0  0  0  0  0  0  0
    6.1511   -2.9106    0.0000 H   0  0  0  0  0  0  0  0  0  0  0  0
    3.0438    0.5625    0.0000 H   0  0  0  0  0  0  0  0  0  0  0  0
    2.0000   -3.3725    0.0000 H   0  0  0  0  0  0  0  0  0  0  0  0
    5.8497    2.1825    0.0000 H   0  0  0  0  0  0  0  0  0  0  0  0
    3.0438    2.1825    0.0000 H   0  0  0  0  0  0  0  0  0  0  0  0
 10  1  1  6  0  0  0
  1 26  1  0  0  0  0
  2 12  1  0  0  0  0
  2 28  1  0  0  0  0
  3 13  2  0  0  0  0
  4 16  2  0  0  0  0
  8  5  1  1  0  0  0
  5 13  1  0  0  0  0
  5 14  1  0  0  0  0
  6 13  1  0  0  0  0
  6 16  1  0  0  0  0
  6 29  1  0  0  0  0
  7  9  1  0  0  0  0
  7 10  1  0  0  0  0
  7 12  1  1  0  0  0
  7 17  1  0  0  0  0
  8  9  1  0  0  0  0
  8 11  1  0  0  0  0
  8 18  1  0  0  0  0
  9 19  1  0  0  0  0
  9 20  1  0  0  0  0
 10 11  1  0  0  0  0
 10 21  1  0  0  0  0
 11 22  1  0  0  0  0
 11 23  1  0  0  0  0
 12 24  1  0  0  0  0
 12 25  1  0  0  0  0
 14 15  2  0  0  0  0
 14 27  1  0  0  0  0
 15 16  1  0  0  0  0
 15 30  1  0  0  0  0
M  END
> <PUBCHEM_COMPOUND_CID>
512168
> <PUBCHEM_COMPOUND_CANONICALIZED>
1
> <PUBCHEM_CACTVS_COMPLEXITY>
342
> <PUBCHEM_CACTVS_HBOND_ACCEPTOR>
4
> <PUBCHEM_CACTVS_HBOND_DONOR>
3
> <PUBCHEM_CACTVS_ROTATABLE_BOND>
2
> <PUBCHEM_CACTVS_SUBSKEYS>
AAADccBzOAAAAAAAAAAAAAAAAAAAAYAAAAAgAAAAAAAAAAAAAAAAHgAQCAAADTzhgAYBAAPAAgCIACFWUACAAAAAAgAIAAAIAECAEAIAgAAEQAAPFyIAAMGwUAMOAAAAAAAAAAAAAAAAAAAAACEABAAAAA==
> <PUBCHEM_IUPAC_OPENEYE_NAME>
1-[(1R,3S,4R)-3-hydroxy-4-(hydroxymethyl)cyclopentyl]pyrimidine-2,4-dione
> <PUBCHEM_IUPAC_CAS_NAME>
1-[(1R,3S,4R)-3-hydroxy-4-(hydroxymethyl)cyclopentyl]pyrimidine-2,4-dione
> <PUBCHEM_IUPAC_NAME_MARKUP>
1-[(1<I>R</I>,3<I>S</I>,4<I>R</I>)-3-hydroxy-4-(hydroxymethyl)cyclopentyl]pyrimidine-2,4-dione
> <PUBCHEM_IUPAC_NAME>
1-[(1R,3S,4R)-3-hydroxy-4-(hydroxymethyl)cyclopentyl]pyrimidine-2,4-dione
> <PUBCHEM_IUPAC_SYSTEMATIC_NAME>
1-[(1R,3R,4S)-3-(hydroxymethyl)-4-oxidanyl-cyclopentyl]pyrimidine-2,4-dione
> <PUBCHEM_IUPAC_TRADITIONAL_NAME>
1-[(1R,3S,4R)-3-hydroxy-4-methylol-cyclopentyl]pyrimidine-2,4-quinone
> <PUBCHEM_IUPAC_INCHI>
InChI=1S/C10H14N2O4/c13-5-6-3-7(4-8(6)14)12-2-1-9(15)11-10(12)16/h1-2,6-8,13-14H,3-5H2,(H,11,15,16)/t6-,7-,8+/m1/s1
> <PUBCHEM_IUPAC_INCHIKEY>
JIFXFEDXEKJYAE-PRJMDXOYSA-N
> <PUBCHEM_XLOGP3_AA>
-0.7
> <PUBCHEM_EXACT_MASS>
226.09535693
> <PUBCHEM_MOLECULAR_FORMULA>
C10H14N2O4
> <PUBCHEM_MOLECULAR_WEIGHT>
226.23
> <PUBCHEM_OPENEYE_CAN_SMILES>
C1C(CC(C1CO)O)N2C=CC(=O)NC2=O
> <PUBCHEM_OPENEYE_ISO_SMILES>
C1[C@H](C[C@@H]([C@H]1CO)O)N2C=CC(=O)NC2=O
> <PUBCHEM_CACTVS_TPSA>
89.9
> <PUBCHEM_MONOISOTOPIC_WEIGHT>
226.09535693
> <PUBCHEM_TOTAL_CHARGE>
0
> <PUBCHEM_HEAVY_ATOM_COUNT>
16
> <PUBCHEM_ATOM_DEF_STEREO_COUNT>
3
> <PUBCHEM_ATOM_UDEF_STEREO_COUNT>
0
> <PUBCHEM_BOND_DEF_STEREO_COUNT>
0
> <PUBCHEM_BOND_UDEF_STEREO_COUNT>
0
> <PUBCHEM_ISOTOPIC_ATOM_COUNT>
0
> <PUBCHEM_COMPONENT_COUNT>
1
> <PUBCHEM_CACTVS_TAUTO_COUNT>
-1
> <PUBCHEM_COORDINATE_TYPE>
1
5
255
> <PUBCHEM_BONDANNOTATIONS>
10  1  6
14  15  8
15  16  8
5  13  8
5  14  8
8  5  5
6  13  8
6  16  8
7  12  5
$$$$
