512170
  -OEChem-10302200282D
 32 33  0     1  0  0  0  0  0999 V2000
    5.5345   -2.9754    0.0000 O   0  0  0  0  0  0  0  0  0  0  0  0
    2.3644   -2.8709    0.0000 O   0  0  0  0  0  0  0  0  0  0  0  0
    6.1788    0.3725    0.0000 O   0  0  0  0  0  0  0  0  0  0  0  0
    4.4467    3.3725    0.0000 O   0  0  0  0  0  0  0  0  0  0  0  0
    4.4467    0.3725    0.0000 N   0  0  0  0  0  0  0  0  0  0  0  0
    5.3128    1.8725    0.0000 N   0  0  0  0  0  0  0  0  0  0  0  0
    2.7147    2.3725    0.0000 N   0  0  0  0  0  0  0  0  0  0  0  0
    3.9467   -2.1664    0.0000 C   0  0  1  0  0  0  0  0  0  0  0  0
    4.4467   -0.6275    0.0000 C   0  0  2  0  0  0  0  0  0  0  0  0
    3.6377   -1.2153    0.0000 C   0  0  0  0  0  0  0  0  0  0  0  0
    4.9467   -2.1664    0.0000 C   0  0  2  0  0  0  0  0  0  0  0  0
    5.2558   -1.2153    0.0000 C   0  0  0  0  0  0  0  0  0  0  0  0
    3.3590   -2.9754    0.0000 C   0  0  0  0  0  0  0  0  0  0  0  0
    3.5807    0.8725    0.0000 C   0  0  0  0  0  0  0  0  0  0  0  0
    5.3128    0.8725    0.0000 C   0  0  0  0  0  0  0  0  0  0  0  0
    3.5807    1.8725    0.0000 C   0  0  0  0  0  0  0  0  0  0  0  0
    4.4467    2.3725    0.0000 C   0  0  0  0  0  0  0  0  0  0  0  0
    4.2282   -2.7188    0.0000 H   0  0  0  0  0  0  0  0  0  0  0  0
    3.8943   -0.3461    0.0000 H   0  0  0  0  0  0  0  0  0  0  0  0
    3.3277   -0.6784    0.0000 H   0  0  0  0  0  0  0  0  0  0  0  0
    3.0713   -1.4675    0.0000 H   0  0  0  0  0  0  0  0  0  0  0  0
    4.6653   -2.7188    0.0000 H   0  0  0  0  0  0  0  0  0  0  0  0
    5.8222   -1.4675    0.0000 H   0  0  0  0  0  0  0  0  0  0  0  0
    5.5658   -0.6784    0.0000 H   0  0  0  0  0  0  0  0  0  0  0  0
    3.1880   -3.5714    0.0000 H   0  0  0  0  0  0  0  0  0  0  0  0
    3.9162   -3.2472    0.0000 H   0  0  0  0  0  0  0  0  0  0  0  0
    6.1511   -2.9106    0.0000 H   0  0  0  0  0  0  0  0  0  0  0  0
    3.0438    0.5625    0.0000 H   0  0  0  0  0  0  0  0  0  0  0  0
    2.0000   -3.3725    0.0000 H   0  0  0  0  0  0  0  0  0  0  0  0
    5.8497    2.1825    0.0000 H   0  0  0  0  0  0  0  0  0  0  0  0
    2.1778    2.0625    0.0000 H   0  0  0  0  0  0  0  0  0  0  0  0
    2.7147    2.9925    0.0000 H   0  0  0  0  0  0  0  0  0  0  0  0
 11  1  1  6  0  0  0
  1 27  1  0  0  0  0
  2 13  1  0  0  0  0
  2 29  1  0  0  0  0
  3 15  2  0  0  0  0
  4 17  2  0  0  0  0
  9  5  1  1  0  0  0
  5 14  1  0  0  0  0
  5 15  1  0  0  0  0
  6 15  1  0  0  0  0
  6 17  1  0  0  0  0
  6 30  1  0  0  0  0
  7 16  1  0  0  0  0
  7 31  1  0  0  0  0
  7 32  1  0  0  0  0
  8 10  1  0  0  0  0
  8 11  1  0  0  0  0
  8 13  1  1  0  0  0
  8 18  1  0  0  0  0
  9 10  1  0  0  0  0
  9 12  1  0  0  0  0
  9 19  1  0  0  0  0
 10 20  1  0  0  0  0
 10 21  1  0  0  0  0
 11 12  1  0  0  0  0
 11 22  1  0  0  0  0
 12 23  1  0  0  0  0
 12 24  1  0  0  0  0
 13 25  1  0  0  0  0
 13 26  1  0  0  0  0
 14 16  2  0  0  0  0
 14 28  1  0  0  0  0
 16 17  1  0  0  0  0
M  END
> <PUBCHEM_COMPOUND_CID>
512170
> <PUBCHEM_COMPOUND_CANONICALIZED>
1
> <PUBCHEM_CACTVS_COMPLEXITY>
382
> <PUBCHEM_CACTVS_HBOND_ACCEPTOR>
5
> <PUBCHEM_CACTVS_HBOND_DONOR>
4
> <PUBCHEM_CACTVS_ROTATABLE_BOND>
2
> <PUBCHEM_CACTVS_SUBSKEYS>
AAADccBzOAAAAAAAAAAAAAAAAAAAAYAAAAAgAAAAAAAAAAAAAAAAHgAQCAAADTzhgAYBAAPAAgCIAAVWUACAAAAAAgAAAACIAECAUAIAgAAUQAAPByIAAMGwUAMOAAAAAAAAAAAAAAAAAAAAACEABAAAAA==
> <PUBCHEM_IUPAC_OPENEYE_NAME>
5-amino-1-[(1R,3S,4R)-3-hydroxy-4-(hydroxymethyl)cyclopentyl]pyrimidine-2,4-dione
> <PUBCHEM_IUPAC_CAS_NAME>
5-amino-1-[(1R,3S,4R)-3-hydroxy-4-(hydroxymethyl)cyclopentyl]pyrimidine-2,4-dione
> <PUBCHEM_IUPAC_NAME_MARKUP>
5-amino-1-[(1<I>R</I>,3<I>S</I>,4<I>R</I>)-3-hydroxy-4-(hydroxymethyl)cyclopentyl]pyrimidine-2,4-dione
> <PUBCHEM_IUPAC_NAME>
5-amino-1-[(1R,3S,4R)-3-hydroxy-4-(hydroxymethyl)cyclopentyl]pyrimidine-2,4-dione
> <PUBCHEM_IUPAC_SYSTEMATIC_NAME>
5-azanyl-1-[(1R,3R,4S)-3-(hydroxymethyl)-4-oxidanyl-cyclopentyl]pyrimidine-2,4-dione
> <PUBCHEM_IUPAC_TRADITIONAL_NAME>
5-amino-1-[(1R,3S,4R)-3-hydroxy-4-methylol-cyclopentyl]pyrimidine-2,4-quinone
> <PUBCHEM_IUPAC_INCHI>
InChI=1S/C10H15N3O4/c11-7-3-13(10(17)12-9(7)16)6-1-5(4-14)8(15)2-6/h3,5-6,8,14-15H,1-2,4,11H2,(H,12,16,17)/t5-,6-,8+/m1/s1
> <PUBCHEM_IUPAC_INCHIKEY>
MYKYWKUWDWHPAJ-JKMUOGBPSA-N
> <PUBCHEM_XLOGP3_AA>
-1.2
> <PUBCHEM_EXACT_MASS>
241.10625597
> <PUBCHEM_MOLECULAR_FORMULA>
C10H15N3O4
> <PUBCHEM_MOLECULAR_WEIGHT>
241.24
> <PUBCHEM_OPENEYE_CAN_SMILES>
C1C(CC(C1CO)O)N2C=C(C(=O)NC2=O)N
> <PUBCHEM_OPENEYE_ISO_SMILES>
C1[C@H](C[C@@H]([C@H]1CO)O)N2C=C(C(=O)NC2=O)N
> <PUBCHEM_CACTVS_TPSA>
116
> <PUBCHEM_MONOISOTOPIC_WEIGHT>
241.10625597
> <PUBCHEM_TOTAL_CHARGE>
0
> <PUBCHEM_HEAVY_ATOM_COUNT>
17
> <PUBCHEM_ATOM_DEF_STEREO_COUNT>
3
> <PUBCHEM_ATOM_UDEF_STEREO_COUNT>
0
> <PUBCHEM_BOND_DEF_STEREO_COUNT>
0
> <PUBCHEM_BOND_UDEF_STEREO_COUNT>
0
> <PUBCHEM_ISOTOPIC_ATOM_COUNT>
0
> <PUBCHEM_COMPONENT_COUNT>
1
> <PUBCHEM_CACTVS_TAUTO_COUNT>
-1
> <PUBCHEM_COORDINATE_TYPE>
1
5
255
> <PUBCHEM_BONDANNOTATIONS>
11  1  6
14  16  8
16  17  8
5  14  8
5  15  8
9  5  5
6  15  8
6  17  8
8  13  5
$$$$
