512274
  -OEChem-10302200282D
 31 32  0     1  0  0  0  0  0999 V2000
    7.0132    2.0335    0.0000 O   0  0  0  0  0  0  0  0  0  0  0  0
    8.9702    2.4459    0.0000 O   0  0  0  0  0  0  0  0  0  0  0  0
    6.0812   -0.8181    0.0000 N   0  0  0  0  0  0  0  0  0  0  0  0
    4.2690   -0.6228    0.0000 N   0  0  0  0  0  0  0  0  0  0  0  0
    6.0812   -2.4275    0.0000 N   0  0  0  0  0  0  0  0  0  0  0  0
    3.4030   -2.1228    0.0000 N   0  0  0  0  0  0  0  0  0  0  0  0
    2.5369   -0.6228    0.0000 N   0  0  0  0  0  0  0  0  0  0  0  0
    6.3919    0.1324    0.0000 C   0  0  0  0  0  0  0  0  0  0  0  0
    7.3704    0.3387    0.0000 C   0  0  0  0  0  0  0  0  0  0  0  0
    5.1350   -1.1228    0.0000 C   0  0  0  0  0  0  0  0  0  0  0  0
    7.6811    1.2892    0.0000 C   0  0  1  0  0  0  0  0  0  0  0  0
    5.1350   -2.1228    0.0000 C   0  0  0  0  0  0  0  0  0  0  0  0
    6.6648   -1.6228    0.0000 C   0  0  0  0  0  0  0  0  0  0  0  0
    4.2690   -2.6228    0.0000 C   0  0  0  0  0  0  0  0  0  0  0  0
    8.6596    1.4954    0.0000 C   0  0  0  0  0  0  0  0  0  0  0  0
    3.4030   -1.1228    0.0000 C   0  0  0  0  0  0  0  0  0  0  0  0
    6.3713    0.7521    0.0000 H   0  0  0  0  0  0  0  0  0  0  0  0
    5.7781    0.2198    0.0000 H   0  0  0  0  0  0  0  0  0  0  0  0
    7.3910   -0.2810    0.0000 H   0  0  0  0  0  0  0  0  0  0  0  0
    7.9842    0.2513    0.0000 H   0  0  0  0  0  0  0  0  0  0  0  0
    7.0744    1.1613    0.0000 H   0  0  0  0  0  0  0  0  0  0  0  0
    7.2848   -1.6228    0.0000 H   0  0  0  0  0  0  0  0  0  0  0  0
    3.8705   -3.0978    0.0000 H   0  0  0  0  0  0  0  0  0  0  0  0
    4.6675   -3.0978    0.0000 H   0  0  0  0  0  0  0  0  0  0  0  0
    4.2690   -0.0028    0.0000 H   0  0  0  0  0  0  0  0  0  0  0  0
    8.6801    0.8757    0.0000 H   0  0  0  0  0  0  0  0  0  0  0  0
    9.2734    1.4080    0.0000 H   0  0  0  0  0  0  0  0  0  0  0  0
    7.2058    2.6228    0.0000 H   0  0  0  0  0  0  0  0  0  0  0  0
    9.5769    2.5738    0.0000 H   0  0  0  0  0  0  0  0  0  0  0  0
    2.0000   -0.9328    0.0000 H   0  0  0  0  0  0  0  0  0  0  0  0
    2.5369   -0.0028    0.0000 H   0  0  0  0  0  0  0  0  0  0  0  0
 11  1  1  6  0  0  0
  1 28  1  0  0  0  0
  2 15  1  0  0  0  0
  2 29  1  0  0  0  0
  3  8  1  0  0  0  0
  3 10  1  0  0  0  0
  3 13  1  0  0  0  0
  4 10  1  0  0  0  0
  4 16  1  0  0  0  0
  4 25  1  0  0  0  0
  5 12  1  0  0  0  0
  5 13  2  0  0  0  0
  6 14  1  0  0  0  0
  6 16  2  0  0  0  0
  7 16  1  0  0  0  0
  7 30  1  0  0  0  0
  7 31  1  0  0  0  0
  8  9  1  0  0  0  0
  8 17  1  0  0  0  0
  8 18  1  0  0  0  0
  9 11  1  0  0  0  0
  9 19  1  0  0  0  0
  9 20  1  0  0  0  0
 10 12  2  0  0  0  0
 11 15  1  0  0  0  0
 11 21  1  0  0  0  0
 12 14  1  0  0  0  0
 13 22  1  0  0  0  0
 14 23  1  0  0  0  0
 14 24  1  0  0  0  0
 15 26  1  0  0  0  0
 15 27  1  0  0  0  0
M  END
> <PUBCHEM_COMPOUND_CID>
512274
> <PUBCHEM_COMPOUND_CANONICALIZED>
1
> <PUBCHEM_CACTVS_COMPLEXITY>
273
> <PUBCHEM_CACTVS_HBOND_ACCEPTOR>
4
> <PUBCHEM_CACTVS_HBOND_DONOR>
4
> <PUBCHEM_CACTVS_ROTATABLE_BOND>
4
> <PUBCHEM_CACTVS_SUBSKEYS>
AAADccBzsAAAAAAAAAAAAAAAAAAAAWAAAAAgAAAAAAAAAEABgAAAHgAQCAAACBzhlgYFsBfMEgCgAQZhZACAgC0REKABUAA4VACBWABAyAAUQAAOAALBACAgAAAAAAAAAAAAAAAAAAAAAAAAAAAAAAAAAA==
> <PUBCHEM_IUPAC_OPENEYE_NAME>
(2S)-4-(2-amino-3,6-dihydropurin-9-yl)butane-1,2-diol
> <PUBCHEM_IUPAC_CAS_NAME>
(2S)-4-(2-amino-3,6-dihydropurin-9-yl)butane-1,2-diol
> <PUBCHEM_IUPAC_NAME_MARKUP>
(2<I>S</I>)-4-(2-amino-3,6-dihydropurin-9-yl)butane-1,2-diol
> <PUBCHEM_IUPAC_NAME>
(2S)-4-(2-amino-3,6-dihydropurin-9-yl)butane-1,2-diol
> <PUBCHEM_IUPAC_SYSTEMATIC_NAME>
(2S)-4-(2-azanyl-3,6-dihydropurin-9-yl)butane-1,2-diol
> <PUBCHEM_IUPAC_TRADITIONAL_NAME>
(2S)-4-(2-amino-3,6-dihydropurin-9-yl)butane-1,2-diol
> <PUBCHEM_IUPAC_INCHI>
InChI=1S/C9H15N5O2/c10-9-11-3-7-8(13-9)14(5-12-7)2-1-6(16)4-15/h5-6,15-16H,1-4H2,(H3,10,11,13)/t6-/m0/s1
> <PUBCHEM_IUPAC_INCHIKEY>
XKFDHONFSRSGPK-LURJTMIESA-N
> <PUBCHEM_XLOGP3_AA>
-2.4
> <PUBCHEM_EXACT_MASS>
225.12257474
> <PUBCHEM_MOLECULAR_FORMULA>
C9H15N5O2
> <PUBCHEM_MOLECULAR_WEIGHT>
225.25
> <PUBCHEM_OPENEYE_CAN_SMILES>
C1C2=C(NC(=N1)N)N(C=N2)CCC(CO)O
> <PUBCHEM_OPENEYE_ISO_SMILES>
C1C2=C(NC(=N1)N)N(C=N2)CC[C@@H](CO)O
> <PUBCHEM_CACTVS_TPSA>
109
> <PUBCHEM_MONOISOTOPIC_WEIGHT>
225.12257474
> <PUBCHEM_TOTAL_CHARGE>
0
> <PUBCHEM_HEAVY_ATOM_COUNT>
16
> <PUBCHEM_ATOM_DEF_STEREO_COUNT>
1
> <PUBCHEM_ATOM_UDEF_STEREO_COUNT>
0
> <PUBCHEM_BOND_DEF_STEREO_COUNT>
0
> <PUBCHEM_BOND_UDEF_STEREO_COUNT>
0
> <PUBCHEM_ISOTOPIC_ATOM_COUNT>
0
> <PUBCHEM_COMPONENT_COUNT>
1
> <PUBCHEM_CACTVS_TAUTO_COUNT>
-1
> <PUBCHEM_COORDINATE_TYPE>
1
5
255
> <PUBCHEM_BONDANNOTATIONS>
11  1  6
10  12  8
3  10  8
3  13  8
5  12  8
5  13  8
$$$$
