512332
  -OEChem-10302200282D
 36 38  0     1  0  0  0  0  0999 V2000
    4.5411   -1.9848    0.0000 O   0  0  0  0  0  0  0  0  0  0  0  0
    2.6443   -3.7448    0.0000 O   0  0  0  0  0  0  0  0  0  0  0  0
    5.8144   -3.6403    0.0000 O   0  0  0  0  0  0  0  0  0  0  0  0
    5.4641   -0.3970    0.0000 O   0  0  0  0  0  0  0  0  0  0  0  0
    3.7320   -0.3970    0.0000 N   0  0  0  0  0  0  0  0  0  0  0  0
    4.5981    1.1030    0.0000 N   0  0  0  0  0  0  0  0  0  0  0  0
    3.7320    2.6030    0.0000 N   0  0  0  0  0  0  0  0  0  0  0  0
    4.5411    3.1908    0.0000 N   0  0  0  0  0  0  0  0  0  0  0  0
    3.2320    4.1419    0.0000 N   0  0  0  0  0  0  0  0  0  0  0  0
    3.2320   -2.9358    0.0000 C   0  0  1  0  0  0  0  0  0  0  0  0
    3.7320   -1.3970    0.0000 C   0  0  1  0  0  0  0  0  0  0  0  0
    2.9230   -1.9848    0.0000 C   0  0  0  0  0  0  0  0  0  0  0  0
    4.2320   -2.9358    0.0000 C   0  0  1  0  0  0  0  0  0  0  0  0
    4.8198   -3.7448    0.0000 C   0  0  0  0  0  0  0  0  0  0  0  0
    2.8660    0.1030    0.0000 C   0  0  0  0  0  0  0  0  0  0  0  0
    4.5981    0.1030    0.0000 C   0  0  0  0  0  0  0  0  0  0  0  0
    2.8660    1.1030    0.0000 C   0  0  0  0  0  0  0  0  0  0  0  0
    3.7320    1.6030    0.0000 C   0  0  0  0  0  0  0  0  0  0  0  0
    2.0000    1.6030    0.0000 C   0  0  0  0  0  0  0  0  0  0  0  0
    2.9230    3.1908    0.0000 C   0  0  0  0  0  0  0  0  0  0  0  0
    4.2320    4.1419    0.0000 C   0  0  0  0  0  0  0  0  0  0  0  0
    3.5135   -3.4882    0.0000 H   0  0  0  0  0  0  0  0  0  0  0  0
    4.2845   -1.1155    0.0000 H   0  0  0  0  0  0  0  0  0  0  0  0
    2.6130   -1.4478    0.0000 H   0  0  0  0  0  0  0  0  0  0  0  0
    2.3566   -2.2369    0.0000 H   0  0  0  0  0  0  0  0  0  0  0  0
    4.8444   -2.8388    0.0000 H   0  0  0  0  0  0  0  0  0  0  0  0
    4.2626   -4.0166    0.0000 H   0  0  0  0  0  0  0  0  0  0  0  0
    4.9907   -4.3408    0.0000 H   0  0  0  0  0  0  0  0  0  0  0  0
    2.3291   -0.2070    0.0000 H   0  0  0  0  0  0  0  0  0  0  0  0
    2.0277   -3.6800    0.0000 H   0  0  0  0  0  0  0  0  0  0  0  0
    6.1788   -4.1419    0.0000 H   0  0  0  0  0  0  0  0  0  0  0  0
    2.3100    2.1400    0.0000 H   0  0  0  0  0  0  0  0  0  0  0  0
    1.4631    1.9130    0.0000 H   0  0  0  0  0  0  0  0  0  0  0  0
    1.6900    1.0661    0.0000 H   0  0  0  0  0  0  0  0  0  0  0  0
    2.3334    2.9992    0.0000 H   0  0  0  0  0  0  0  0  0  0  0  0
    4.5965    4.6435    0.0000 H   0  0  0  0  0  0  0  0  0  0  0  0
  1 11  1  0  0  0  0
  1 13  1  0  0  0  0
 10  2  1  1  0  0  0
  2 30  1  0  0  0  0
  3 14  1  0  0  0  0
  3 31  1  0  0  0  0
  4 16  2  0  0  0  0
 11  5  1  6  0  0  0
  5 15  1  0  0  0  0
  5 16  1  0  0  0  0
  6 16  1  0  0  0  0
  6 18  2  0  0  0  0
  7  8  1  0  0  0  0
  7 18  1  0  0  0  0
  7 20  1  0  0  0  0
  8 21  2  0  0  0  0
  9 20  2  0  0  0  0
  9 21  1  0  0  0  0
 10 12  1  0  0  0  0
 10 13  1  0  0  0  0
 10 22  1  0  0  0  0
 11 12  1  0  0  0  0
 11 23  1  0  0  0  0
 12 24  1  0  0  0  0
 12 25  1  0  0  0  0
 13 14  1  6  0  0  0
 13 26  1  0  0  0  0
 14 27  1  0  0  0  0
 14 28  1  0  0  0  0
 15 17  2  0  0  0  0
 15 29  1  0  0  0  0
 17 18  1  0  0  0  0
 17 19  1  0  0  0  0
 19 32  1  0  0  0  0
 19 33  1  0  0  0  0
 19 34  1  0  0  0  0
 20 35  1  0  0  0  0
 21 36  1  0  0  0  0
M  END
> <PUBCHEM_COMPOUND_CID>
512332
> <PUBCHEM_COMPOUND_CANONICALIZED>
1
> <PUBCHEM_CACTVS_COMPLEXITY>
494
> <PUBCHEM_CACTVS_HBOND_ACCEPTOR>
6
> <PUBCHEM_CACTVS_HBOND_DONOR>
2
> <PUBCHEM_CACTVS_ROTATABLE_BOND>
3
> <PUBCHEM_CACTVS_SUBSKEYS>
AAADccBzuAAAAAAAAAAAAAAAAAAAAWJAAAAgAAAAAAAAAAABgAAAHgAICAAADBThgAYHEAcIFgCqAgJndACQAAsQgIAVQAAoABCBGAIAiQAOQAAPBgIDAACwMAIAAAAAAAAAAAAAAAAAAAAAAAAAAAAAAA==
> <PUBCHEM_IUPAC_OPENEYE_NAME>
1-[(2R,4S,5R)-4-hydroxy-5-(hydroxymethyl)tetrahydrofuran-2-yl]-5-methyl-4-(1,2,4-triazol-1-yl)pyrimidin-2-one
> <PUBCHEM_IUPAC_CAS_NAME>
1-[(2R,4S,5R)-4-hydroxy-5-(hydroxymethyl)-2-oxolanyl]-5-methyl-4-(1,2,4-triazol-1-yl)-2-pyrimidinone
> <PUBCHEM_IUPAC_NAME_MARKUP>
1-[(2<I>R</I>,4<I>S</I>,5<I>R</I>)-4-hydroxy-5-(hydroxymethyl)oxolan-2-yl]-5-methyl-4-(1,2,4-triazol-1-yl)pyrimidin-2-one
> <PUBCHEM_IUPAC_NAME>
1-[(2R,4S,5R)-4-hydroxy-5-(hydroxymethyl)oxolan-2-yl]-5-methyl-4-(1,2,4-triazol-1-yl)pyrimidin-2-one
> <PUBCHEM_IUPAC_SYSTEMATIC_NAME>
1-[(2R,4S,5R)-5-(hydroxymethyl)-4-oxidanyl-oxolan-2-yl]-5-methyl-4-(1,2,4-triazol-1-yl)pyrimidin-2-one
> <PUBCHEM_IUPAC_TRADITIONAL_NAME>
1-[(2R,4S,5R)-4-hydroxy-5-methylol-tetrahydrofuran-2-yl]-5-methyl-4-(1,2,4-triazol-1-yl)pyrimidin-2-one
> <PUBCHEM_IUPAC_INCHI>
InChI=1S/C12H15N5O4/c1-7-3-16(10-2-8(19)9(4-18)21-10)12(20)15-11(7)17-6-13-5-14-17/h3,5-6,8-10,18-19H,2,4H2,1H3/t8-,9+,10+/m0/s1
> <PUBCHEM_IUPAC_INCHIKEY>
JPVLKWJVGSRGSQ-IVZWLZJFSA-N
> <PUBCHEM_XLOGP3_AA>
-0.5
> <PUBCHEM_EXACT_MASS>
293.11240398
> <PUBCHEM_MOLECULAR_FORMULA>
C12H15N5O4
> <PUBCHEM_MOLECULAR_WEIGHT>
293.28
> <PUBCHEM_OPENEYE_CAN_SMILES>
CC1=CN(C(=O)N=C1N2C=NC=N2)C3CC(C(O3)CO)O
> <PUBCHEM_OPENEYE_ISO_SMILES>
CC1=CN(C(=O)N=C1N2C=NC=N2)[C@H]3C[C@@H]([C@H](O3)CO)O
> <PUBCHEM_CACTVS_TPSA>
113
> <PUBCHEM_MONOISOTOPIC_WEIGHT>
293.11240398
> <PUBCHEM_TOTAL_CHARGE>
0
> <PUBCHEM_HEAVY_ATOM_COUNT>
21
> <PUBCHEM_ATOM_DEF_STEREO_COUNT>
3
> <PUBCHEM_ATOM_UDEF_STEREO_COUNT>
0
> <PUBCHEM_BOND_DEF_STEREO_COUNT>
0
> <PUBCHEM_BOND_UDEF_STEREO_COUNT>
0
> <PUBCHEM_ISOTOPIC_ATOM_COUNT>
0
> <PUBCHEM_COMPONENT_COUNT>
1
> <PUBCHEM_CACTVS_TAUTO_COUNT>
1
> <PUBCHEM_COORDINATE_TYPE>
1
5
255
> <PUBCHEM_BONDANNOTATIONS>
13  14  6
15  17  8
17  18  8
10  2  5
11  5  6
5  15  8
5  16  8
6  16  8
6  18  8
7  20  8
7  8  8
8  21  8
9  20  8
9  21  8
$$$$
