512304
  -OEChem-10302200282D
 52 54  0     1  0  0  0  0  0999 V2000
    9.6846   -1.6900    0.0000 P   0  0  0  0  0  0  0  0  0  0  0  0
    8.0382   -1.1519    0.0000 O   0  0  0  0  0  0  0  0  0  0  0  0
   10.3524   -2.4343    0.0000 O   0  0  0  0  0  0  0  0  0  0  0  0
   10.4289   -1.0221    0.0000 O   0  0  0  0  0  0  0  0  0  0  0  0
    8.3024    2.4440    0.0000 O   0  0  0  0  0  0  0  0  0  0  0  0
    8.9403   -2.3578    0.0000 O   0  0  0  0  0  0  0  0  0  0  0  0
    9.9022    4.5512    0.0000 O   0  0  0  0  0  0  0  0  0  0  0  0
    8.6130    3.3945    0.0000 O   0  0  0  0  0  0  0  0  0  0  0  0
    6.0812   -1.5643    0.0000 N   0  0  0  0  0  0  0  0  0  0  0  0
    8.6596    0.7491    0.0000 N   0  0  0  0  0  0  0  0  0  0  0  0
    6.0812   -3.1738    0.0000 N   0  0  0  0  0  0  0  0  0  0  0  0
    4.2690   -1.3691    0.0000 N   0  0  0  0  0  0  0  0  0  0  0  0
    3.4030   -2.8691    0.0000 N   0  0  0  0  0  0  0  0  0  0  0  0
    4.2690   -4.3691    0.0000 N   0  0  0  0  0  0  0  0  0  0  0  0
    2.5369   -1.3691    0.0000 N   0  0  0  0  0  0  0  0  0  0  0  0
    7.3704   -0.4076    0.0000 C   0  0  3  0  0  0  0  0  0  0  0  0
    6.3919   -0.6138    0.0000 C   0  0  0  0  0  0  0  0  0  0  0  0
    7.6811    0.5429    0.0000 C   0  0  0  0  0  0  0  0  0  0  0  0
    5.1350   -1.8691    0.0000 C   0  0  0  0  0  0  0  0  0  0  0  0
    6.6648   -2.3691    0.0000 C   0  0  0  0  0  0  0  0  0  0  0  0
    5.1350   -2.8691    0.0000 C   0  0  0  0  0  0  0  0  0  0  0  0
    9.0168   -0.9457    0.0000 C   0  0  0  0  0  0  0  0  0  0  0  0
    8.9702    1.6997    0.0000 C   0  0  0  0  0  0  0  0  0  0  0  0
    4.2690   -3.3691    0.0000 C   0  0  0  0  0  0  0  0  0  0  0  0
    9.9487    1.9059    0.0000 C   0  0  0  0  0  0  0  0  0  0  0  0
    3.4030   -1.8691    0.0000 C   0  0  0  0  0  0  0  0  0  0  0  0
   10.2594    2.8564    0.0000 C   0  0  0  0  0  0  0  0  0  0  0  0
   10.6166    1.1616    0.0000 C   0  0  0  0  0  0  0  0  0  0  0  0
   11.2379    3.0626    0.0000 C   0  0  0  0  0  0  0  0  0  0  0  0
   11.5951    1.3678    0.0000 C   0  0  0  0  0  0  0  0  0  0  0  0
   11.9057    2.3183    0.0000 C   0  0  0  0  0  0  0  0  0  0  0  0
    9.5916    3.6007    0.0000 C   0  0  0  0  0  0  0  0  0  0  0  0
    7.9771   -0.2797    0.0000 H   0  0  0  0  0  0  0  0  0  0  0  0
    6.3713    0.0058    0.0000 H   0  0  0  0  0  0  0  0  0  0  0  0
    5.7781   -0.5265    0.0000 H   0  0  0  0  0  0  0  0  0  0  0  0
    7.6605    1.1626    0.0000 H   0  0  0  0  0  0  0  0  0  0  0  0
    7.0672    0.6303    0.0000 H   0  0  0  0  0  0  0  0  0  0  0  0
    9.0736    0.2877    0.0000 H   0  0  0  0  0  0  0  0  0  0  0  0
    7.2848   -2.3691    0.0000 H   0  0  0  0  0  0  0  0  0  0  0  0
    9.5431   -0.6180    0.0000 H   0  0  0  0  0  0  0  0  0  0  0  0
    8.7855   -0.3704    0.0000 H   0  0  0  0  0  0  0  0  0  0  0  0
   10.4240    0.5723    0.0000 H   0  0  0  0  0  0  0  0  0  0  0  0
    3.7320   -4.6791    0.0000 H   0  0  0  0  0  0  0  0  0  0  0  0
    4.8059   -4.6791    0.0000 H   0  0  0  0  0  0  0  0  0  0  0  0
   11.4305    3.6519    0.0000 H   0  0  0  0  0  0  0  0  0  0  0  0
   10.9591   -2.3064    0.0000 H   0  0  0  0  0  0  0  0  0  0  0  0
   11.0182   -1.2148    0.0000 H   0  0  0  0  0  0  0  0  0  0  0  0
   12.0091    0.9063    0.0000 H   0  0  0  0  0  0  0  0  0  0  0  0
    2.0000   -1.6791    0.0000 H   0  0  0  0  0  0  0  0  0  0  0  0
    2.5369   -0.7491    0.0000 H   0  0  0  0  0  0  0  0  0  0  0  0
   12.5124    2.4462    0.0000 H   0  0  0  0  0  0  0  0  0  0  0  0
   10.5089    4.6791    0.0000 H   0  0  0  0  0  0  0  0  0  0  0  0
  1  3  1  0  0  0  0
  1  4  1  0  0  0  0
  1  6  2  0  0  0  0
  1 22  1  0  0  0  0
  2 16  1  0  0  0  0
  2 22  1  0  0  0  0
  3 46  1  0  0  0  0
  4 47  1  0  0  0  0
  5 23  2  0  0  0  0
  7 32  1  0  0  0  0
  7 52  1  0  0  0  0
  8 32  2  0  0  0  0
  9 17  1  0  0  0  0
  9 19  1  0  0  0  0
  9 20  1  0  0  0  0
 10 18  1  0  0  0  0
 10 23  1  0  0  0  0
 10 38  1  0  0  0  0
 11 20  2  0  0  0  0
 11 21  1  0  0  0  0
 12 19  2  0  0  0  0
 12 26  1  0  0  0  0
 13 24  1  0  0  0  0
 13 26  2  0  0  0  0
 14 24  1  0  0  0  0
 14 43  1  0  0  0  0
 14 44  1  0  0  0  0
 15 26  1  0  0  0  0
 15 49  1  0  0  0  0
 15 50  1  0  0  0  0
 16 17  1  0  0  0  0
 16 18  1  0  0  0  0
 16 33  1  0  0  0  0
 17 34  1  0  0  0  0
 17 35  1  0  0  0  0
 18 36  1  0  0  0  0
 18 37  1  0  0  0  0
 19 21  1  0  0  0  0
 20 39  1  0  0  0  0
 21 24  2  0  0  0  0
 22 40  1  0  0  0  0
 22 41  1  0  0  0  0
 23 25  1  0  0  0  0
 25 27  1  0  0  0  0
 25 28  2  0  0  0  0
 27 29  2  0  0  0  0
 27 32  1  0  0  0  0
 28 30  1  0  0  0  0
 28 42  1  0  0  0  0
 29 31  1  0  0  0  0
 29 45  1  0  0  0  0
 30 31  2  0  0  0  0
 30 48  1  0  0  0  0
 31 51  1  0  0  0  0
M  END
> <PUBCHEM_COMPOUND_CID>
512304
> <PUBCHEM_COMPOUND_CANONICALIZED>
1
> <PUBCHEM_CACTVS_COMPLEXITY>
725
> <PUBCHEM_CACTVS_HBOND_ACCEPTOR>
12
> <PUBCHEM_CACTVS_HBOND_DONOR>
6
> <PUBCHEM_CACTVS_ROTATABLE_BOND>
9
> <PUBCHEM_CACTVS_SUBSKEYS>
AAADceB7uAIAAAAAAAAAAAAAAAAAAWAAAAA8QAAAAAAAAFgB/AAAHggQCCAADBzhnwY1+L/MFhCoQyfzfICCgC01EKAJ2KEoXNiKbjLA3VGVdQhs1gPYmae/yKCOgAAAAAAQAAAAAAAAACAAAAAAAAAAAA==
> <PUBCHEM_IUPAC_OPENEYE_NAME>
2-[[3-(2,6-diaminopurin-9-yl)-2-(phosphonomethoxy)propyl]carbamoyl]benzoic acid
> <PUBCHEM_IUPAC_CAS_NAME>
2-[[[3-(2,6-diamino-9-purinyl)-2-(phosphonomethoxy)propyl]amino]-oxomethyl]benzoic acid
> <PUBCHEM_IUPAC_NAME_MARKUP>
2-[[3-(2,6-diaminopurin-9-yl)-2-(phosphonomethoxy)propyl]carbamoyl]benzoic acid
> <PUBCHEM_IUPAC_NAME>
2-[[3-(2,6-diaminopurin-9-yl)-2-(phosphonomethoxy)propyl]carbamoyl]benzoic acid
> <PUBCHEM_IUPAC_SYSTEMATIC_NAME>
2-[[3-[2,6-bis(azanyl)purin-9-yl]-2-(phosphonomethoxy)propyl]carbamoyl]benzoic acid
> <PUBCHEM_IUPAC_TRADITIONAL_NAME>
2-[[3-(2,6-diaminopurin-9-yl)-2-(phosphonomethoxy)propyl]carbamoyl]benzoic acid
> <PUBCHEM_IUPAC_INCHI>
InChI=1S/C17H20N7O7P/c18-13-12-14(23-17(19)22-13)24(7-21-12)6-9(31-8-32(28,29)30)5-20-15(25)10-3-1-2-4-11(10)16(26)27/h1-4,7,9H,5-6,8H2,(H,20,25)(H,26,27)(H2,28,29,30)(H4,18,19,22,23)
> <PUBCHEM_IUPAC_INCHIKEY>
APCYPZIULDGQKE-UHFFFAOYSA-N
> <PUBCHEM_XLOGP3_AA>
-2
> <PUBCHEM_EXACT_MASS>
465.11618300
> <PUBCHEM_MOLECULAR_FORMULA>
C17H20N7O7P
> <PUBCHEM_MOLECULAR_WEIGHT>
465.4
> <PUBCHEM_OPENEYE_CAN_SMILES>
C1=CC=C(C(=C1)C(=O)NCC(CN2C=NC3=C(N=C(N=C32)N)N)OCP(=O)(O)O)C(=O)O
> <PUBCHEM_OPENEYE_ISO_SMILES>
C1=CC=C(C(=C1)C(=O)NCC(CN2C=NC3=C(N=C(N=C32)N)N)OCP(=O)(O)O)C(=O)O
> <PUBCHEM_CACTVS_TPSA>
229
> <PUBCHEM_MONOISOTOPIC_WEIGHT>
465.11618300
> <PUBCHEM_TOTAL_CHARGE>
0
> <PUBCHEM_HEAVY_ATOM_COUNT>
32
> <PUBCHEM_ATOM_DEF_STEREO_COUNT>
0
> <PUBCHEM_ATOM_UDEF_STEREO_COUNT>
1
> <PUBCHEM_BOND_DEF_STEREO_COUNT>
0
> <PUBCHEM_BOND_UDEF_STEREO_COUNT>
0
> <PUBCHEM_ISOTOPIC_ATOM_COUNT>
0
> <PUBCHEM_COMPONENT_COUNT>
1
> <PUBCHEM_CACTVS_TAUTO_COUNT>
-1
> <PUBCHEM_COORDINATE_TYPE>
1
5
255
> <PUBCHEM_BONDANNOTATIONS>
11  20  8
11  21  8
12  19  8
12  26  8
13  24  8
13  26  8
16  18  3
19  21  8
21  24  8
25  27  8
25  28  8
27  29  8
28  30  8
29  31  8
30  31  8
9  19  8
9  20  8
$$$$
