512307
  -OEChem-10302200282D
 46 48  0     1  0  0  0  0  0999 V2000
    8.2816    0.3034    0.0000 P   0  0  0  0  0  0  0  0  0  0  0  0
    6.6353   -0.2347    0.0000 O   0  0  0  0  0  0  0  0  0  0  0  0
    9.2136   -2.5482    0.0000 O   0  0  0  0  0  0  0  0  0  0  0  0
    8.9495    1.0477    0.0000 O   0  0  0  0  0  0  0  0  0  0  0  0
    7.5373    0.9712    0.0000 O   0  0  0  0  0  0  0  0  0  0  0  0
    9.0259   -0.3645    0.0000 O   0  0  0  0  0  0  0  0  0  0  0  0
    7.2566   -2.1357    0.0000 N   0  0  0  0  0  0  0  0  0  0  0  0
    4.6783    0.1777    0.0000 N   0  0  0  0  0  0  0  0  0  0  0  0
    4.6783    1.7872    0.0000 N   0  0  0  0  0  0  0  0  0  0  0  0
    2.8660   -0.0175    0.0000 N   0  0  0  0  0  0  0  0  0  0  0  0
    2.0000    1.4825    0.0000 N   0  0  0  0  0  0  0  0  0  0  0  0
    2.8660    2.9825    0.0000 N   0  0  0  0  0  0  0  0  0  0  0  0
    6.2781   -1.9295    0.0000 C   0  0  0  0  0  0  0  0  0  0  0  0
    5.9674   -0.9790    0.0000 C   0  0  3  0  0  0  0  0  0  0  0  0
    7.5673   -3.0863    0.0000 C   0  0  0  0  0  0  0  0  0  0  0  0
    7.9244   -1.3914    0.0000 C   0  0  0  0  0  0  0  0  0  0  0  0
    4.9889   -0.7728    0.0000 C   0  0  0  0  0  0  0  0  0  0  0  0
    8.5458   -3.2925    0.0000 C   0  0  0  0  0  0  0  0  0  0  0  0
    8.9030   -1.5976    0.0000 C   0  0  0  0  0  0  0  0  0  0  0  0
    3.7320    0.4825    0.0000 C   0  0  0  0  0  0  0  0  0  0  0  0
    7.6138   -0.4409    0.0000 C   0  0  0  0  0  0  0  0  0  0  0  0
    5.2619    0.9825    0.0000 C   0  0  0  0  0  0  0  0  0  0  0  0
    3.7320    1.4825    0.0000 C   0  0  0  0  0  0  0  0  0  0  0  0
    2.8660    1.9825    0.0000 C   0  0  0  0  0  0  0  0  0  0  0  0
    2.0000    0.4825    0.0000 C   0  0  0  0  0  0  0  0  0  0  0  0
    5.6643   -2.0169    0.0000 H   0  0  0  0  0  0  0  0  0  0  0  0
    6.2575   -2.5492    0.0000 H   0  0  0  0  0  0  0  0  0  0  0  0
    5.7748   -0.3897    0.0000 H   0  0  0  0  0  0  0  0  0  0  0  0
    6.9534   -3.1736    0.0000 H   0  0  0  0  0  0  0  0  0  0  0  0
    7.5467   -3.7059    0.0000 H   0  0  0  0  0  0  0  0  0  0  0  0
    8.1557   -0.8162    0.0000 H   0  0  0  0  0  0  0  0  0  0  0  0
    7.3981   -1.0638    0.0000 H   0  0  0  0  0  0  0  0  0  0  0  0
    4.3751   -0.8601    0.0000 H   0  0  0  0  0  0  0  0  0  0  0  0
    4.9684   -1.3924    0.0000 H   0  0  0  0  0  0  0  0  0  0  0  0
    8.3145   -3.8677    0.0000 H   0  0  0  0  0  0  0  0  0  0  0  0
    9.0721   -3.6201    0.0000 H   0  0  0  0  0  0  0  0  0  0  0  0
    9.5168   -1.5103    0.0000 H   0  0  0  0  0  0  0  0  0  0  0  0
    8.9235   -0.9780    0.0000 H   0  0  0  0  0  0  0  0  0  0  0  0
    7.3825   -1.0162    0.0000 H   0  0  0  0  0  0  0  0  0  0  0  0
    8.1402   -0.7686    0.0000 H   0  0  0  0  0  0  0  0  0  0  0  0
    5.8819    0.9825    0.0000 H   0  0  0  0  0  0  0  0  0  0  0  0
    1.4631    0.1725    0.0000 H   0  0  0  0  0  0  0  0  0  0  0  0
    9.5562    0.9198    0.0000 H   0  0  0  0  0  0  0  0  0  0  0  0
    7.6652    1.5779    0.0000 H   0  0  0  0  0  0  0  0  0  0  0  0
    2.3291    3.2925    0.0000 H   0  0  0  0  0  0  0  0  0  0  0  0
    3.4030    3.2925    0.0000 H   0  0  0  0  0  0  0  0  0  0  0  0
  1  4  1  0  0  0  0
  1  5  1  0  0  0  0
  1  6  2  0  0  0  0
  1 21  1  0  0  0  0
  2 14  1  0  0  0  0
  2 21  1  0  0  0  0
  3 18  1  0  0  0  0
  3 19  1  0  0  0  0
  4 43  1  0  0  0  0
  5 44  1  0  0  0  0
  7 13  1  0  0  0  0
  7 15  1  0  0  0  0
  7 16  1  0  0  0  0
  8 17  1  0  0  0  0
  8 20  1  0  0  0  0
  8 22  1  0  0  0  0
  9 22  2  0  0  0  0
  9 23  1  0  0  0  0
 10 20  2  0  0  0  0
 10 25  1  0  0  0  0
 11 24  1  0  0  0  0
 11 25  2  0  0  0  0
 12 24  1  0  0  0  0
 12 45  1  0  0  0  0
 12 46  1  0  0  0  0
 13 14  1  0  0  0  0
 13 26  1  0  0  0  0
 13 27  1  0  0  0  0
 14 17  1  0  0  0  0
 14 28  1  0  0  0  0
 15 18  1  0  0  0  0
 15 29  1  0  0  0  0
 15 30  1  0  0  0  0
 16 19  1  0  0  0  0
 16 31  1  0  0  0  0
 16 32  1  0  0  0  0
 17 33  1  0  0  0  0
 17 34  1  0  0  0  0
 18 35  1  0  0  0  0
 18 36  1  0  0  0  0
 19 37  1  0  0  0  0
 19 38  1  0  0  0  0
 20 23  1  0  0  0  0
 21 39  1  0  0  0  0
 21 40  1  0  0  0  0
 22 41  1  0  0  0  0
 23 24  2  0  0  0  0
 25 42  1  0  0  0  0
M  END
> <PUBCHEM_COMPOUND_CID>
512307
> <PUBCHEM_COMPOUND_CANONICALIZED>
1
> <PUBCHEM_CACTVS_COMPLEXITY>
476
> <PUBCHEM_CACTVS_HBOND_ACCEPTOR>
10
> <PUBCHEM_CACTVS_HBOND_DONOR>
3
> <PUBCHEM_CACTVS_ROTATABLE_BOND>
7
> <PUBCHEM_CACTVS_SUBSKEYS>
AAADceBzuAIAAAAAAAAAAAAAAAAAAWAAAAAsWAAAAAAAAFgB+AAAHggQCCAACBzhlwYF8L9MFBCgQQZhZICAgC0REKABUCAoVBCCSABASEAXBAgIAALQACAAAAAAAAAAAAAAAAAAAAAAAAAAAAAAAAAAAA==
> <PUBCHEM_IUPAC_OPENEYE_NAME>
[1-[(6-aminopurin-9-yl)methyl]-2-morpholino-ethoxy]methylphosphonic acid
> <PUBCHEM_IUPAC_CAS_NAME>
[1-(6-aminopurin-9-yl)-3-(4-morpholinyl)propan-2-yl]oxymethylphosphonic acid
> <PUBCHEM_IUPAC_NAME_MARKUP>
[1-(6-aminopurin-9-yl)-3-morpholin-4-ylpropan-2-yl]oxymethylphosphonic acid
> <PUBCHEM_IUPAC_NAME>
[1-(6-aminopurin-9-yl)-3-morpholin-4-ylpropan-2-yl]oxymethylphosphonic acid
> <PUBCHEM_IUPAC_SYSTEMATIC_NAME>
[1-(6-aminopurin-9-yl)-3-morpholin-4-yl-propan-2-yl]oxymethylphosphonic acid
> <PUBCHEM_IUPAC_TRADITIONAL_NAME>
[1-(adenin-9-ylmethyl)-2-morpholino-ethoxy]methylphosphonic acid
> <PUBCHEM_IUPAC_INCHI>
InChI=1S/C13H21N6O5P/c14-12-11-13(16-7-15-12)19(8-17-11)6-10(24-9-25(20,21)22)5-18-1-3-23-4-2-18/h7-8,10H,1-6,9H2,(H2,14,15,16)(H2,20,21,22)
> <PUBCHEM_IUPAC_INCHIKEY>
MDFCXHKQKWMCCK-UHFFFAOYSA-N
> <PUBCHEM_XLOGP3>
-4.6
> <PUBCHEM_EXACT_MASS>
372.13110479
> <PUBCHEM_MOLECULAR_FORMULA>
C13H21N6O5P
> <PUBCHEM_MOLECULAR_WEIGHT>
372.32
> <PUBCHEM_OPENEYE_CAN_SMILES>
C1COCCN1CC(CN2C=NC3=C(N=CN=C32)N)OCP(=O)(O)O
> <PUBCHEM_OPENEYE_ISO_SMILES>
C1COCCN1CC(CN2C=NC3=C(N=CN=C32)N)OCP(=O)(O)O
> <PUBCHEM_CACTVS_TPSA>
149
> <PUBCHEM_MONOISOTOPIC_WEIGHT>
372.13110479
> <PUBCHEM_TOTAL_CHARGE>
0
> <PUBCHEM_HEAVY_ATOM_COUNT>
25
> <PUBCHEM_ATOM_DEF_STEREO_COUNT>
0
> <PUBCHEM_ATOM_UDEF_STEREO_COUNT>
1
> <PUBCHEM_BOND_DEF_STEREO_COUNT>
0
> <PUBCHEM_BOND_UDEF_STEREO_COUNT>
0
> <PUBCHEM_ISOTOPIC_ATOM_COUNT>
0
> <PUBCHEM_COMPONENT_COUNT>
1
> <PUBCHEM_CACTVS_TAUTO_COUNT>
-1
> <PUBCHEM_COORDINATE_TYPE>
1
5
255
> <PUBCHEM_BONDANNOTATIONS>
10  20  8
10  25  8
11  24  8
11  25  8
14  17  3
20  23  8
23  24  8
8  20  8
8  22  8
9  22  8
9  23  8
$$$$
