512348
  -OEChem-10302200282D
 60 64  0     1  0  0  0  0  0999 V2000
    4.3540    2.9063    0.0000 N   0  0  0  0  0  0  0  0  0  0  0  0
    3.6730   -1.3551    0.0000 C   0  0  0  0  0  0  0  0  0  0  0  0
    3.6730   -0.3551    0.0000 C   0  0  3  0  0  0  0  0  0  0  0  0
    4.5092   -2.8034    0.0000 C   0  0  0  0  0  0  0  0  0  0  0  0
    2.8368   -2.8034    0.0000 C   0  0  0  0  0  0  0  0  0  0  0  0
    2.9819   -3.2385    0.0000 C   0  0  0  0  0  0  0  0  0  0  0  0
    4.5092   -1.8379    0.0000 C   0  0  0  0  0  0  0  0  0  0  0  0
    2.8368   -1.8379    0.0000 C   0  0  0  0  0  0  0  0  0  0  0  0
    2.9819   -2.1932    0.0000 C   0  0  0  0  0  0  0  0  0  0  0  0
    3.6730   -3.1062    0.0000 C   0  0  0  0  0  0  0  0  0  0  0  0
    3.8876   -3.7153    0.0000 C   0  0  0  0  0  0  0  0  0  0  0  0
    2.0000   -3.2862    0.0000 C   0  0  0  0  0  0  0  0  0  0  0  0
    4.4820    0.2327    0.0000 C   0  0  2  0  0  0  0  0  0  0  0  0
    2.8640    0.2327    0.0000 C   0  0  0  0  0  0  0  0  0  0  0  0
    4.1730    1.1837    0.0000 C   0  0  3  0  0  0  0  0  0  0  0  0
    3.1730    1.1837    0.0000 C   0  0  0  0  0  0  0  0  0  0  0  0
    5.4331   -0.0763    0.0000 C   0  0  0  0  0  0  0  0  0  0  0  0
    4.7608    1.9928    0.0000 C   0  0  0  0  0  0  0  0  0  0  0  0
    5.6410   -1.0545    0.0000 C   0  0  0  0  0  0  0  0  0  0  0  0
    6.1762    0.5928    0.0000 C   0  0  0  0  0  0  0  0  0  0  0  0
    6.5920   -1.3635    0.0000 C   0  0  0  0  0  0  0  0  0  0  0  0
    7.1273    0.2838    0.0000 C   0  0  0  0  0  0  0  0  0  0  0  0
    4.9418    3.7153    0.0000 C   0  0  0  0  0  0  0  0  0  0  0  0
    3.3595    3.0108    0.0000 C   0  0  0  0  0  0  0  0  0  0  0  0
    7.3352   -0.6944    0.0000 C   0  0  0  0  0  0  0  0  0  0  0  0
    4.2254   -0.6366    0.0000 H   0  0  0  0  0  0  0  0  0  0  0  0
    5.1016   -2.9862    0.0000 H   0  0  0  0  0  0  0  0  0  0  0  0
    3.3444   -2.4474    0.0000 H   0  0  0  0  0  0  0  0  0  0  0  0
    2.8478   -3.8438    0.0000 H   0  0  0  0  0  0  0  0  0  0  0  0
    5.1198   -1.9456    0.0000 H   0  0  0  0  0  0  0  0  0  0  0  0
    4.7212   -1.2553    0.0000 H   0  0  0  0  0  0  0  0  0  0  0  0
    2.6247   -1.2553    0.0000 H   0  0  0  0  0  0  0  0  0  0  0  0
    2.2262   -1.9455    0.0000 H   0  0  0  0  0  0  0  0  0  0  0  0
    2.6383   -1.6772    0.0000 H   0  0  0  0  0  0  0  0  0  0  0  0
    2.3885   -2.3727    0.0000 H   0  0  0  0  0  0  0  0  0  0  0  0
    3.3030   -3.6037    0.0000 H   0  0  0  0  0  0  0  0  0  0  0  0
    4.0430   -3.6037    0.0000 H   0  0  0  0  0  0  0  0  0  0  0  0
    3.5782   -4.2526    0.0000 H   0  0  0  0  0  0  0  0  0  0  0  0
    4.4127   -4.0449    0.0000 H   0  0  0  0  0  0  0  0  0  0  0  0
    1.5188   -2.8953    0.0000 H   0  0  0  0  0  0  0  0  0  0  0  0
    1.8068   -3.8753    0.0000 H   0  0  0  0  0  0  0  0  0  0  0  0
    4.9204    0.6711    0.0000 H   0  0  0  0  0  0  0  0  0  0  0  0
    2.2976    0.4849    0.0000 H   0  0  0  0  0  0  0  0  0  0  0  0
    2.5540   -0.3043    0.0000 H   0  0  0  0  0  0  0  0  0  0  0  0
    3.8915    1.7362    0.0000 H   0  0  0  0  0  0  0  0  0  0  0  0
    3.2378    1.8003    0.0000 H   0  0  0  0  0  0  0  0  0  0  0  0
    2.5665    1.3126    0.0000 H   0  0  0  0  0  0  0  0  0  0  0  0
    5.1915    1.5468    0.0000 H   0  0  0  0  0  0  0  0  0  0  0  0
    5.2748    2.3395    0.0000 H   0  0  0  0  0  0  0  0  0  0  0  0
    5.1802   -1.4693    0.0000 H   0  0  0  0  0  0  0  0  0  0  0  0
    6.0473    1.1993    0.0000 H   0  0  0  0  0  0  0  0  0  0  0  0
    6.7210   -1.9699    0.0000 H   0  0  0  0  0  0  0  0  0  0  0  0
    7.5880    0.6987    0.0000 H   0  0  0  0  0  0  0  0  0  0  0  0
    5.4434    3.3509    0.0000 H   0  0  0  0  0  0  0  0  0  0  0  0
    5.3062    4.2169    0.0000 H   0  0  0  0  0  0  0  0  0  0  0  0
    4.4402    4.0798    0.0000 H   0  0  0  0  0  0  0  0  0  0  0  0
    3.4243    3.6274    0.0000 H   0  0  0  0  0  0  0  0  0  0  0  0
    2.7429    3.0756    0.0000 H   0  0  0  0  0  0  0  0  0  0  0  0
    3.2947    2.3942    0.0000 H   0  0  0  0  0  0  0  0  0  0  0  0
    7.9248   -0.8859    0.0000 H   0  0  0  0  0  0  0  0  0  0  0  0
  1 18  1  0  0  0  0
  1 23  1  0  0  0  0
  1 24  1  0  0  0  0
  2  3  1  0  0  0  0
  2  7  1  0  0  0  0
  2  8  1  0  0  0  0
  2  9  1  0  0  0  0
  3 13  1  0  0  0  0
  3 14  1  0  0  0  0
  3 26  1  0  0  0  0
  4  7  1  0  0  0  0
  4 10  1  0  0  0  0
  4 11  1  0  0  0  0
  4 27  1  0  0  0  0
  5  8  1  0  0  0  0
  5 10  1  0  0  0  0
  5 12  1  0  0  0  0
  5 28  1  0  0  0  0
  6  9  1  0  0  0  0
  6 11  1  0  0  0  0
  6 12  1  0  0  0  0
  6 29  1  0  0  0  0
  7 30  1  0  0  0  0
  7 31  1  0  0  0  0
  8 32  1  0  0  0  0
  8 33  1  0  0  0  0
  9 34  1  0  0  0  0
  9 35  1  0  0  0  0
 10 36  1  0  0  0  0
 10 37  1  0  0  0  0
 11 38  1  0  0  0  0
 11 39  1  0  0  0  0
 12 40  1  0  0  0  0
 12 41  1  0  0  0  0
 13 15  1  0  0  0  0
 13 17  1  6  0  0  0
 13 42  1  0  0  0  0
 14 16  1  0  0  0  0
 14 43  1  0  0  0  0
 14 44  1  0  0  0  0
 15 16  1  0  0  0  0
 15 18  1  0  0  0  0
 15 45  1  0  0  0  0
 16 46  1  0  0  0  0
 16 47  1  0  0  0  0
 17 19  2  0  0  0  0
 17 20  1  0  0  0  0
 18 48  1  0  0  0  0
 18 49  1  0  0  0  0
 19 21  1  0  0  0  0
 19 50  1  0  0  0  0
 20 22  2  0  0  0  0
 20 51  1  0  0  0  0
 21 25  2  0  0  0  0
 21 52  1  0  0  0  0
 22 25  1  0  0  0  0
 22 53  1  0  0  0  0
 23 54  1  0  0  0  0
 23 55  1  0  0  0  0
 23 56  1  0  0  0  0
 24 57  1  0  0  0  0
 24 58  1  0  0  0  0
 24 59  1  0  0  0  0
 25 60  1  0  0  0  0
M  END
> <PUBCHEM_COMPOUND_CID>
512348
> <PUBCHEM_COMPOUND_CANONICALIZED>
1
> <PUBCHEM_CACTVS_COMPLEXITY>
433
> <PUBCHEM_CACTVS_HBOND_ACCEPTOR>
1
> <PUBCHEM_CACTVS_HBOND_DONOR>
0
> <PUBCHEM_CACTVS_ROTATABLE_BOND>
4
> <PUBCHEM_CACTVS_SUBSKEYS>
AAADcfB6AAAAAAAAAAAAAAAAAAAAAYAAAAAwYMGDAAAAAAABAAAAHAAAAAAADwDBGAQyAIMAAACAAiBCAAACAAAgAAAIiAAIAIgIICKAkRCEIAAggAAIiAcQgMAPgAAAAAAAAAAAAAQAAAAAAQAACAAAAA==
> <PUBCHEM_IUPAC_OPENEYE_NAME>
1-[(2R)-3-(1-adamantyl)-2-phenyl-cyclopentyl]-N,N-dimethyl-methanamine
> <PUBCHEM_IUPAC_CAS_NAME>
1-[(2R)-3-(1-adamantyl)-2-phenylcyclopentyl]-N,N-dimethylmethanamine
> <PUBCHEM_IUPAC_NAME_MARKUP>
1-[(2<I>R</I>)-3-(1-adamantyl)-2-phenylcyclopentyl]-<I>N</I>,<I>N</I>-dimethylmethanamine
> <PUBCHEM_IUPAC_NAME>
1-[(2R)-3-(1-adamantyl)-2-phenylcyclopentyl]-N,N-dimethylmethanamine
> <PUBCHEM_IUPAC_SYSTEMATIC_NAME>
1-[(2R)-3-(1-adamantyl)-2-phenyl-cyclopentyl]-N,N-dimethyl-methanamine
> <PUBCHEM_IUPAC_TRADITIONAL_NAME>
[(2R)-3-(1-adamantyl)-2-phenyl-cyclopentyl]methyl-dimethyl-amine
> <PUBCHEM_IUPAC_INCHI>
InChI=1S/C24H35N/c1-25(2)16-21-8-9-22(23(21)20-6-4-3-5-7-20)24-13-17-10-18(14-24)12-19(11-17)15-24/h3-7,17-19,21-23H,8-16H2,1-2H3/t17?,18?,19?,21?,22?,23-,24?/m0/s1
> <PUBCHEM_IUPAC_INCHIKEY>
IOEICCJZXSKQEL-CAFJOMCASA-N
> <PUBCHEM_XLOGP3_AA>
6.7
> <PUBCHEM_EXACT_MASS>
337.276950121
> <PUBCHEM_MOLECULAR_FORMULA>
C24H35N
> <PUBCHEM_MOLECULAR_WEIGHT>
337.5
> <PUBCHEM_OPENEYE_CAN_SMILES>
CN(C)CC1CCC(C1C2=CC=CC=C2)C34CC5CC(C3)CC(C5)C4
> <PUBCHEM_OPENEYE_ISO_SMILES>
CN(C)CC1CCC([C@H]1C2=CC=CC=C2)C34CC5CC(C3)CC(C5)C4
> <PUBCHEM_CACTVS_TPSA>
3.2
> <PUBCHEM_MONOISOTOPIC_WEIGHT>
337.276950121
> <PUBCHEM_TOTAL_CHARGE>
0
> <PUBCHEM_HEAVY_ATOM_COUNT>
25
> <PUBCHEM_ATOM_DEF_STEREO_COUNT>
1
> <PUBCHEM_ATOM_UDEF_STEREO_COUNT>
2
> <PUBCHEM_BOND_DEF_STEREO_COUNT>
0
> <PUBCHEM_BOND_UDEF_STEREO_COUNT>
0
> <PUBCHEM_ISOTOPIC_ATOM_COUNT>
0
> <PUBCHEM_COMPONENT_COUNT>
1
> <PUBCHEM_CACTVS_TAUTO_COUNT>
-1
> <PUBCHEM_COORDINATE_TYPE>
1
5
255
> <PUBCHEM_BONDANNOTATIONS>
13  17  6
15  18  3
17  19  8
17  20  8
19  21  8
3  2  3
20  22  8
21  25  8
22  25  8
$$$$
