512492
  -OEChem-10302200282D
 86 85  0     1  0  0  0  0  0999 V2000
   16.3933   -2.5000    0.0000 S   0  0  0  0  0  0  0  0  0  0  0  0
   18.9914    1.0000    0.0000 S   0  0  0  0  0  0  0  0  0  0  0  0
   11.1972    0.5000    0.0000 O   0  0  0  0  0  0  0  0  0  0  0  0
   13.7953   -2.0000    0.0000 O   0  0  0  0  0  0  0  0  0  0  0  0
    8.5991   -2.0000    0.0000 O   0  0  0  0  0  0  0  0  0  0  0  0
    6.0010    0.5000    0.0000 O   0  0  0  0  0  0  0  0  0  0  0  0
   16.3933    0.5000    0.0000 O   0  0  0  0  0  0  0  0  0  0  0  0
    6.0010    2.5000    0.0000 O   0  0  0  0  0  0  0  0  0  0  0  0
    7.7331    2.5000    0.0000 O   0  0  0  0  0  0  0  0  0  0  0  0
    2.5369   -0.5000    0.0000 O   0  0  0  0  0  0  0  0  0  0  0  0
   19.8574   -0.5000    0.0000 O   0  0  0  0  0  0  0  0  0  0  0  0
    3.4030   -2.0000    0.0000 O   0  0  0  0  0  0  0  0  0  0  0  0
   18.9914   -2.0000    0.0000 O   0  0  0  0  0  0  0  0  0  0  0  0
   12.0632   -1.0000    0.0000 N   0  0  0  0  0  0  0  0  0  0  0  0
    9.4651   -0.5000    0.0000 N   0  0  0  0  0  0  0  0  0  0  0  0
   14.6613   -0.5000    0.0000 N   0  0  0  0  0  0  0  0  0  0  0  0
    6.8671   -1.0000    0.0000 N   0  0  0  0  0  0  0  0  0  0  0  0
   17.2594   -1.0000    0.0000 N   0  0  0  0  0  0  0  0  0  0  0  0
    5.1350   -2.0000    0.0000 N   0  0  0  0  0  0  0  0  0  0  0  0
   10.3312   -1.0000    0.0000 C   0  0  1  0  0  0  0  0  0  0  0  0
   10.3312   -2.0000    0.0000 C   0  0  0  0  0  0  0  0  0  0  0  0
   12.9292   -0.5000    0.0000 C   0  0  1  0  0  0  0  0  0  0  0  0
   12.9292    0.5000    0.0000 C   0  0  0  0  0  0  0  0  0  0  0  0
   11.1972   -0.5000    0.0000 C   0  0  0  0  0  0  0  0  0  0  0  0
    7.7331   -0.5000    0.0000 C   0  0  2  0  0  0  0  0  0  0  0  0
    9.4651   -2.5000    0.0000 C   0  0  0  0  0  0  0  0  0  0  0  0
   11.1972   -2.5000    0.0000 C   0  0  0  0  0  0  0  0  0  0  0  0
   13.7953   -1.0000    0.0000 C   0  0  0  0  0  0  0  0  0  0  0  0
    8.5991   -1.0000    0.0000 C   0  0  0  0  0  0  0  0  0  0  0  0
   13.7953    1.0000    0.0000 C   0  0  0  0  0  0  0  0  0  0  0  0
   12.0632    1.0000    0.0000 C   0  0  0  0  0  0  0  0  0  0  0  0
    7.7331    0.5000    0.0000 C   0  0  0  0  0  0  0  0  0  0  0  0
   15.5273   -1.0000    0.0000 C   0  0  1  0  0  0  0  0  0  0  0  0
    6.8671    1.0000    0.0000 C   0  0  0  0  0  0  0  0  0  0  0  0
    6.0010   -0.5000    0.0000 C   0  0  0  0  0  0  0  0  0  0  0  0
   15.5273   -2.0000    0.0000 C   0  0  0  0  0  0  0  0  0  0  0  0
   16.3933   -0.5000    0.0000 C   0  0  0  0  0  0  0  0  0  0  0  0
    5.1350   -1.0000    0.0000 C   0  0  2  0  0  0  0  0  0  0  0  0
    6.8671    2.0000    0.0000 C   0  0  0  0  0  0  0  0  0  0  0  0
    4.2690   -0.5000    0.0000 C   0  0  0  0  0  0  0  0  0  0  0  0
   18.1254   -0.5000    0.0000 C   0  0  1  0  0  0  0  0  0  0  0  0
   18.1254    0.5000    0.0000 C   0  0  0  0  0  0  0  0  0  0  0  0
    3.4030   -1.0000    0.0000 C   0  0  0  0  0  0  0  0  0  0  0  0
   18.9914   -1.0000    0.0000 C   0  0  0  0  0  0  0  0  0  0  0  0
    9.7942   -1.3100    0.0000 H   0  0  0  0  0  0  0  0  0  0  0  0
   10.8681   -1.6900    0.0000 H   0  0  0  0  0  0  0  0  0  0  0  0
   12.9292   -1.1200    0.0000 H   0  0  0  0  0  0  0  0  0  0  0  0
   12.3923    0.1900    0.0000 H   0  0  0  0  0  0  0  0  0  0  0  0
   12.0632   -1.6200    0.0000 H   0  0  0  0  0  0  0  0  0  0  0  0
    9.4651    0.1200    0.0000 H   0  0  0  0  0  0  0  0  0  0  0  0
    7.7331   -1.1200    0.0000 H   0  0  0  0  0  0  0  0  0  0  0  0
    9.1551   -1.9631    0.0000 H   0  0  0  0  0  0  0  0  0  0  0  0
    8.9282   -2.8100    0.0000 H   0  0  0  0  0  0  0  0  0  0  0  0
    9.7751   -3.0369    0.0000 H   0  0  0  0  0  0  0  0  0  0  0  0
   10.8872   -3.0369    0.0000 H   0  0  0  0  0  0  0  0  0  0  0  0
   11.7341   -2.8100    0.0000 H   0  0  0  0  0  0  0  0  0  0  0  0
   11.5072   -1.9631    0.0000 H   0  0  0  0  0  0  0  0  0  0  0  0
   14.1053    0.4631    0.0000 H   0  0  0  0  0  0  0  0  0  0  0  0
   14.3322    1.3100    0.0000 H   0  0  0  0  0  0  0  0  0  0  0  0
   13.4853    1.5369    0.0000 H   0  0  0  0  0  0  0  0  0  0  0  0
   12.3732    1.5369    0.0000 H   0  0  0  0  0  0  0  0  0  0  0  0
   11.5263    1.3100    0.0000 H   0  0  0  0  0  0  0  0  0  0  0  0
   11.7532    0.4631    0.0000 H   0  0  0  0  0  0  0  0  0  0  0  0
    8.3437    0.3923    0.0000 H   0  0  0  0  0  0  0  0  0  0  0  0
    7.9451    1.0826    0.0000 H   0  0  0  0  0  0  0  0  0  0  0  0
   14.6613    0.1200    0.0000 H   0  0  0  0  0  0  0  0  0  0  0  0
   15.5273   -0.3800    0.0000 H   0  0  0  0  0  0  0  0  0  0  0  0
    6.8671   -1.6200    0.0000 H   0  0  0  0  0  0  0  0  0  0  0  0
    6.2565    1.1077    0.0000 H   0  0  0  0  0  0  0  0  0  0  0  0
    6.6550    0.4174    0.0000 H   0  0  0  0  0  0  0  0  0  0  0  0
   14.9167   -1.8923    0.0000 H   0  0  0  0  0  0  0  0  0  0  0  0
   15.3153   -2.5826    0.0000 H   0  0  0  0  0  0  0  0  0  0  0  0
    5.6720   -1.3100    0.0000 H   0  0  0  0  0  0  0  0  0  0  0  0
   17.2594   -1.6200    0.0000 H   0  0  0  0  0  0  0  0  0  0  0  0
    4.6675   -0.0251    0.0000 H   0  0  0  0  0  0  0  0  0  0  0  0
    3.8705   -0.0251    0.0000 H   0  0  0  0  0  0  0  0  0  0  0  0
   18.1254   -1.1200    0.0000 H   0  0  0  0  0  0  0  0  0  0  0  0
    4.5981   -2.3100    0.0000 H   0  0  0  0  0  0  0  0  0  0  0  0
    5.6720   -2.3100    0.0000 H   0  0  0  0  0  0  0  0  0  0  0  0
   16.3933   -3.1200    0.0000 H   0  0  0  0  0  0  0  0  0  0  0  0
   17.9133    1.0826    0.0000 H   0  0  0  0  0  0  0  0  0  0  0  0
   17.5148    0.3923    0.0000 H   0  0  0  0  0  0  0  0  0  0  0  0
    6.0010    3.1200    0.0000 H   0  0  0  0  0  0  0  0  0  0  0  0
   18.9914    1.6200    0.0000 H   0  0  0  0  0  0  0  0  0  0  0  0
    2.0000   -0.8100    0.0000 H   0  0  0  0  0  0  0  0  0  0  0  0
   20.3944   -0.8100    0.0000 H   0  0  0  0  0  0  0  0  0  0  0  0
  1 36  1  0  0  0  0
  1 80  1  0  0  0  0
  2 42  1  0  0  0  0
  2 84  1  0  0  0  0
  3 24  2  0  0  0  0
  4 28  2  0  0  0  0
  5 29  2  0  0  0  0
  6 35  2  0  0  0  0
  7 37  2  0  0  0  0
  8 39  1  0  0  0  0
  8 83  1  0  0  0  0
  9 39  2  0  0  0  0
 10 43  1  0  0  0  0
 10 85  1  0  0  0  0
 11 44  1  0  0  0  0
 11 86  1  0  0  0  0
 12 43  2  0  0  0  0
 13 44  2  0  0  0  0
 22 14  1  1  0  0  0
 14 24  1  0  0  0  0
 14 49  1  0  0  0  0
 20 15  1  6  0  0  0
 15 29  1  0  0  0  0
 15 50  1  0  0  0  0
 16 28  1  0  0  0  0
 33 16  1  6  0  0  0
 16 66  1  0  0  0  0
 25 17  1  1  0  0  0
 17 35  1  0  0  0  0
 17 68  1  0  0  0  0
 18 37  1  0  0  0  0
 41 18  1  1  0  0  0
 18 74  1  0  0  0  0
 38 19  1  1  0  0  0
 19 78  1  0  0  0  0
 19 79  1  0  0  0  0
 20 21  1  0  0  0  0
 20 24  1  0  0  0  0
 20 45  1  0  0  0  0
 21 26  1  0  0  0  0
 21 27  1  0  0  0  0
 21 46  1  0  0  0  0
 22 23  1  0  0  0  0
 22 28  1  0  0  0  0
 22 47  1  0  0  0  0
 23 30  1  0  0  0  0
 23 31  1  0  0  0  0
 23 48  1  0  0  0  0
 25 29  1  0  0  0  0
 25 32  1  0  0  0  0
 25 51  1  0  0  0  0
 26 52  1  0  0  0  0
 26 53  1  0  0  0  0
 26 54  1  0  0  0  0
 27 55  1  0  0  0  0
 27 56  1  0  0  0  0
 27 57  1  0  0  0  0
 30 58  1  0  0  0  0
 30 59  1  0  0  0  0
 30 60  1  0  0  0  0
 31 61  1  0  0  0  0
 31 62  1  0  0  0  0
 31 63  1  0  0  0  0
 32 34  1  0  0  0  0
 32 64  1  0  0  0  0
 32 65  1  0  0  0  0
 33 36  1  0  0  0  0
 33 37  1  0  0  0  0
 33 67  1  0  0  0  0
 34 39  1  0  0  0  0
 34 69  1  0  0  0  0
 34 70  1  0  0  0  0
 35 38  1  0  0  0  0
 36 71  1  0  0  0  0
 36 72  1  0  0  0  0
 38 40  1  0  0  0  0
 38 73  1  0  0  0  0
 40 43  1  0  0  0  0
 40 75  1  0  0  0  0
 40 76  1  0  0  0  0
 41 42  1  0  0  0  0
 41 44  1  0  0  0  0
 41 77  1  0  0  0  0
 42 81  1  0  0  0  0
 42 82  1  0  0  0  0
M  END
> <PUBCHEM_COMPOUND_CID>
512492
> <PUBCHEM_COMPOUND_CANONICALIZED>
1
> <PUBCHEM_CACTVS_COMPLEXITY>
1080
> <PUBCHEM_CACTVS_HBOND_ACCEPTOR>
14
> <PUBCHEM_CACTVS_HBOND_DONOR>
11
> <PUBCHEM_CACTVS_ROTATABLE_BOND>
20
> <PUBCHEM_CACTVS_SUBSKEYS>
AAADcfB7vABgAAAAAAAAAAAAAAAAAAAAAAAAAAAAAAAAAAAAAAAAHgQQCAAADSjFwASCCALAAgQIAAGQGAAAAAAAAAAAAIGIAAACQBoAgCAUQAAGFgCQAAC/FwIIAAAAAAAAAAAAAAAAAAAAAAAAAAAAAA==
> <PUBCHEM_IUPAC_OPENEYE_NAME>
(4S)-4-[[(2S)-2-amino-3-carboxy-propanoyl]amino]-5-[[(1S)-1-[[(1S)-1-[[(1R)-2-[[(1R)-1-carboxy-2-sulfanyl-ethyl]amino]-2-oxo-1-(sulfanylmethyl)ethyl]carbamoyl]-2-methyl-propyl]carbamoyl]-2-methyl-propyl]amino]-5-oxo-pentanoic acid
> <PUBCHEM_IUPAC_CAS_NAME>
(4S)-4-[[(2S)-2-amino-3-carboxy-1-oxopropyl]amino]-5-[[(2S)-1-[[(2S)-1-[[(2R)-1-[[(1R)-1-carboxy-2-mercaptoethyl]amino]-3-mercapto-1-oxopropan-2-yl]amino]-3-methyl-1-oxobutan-2-yl]amino]-3-methyl-1-oxobutan-2-yl]amino]-5-oxopentanoic acid
> <PUBCHEM_IUPAC_NAME_MARKUP>
(4<I>S</I>)-4-[[(2<I>S</I>)-2-amino-3-carboxypropanoyl]amino]-5-[[(2<I>S</I>)-1-[[(2<I>S</I>)-1-[[(2<I>R</I>)-1-[[(1<I>R</I>)-1-carboxy-2-sulfanylethyl]amino]-1-oxo-3-sulfanylpropan-2-yl]amino]-3-methyl-1-oxobutan-2-yl]amino]-3-methyl-1-oxobutan-2-yl]amino]-5-oxopentanoic acid
> <PUBCHEM_IUPAC_NAME>
(4S)-4-[[(2S)-2-amino-3-carboxypropanoyl]amino]-5-[[(2S)-1-[[(2S)-1-[[(2R)-1-[[(1R)-1-carboxy-2-sulfanylethyl]amino]-1-oxo-3-sulfanylpropan-2-yl]amino]-3-methyl-1-oxobutan-2-yl]amino]-3-methyl-1-oxobutan-2-yl]amino]-5-oxopentanoic acid
> <PUBCHEM_IUPAC_SYSTEMATIC_NAME>
(4S)-4-[[(2S)-2-azanyl-4-oxidanyl-4-oxidanylidene-butanoyl]amino]-5-[[(2S)-3-methyl-1-[[(2S)-3-methyl-1-oxidanylidene-1-[[(2R)-1-oxidanylidene-1-[[(2R)-1-oxidanyl-1-oxidanylidene-3-sulfanyl-propan-2-yl]amino]-3-sulfanyl-propan-2-yl]amino]butan-2-yl]amino]-1-oxidanylidene-butan-2-yl]amino]-5-oxidanylidene-pentanoic acid
> <PUBCHEM_IUPAC_TRADITIONAL_NAME>
(4S)-4-[[(2S)-2-amino-3-carboxy-propanoyl]amino]-5-[[(1S)-1-[[(1S)-1-[[(1R)-2-[[(1R)-1-carboxy-2-mercapto-ethyl]amino]-2-keto-1-(mercaptomethyl)ethyl]carbamoyl]-2-methyl-propyl]carbamoyl]-2-methyl-propyl]amino]-5-keto-valeric acid
> <PUBCHEM_IUPAC_INCHI>
InChI=1S/C25H42N6O11S2/c1-10(2)18(23(39)28-14(8-43)22(38)29-15(9-44)25(41)42)31-24(40)19(11(3)4)30-21(37)13(5-6-16(32)33)27-20(36)12(26)7-17(34)35/h10-15,18-19,43-44H,5-9,26H2,1-4H3,(H,27,36)(H,28,39)(H,29,38)(H,30,37)(H,31,40)(H,32,33)(H,34,35)(H,41,42)/t12-,13-,14-,15-,18-,19-/m0/s1
> <PUBCHEM_IUPAC_INCHIKEY>
VBPBYYKBPMXLQG-VRBUCKFRSA-N
> <PUBCHEM_XLOGP3_AA>
-3.9
> <PUBCHEM_EXACT_MASS>
666.23529852
> <PUBCHEM_MOLECULAR_FORMULA>
C25H42N6O11S2
> <PUBCHEM_MOLECULAR_WEIGHT>
666.8
> <PUBCHEM_OPENEYE_CAN_SMILES>
CC(C)C(C(=O)NC(C(C)C)C(=O)NC(CS)C(=O)NC(CS)C(=O)O)NC(=O)C(CCC(=O)O)NC(=O)C(CC(=O)O)N
> <PUBCHEM_OPENEYE_ISO_SMILES>
CC(C)[C@@H](C(=O)N[C@@H](C(C)C)C(=O)N[C@@H](CS)C(=O)N[C@@H](CS)C(=O)O)NC(=O)[C@H](CCC(=O)O)NC(=O)[C@H](CC(=O)O)N
> <PUBCHEM_CACTVS_TPSA>
285
> <PUBCHEM_MONOISOTOPIC_WEIGHT>
666.23529852
> <PUBCHEM_TOTAL_CHARGE>
0
> <PUBCHEM_HEAVY_ATOM_COUNT>
44
> <PUBCHEM_ATOM_DEF_STEREO_COUNT>
6
> <PUBCHEM_ATOM_UDEF_STEREO_COUNT>
0
> <PUBCHEM_BOND_DEF_STEREO_COUNT>
0
> <PUBCHEM_BOND_UDEF_STEREO_COUNT>
0
> <PUBCHEM_ISOTOPIC_ATOM_COUNT>
0
> <PUBCHEM_COMPONENT_COUNT>
1
> <PUBCHEM_CACTVS_TAUTO_COUNT>
-1
> <PUBCHEM_COORDINATE_TYPE>
1
5
255
> <PUBCHEM_BONDANNOTATIONS>
22  14  5
20  15  6
33  16  6
25  17  5
41  18  5
38  19  5
$$$$
