512450
  -OEChem-10302200282D
 41 44  0     1  0  0  0  0  0999 V2000
    2.0000    2.1893    0.0000 O   0  0  0  0  0  0  0  0  0  0  0  0
    4.9496   -2.9448    0.0000 O   0  0  0  0  0  0  0  0  0  0  0  0
    4.9994    0.9919    0.0000 N   0  0  0  0  0  0  0  0  0  0  0  0
    3.5984    2.7486    0.0000 N   0  0  0  0  0  0  0  0  0  0  0  0
    5.2219    1.9668    0.0000 C   0  0  2  0  0  0  0  0  0  0  0  0
    4.5984    2.7486    0.0000 C   0  0  1  0  0  0  0  0  0  0  0  0
    6.2542    2.1062    0.0000 C   0  0  0  0  0  0  0  0  0  0  0  0
    4.9640    3.7240    0.0000 C   0  0  0  0  0  0  0  0  0  0  0  0
    6.6422    3.0728    0.0000 C   0  0  0  0  0  0  0  0  0  0  0  0
    5.9927    3.8872    0.0000 C   0  0  0  0  0  0  0  0  0  0  0  0
    4.0984    0.5580    0.0000 C   0  0  0  0  0  0  0  0  0  0  0  0
    3.1974    0.9919    0.0000 C   0  0  0  0  0  0  0  0  0  0  0  0
    2.9749    1.9668    0.0000 C   0  0  0  0  0  0  0  0  0  0  0  0
    2.5124    0.2716    0.0000 C   0  0  0  0  0  0  0  0  0  0  0  0
    3.9624   -0.4267    0.0000 C   0  0  0  0  0  0  0  0  0  0  0  0
    2.9842   -0.6034    0.0000 C   0  0  0  0  0  0  0  0  0  0  0  0
    4.6434   -1.2068    0.0000 C   0  0  0  0  0  0  0  0  0  0  0  0
    2.6190   -1.5723    0.0000 C   0  0  0  0  0  0  0  0  0  0  0  0
    4.3008   -2.1839    0.0000 C   0  0  0  0  0  0  0  0  0  0  0  0
    3.2818   -2.3679    0.0000 C   0  0  0  0  0  0  0  0  0  0  0  0
    4.6151   -3.8872    0.0000 C   0  0  0  0  0  0  0  0  0  0  0  0
    5.7952    1.3393    0.0000 H   0  0  0  0  0  0  0  0  0  0  0  0
    4.1142    3.4472    0.0000 H   0  0  0  0  0  0  0  0  0  0  0  0
    6.2308    1.4866    0.0000 H   0  0  0  0  0  0  0  0  0  0  0  0
    6.8606    1.9771    0.0000 H   0  0  0  0  0  0  0  0  0  0  0  0
    4.9731    4.3440    0.0000 H   0  0  0  0  0  0  0  0  0  0  0  0
    4.3547    3.8391    0.0000 H   0  0  0  0  0  0  0  0  0  0  0  0
    7.1696    2.7468    0.0000 H   0  0  0  0  0  0  0  0  0  0  0  0
    7.0536    3.5366    0.0000 H   0  0  0  0  0  0  0  0  0  0  0  0
    6.5365    4.1851    0.0000 H   0  0  0  0  0  0  0  0  0  0  0  0
    5.7923    4.4739    0.0000 H   0  0  0  0  0  0  0  0  0  0  0  0
    5.4841    0.6053    0.0000 H   0  0  0  0  0  0  0  0  0  0  0  0
    3.3294    3.3072    0.0000 H   0  0  0  0  0  0  0  0  0  0  0  0
    2.1105    0.7437    0.0000 H   0  0  0  0  0  0  0  0  0  0  0  0
    2.0006   -0.0784    0.0000 H   0  0  0  0  0  0  0  0  0  0  0  0
    5.2522   -1.0896    0.0000 H   0  0  0  0  0  0  0  0  0  0  0  0
    2.0077   -1.6754    0.0000 H   0  0  0  0  0  0  0  0  0  0  0  0
    3.0699   -2.9506    0.0000 H   0  0  0  0  0  0  0  0  0  0  0  0
    4.0308   -3.6798    0.0000 H   0  0  0  0  0  0  0  0  0  0  0  0
    4.4077   -4.4715    0.0000 H   0  0  0  0  0  0  0  0  0  0  0  0
    5.1994   -4.0946    0.0000 H   0  0  0  0  0  0  0  0  0  0  0  0
  1 13  2  0  0  0  0
  2 19  1  0  0  0  0
  2 21  1  0  0  0  0
  3  5  1  0  0  0  0
  3 11  1  0  0  0  0
  3 32  1  0  0  0  0
  4  6  1  0  0  0  0
  4 13  1  0  0  0  0
  4 33  1  0  0  0  0
  5  6  1  0  0  0  0
  5  7  1  0  0  0  0
  5 22  1  1  0  0  0
  6  8  1  0  0  0  0
  6 23  1  1  0  0  0
  7  9  1  0  0  0  0
  7 24  1  0  0  0  0
  7 25  1  0  0  0  0
  8 10  1  0  0  0  0
  8 26  1  0  0  0  0
  8 27  1  0  0  0  0
  9 10  1  0  0  0  0
  9 28  1  0  0  0  0
  9 29  1  0  0  0  0
 10 30  1  0  0  0  0
 10 31  1  0  0  0  0
 11 12  2  0  0  0  0
 11 15  1  0  0  0  0
 12 13  1  0  0  0  0
 12 14  1  0  0  0  0
 14 16  1  0  0  0  0
 14 34  1  0  0  0  0
 14 35  1  0  0  0  0
 15 16  2  0  0  0  0
 15 17  1  0  0  0  0
 16 18  1  0  0  0  0
 17 19  2  0  0  0  0
 17 36  1  0  0  0  0
 18 20  2  0  0  0  0
 18 37  1  0  0  0  0
 19 20  1  0  0  0  0
 20 38  1  0  0  0  0
 21 39  1  0  0  0  0
 21 40  1  0  0  0  0
 21 41  1  0  0  0  0
M  END
> <PUBCHEM_COMPOUND_CID>
512450
> <PUBCHEM_COMPOUND_CANONICALIZED>
1
> <PUBCHEM_CACTVS_COMPLEXITY>
473
> <PUBCHEM_CACTVS_HBOND_ACCEPTOR>
3
> <PUBCHEM_CACTVS_HBOND_DONOR>
2
> <PUBCHEM_CACTVS_ROTATABLE_BOND>
1
> <PUBCHEM_CACTVS_SUBSKEYS>
AAADceB7MAAAAAAAAAAAAAAAAAAAAQAAAAAwYAAABAAAAECxAAAAHgAQAAAADCzBmAYyBoLABACIAiVSUACCCAAgIAAIiIEODMgMZjKEsRuUMChk1hGIqUe4yLCOoAABAAAQAABAAAIAACAAQAAAAAAAAA==
> <PUBCHEM_IUPAC_OPENEYE_NAME>
(5aS,9aR)-3-methoxy-5a,6,7,8,9,9a,10,12-octahydro-5H-indeno[2,1-c][1,5]benzodiazepin-11-one
> <PUBCHEM_IUPAC_CAS_NAME>
(5aS,9aR)-3-methoxy-5a,6,7,8,9,9a,10,12-octahydro-5H-indeno[2,1-c][1,5]benzodiazepin-11-one
> <PUBCHEM_IUPAC_NAME_MARKUP>
(5<I>a</I><I>S</I>,9<I>a</I><I>R</I>)-3-methoxy-5<I>a</I>,6,7,8,9,9<I>a</I>,10,12-octahydro-5<I>H</I>-indeno[2,1-c][1,5]benzodiazepin-11-one
> <PUBCHEM_IUPAC_NAME>
(5aS,9aR)-3-methoxy-5a,6,7,8,9,9a,10,12-octahydro-5H-indeno[2,1-c][1,5]benzodiazepin-11-one
> <PUBCHEM_IUPAC_SYSTEMATIC_NAME>
(5aS,9aR)-3-methoxy-5a,6,7,8,9,9a,10,12-octahydro-5H-indeno[2,1-c][1,5]benzodiazepin-11-one
> <PUBCHEM_IUPAC_TRADITIONAL_NAME>
(5aS,9aR)-3-methoxy-5a,6,7,8,9,9a,10,12-octahydro-5H-indeno[2,1-c][1,5]benzodiazepin-11-one
> <PUBCHEM_IUPAC_INCHI>
InChI=1S/C17H20N2O2/c1-21-11-7-6-10-8-13-16(12(10)9-11)18-14-4-2-3-5-15(14)19-17(13)20/h6-7,9,14-15,18H,2-5,8H2,1H3,(H,19,20)/t14-,15+/m0/s1
> <PUBCHEM_IUPAC_INCHIKEY>
GEUUYVXLJBAHPG-LSDHHAIUSA-N
> <PUBCHEM_XLOGP3_AA>
2.5
> <PUBCHEM_EXACT_MASS>
284.152477885
> <PUBCHEM_MOLECULAR_FORMULA>
C17H20N2O2
> <PUBCHEM_MOLECULAR_WEIGHT>
284.35
> <PUBCHEM_OPENEYE_CAN_SMILES>
COC1=CC2=C(CC3=C2NC4CCCCC4NC3=O)C=C1
> <PUBCHEM_OPENEYE_ISO_SMILES>
COC1=CC2=C(CC3=C2N[C@H]4CCCC[C@H]4NC3=O)C=C1
> <PUBCHEM_CACTVS_TPSA>
50.4
> <PUBCHEM_MONOISOTOPIC_WEIGHT>
284.152477885
> <PUBCHEM_TOTAL_CHARGE>
0
> <PUBCHEM_HEAVY_ATOM_COUNT>
21
> <PUBCHEM_ATOM_DEF_STEREO_COUNT>
2
> <PUBCHEM_ATOM_UDEF_STEREO_COUNT>
0
> <PUBCHEM_BOND_DEF_STEREO_COUNT>
0
> <PUBCHEM_BOND_UDEF_STEREO_COUNT>
0
> <PUBCHEM_ISOTOPIC_ATOM_COUNT>
0
> <PUBCHEM_COMPONENT_COUNT>
1
> <PUBCHEM_CACTVS_TAUTO_COUNT>
-1
> <PUBCHEM_COORDINATE_TYPE>
1
5
255
> <PUBCHEM_BONDANNOTATIONS>
15  16  8
15  17  8
16  18  8
17  19  8
18  20  8
19  20  8
5  22  5
6  23  5
$$$$
