512455
  -OEChem-10302200282D
 34 36  0     1  0  0  0  0  0999 V2000
    3.5809   -0.1113    0.0000 S   0  0  0  0  0  0  0  0  0  0  0  0
    3.7982    3.0775    0.0000 O   0  0  0  0  0  0  0  0  0  0  0  0
    6.0960   -2.5742    0.0000 O   0  0  0  0  0  0  0  0  0  0  0  0
    2.6256    1.8793    0.0000 N   0  0  0  0  0  0  0  0  0  0  0  0
    2.6256    0.1108    0.0000 C   0  0  3  0  0  0  0  0  0  0  0  0
    4.3518    0.4951    0.0000 C   0  0  0  0  0  0  0  0  0  0  0  0
    2.2012    0.9951    0.0000 C   0  0  0  0  0  0  0  0  0  0  0  0
    5.2178   -0.0049    0.0000 C   0  0  0  0  0  0  0  0  0  0  0  0
    4.3518    1.4951    0.0000 C   0  0  0  0  0  0  0  0  0  0  0  0
    6.0839    0.4951    0.0000 C   0  0  0  0  0  0  0  0  0  0  0  0
    3.5809    2.1014    0.0000 C   0  0  0  0  0  0  0  0  0  0  0  0
    2.0000   -0.6693    0.0000 C   0  0  0  0  0  0  0  0  0  0  0  0
    5.2178    1.9951    0.0000 C   0  0  0  0  0  0  0  0  0  0  0  0
    6.0839    1.4951    0.0000 C   0  0  0  0  0  0  0  0  0  0  0  0
    5.2018   -1.0464    0.0000 C   0  0  0  0  0  0  0  0  0  0  0  0
    6.9939   -0.0118    0.0000 C   0  0  0  0  0  0  0  0  0  0  0  0
    6.0998   -1.5742    0.0000 C   0  0  0  0  0  0  0  0  0  0  0  0
    7.0019   -1.0534    0.0000 C   0  0  0  0  0  0  0  0  0  0  0  0
    6.9601   -3.0775    0.0000 C   0  0  0  0  0  0  0  0  0  0  0  0
    2.8284   -0.4751    0.0000 H   0  0  0  0  0  0  0  0  0  0  0  0
    1.7163    1.3814    0.0000 H   0  0  0  0  0  0  0  0  0  0  0  0
    1.7163    0.6087    0.0000 H   0  0  0  0  0  0  0  0  0  0  0  0
    2.2377    2.3630    0.0000 H   0  0  0  0  0  0  0  0  0  0  0  0
    1.5163   -0.2815    0.0000 H   0  0  0  0  0  0  0  0  0  0  0  0
    1.6121   -1.1530    0.0000 H   0  0  0  0  0  0  0  0  0  0  0  0
    2.4837   -1.0572    0.0000 H   0  0  0  0  0  0  0  0  0  0  0  0
    5.2178    2.6151    0.0000 H   0  0  0  0  0  0  0  0  0  0  0  0
    6.6208    1.8051    0.0000 H   0  0  0  0  0  0  0  0  0  0  0  0
    4.6613   -1.3502    0.0000 H   0  0  0  0  0  0  0  0  0  0  0  0
    7.5272    0.3044    0.0000 H   0  0  0  0  0  0  0  0  0  0  0  0
    7.5400   -1.3613    0.0000 H   0  0  0  0  0  0  0  0  0  0  0  0
    6.6480   -3.6133    0.0000 H   0  0  0  0  0  0  0  0  0  0  0  0
    7.4958   -3.3896    0.0000 H   0  0  0  0  0  0  0  0  0  0  0  0
    7.2721   -2.5418    0.0000 H   0  0  0  0  0  0  0  0  0  0  0  0
  1  5  1  0  0  0  0
  1  6  1  0  0  0  0
  2 11  2  0  0  0  0
  3 17  1  0  0  0  0
  3 19  1  0  0  0  0
  4  7  1  0  0  0  0
  4 11  1  0  0  0  0
  4 23  1  0  0  0  0
  5  7  1  0  0  0  0
  5 12  1  0  0  0  0
  5 20  1  0  0  0  0
  6  8  1  0  0  0  0
  6  9  2  0  0  0  0
  7 21  1  0  0  0  0
  7 22  1  0  0  0  0
  8 10  2  0  0  0  0
  8 15  1  0  0  0  0
  9 11  1  0  0  0  0
  9 13  1  0  0  0  0
 10 14  1  0  0  0  0
 10 16  1  0  0  0  0
 12 24  1  0  0  0  0
 12 25  1  0  0  0  0
 12 26  1  0  0  0  0
 13 14  2  0  0  0  0
 13 27  1  0  0  0  0
 14 28  1  0  0  0  0
 15 17  2  0  0  0  0
 15 29  1  0  0  0  0
 16 18  2  0  0  0  0
 16 30  1  0  0  0  0
 17 18  1  0  0  0  0
 18 31  1  0  0  0  0
 19 32  1  0  0  0  0
 19 33  1  0  0  0  0
 19 34  1  0  0  0  0
M  END
> <PUBCHEM_COMPOUND_CID>
512455
> <PUBCHEM_COMPOUND_CANONICALIZED>
1
> <PUBCHEM_CACTVS_COMPLEXITY>
349
> <PUBCHEM_CACTVS_HBOND_ACCEPTOR>
3
> <PUBCHEM_CACTVS_HBOND_DONOR>
1
> <PUBCHEM_CACTVS_ROTATABLE_BOND>
1
> <PUBCHEM_CACTVS_SUBSKEYS>
AAADccByMABAAAAAAAAAAAAAAAAAAAAAAAAwYAAABYAAAADBUAAAHgQQAAAADATF2AayB8LABAiIAiFSEACCCAAkKBAIiJEODMgMJjKktRuEMShk1hGoqYeYyPCO4AADgAAUAADAAAcAACgAAAAAAAAAAA==
> <PUBCHEM_IUPAC_OPENEYE_NAME>
10-methoxy-2-methyl-3,4-dihydro-2H-benzo[i][1,4]benzothiazepin-5-one
> <PUBCHEM_IUPAC_CAS_NAME>
10-methoxy-2-methyl-3,4-dihydro-2H-benzo[i][1,4]benzothiazepin-5-one
> <PUBCHEM_IUPAC_NAME_MARKUP>
10-methoxy-2-methyl-3,4-dihydro-2<I>H</I>-benzo[i][1,4]benzothiazepin-5-one
> <PUBCHEM_IUPAC_NAME>
10-methoxy-2-methyl-3,4-dihydro-2H-benzo[i][1,4]benzothiazepin-5-one
> <PUBCHEM_IUPAC_SYSTEMATIC_NAME>
10-methoxy-2-methyl-3,4-dihydro-2H-benzo[i][1,4]benzothiazepin-5-one
> <PUBCHEM_IUPAC_TRADITIONAL_NAME>
10-methoxy-2-methyl-3,4-dihydro-2H-benzo[i][1,4]benzothiazepin-5-one
> <PUBCHEM_IUPAC_INCHI>
InChI=1S/C15H15NO2S/c1-9-8-16-15(17)12-6-4-10-3-5-11(18-2)7-13(10)14(12)19-9/h3-7,9H,8H2,1-2H3,(H,16,17)
> <PUBCHEM_IUPAC_INCHIKEY>
YWGXQFULJCLULE-UHFFFAOYSA-N
> <PUBCHEM_XLOGP3_AA>
3.1
> <PUBCHEM_EXACT_MASS>
273.08234989
> <PUBCHEM_MOLECULAR_FORMULA>
C15H15NO2S
> <PUBCHEM_MOLECULAR_WEIGHT>
273.4
> <PUBCHEM_OPENEYE_CAN_SMILES>
CC1CNC(=O)C2=C(S1)C3=C(C=CC(=C3)OC)C=C2
> <PUBCHEM_OPENEYE_ISO_SMILES>
CC1CNC(=O)C2=C(S1)C3=C(C=CC(=C3)OC)C=C2
> <PUBCHEM_CACTVS_TPSA>
63.6
> <PUBCHEM_MONOISOTOPIC_WEIGHT>
273.08234989
> <PUBCHEM_TOTAL_CHARGE>
0
> <PUBCHEM_HEAVY_ATOM_COUNT>
19
> <PUBCHEM_ATOM_DEF_STEREO_COUNT>
0
> <PUBCHEM_ATOM_UDEF_STEREO_COUNT>
1
> <PUBCHEM_BOND_DEF_STEREO_COUNT>
0
> <PUBCHEM_BOND_UDEF_STEREO_COUNT>
0
> <PUBCHEM_ISOTOPIC_ATOM_COUNT>
0
> <PUBCHEM_COMPONENT_COUNT>
1
> <PUBCHEM_CACTVS_TAUTO_COUNT>
-1
> <PUBCHEM_COORDINATE_TYPE>
1
5
255
> <PUBCHEM_BONDANNOTATIONS>
10  14  8
10  16  8
13  14  8
15  17  8
16  18  8
17  18  8
5  12  3
6  8  8
6  9  8
8  10  8
8  15  8
9  13  8
$$$$
