512502
  -OEChem-10302200282D
 95 94  0     1  0  0  0  0  0999 V2000
    9.4651    1.9400    0.0000 S   0  0  0  0  0  0  0  0  0  0  0  0
   13.7953   -2.5600    0.0000 S   0  0  0  0  0  0  0  0  0  0  0  0
   10.3312   -2.5600    0.0000 O   0  0  0  0  0  0  0  0  0  0  0  0
   11.1972   -3.0600    0.0000 O   0  0  0  0  0  0  0  0  0  0  0  0
    6.8671   -1.5600    0.0000 O   0  0  0  0  0  0  0  0  0  0  0  0
    7.7331    1.9400    0.0000 O   0  0  0  0  0  0  0  0  0  0  0  0
    5.1350   -2.5600    0.0000 O   0  0  0  0  0  0  0  0  0  0  0  0
    4.2690    2.9400    0.0000 O   0  0  0  0  0  0  0  0  0  0  0  0
    6.0010   -4.0600    0.0000 O   0  0  0  0  0  0  0  0  0  0  0  0
   14.6613   -4.0600    0.0000 O   0  0  0  0  0  0  0  0  0  0  0  0
    2.5369    1.9400    0.0000 O   0  0  0  0  0  0  0  0  0  0  0  0
   13.7953   -5.5600    0.0000 O   0  0  0  0  0  0  0  0  0  0  0  0
    3.4030    0.4400    0.0000 O   0  0  0  0  0  0  0  0  0  0  0  0
    3.4030    6.4400    0.0000 O   0  0  0  0  0  0  0  0  0  0  0  0
    5.1350    6.4400    0.0000 O   0  0  0  0  0  0  0  0  0  0  0  0
    9.4651   -4.0600    0.0000 N   0  0  0  0  0  0  0  0  0  0  0  0
    8.5991   -1.5600    0.0000 N   0  0  0  0  0  0  0  0  0  0  0  0
    6.8671    0.4400    0.0000 N   0  0  0  0  0  0  0  0  0  0  0  0
   12.0632   -4.5600    0.0000 N   0  0  0  0  0  0  0  0  0  0  0  0
    6.0010    2.9400    0.0000 N   0  0  0  0  0  0  0  0  0  0  0  0
    6.0010    4.9400    0.0000 N   0  0  0  0  0  0  0  0  0  0  0  0
   10.3312   -4.5600    0.0000 C   0  0  1  0  0  0  0  0  0  0  0  0
   10.3312   -5.5600    0.0000 C   0  0  0  0  0  0  0  0  0  0  0  0
    9.4651   -6.0600    0.0000 C   0  0  0  0  0  0  0  0  0  0  0  0
    8.5991   -2.5600    0.0000 C   0  0  1  0  0  0  0  0  0  0  0  0
    7.7331   -0.0600    0.0000 C   0  0  2  0  0  0  0  0  0  0  0  0
    7.7331   -3.0600    0.0000 C   0  0  0  0  0  0  0  0  0  0  0  0
    9.4651   -3.0600    0.0000 C   0  0  0  0  0  0  0  0  0  0  0  0
   11.1972   -4.0600    0.0000 C   0  0  0  0  0  0  0  0  0  0  0  0
    9.4651   -7.0600    0.0000 C   0  0  0  0  0  0  0  0  0  0  0  0
    8.5991   -5.5600    0.0000 C   0  0  0  0  0  0  0  0  0  0  0  0
    7.7331   -1.0600    0.0000 C   0  0  0  0  0  0  0  0  0  0  0  0
    8.5991    0.4400    0.0000 C   0  0  0  0  0  0  0  0  0  0  0  0
    6.0010    1.9400    0.0000 C   0  0  2  0  0  0  0  0  0  0  0  0
    6.8671   -2.5600    0.0000 C   0  0  0  0  0  0  0  0  0  0  0  0
    6.8671    1.4400    0.0000 C   0  0  0  0  0  0  0  0  0  0  0  0
    5.1350    1.4400    0.0000 C   0  0  0  0  0  0  0  0  0  0  0  0
    8.5991    1.4400    0.0000 C   0  0  0  0  0  0  0  0  0  0  0  0
   12.9292   -4.0600    0.0000 C   0  0  1  0  0  0  0  0  0  0  0  0
    4.2690    1.9400    0.0000 C   0  0  0  0  0  0  0  0  0  0  0  0
    5.1350    3.4400    0.0000 C   0  0  0  0  0  0  0  0  0  0  0  0
    6.0010   -3.0600    0.0000 C   0  0  0  0  0  0  0  0  0  0  0  0
    5.1350    4.4400    0.0000 C   0  0  2  0  0  0  0  0  0  0  0  0
   12.9292   -3.0600    0.0000 C   0  0  0  0  0  0  0  0  0  0  0  0
   13.7953   -4.5600    0.0000 C   0  0  0  0  0  0  0  0  0  0  0  0
    4.2690    4.9400    0.0000 C   0  0  0  0  0  0  0  0  0  0  0  0
    3.4030    1.4400    0.0000 C   0  0  0  0  0  0  0  0  0  0  0  0
    9.4651    2.9400    0.0000 C   0  0  0  0  0  0  0  0  0  0  0  0
    4.2690    5.9400    0.0000 C   0  0  0  0  0  0  0  0  0  0  0  0
    9.7942   -4.8700    0.0000 H   0  0  0  0  0  0  0  0  0  0  0  0
   10.5432   -6.1426    0.0000 H   0  0  0  0  0  0  0  0  0  0  0  0
   10.9417   -5.4523    0.0000 H   0  0  0  0  0  0  0  0  0  0  0  0
   10.0021   -6.3700    0.0000 H   0  0  0  0  0  0  0  0  0  0  0  0
    8.0622   -2.2500    0.0000 H   0  0  0  0  0  0  0  0  0  0  0  0
    7.7331    0.5600    0.0000 H   0  0  0  0  0  0  0  0  0  0  0  0
    8.9282   -4.3700    0.0000 H   0  0  0  0  0  0  0  0  0  0  0  0
    7.3346   -3.5350    0.0000 H   0  0  0  0  0  0  0  0  0  0  0  0
    8.1316   -3.5350    0.0000 H   0  0  0  0  0  0  0  0  0  0  0  0
    9.1360   -1.2500    0.0000 H   0  0  0  0  0  0  0  0  0  0  0  0
    8.8451   -7.0600    0.0000 H   0  0  0  0  0  0  0  0  0  0  0  0
    9.4651   -7.6800    0.0000 H   0  0  0  0  0  0  0  0  0  0  0  0
   10.0851   -7.0600    0.0000 H   0  0  0  0  0  0  0  0  0  0  0  0
    8.9091   -5.0231    0.0000 H   0  0  0  0  0  0  0  0  0  0  0  0
    8.0622   -5.2500    0.0000 H   0  0  0  0  0  0  0  0  0  0  0  0
    8.2891   -6.0969    0.0000 H   0  0  0  0  0  0  0  0  0  0  0  0
    8.8112   -0.1426    0.0000 H   0  0  0  0  0  0  0  0  0  0  0  0
    9.2097    0.5477    0.0000 H   0  0  0  0  0  0  0  0  0  0  0  0
    6.5380    2.2500    0.0000 H   0  0  0  0  0  0  0  0  0  0  0  0
    6.3301    0.1300    0.0000 H   0  0  0  0  0  0  0  0  0  0  0  0
    7.2656   -2.0850    0.0000 H   0  0  0  0  0  0  0  0  0  0  0  0
    6.4685   -2.0850    0.0000 H   0  0  0  0  0  0  0  0  0  0  0  0
    4.7365    0.9651    0.0000 H   0  0  0  0  0  0  0  0  0  0  0  0
    5.5335    0.9651    0.0000 H   0  0  0  0  0  0  0  0  0  0  0  0
   12.0632   -5.1800    0.0000 H   0  0  0  0  0  0  0  0  0  0  0  0
    8.3871    2.0226    0.0000 H   0  0  0  0  0  0  0  0  0  0  0  0
    7.9885    1.3323    0.0000 H   0  0  0  0  0  0  0  0  0  0  0  0
   12.3923   -3.7500    0.0000 H   0  0  0  0  0  0  0  0  0  0  0  0
    6.5380    3.2500    0.0000 H   0  0  0  0  0  0  0  0  0  0  0  0
    4.6675    2.4150    0.0000 H   0  0  0  0  0  0  0  0  0  0  0  0
    3.8705    2.4150    0.0000 H   0  0  0  0  0  0  0  0  0  0  0  0
    5.1350    5.0600    0.0000 H   0  0  0  0  0  0  0  0  0  0  0  0
   12.7172   -2.4774    0.0000 H   0  0  0  0  0  0  0  0  0  0  0  0
   12.3187   -3.1677    0.0000 H   0  0  0  0  0  0  0  0  0  0  0  0
    3.6584    5.0477    0.0000 H   0  0  0  0  0  0  0  0  0  0  0  0
    4.0569    4.3574    0.0000 H   0  0  0  0  0  0  0  0  0  0  0  0
    6.0010    5.5600    0.0000 H   0  0  0  0  0  0  0  0  0  0  0  0
    6.5380    4.6300    0.0000 H   0  0  0  0  0  0  0  0  0  0  0  0
   10.0851    2.9400    0.0000 H   0  0  0  0  0  0  0  0  0  0  0  0
    9.4651    3.5600    0.0000 H   0  0  0  0  0  0  0  0  0  0  0  0
    8.8451    2.9400    0.0000 H   0  0  0  0  0  0  0  0  0  0  0  0
    4.5981   -2.8700    0.0000 H   0  0  0  0  0  0  0  0  0  0  0  0
   13.7953   -1.9400    0.0000 H   0  0  0  0  0  0  0  0  0  0  0  0
   15.1982   -4.3700    0.0000 H   0  0  0  0  0  0  0  0  0  0  0  0
    2.0000    1.6300    0.0000 H   0  0  0  0  0  0  0  0  0  0  0  0
    3.4030    7.0600    0.0000 H   0  0  0  0  0  0  0  0  0  0  0  0
  1 38  1  0  0  0  0
  1 48  1  0  0  0  0
  2 44  1  0  0  0  0
  2 92  1  0  0  0  0
  3 28  2  0  0  0  0
  4 29  2  0  0  0  0
  5 32  2  0  0  0  0
  6 36  2  0  0  0  0
  7 42  1  0  0  0  0
  7 91  1  0  0  0  0
  8 41  2  0  0  0  0
  9 42  2  0  0  0  0
 10 45  1  0  0  0  0
 10 93  1  0  0  0  0
 11 47  1  0  0  0  0
 11 94  1  0  0  0  0
 12 45  2  0  0  0  0
 13 47  2  0  0  0  0
 14 49  1  0  0  0  0
 14 95  1  0  0  0  0
 15 49  2  0  0  0  0
 22 16  1  6  0  0  0
 16 28  1  0  0  0  0
 16 56  1  0  0  0  0
 25 17  1  6  0  0  0
 17 32  1  0  0  0  0
 17 59  1  0  0  0  0
 26 18  1  1  0  0  0
 18 36  1  0  0  0  0
 18 69  1  0  0  0  0
 19 29  1  0  0  0  0
 39 19  1  1  0  0  0
 19 74  1  0  0  0  0
 34 20  1  6  0  0  0
 20 41  1  0  0  0  0
 20 78  1  0  0  0  0
 43 21  1  6  0  0  0
 21 86  1  0  0  0  0
 21 87  1  0  0  0  0
 22 23  1  0  0  0  0
 22 29  1  0  0  0  0
 22 50  1  0  0  0  0
 23 24  1  0  0  0  0
 23 51  1  0  0  0  0
 23 52  1  0  0  0  0
 24 30  1  0  0  0  0
 24 31  1  0  0  0  0
 24 53  1  0  0  0  0
 25 27  1  0  0  0  0
 25 28  1  0  0  0  0
 25 54  1  0  0  0  0
 26 32  1  0  0  0  0
 26 33  1  0  0  0  0
 26 55  1  0  0  0  0
 27 35  1  0  0  0  0
 27 57  1  0  0  0  0
 27 58  1  0  0  0  0
 30 60  1  0  0  0  0
 30 61  1  0  0  0  0
 30 62  1  0  0  0  0
 31 63  1  0  0  0  0
 31 64  1  0  0  0  0
 31 65  1  0  0  0  0
 33 38  1  0  0  0  0
 33 66  1  0  0  0  0
 33 67  1  0  0  0  0
 34 36  1  0  0  0  0
 34 37  1  0  0  0  0
 34 68  1  0  0  0  0
 35 42  1  0  0  0  0
 35 70  1  0  0  0  0
 35 71  1  0  0  0  0
 37 40  1  0  0  0  0
 37 72  1  0  0  0  0
 37 73  1  0  0  0  0
 38 75  1  0  0  0  0
 38 76  1  0  0  0  0
 39 44  1  0  0  0  0
 39 45  1  0  0  0  0
 39 77  1  0  0  0  0
 40 47  1  0  0  0  0
 40 79  1  0  0  0  0
 40 80  1  0  0  0  0
 41 43  1  0  0  0  0
 43 46  1  0  0  0  0
 43 81  1  0  0  0  0
 44 82  1  0  0  0  0
 44 83  1  0  0  0  0
 46 49  1  0  0  0  0
 46 84  1  0  0  0  0
 46 85  1  0  0  0  0
 48 88  1  0  0  0  0
 48 89  1  0  0  0  0
 48 90  1  0  0  0  0
M  END
> <PUBCHEM_COMPOUND_CID>
512502
> <PUBCHEM_COMPOUND_CANONICALIZED>
1
> <PUBCHEM_CACTVS_COMPLEXITY>
1210
> <PUBCHEM_CACTVS_HBOND_ACCEPTOR>
16
> <PUBCHEM_CACTVS_HBOND_DONOR>
11
> <PUBCHEM_CACTVS_ROTATABLE_BOND>
25
> <PUBCHEM_CACTVS_SUBSKEYS>
AAADcfB7vABgAAAAAAAAAAAAAAAAAAAAAAAAAAAAAAAAAAAAAAAAHgQQCAAADSjFwASCCALAAgwIAAGQGAAAAAAAABAAAIGIAAACQBoggCAUQAAGFgCQAAC/FwIMAAAAAAAAAAAAAAAAAAAAAAAAAAAAAA==
> <PUBCHEM_IUPAC_OPENEYE_NAME>
(4S)-4-[[(2S)-2-[[(2S)-2-[[(2S)-2-amino-3-carboxy-propanoyl]amino]-4-carboxy-butanoyl]amino]-4-methylsulfanyl-butanoyl]amino]-5-[[(1S)-1-[[(1R)-1-carboxy-2-sulfanyl-ethyl]carbamoyl]-3-methyl-butyl]amino]-5-oxo-pentanoic acid
> <PUBCHEM_IUPAC_CAS_NAME>
(4S)-4-[[(2S)-2-[[(2S)-2-[[(2S)-2-amino-3-carboxy-1-oxopropyl]amino]-4-carboxy-1-oxobutyl]amino]-4-(methylthio)-1-oxobutyl]amino]-5-[[(2S)-1-[[(1R)-1-carboxy-2-mercaptoethyl]amino]-4-methyl-1-oxopentan-2-yl]amino]-5-oxopentanoic acid
> <PUBCHEM_IUPAC_NAME_MARKUP>
(4<I>S</I>)-4-[[(2<I>S</I>)-2-[[(2<I>S</I>)-2-[[(2<I>S</I>)-2-amino-3-carboxypropanoyl]amino]-4-carboxybutanoyl]amino]-4-methylsulfanylbutanoyl]amino]-5-[[(2<I>S</I>)-1-[[(1<I>R</I>)-1-carboxy-2-sulfanylethyl]amino]-4-methyl-1-oxopentan-2-yl]amino]-5-oxopentanoic acid
> <PUBCHEM_IUPAC_NAME>
(4S)-4-[[(2S)-2-[[(2S)-2-[[(2S)-2-amino-3-carboxypropanoyl]amino]-4-carboxybutanoyl]amino]-4-methylsulfanylbutanoyl]amino]-5-[[(2S)-1-[[(1R)-1-carboxy-2-sulfanylethyl]amino]-4-methyl-1-oxopentan-2-yl]amino]-5-oxopentanoic acid
> <PUBCHEM_IUPAC_SYSTEMATIC_NAME>
(4S)-4-[[(2S)-2-[[(2S)-2-[[(2S)-2-azanyl-4-oxidanyl-4-oxidanylidene-butanoyl]amino]-5-oxidanyl-5-oxidanylidene-pentanoyl]amino]-4-methylsulfanyl-butanoyl]amino]-5-[[(2S)-4-methyl-1-oxidanylidene-1-[[(2R)-1-oxidanyl-1-oxidanylidene-3-sulfanyl-propan-2-yl]amino]pentan-2-yl]amino]-5-oxidanylidene-pentanoic acid
> <PUBCHEM_IUPAC_TRADITIONAL_NAME>
(4S)-4-[[(2S)-2-[[(2S)-2-[[(2S)-2-amino-3-carboxy-propanoyl]amino]-4-carboxy-butanoyl]amino]-4-(methylthio)butanoyl]amino]-5-[[(1S)-1-[[(1R)-1-carboxy-2-mercapto-ethyl]carbamoyl]-3-methyl-butyl]amino]-5-keto-valeric acid
> <PUBCHEM_IUPAC_INCHI>
InChI=1S/C28H46N6O13S2/c1-13(2)10-18(27(45)34-19(12-48)28(46)47)33-25(43)16(5-7-21(37)38)31-26(44)17(8-9-49-3)32-24(42)15(4-6-20(35)36)30-23(41)14(29)11-22(39)40/h13-19,48H,4-12,29H2,1-3H3,(H,30,41)(H,31,44)(H,32,42)(H,33,43)(H,34,45)(H,35,36)(H,37,38)(H,39,40)(H,46,47)/t14-,15-,16-,17-,18-,19-/m0/s1
> <PUBCHEM_IUPAC_INCHIKEY>
DNHXOCAYDPRQIA-DYKIIFRCSA-N
> <PUBCHEM_XLOGP3_AA>
-4.3
> <PUBCHEM_EXACT_MASS>
738.25642789
> <PUBCHEM_MOLECULAR_FORMULA>
C28H46N6O13S2
> <PUBCHEM_MOLECULAR_WEIGHT>
738.8
> <PUBCHEM_OPENEYE_CAN_SMILES>
CC(C)CC(C(=O)NC(CS)C(=O)O)NC(=O)C(CCC(=O)O)NC(=O)C(CCSC)NC(=O)C(CCC(=O)O)NC(=O)C(CC(=O)O)N
> <PUBCHEM_OPENEYE_ISO_SMILES>
CC(C)C[C@@H](C(=O)N[C@@H](CS)C(=O)O)NC(=O)[C@H](CCC(=O)O)NC(=O)[C@H](CCSC)NC(=O)[C@H](CCC(=O)O)NC(=O)[C@H](CC(=O)O)N
> <PUBCHEM_CACTVS_TPSA>
347
> <PUBCHEM_MONOISOTOPIC_WEIGHT>
738.25642789
> <PUBCHEM_TOTAL_CHARGE>
0
> <PUBCHEM_HEAVY_ATOM_COUNT>
49
> <PUBCHEM_ATOM_DEF_STEREO_COUNT>
6
> <PUBCHEM_ATOM_UDEF_STEREO_COUNT>
0
> <PUBCHEM_BOND_DEF_STEREO_COUNT>
0
> <PUBCHEM_BOND_UDEF_STEREO_COUNT>
0
> <PUBCHEM_ISOTOPIC_ATOM_COUNT>
0
> <PUBCHEM_COMPONENT_COUNT>
1
> <PUBCHEM_CACTVS_TAUTO_COUNT>
-1
> <PUBCHEM_COORDINATE_TYPE>
1
5
255
> <PUBCHEM_BONDANNOTATIONS>
22  16  6
25  17  6
26  18  5
39  19  5
34  20  6
43  21  6
$$$$
