512510
  -OEChem-10302200282D
105106  0     1  0  0  0  0  0999 V2000
    5.4641    6.1550    0.0000 S   0  0  0  0  0  0  0  0  0  0  0  0
    4.5981    3.6550    0.0000 O   0  0  0  0  0  0  0  0  0  0  0  0
    5.4641    0.1550    0.0000 O   0  0  0  0  0  0  0  0  0  0  0  0
    7.1962    6.1550    0.0000 O   0  0  0  0  0  0  0  0  0  0  0  0
    8.9282   -0.8450    0.0000 O   0  0  0  0  0  0  0  0  0  0  0  0
    8.0622    4.6550    0.0000 O   0  0  0  0  0  0  0  0  0  0  0  0
    8.9282    3.1550    0.0000 O   0  0  0  0  0  0  0  0  0  0  0  0
    9.7942    1.6550    0.0000 O   0  0  0  0  0  0  0  0  0  0  0  0
    9.7942   -1.3450    0.0000 O   0  0  0  0  0  0  0  0  0  0  0  0
   12.3923   -3.8450    0.0000 O   0  0  0  0  0  0  0  0  0  0  0  0
   12.3923   -5.8450    0.0000 O   0  0  0  0  0  0  0  0  0  0  0  0
   10.6603   -5.8450    0.0000 O   0  0  0  0  0  0  0  0  0  0  0  0
   15.8564   -2.8450    0.0000 O   0  0  0  0  0  0  0  0  0  0  0  0
   14.9904   -1.3450    0.0000 O   0  0  0  0  0  0  0  0  0  0  0  0
    6.3301    1.6550    0.0000 N   0  0  0  0  0  0  0  0  0  0  0  0
    6.3301    3.6550    0.0000 N   0  0  0  0  0  0  0  0  0  0  0  0
    7.1962   -0.8450    0.0000 N   0  0  0  0  0  0  0  0  0  0  0  0
    8.9282   -2.8450    0.0000 N   0  0  0  0  0  0  0  0  0  0  0  0
   11.5263   -2.3450    0.0000 N   0  0  0  0  0  0  0  0  0  0  0  0
   13.2583   -1.3450    0.0000 N   0  0  0  0  0  0  0  0  0  0  0  0
    3.7320    2.1550    0.0000 C   0  0  0  0  0  0  0  0  0  0  0  0
    2.8660    1.6550    0.0000 C   0  0  0  0  0  0  0  0  0  0  0  0
    3.7320    3.1550    0.0000 C   0  0  0  0  0  0  0  0  0  0  0  0
    4.5981    1.6550    0.0000 C   0  0  0  0  0  0  0  0  0  0  0  0
    2.0000    2.1550    0.0000 C   0  0  0  0  0  0  0  0  0  0  0  0
    2.8660    3.6550    0.0000 C   0  0  0  0  0  0  0  0  0  0  0  0
    2.0000    3.1550    0.0000 C   0  0  0  0  0  0  0  0  0  0  0  0
    5.4641    2.1550    0.0000 C   0  0  1  0  0  0  0  0  0  0  0  0
    5.4641    3.1550    0.0000 C   0  0  0  0  0  0  0  0  0  0  0  0
    6.3301    0.6550    0.0000 C   0  0  0  0  0  0  0  0  0  0  0  0
    7.1962    0.1550    0.0000 C   0  0  2  0  0  0  0  0  0  0  0  0
    6.3301    4.6550    0.0000 C   0  0  1  0  0  0  0  0  0  0  0  0
    8.0622    0.6550    0.0000 C   0  0  0  0  0  0  0  0  0  0  0  0
    8.0622    1.6550    0.0000 C   0  0  0  0  0  0  0  0  0  0  0  0
    5.4641    5.1550    0.0000 C   0  0  0  0  0  0  0  0  0  0  0  0
    8.0622   -1.3450    0.0000 C   0  0  0  0  0  0  0  0  0  0  0  0
    8.0622   -2.3450    0.0000 C   0  0  2  0  0  0  0  0  0  0  0  0
    7.1962    5.1550    0.0000 C   0  0  0  0  0  0  0  0  0  0  0  0
    7.1962   -2.8450    0.0000 C   0  0  0  0  0  0  0  0  0  0  0  0
    8.9282    2.1550    0.0000 C   0  0  0  0  0  0  0  0  0  0  0  0
   10.6603   -2.8450    0.0000 C   0  0  2  0  0  0  0  0  0  0  0  0
    9.7942   -2.3450    0.0000 C   0  0  0  0  0  0  0  0  0  0  0  0
    7.1962   -3.8450    0.0000 C   0  0  0  0  0  0  0  0  0  0  0  0
   10.6603   -3.8450    0.0000 C   0  0  0  0  0  0  0  0  0  0  0  0
   11.5263   -4.3450    0.0000 C   0  0  0  0  0  0  0  0  0  0  0  0
    8.0622   -4.3450    0.0000 C   0  0  0  0  0  0  0  0  0  0  0  0
    6.3301   -4.3450    0.0000 C   0  0  0  0  0  0  0  0  0  0  0  0
   12.3923   -2.8450    0.0000 C   0  0  0  0  0  0  0  0  0  0  0  0
   13.2583   -2.3450    0.0000 C   0  0  2  0  0  0  0  0  0  0  0  0
    8.0622   -5.3450    0.0000 C   0  0  0  0  0  0  0  0  0  0  0  0
    6.3301   -5.3450    0.0000 C   0  0  0  0  0  0  0  0  0  0  0  0
    7.1962   -5.8450    0.0000 C   0  0  0  0  0  0  0  0  0  0  0  0
   11.5263   -5.3450    0.0000 C   0  0  0  0  0  0  0  0  0  0  0  0
   14.1244   -2.8450    0.0000 C   0  0  0  0  0  0  0  0  0  0  0  0
   14.9904   -2.3450    0.0000 C   0  0  0  0  0  0  0  0  0  0  0  0
    3.7320    1.5350    0.0000 H   0  0  0  0  0  0  0  0  0  0  0  0
    2.4675    1.1800    0.0000 H   0  0  0  0  0  0  0  0  0  0  0  0
    3.2646    1.1800    0.0000 H   0  0  0  0  0  0  0  0  0  0  0  0
    4.3426    3.0473    0.0000 H   0  0  0  0  0  0  0  0  0  0  0  0
    3.9441    3.7376    0.0000 H   0  0  0  0  0  0  0  0  0  0  0  0
    4.1996    1.1800    0.0000 H   0  0  0  0  0  0  0  0  0  0  0  0
    4.9966    1.1800    0.0000 H   0  0  0  0  0  0  0  0  0  0  0  0
    1.3894    2.2627    0.0000 H   0  0  0  0  0  0  0  0  0  0  0  0
    1.7880    1.5724    0.0000 H   0  0  0  0  0  0  0  0  0  0  0  0
    3.2646    4.1300    0.0000 H   0  0  0  0  0  0  0  0  0  0  0  0
    2.4675    4.1300    0.0000 H   0  0  0  0  0  0  0  0  0  0  0  0
    1.7880    3.7376    0.0000 H   0  0  0  0  0  0  0  0  0  0  0  0
    1.3894    3.0473    0.0000 H   0  0  0  0  0  0  0  0  0  0  0  0
    5.4641    1.5350    0.0000 H   0  0  0  0  0  0  0  0  0  0  0  0
    6.8671    1.9650    0.0000 H   0  0  0  0  0  0  0  0  0  0  0  0
    6.6592   -0.1550    0.0000 H   0  0  0  0  0  0  0  0  0  0  0  0
    6.8671    3.3450    0.0000 H   0  0  0  0  0  0  0  0  0  0  0  0
    6.8671    4.3450    0.0000 H   0  0  0  0  0  0  0  0  0  0  0  0
    8.2742    0.0724    0.0000 H   0  0  0  0  0  0  0  0  0  0  0  0
    8.6728    0.7627    0.0000 H   0  0  0  0  0  0  0  0  0  0  0  0
    6.6592   -1.1550    0.0000 H   0  0  0  0  0  0  0  0  0  0  0  0
    7.8501    2.2376    0.0000 H   0  0  0  0  0  0  0  0  0  0  0  0
    7.4516    1.5473    0.0000 H   0  0  0  0  0  0  0  0  0  0  0  0
    4.8535    5.2627    0.0000 H   0  0  0  0  0  0  0  0  0  0  0  0
    5.2520    4.5724    0.0000 H   0  0  0  0  0  0  0  0  0  0  0  0
    8.0622   -2.9650    0.0000 H   0  0  0  0  0  0  0  0  0  0  0  0
    6.9841   -2.2624    0.0000 H   0  0  0  0  0  0  0  0  0  0  0  0
    6.5856   -2.9527    0.0000 H   0  0  0  0  0  0  0  0  0  0  0  0
    8.9282   -3.4650    0.0000 H   0  0  0  0  0  0  0  0  0  0  0  0
   11.1972   -3.1550    0.0000 H   0  0  0  0  0  0  0  0  0  0  0  0
    4.9272    6.4650    0.0000 H   0  0  0  0  0  0  0  0  0  0  0  0
   10.0497   -3.7373    0.0000 H   0  0  0  0  0  0  0  0  0  0  0  0
   10.4482   -4.4276    0.0000 H   0  0  0  0  0  0  0  0  0  0  0  0
    7.7331    6.4650    0.0000 H   0  0  0  0  0  0  0  0  0  0  0  0
   11.5263   -1.7250    0.0000 H   0  0  0  0  0  0  0  0  0  0  0  0
   12.1369   -4.4527    0.0000 H   0  0  0  0  0  0  0  0  0  0  0  0
   11.7383   -3.7624    0.0000 H   0  0  0  0  0  0  0  0  0  0  0  0
    8.5991   -4.0350    0.0000 H   0  0  0  0  0  0  0  0  0  0  0  0
    5.7932   -4.0350    0.0000 H   0  0  0  0  0  0  0  0  0  0  0  0
    9.4651    3.4650    0.0000 H   0  0  0  0  0  0  0  0  0  0  0  0
   13.7953   -2.0350    0.0000 H   0  0  0  0  0  0  0  0  0  0  0  0
    8.5991   -5.6550    0.0000 H   0  0  0  0  0  0  0  0  0  0  0  0
    5.7932   -5.6550    0.0000 H   0  0  0  0  0  0  0  0  0  0  0  0
    7.1962   -6.4650    0.0000 H   0  0  0  0  0  0  0  0  0  0  0  0
   13.7258   -3.3200    0.0000 H   0  0  0  0  0  0  0  0  0  0  0  0
   14.5229   -3.3200    0.0000 H   0  0  0  0  0  0  0  0  0  0  0  0
   13.7953   -1.0350    0.0000 H   0  0  0  0  0  0  0  0  0  0  0  0
   12.7214   -1.0350    0.0000 H   0  0  0  0  0  0  0  0  0  0  0  0
   12.3923   -6.4650    0.0000 H   0  0  0  0  0  0  0  0  0  0  0  0
   16.3933   -2.5350    0.0000 H   0  0  0  0  0  0  0  0  0  0  0  0
  1 35  1  0  0  0  0
  1 86  1  0  0  0  0
  2 29  2  0  0  0  0
  3 30  2  0  0  0  0
  4 38  1  0  0  0  0
  4 89  1  0  0  0  0
  5 36  2  0  0  0  0
  6 38  2  0  0  0  0
  7 40  1  0  0  0  0
  7 95  1  0  0  0  0
  8 40  2  0  0  0  0
  9 42  2  0  0  0  0
 10 48  2  0  0  0  0
 11 53  1  0  0  0  0
 11104  1  0  0  0  0
 12 53  2  0  0  0  0
 13 55  1  0  0  0  0
 13105  1  0  0  0  0
 14 55  2  0  0  0  0
 28 15  1  1  0  0  0
 15 30  1  0  0  0  0
 15 70  1  0  0  0  0
 16 29  1  0  0  0  0
 32 16  1  1  0  0  0
 16 72  1  0  0  0  0
 31 17  1  6  0  0  0
 17 36  1  0  0  0  0
 17 76  1  0  0  0  0
 37 18  1  1  0  0  0
 18 42  1  0  0  0  0
 18 84  1  0  0  0  0
 41 19  1  1  0  0  0
 19 48  1  0  0  0  0
 19 90  1  0  0  0  0
 49 20  1  1  0  0  0
 20102  1  0  0  0  0
 20103  1  0  0  0  0
 21 22  1  0  0  0  0
 21 23  1  0  0  0  0
 21 24  1  0  0  0  0
 21 56  1  0  0  0  0
 22 25  1  0  0  0  0
 22 57  1  0  0  0  0
 22 58  1  0  0  0  0
 23 26  1  0  0  0  0
 23 59  1  0  0  0  0
 23 60  1  0  0  0  0
 24 28  1  0  0  0  0
 24 61  1  0  0  0  0
 24 62  1  0  0  0  0
 25 27  1  0  0  0  0
 25 63  1  0  0  0  0
 25 64  1  0  0  0  0
 26 27  1  0  0  0  0
 26 65  1  0  0  0  0
 26 66  1  0  0  0  0
 27 67  1  0  0  0  0
 27 68  1  0  0  0  0
 28 29  1  0  0  0  0
 28 69  1  0  0  0  0
 30 31  1  0  0  0  0
 31 33  1  0  0  0  0
 31 71  1  0  0  0  0
 32 35  1  0  0  0  0
 32 38  1  0  0  0  0
 32 73  1  0  0  0  0
 33 34  1  0  0  0  0
 33 74  1  0  0  0  0
 33 75  1  0  0  0  0
 34 40  1  0  0  0  0
 34 77  1  0  0  0  0
 34 78  1  0  0  0  0
 35 79  1  0  0  0  0
 35 80  1  0  0  0  0
 36 37  1  0  0  0  0
 37 39  1  0  0  0  0
 37 81  1  0  0  0  0
 39 43  1  0  0  0  0
 39 82  1  0  0  0  0
 39 83  1  0  0  0  0
 41 42  1  0  0  0  0
 41 44  1  0  0  0  0
 41 85  1  0  0  0  0
 43 46  2  0  0  0  0
 43 47  1  0  0  0  0
 44 45  1  0  0  0  0
 44 87  1  0  0  0  0
 44 88  1  0  0  0  0
 45 53  1  0  0  0  0
 45 91  1  0  0  0  0
 45 92  1  0  0  0  0
 46 50  1  0  0  0  0
 46 93  1  0  0  0  0
 47 51  2  0  0  0  0
 47 94  1  0  0  0  0
 48 49  1  0  0  0  0
 49 54  1  0  0  0  0
 49 96  1  0  0  0  0
 50 52  2  0  0  0  0
 50 97  1  0  0  0  0
 51 52  1  0  0  0  0
 51 98  1  0  0  0  0
 52 99  1  0  0  0  0
 54 55  1  0  0  0  0
 54100  1  0  0  0  0
 54101  1  0  0  0  0
M  END
> <PUBCHEM_COMPOUND_CID>
512510
> <PUBCHEM_COMPOUND_CANONICALIZED>
1
> <PUBCHEM_CACTVS_COMPLEXITY>
1370
> <PUBCHEM_CACTVS_HBOND_ACCEPTOR>
15
> <PUBCHEM_CACTVS_HBOND_DONOR>
11
> <PUBCHEM_CACTVS_ROTATABLE_BOND>
24
> <PUBCHEM_CACTVS_SUBSKEYS>
AAADcfB/vABAAAAAAAAAAAAAAAAAAAAAAAAwYAAAAAAAAAABAAAAHgQQCAAADSjF2ASwCILAAgSIAiHSGAACAAAgAAAIiIGIAIgKYDqAkTGUYAAmlgCYiAe/n4KOAAAAAAAAAAAAAAAAAAAAAAAAAAAAAA==
> <PUBCHEM_IUPAC_OPENEYE_NAME>
(4S)-4-[[(2S)-2-[[(2S)-2-[[(2S)-2-amino-3-carboxy-propanoyl]amino]-4-carboxy-butanoyl]amino]-3-phenyl-propanoyl]amino]-5-[[(1S)-2-[[(1R)-1-carboxy-2-sulfanyl-ethyl]amino]-1-(cyclohexylmethyl)-2-oxo-ethyl]amino]-5-oxo-pentanoic acid
> <PUBCHEM_IUPAC_CAS_NAME>
(4S)-4-[[(2S)-2-[[(2S)-2-[[(2S)-2-amino-3-carboxy-1-oxopropyl]amino]-4-carboxy-1-oxobutyl]amino]-1-oxo-3-phenylpropyl]amino]-5-[[(2S)-1-[[(1R)-1-carboxy-2-mercaptoethyl]amino]-3-cyclohexyl-1-oxopropan-2-yl]amino]-5-oxopentanoic acid
> <PUBCHEM_IUPAC_NAME_MARKUP>
(4<I>S</I>)-4-[[(2<I>S</I>)-2-[[(2<I>S</I>)-2-[[(2<I>S</I>)-2-amino-3-carboxypropanoyl]amino]-4-carboxybutanoyl]amino]-3-phenylpropanoyl]amino]-5-[[(2<I>S</I>)-1-[[(1<I>R</I>)-1-carboxy-2-sulfanylethyl]amino]-3-cyclohexyl-1-oxopropan-2-yl]amino]-5-oxopentanoic acid
> <PUBCHEM_IUPAC_NAME>
(4S)-4-[[(2S)-2-[[(2S)-2-[[(2S)-2-amino-3-carboxypropanoyl]amino]-4-carboxybutanoyl]amino]-3-phenylpropanoyl]amino]-5-[[(2S)-1-[[(1R)-1-carboxy-2-sulfanylethyl]amino]-3-cyclohexyl-1-oxopropan-2-yl]amino]-5-oxopentanoic acid
> <PUBCHEM_IUPAC_SYSTEMATIC_NAME>
(4S)-4-[[(2S)-2-[[(2S)-2-[[(2S)-2-azanyl-4-oxidanyl-4-oxidanylidene-butanoyl]amino]-5-oxidanyl-5-oxidanylidene-pentanoyl]amino]-3-phenyl-propanoyl]amino]-5-[[(2S)-3-cyclohexyl-1-oxidanylidene-1-[[(2R)-1-oxidanyl-1-oxidanylidene-3-sulfanyl-propan-2-yl]amino]propan-2-yl]amino]-5-oxidanylidene-pentanoic acid
> <PUBCHEM_IUPAC_TRADITIONAL_NAME>
(4S)-4-[[(2S)-2-[[(2S)-2-[[(2S)-2-amino-3-carboxy-propanoyl]amino]-4-carboxy-butanoyl]amino]-3-phenyl-propanoyl]amino]-5-[[(1S)-2-[[(1R)-1-carboxy-2-mercapto-ethyl]amino]-1-(cyclohexylmethyl)-2-keto-ethyl]amino]-5-keto-valeric acid
> <PUBCHEM_IUPAC_INCHI>
InChI=1S/C35H50N6O13S/c36-21(17-29(46)47)30(48)37-22(11-13-27(42)43)31(49)39-24(15-19-7-3-1-4-8-19)33(51)38-23(12-14-28(44)45)32(50)40-25(16-20-9-5-2-6-10-20)34(52)41-26(18-55)35(53)54/h1,3-4,7-8,20-26,55H,2,5-6,9-18,36H2,(H,37,48)(H,38,51)(H,39,49)(H,40,50)(H,41,52)(H,42,43)(H,44,45)(H,46,47)(H,53,54)/t21-,22-,23-,24-,25-,26-/m0/s1
> <PUBCHEM_IUPAC_INCHIKEY>
PLUHTLUMKSXAOB-FRSCJGFNSA-N
> <PUBCHEM_XLOGP3_AA>
-1.9
> <PUBCHEM_EXACT_MASS>
794.31565684
> <PUBCHEM_MOLECULAR_FORMULA>
C35H50N6O13S
> <PUBCHEM_MOLECULAR_WEIGHT>
794.9
> <PUBCHEM_OPENEYE_CAN_SMILES>
C1CCC(CC1)CC(C(=O)NC(CS)C(=O)O)NC(=O)C(CCC(=O)O)NC(=O)C(CC2=CC=CC=C2)NC(=O)C(CCC(=O)O)NC(=O)C(CC(=O)O)N
> <PUBCHEM_OPENEYE_ISO_SMILES>
C1CCC(CC1)C[C@@H](C(=O)N[C@@H](CS)C(=O)O)NC(=O)[C@H](CCC(=O)O)NC(=O)[C@H](CC2=CC=CC=C2)NC(=O)[C@H](CCC(=O)O)NC(=O)[C@H](CC(=O)O)N
> <PUBCHEM_CACTVS_TPSA>
322
> <PUBCHEM_MONOISOTOPIC_WEIGHT>
794.31565684
> <PUBCHEM_TOTAL_CHARGE>
0
> <PUBCHEM_HEAVY_ATOM_COUNT>
55
> <PUBCHEM_ATOM_DEF_STEREO_COUNT>
6
> <PUBCHEM_ATOM_UDEF_STEREO_COUNT>
0
> <PUBCHEM_BOND_DEF_STEREO_COUNT>
0
> <PUBCHEM_BOND_UDEF_STEREO_COUNT>
0
> <PUBCHEM_ISOTOPIC_ATOM_COUNT>
0
> <PUBCHEM_COMPONENT_COUNT>
1
> <PUBCHEM_CACTVS_TAUTO_COUNT>
-1
> <PUBCHEM_COORDINATE_TYPE>
1
5
255
> <PUBCHEM_BONDANNOTATIONS>
28  15  5
32  16  5
31  17  6
37  18  5
41  19  5
49  20  5
43  46  8
43  47  8
46  50  8
47  51  8
50  52  8
51  52  8
$$$$
