512563
  -OEChem-10302200282D
 42 45  0     1  0  0  0  0  0999 V2000
    8.5882    1.3682    0.0000 S   0  0  0  0  0  0  0  0  0  0  0  0
    7.5507    3.0443    0.0000 O   0  0  0  0  0  0  0  0  0  0  0  0
    9.2301   -2.6340    0.0000 O   0  0  0  0  0  0  0  0  0  0  0  0
    6.3587    0.0787    0.0000 N   0  0  0  0  0  0  0  0  0  0  0  0
    6.0652    2.2671    0.0000 N   0  0  0  0  0  0  0  0  0  0  0  0
    5.3884    1.5572    0.0000 C   0  0  2  0  0  0  0  0  0  0  0  0
    5.5188    0.5851    0.0000 C   0  0  0  0  0  0  0  0  0  0  0  0
    4.4374    1.8663    0.0000 C   0  0  0  0  0  0  0  0  0  0  0  0
    7.2792    0.4171    0.0000 C   0  0  0  0  0  0  0  0  0  0  0  0
    7.5882    1.3682    0.0000 C   0  0  0  0  0  0  0  0  0  0  0  0
    8.0882   -0.1706    0.0000 C   0  0  0  0  0  0  0  0  0  0  0  0
    7.0424    2.1831    0.0000 C   0  0  0  0  0  0  0  0  0  0  0  0
    3.6942    1.1971    0.0000 C   0  0  0  0  0  0  0  0  0  0  0  0
    8.8973    0.4171    0.0000 C   0  0  0  0  0  0  0  0  0  0  0  0
    8.1811   -1.2081    0.0000 C   0  0  0  0  0  0  0  0  0  0  0  0
    9.8552    0.0082    0.0000 C   0  0  0  0  0  0  0  0  0  0  0  0
    3.9021    0.2190    0.0000 C   0  0  0  0  0  0  0  0  0  0  0  0
    2.7431    1.5061    0.0000 C   0  0  0  0  0  0  0  0  0  0  0  0
    9.1294   -1.6391    0.0000 C   0  0  0  0  0  0  0  0  0  0  0  0
    9.9721   -1.0269    0.0000 C   0  0  0  0  0  0  0  0  0  0  0  0
    3.1590   -0.4502    0.0000 C   0  0  0  0  0  0  0  0  0  0  0  0
    2.0000    0.8370    0.0000 C   0  0  0  0  0  0  0  0  0  0  0  0
    2.2079   -0.1411    0.0000 C   0  0  0  0  0  0  0  0  0  0  0  0
   10.1421   -3.0443    0.0000 C   0  0  0  0  0  0  0  0  0  0  0  0
    5.2365    2.1583    0.0000 H   0  0  0  0  0  0  0  0  0  0  0  0
    4.9014    0.6421    0.0000 H   0  0  0  0  0  0  0  0  0  0  0  0
    5.3253   -0.0039    0.0000 H   0  0  0  0  0  0  0  0  0  0  0  0
    4.7284    2.4137    0.0000 H   0  0  0  0  0  0  0  0  0  0  0  0
    3.9488    2.2480    0.0000 H   0  0  0  0  0  0  0  0  0  0  0  0
    6.2998   -0.5385    0.0000 H   0  0  0  0  0  0  0  0  0  0  0  0
    5.8458    2.8469    0.0000 H   0  0  0  0  0  0  0  0  0  0  0  0
    7.6754   -1.5667    0.0000 H   0  0  0  0  0  0  0  0  0  0  0  0
   10.3526    0.3784    0.0000 H   0  0  0  0  0  0  0  0  0  0  0  0
    4.4918    0.0274    0.0000 H   0  0  0  0  0  0  0  0  0  0  0  0
    2.6142    2.1126    0.0000 H   0  0  0  0  0  0  0  0  0  0  0  0
   10.5395   -1.2768    0.0000 H   0  0  0  0  0  0  0  0  0  0  0  0
    3.2879   -1.0566    0.0000 H   0  0  0  0  0  0  0  0  0  0  0  0
    1.4103    1.0286    0.0000 H   0  0  0  0  0  0  0  0  0  0  0  0
    1.7472   -0.5560    0.0000 H   0  0  0  0  0  0  0  0  0  0  0  0
    9.8877   -3.6097    0.0000 H   0  0  0  0  0  0  0  0  0  0  0  0
   10.7075   -3.2986    0.0000 H   0  0  0  0  0  0  0  0  0  0  0  0
   10.3964   -2.4789    0.0000 H   0  0  0  0  0  0  0  0  0  0  0  0
  1 10  1  0  0  0  0
  1 14  1  0  0  0  0
  2 12  2  0  0  0  0
  3 19  1  0  0  0  0
  3 24  1  0  0  0  0
  4  7  1  0  0  0  0
  4  9  1  0  0  0  0
  4 30  1  0  0  0  0
  5  6  1  0  0  0  0
  5 12  1  0  0  0  0
  5 31  1  0  0  0  0
  6  7  1  0  0  0  0
  6  8  1  6  0  0  0
  6 25  1  0  0  0  0
  7 26  1  0  0  0  0
  7 27  1  0  0  0  0
  8 13  1  0  0  0  0
  8 28  1  0  0  0  0
  8 29  1  0  0  0  0
  9 10  2  0  0  0  0
  9 11  1  0  0  0  0
 10 12  1  0  0  0  0
 11 14  2  0  0  0  0
 11 15  1  0  0  0  0
 13 17  2  0  0  0  0
 13 18  1  0  0  0  0
 14 16  1  0  0  0  0
 15 19  2  0  0  0  0
 15 32  1  0  0  0  0
 16 20  2  0  0  0  0
 16 33  1  0  0  0  0
 17 21  1  0  0  0  0
 17 34  1  0  0  0  0
 18 22  2  0  0  0  0
 18 35  1  0  0  0  0
 19 20  1  0  0  0  0
 20 36  1  0  0  0  0
 21 23  2  0  0  0  0
 21 37  1  0  0  0  0
 22 23  1  0  0  0  0
 22 38  1  0  0  0  0
 23 39  1  0  0  0  0
 24 40  1  0  0  0  0
 24 41  1  0  0  0  0
 24 42  1  0  0  0  0
M  END
> <PUBCHEM_COMPOUND_CID>
512563
> <PUBCHEM_COMPOUND_CANONICALIZED>
1
> <PUBCHEM_CACTVS_COMPLEXITY>
455
> <PUBCHEM_CACTVS_HBOND_ACCEPTOR>
4
> <PUBCHEM_CACTVS_HBOND_DONOR>
2
> <PUBCHEM_CACTVS_ROTATABLE_BOND>
3
> <PUBCHEM_CACTVS_SUBSKEYS>
AAADceB7MABAAAAAAAAAAAAAAAAAASAAAAAwYAAABYAAAEix9AAAHgQQAAAADCzB2AYyx8LABAiMAiVSUACDCIAlKBBIiJ0OTMgMZjrk9ZuUMaxk1hHo6Ue4yLCOAIABAAAEAAABAAIAAAgAAAAAAAAAAA==
> <PUBCHEM_IUPAC_OPENEYE_NAME>
(3S)-3-benzyl-9-methoxy-1,2,3,4-tetrahydrobenzothiopheno[3,2-e][1,4]diazepin-5-one
> <PUBCHEM_IUPAC_CAS_NAME>
(3S)-9-methoxy-3-(phenylmethyl)-1,2,3,4-tetrahydro-[1]benzothiolo[3,2-e][1,4]diazepin-5-one
> <PUBCHEM_IUPAC_NAME_MARKUP>
(3<I>S</I>)-3-benzyl-9-methoxy-1,2,3,4-tetrahydro-[1]benzothiolo[3,2-e][1,4]diazepin-5-one
> <PUBCHEM_IUPAC_NAME>
(3S)-3-benzyl-9-methoxy-1,2,3,4-tetrahydro-[1]benzothiolo[3,2-e][1,4]diazepin-5-one
> <PUBCHEM_IUPAC_SYSTEMATIC_NAME>
(3S)-9-methoxy-3-(phenylmethyl)-1,2,3,4-tetrahydro-[1]benzothiolo[3,2-e][1,4]diazepin-5-one
> <PUBCHEM_IUPAC_TRADITIONAL_NAME>
(3S)-3-benzyl-9-methoxy-1,2,3,4-tetrahydrobenzothiopheno[3,2-e][1,4]diazepin-5-one
> <PUBCHEM_IUPAC_INCHI>
InChI=1S/C19H18N2O2S/c1-23-14-7-8-16-15(10-14)17-18(24-16)19(22)21-13(11-20-17)9-12-5-3-2-4-6-12/h2-8,10,13,20H,9,11H2,1H3,(H,21,22)/t13-/m0/s1
> <PUBCHEM_IUPAC_INCHIKEY>
UVTHKAJHOGEFPT-ZDUSSCGKSA-N
> <PUBCHEM_XLOGP3_AA>
4.3
> <PUBCHEM_EXACT_MASS>
338.10889899
> <PUBCHEM_MOLECULAR_FORMULA>
C19H18N2O2S
> <PUBCHEM_MOLECULAR_WEIGHT>
338.4
> <PUBCHEM_OPENEYE_CAN_SMILES>
COC1=CC2=C(C=C1)SC3=C2NCC(NC3=O)CC4=CC=CC=C4
> <PUBCHEM_OPENEYE_ISO_SMILES>
COC1=CC2=C(C=C1)SC3=C2NC[C@@H](NC3=O)CC4=CC=CC=C4
> <PUBCHEM_CACTVS_TPSA>
78.6
> <PUBCHEM_MONOISOTOPIC_WEIGHT>
338.10889899
> <PUBCHEM_TOTAL_CHARGE>
0
> <PUBCHEM_HEAVY_ATOM_COUNT>
24
> <PUBCHEM_ATOM_DEF_STEREO_COUNT>
1
> <PUBCHEM_ATOM_UDEF_STEREO_COUNT>
0
> <PUBCHEM_BOND_DEF_STEREO_COUNT>
0
> <PUBCHEM_BOND_UDEF_STEREO_COUNT>
0
> <PUBCHEM_ISOTOPIC_ATOM_COUNT>
0
> <PUBCHEM_COMPONENT_COUNT>
1
> <PUBCHEM_CACTVS_TAUTO_COUNT>
-1
> <PUBCHEM_COORDINATE_TYPE>
1
5
255
> <PUBCHEM_BONDANNOTATIONS>
1  10  8
1  14  8
11  14  8
11  15  8
13  17  8
13  18  8
14  16  8
15  19  8
16  20  8
17  21  8
18  22  8
19  20  8
21  23  8
22  23  8
6  8  6
9  10  8
9  11  8
$$$$
