512521
  -OEChem-10302200282D
102104  0     1  0  0  0  0  0999 V2000
    5.4641    6.6382    0.0000 S   0  0  0  0  0  0  0  0  0  0  0  0
    4.5981    4.1382    0.0000 O   0  0  0  0  0  0  0  0  0  0  0  0
    5.4641    0.6382    0.0000 O   0  0  0  0  0  0  0  0  0  0  0  0
    8.9282   -0.3618    0.0000 O   0  0  0  0  0  0  0  0  0  0  0  0
    7.1962    6.6382    0.0000 O   0  0  0  0  0  0  0  0  0  0  0  0
    8.0622    5.1382    0.0000 O   0  0  0  0  0  0  0  0  0  0  0  0
    8.9282    3.6382    0.0000 O   0  0  0  0  0  0  0  0  0  0  0  0
    5.8693   -1.2484    0.0000 O   0  0  0  0  0  0  0  0  0  0  0  0
    9.7942    2.1382    0.0000 O   0  0  0  0  0  0  0  0  0  0  0  0
    4.9670   -6.3656    0.0000 O   0  0  0  0  0  0  0  0  0  0  0  0
    6.5946   -5.7732    0.0000 O   0  0  0  0  0  0  0  0  0  0  0  0
    6.3301    2.1382    0.0000 N   0  0  0  0  0  0  0  0  0  0  0  0
    6.3301    4.1382    0.0000 N   0  0  0  0  0  0  0  0  0  0  0  0
    7.1962   -0.3618    0.0000 N   0  0  0  0  0  0  0  0  0  0  0  0
    7.1962   -2.3618    0.0000 N   0  0  0  0  0  0  0  0  0  0  0  0
    4.5838   -2.7805    0.0000 N   0  0  0  0  0  0  0  0  0  0  0  0
    3.7320    2.6382    0.0000 C   0  0  0  0  0  0  0  0  0  0  0  0
    3.7320    3.6382    0.0000 C   0  0  0  0  0  0  0  0  0  0  0  0
    2.8660    2.1382    0.0000 C   0  0  0  0  0  0  0  0  0  0  0  0
    4.5981    2.1382    0.0000 C   0  0  0  0  0  0  0  0  0  0  0  0
    2.8660    4.1382    0.0000 C   0  0  0  0  0  0  0  0  0  0  0  0
    2.0000    2.6382    0.0000 C   0  0  0  0  0  0  0  0  0  0  0  0
    2.0000    3.6382    0.0000 C   0  0  0  0  0  0  0  0  0  0  0  0
    5.4641    2.6382    0.0000 C   0  0  1  0  0  0  0  0  0  0  0  0
    5.4641    3.6382    0.0000 C   0  0  0  0  0  0  0  0  0  0  0  0
    6.3301    1.1382    0.0000 C   0  0  0  0  0  0  0  0  0  0  0  0
    7.1962    0.6382    0.0000 C   0  0  2  0  0  0  0  0  0  0  0  0
    8.0622    1.1382    0.0000 C   0  0  0  0  0  0  0  0  0  0  0  0
    6.3301    5.1382    0.0000 C   0  0  1  0  0  0  0  0  0  0  0  0
    8.0622   -1.8618    0.0000 C   0  0  1  0  0  0  0  0  0  0  0  0
    8.9282   -2.3618    0.0000 C   0  0  0  0  0  0  0  0  0  0  0  0
    8.0622   -0.8618    0.0000 C   0  0  0  0  0  0  0  0  0  0  0  0
    8.0622    2.1382    0.0000 C   0  0  0  0  0  0  0  0  0  0  0  0
    5.4641    5.6382    0.0000 C   0  0  0  0  0  0  0  0  0  0  0  0
    8.9282   -3.3618    0.0000 C   0  0  0  0  0  0  0  0  0  0  0  0
    9.7942   -1.8618    0.0000 C   0  0  0  0  0  0  0  0  0  0  0  0
    7.1962    5.6382    0.0000 C   0  0  0  0  0  0  0  0  0  0  0  0
    6.2113   -2.1881    0.0000 C   0  0  0  0  0  0  0  0  0  0  0  0
    5.5685   -2.9541    0.0000 C   0  0  2  0  0  0  0  0  0  0  0  0
    8.9282    2.6382    0.0000 C   0  0  0  0  0  0  0  0  0  0  0  0
    9.7942   -3.8618    0.0000 C   0  0  0  0  0  0  0  0  0  0  0  0
    9.7942   -0.8618    0.0000 C   0  0  0  0  0  0  0  0  0  0  0  0
    8.0622   -3.8618    0.0000 C   0  0  0  0  0  0  0  0  0  0  0  0
   10.6603   -2.3618    0.0000 C   0  0  0  0  0  0  0  0  0  0  0  0
    5.9106   -3.8938    0.0000 C   0  0  0  0  0  0  0  0  0  0  0  0
    9.7942   -4.8618    0.0000 C   0  0  0  0  0  0  0  0  0  0  0  0
   10.6603   -0.3618    0.0000 C   0  0  0  0  0  0  0  0  0  0  0  0
    8.0622   -4.8618    0.0000 C   0  0  0  0  0  0  0  0  0  0  0  0
   11.5263   -1.8618    0.0000 C   0  0  0  0  0  0  0  0  0  0  0  0
    5.2678   -4.6599    0.0000 C   0  0  0  0  0  0  0  0  0  0  0  0
    8.9282   -5.3618    0.0000 C   0  0  0  0  0  0  0  0  0  0  0  0
   11.5263   -0.8618    0.0000 C   0  0  0  0  0  0  0  0  0  0  0  0
    5.6098   -5.5996    0.0000 C   0  0  0  0  0  0  0  0  0  0  0  0
    3.7320    2.0182    0.0000 H   0  0  0  0  0  0  0  0  0  0  0  0
    4.3426    3.5306    0.0000 H   0  0  0  0  0  0  0  0  0  0  0  0
    3.9441    4.2209    0.0000 H   0  0  0  0  0  0  0  0  0  0  0  0
    2.4675    1.6633    0.0000 H   0  0  0  0  0  0  0  0  0  0  0  0
    3.2646    1.6633    0.0000 H   0  0  0  0  0  0  0  0  0  0  0  0
    4.1996    1.6633    0.0000 H   0  0  0  0  0  0  0  0  0  0  0  0
    4.9966    1.6633    0.0000 H   0  0  0  0  0  0  0  0  0  0  0  0
    3.2646    4.6132    0.0000 H   0  0  0  0  0  0  0  0  0  0  0  0
    2.4675    4.6132    0.0000 H   0  0  0  0  0  0  0  0  0  0  0  0
    1.3894    2.7459    0.0000 H   0  0  0  0  0  0  0  0  0  0  0  0
    1.7880    2.0556    0.0000 H   0  0  0  0  0  0  0  0  0  0  0  0
    1.7880    4.2209    0.0000 H   0  0  0  0  0  0  0  0  0  0  0  0
    1.3894    3.5306    0.0000 H   0  0  0  0  0  0  0  0  0  0  0  0
    5.4641    2.0182    0.0000 H   0  0  0  0  0  0  0  0  0  0  0  0
    6.8671    2.4482    0.0000 H   0  0  0  0  0  0  0  0  0  0  0  0
    6.6592    0.3282    0.0000 H   0  0  0  0  0  0  0  0  0  0  0  0
    6.8671    3.8282    0.0000 H   0  0  0  0  0  0  0  0  0  0  0  0
    8.2742    0.5556    0.0000 H   0  0  0  0  0  0  0  0  0  0  0  0
    8.6728    1.2459    0.0000 H   0  0  0  0  0  0  0  0  0  0  0  0
    6.8671    4.8282    0.0000 H   0  0  0  0  0  0  0  0  0  0  0  0
    6.5856   -0.4694    0.0000 H   0  0  0  0  0  0  0  0  0  0  0  0
    8.0622   -2.4818    0.0000 H   0  0  0  0  0  0  0  0  0  0  0  0
    8.9282   -1.7418    0.0000 H   0  0  0  0  0  0  0  0  0  0  0  0
    7.8501    2.7208    0.0000 H   0  0  0  0  0  0  0  0  0  0  0  0
    7.4516    2.0306    0.0000 H   0  0  0  0  0  0  0  0  0  0  0  0
    4.8535    5.7459    0.0000 H   0  0  0  0  0  0  0  0  0  0  0  0
    5.2520    5.0556    0.0000 H   0  0  0  0  0  0  0  0  0  0  0  0
    7.1962   -2.9818    0.0000 H   0  0  0  0  0  0  0  0  0  0  0  0
    5.3565   -2.3714    0.0000 H   0  0  0  0  0  0  0  0  0  0  0  0
   10.3312   -3.5518    0.0000 H   0  0  0  0  0  0  0  0  0  0  0  0
    9.2573   -0.5518    0.0000 H   0  0  0  0  0  0  0  0  0  0  0  0
    7.5252   -3.5518    0.0000 H   0  0  0  0  0  0  0  0  0  0  0  0
   10.6603   -2.9818    0.0000 H   0  0  0  0  0  0  0  0  0  0  0  0
    6.3091   -4.3688    0.0000 H   0  0  0  0  0  0  0  0  0  0  0  0
    6.4475   -3.5838    0.0000 H   0  0  0  0  0  0  0  0  0  0  0  0
    4.9272    6.9482    0.0000 H   0  0  0  0  0  0  0  0  0  0  0  0
   10.3312   -5.1718    0.0000 H   0  0  0  0  0  0  0  0  0  0  0  0
   10.6603    0.2582    0.0000 H   0  0  0  0  0  0  0  0  0  0  0  0
    7.5252   -5.1718    0.0000 H   0  0  0  0  0  0  0  0  0  0  0  0
   12.0632   -2.1718    0.0000 H   0  0  0  0  0  0  0  0  0  0  0  0
    7.7331    6.9482    0.0000 H   0  0  0  0  0  0  0  0  0  0  0  0
    4.8692   -4.1849    0.0000 H   0  0  0  0  0  0  0  0  0  0  0  0
    4.7308   -4.9699    0.0000 H   0  0  0  0  0  0  0  0  0  0  0  0
    8.9282   -5.9818    0.0000 H   0  0  0  0  0  0  0  0  0  0  0  0
   12.0632   -0.5518    0.0000 H   0  0  0  0  0  0  0  0  0  0  0  0
    4.1852   -3.2555    0.0000 H   0  0  0  0  0  0  0  0  0  0  0  0
    4.3717   -2.1979    0.0000 H   0  0  0  0  0  0  0  0  0  0  0  0
    9.4651    3.9482    0.0000 H   0  0  0  0  0  0  0  0  0  0  0  0
    5.1791   -6.9482    0.0000 H   0  0  0  0  0  0  0  0  0  0  0  0
  1 34  1  0  0  0  0
  1 89  1  0  0  0  0
  2 25  2  0  0  0  0
  3 26  2  0  0  0  0
  4 32  2  0  0  0  0
  5 37  1  0  0  0  0
  5 94  1  0  0  0  0
  6 37  2  0  0  0  0
  7 40  1  0  0  0  0
  7101  1  0  0  0  0
  8 38  2  0  0  0  0
  9 40  2  0  0  0  0
 10 53  1  0  0  0  0
 10102  1  0  0  0  0
 11 53  2  0  0  0  0
 24 12  1  1  0  0  0
 12 26  1  0  0  0  0
 12 68  1  0  0  0  0
 13 25  1  0  0  0  0
 29 13  1  1  0  0  0
 13 70  1  0  0  0  0
 27 14  1  6  0  0  0
 14 32  1  0  0  0  0
 14 74  1  0  0  0  0
 30 15  1  6  0  0  0
 15 38  1  0  0  0  0
 15 81  1  0  0  0  0
 39 16  1  6  0  0  0
 16 99  1  0  0  0  0
 16100  1  0  0  0  0
 17 18  1  0  0  0  0
 17 19  1  0  0  0  0
 17 20  1  0  0  0  0
 17 54  1  0  0  0  0
 18 21  1  0  0  0  0
 18 55  1  0  0  0  0
 18 56  1  0  0  0  0
 19 22  1  0  0  0  0
 19 57  1  0  0  0  0
 19 58  1  0  0  0  0
 20 24  1  0  0  0  0
 20 59  1  0  0  0  0
 20 60  1  0  0  0  0
 21 23  1  0  0  0  0
 21 61  1  0  0  0  0
 21 62  1  0  0  0  0
 22 23  1  0  0  0  0
 22 63  1  0  0  0  0
 22 64  1  0  0  0  0
 23 65  1  0  0  0  0
 23 66  1  0  0  0  0
 24 25  1  0  0  0  0
 24 67  1  0  0  0  0
 26 27  1  0  0  0  0
 27 28  1  0  0  0  0
 27 69  1  0  0  0  0
 28 33  1  0  0  0  0
 28 71  1  0  0  0  0
 28 72  1  0  0  0  0
 29 34  1  0  0  0  0
 29 37  1  0  0  0  0
 29 73  1  0  0  0  0
 30 31  1  0  0  0  0
 30 32  1  0  0  0  0
 30 75  1  0  0  0  0
 31 35  1  0  0  0  0
 31 36  1  0  0  0  0
 31 76  1  0  0  0  0
 33 40  1  0  0  0  0
 33 77  1  0  0  0  0
 33 78  1  0  0  0  0
 34 79  1  0  0  0  0
 34 80  1  0  0  0  0
 35 41  2  0  0  0  0
 35 43  1  0  0  0  0
 36 42  2  0  0  0  0
 36 44  1  0  0  0  0
 38 39  1  0  0  0  0
 39 45  1  0  0  0  0
 39 82  1  0  0  0  0
 41 46  1  0  0  0  0
 41 83  1  0  0  0  0
 42 47  1  0  0  0  0
 42 84  1  0  0  0  0
 43 48  2  0  0  0  0
 43 85  1  0  0  0  0
 44 49  2  0  0  0  0
 44 86  1  0  0  0  0
 45 50  1  0  0  0  0
 45 87  1  0  0  0  0
 45 88  1  0  0  0  0
 46 51  2  0  0  0  0
 46 90  1  0  0  0  0
 47 52  2  0  0  0  0
 47 91  1  0  0  0  0
 48 51  1  0  0  0  0
 48 92  1  0  0  0  0
 49 52  1  0  0  0  0
 49 93  1  0  0  0  0
 50 53  1  0  0  0  0
 50 95  1  0  0  0  0
 50 96  1  0  0  0  0
 51 97  1  0  0  0  0
 52 98  1  0  0  0  0
M  END
> <PUBCHEM_COMPOUND_CID>
512521
> <PUBCHEM_COMPOUND_CANONICALIZED>
1
> <PUBCHEM_CACTVS_COMPLEXITY>
1230
> <PUBCHEM_CACTVS_HBOND_ACCEPTOR>
12
> <PUBCHEM_CACTVS_HBOND_DONOR>
9
> <PUBCHEM_CACTVS_ROTATABLE_BOND>
21
> <PUBCHEM_CACTVS_SUBSKEYS>
AAADcfB/vABAAAAAAAAAAAAAAAAAAAAAAAAwYMAAAAAAAAABQAAAHgQQCAAADSjF2ASwCILAAgSIAiHSGAACAAAgAAAIiIGIAIgKYDKAkTGUYAAklgCYiAe8n8KOgAAAAAAAAAAAAAAAAAAAAAAAAAAAAA==
> <PUBCHEM_IUPAC_OPENEYE_NAME>
(4S)-4-amino-5-[[(1S)-1-benzhydryl-2-[[(1S)-3-carboxy-1-[[(1S)-2-[[(1R)-1-carboxy-2-sulfanyl-ethyl]amino]-1-(cyclohexylmethyl)-2-oxo-ethyl]carbamoyl]propyl]amino]-2-oxo-ethyl]amino]-5-oxo-pentanoic acid
> <PUBCHEM_IUPAC_CAS_NAME>
(4S)-4-amino-5-[[(2S)-1-[[(2S)-4-carboxy-1-[[(2S)-1-[[(1R)-1-carboxy-2-mercaptoethyl]amino]-3-cyclohexyl-1-oxopropan-2-yl]amino]-1-oxobutan-2-yl]amino]-1-oxo-3,3-diphenylpropan-2-yl]amino]-5-oxopentanoic acid
> <PUBCHEM_IUPAC_NAME_MARKUP>
(4<I>S</I>)-4-amino-5-[[(2<I>S</I>)-1-[[(2<I>S</I>)-4-carboxy-1-[[(2<I>S</I>)-1-[[(1<I>R</I>)-1-carboxy-2-sulfanylethyl]amino]-3-cyclohexyl-1-oxopropan-2-yl]amino]-1-oxobutan-2-yl]amino]-1-oxo-3,3-diphenylpropan-2-yl]amino]-5-oxopentanoic acid
> <PUBCHEM_IUPAC_NAME>
(4S)-4-amino-5-[[(2S)-1-[[(2S)-4-carboxy-1-[[(2S)-1-[[(1R)-1-carboxy-2-sulfanylethyl]amino]-3-cyclohexyl-1-oxopropan-2-yl]amino]-1-oxobutan-2-yl]amino]-1-oxo-3,3-diphenylpropan-2-yl]amino]-5-oxopentanoic acid
> <PUBCHEM_IUPAC_SYSTEMATIC_NAME>
(4S)-4-azanyl-5-[[(2S)-1-[[(2S)-1-[[(2S)-3-cyclohexyl-1-oxidanylidene-1-[[(2R)-1-oxidanyl-1-oxidanylidene-3-sulfanyl-propan-2-yl]amino]propan-2-yl]amino]-5-oxidanyl-1,5-bis(oxidanylidene)pentan-2-yl]amino]-1-oxidanylidene-3,3-diphenyl-propan-2-yl]amino]-5-oxidanylidene-pentanoic acid
> <PUBCHEM_IUPAC_TRADITIONAL_NAME>
(4S)-4-amino-5-[[(1S)-1-benzhydryl-2-[[(1S)-3-carboxy-1-[[(1S)-2-[[(1R)-1-carboxy-2-mercapto-ethyl]amino]-1-(cyclohexylmethyl)-2-keto-ethyl]carbamoyl]propyl]amino]-2-keto-ethyl]amino]-5-keto-valeric acid
> <PUBCHEM_IUPAC_INCHI>
InChI=1S/C37H49N5O10S/c38-25(16-18-29(43)44)33(47)42-32(31(23-12-6-2-7-13-23)24-14-8-3-9-15-24)36(50)39-26(17-19-30(45)46)34(48)40-27(20-22-10-4-1-5-11-22)35(49)41-28(21-53)37(51)52/h2-3,6-9,12-15,22,25-28,31-32,53H,1,4-5,10-11,16-21,38H2,(H,39,50)(H,40,48)(H,41,49)(H,42,47)(H,43,44)(H,45,46)(H,51,52)/t25-,26-,27-,28-,32-/m0/s1
> <PUBCHEM_IUPAC_INCHIKEY>
ZXLYAICLHHVECG-PZOFJGTJSA-N
> <PUBCHEM_XLOGP3_AA>
0.7
> <PUBCHEM_EXACT_MASS>
755.32001395
> <PUBCHEM_MOLECULAR_FORMULA>
C37H49N5O10S
> <PUBCHEM_MOLECULAR_WEIGHT>
755.9
> <PUBCHEM_OPENEYE_CAN_SMILES>
C1CCC(CC1)CC(C(=O)NC(CS)C(=O)O)NC(=O)C(CCC(=O)O)NC(=O)C(C(C2=CC=CC=C2)C3=CC=CC=C3)NC(=O)C(CCC(=O)O)N
> <PUBCHEM_OPENEYE_ISO_SMILES>
C1CCC(CC1)C[C@@H](C(=O)N[C@@H](CS)C(=O)O)NC(=O)[C@H](CCC(=O)O)NC(=O)[C@H](C(C2=CC=CC=C2)C3=CC=CC=C3)NC(=O)[C@H](CCC(=O)O)N
> <PUBCHEM_CACTVS_TPSA>
255
> <PUBCHEM_MONOISOTOPIC_WEIGHT>
755.32001395
> <PUBCHEM_TOTAL_CHARGE>
0
> <PUBCHEM_HEAVY_ATOM_COUNT>
53
> <PUBCHEM_ATOM_DEF_STEREO_COUNT>
5
> <PUBCHEM_ATOM_UDEF_STEREO_COUNT>
0
> <PUBCHEM_BOND_DEF_STEREO_COUNT>
0
> <PUBCHEM_BOND_UDEF_STEREO_COUNT>
0
> <PUBCHEM_ISOTOPIC_ATOM_COUNT>
0
> <PUBCHEM_COMPONENT_COUNT>
1
> <PUBCHEM_CACTVS_TAUTO_COUNT>
-1
> <PUBCHEM_COORDINATE_TYPE>
1
5
255
> <PUBCHEM_BONDANNOTATIONS>
24  12  5
29  13  5
27  14  6
30  15  6
39  16  6
35  41  8
35  43  8
36  42  8
36  44  8
41  46  8
42  47  8
43  48  8
44  49  8
46  51  8
47  52  8
48  51  8
49  52  8
$$$$
