512536
  -OEChem-10302200282D
110111  0     1  0  0  0  0  0999 V2000
    2.5369    3.6900    0.0000 S   0  0  0  0  0  0  0  0  0  0  0  0
    4.2690    1.6900    0.0000 O   0  0  0  0  0  0  0  0  0  0  0  0
    7.7331    0.6900    0.0000 O   0  0  0  0  0  0  0  0  0  0  0  0
   10.3312    3.1900    0.0000 O   0  0  0  0  0  0  0  0  0  0  0  0
    3.4030    5.1900    0.0000 O   0  0  0  0  0  0  0  0  0  0  0  0
    5.1350    5.1900    0.0000 O   0  0  0  0  0  0  0  0  0  0  0  0
    6.8671    5.1900    0.0000 O   0  0  0  0  0  0  0  0  0  0  0  0
   12.9292    0.6900    0.0000 O   0  0  0  0  0  0  0  0  0  0  0  0
    8.5991    5.1900    0.0000 O   0  0  0  0  0  0  0  0  0  0  0  0
   13.7953    0.1900    0.0000 O   0  0  0  0  0  0  0  0  0  0  0  0
   17.2594   -0.8100    0.0000 O   0  0  0  0  0  0  0  0  0  0  0  0
   16.3933   -2.3100    0.0000 O   0  0  0  0  0  0  0  0  0  0  0  0
   10.3312   -5.8100    0.0000 O   0  5  0  0  0  0  0  0  0  0  0  0
   12.0632   -5.8100    0.0000 O   0  0  0  0  0  0  0  0  0  0  0  0
    6.8671    2.1900    0.0000 N   0  0  0  0  0  0  0  0  0  0  0  0
    5.1350    3.1900    0.0000 N   0  0  0  0  0  0  0  0  0  0  0  0
    9.4651    1.6900    0.0000 N   0  0  0  0  0  0  0  0  0  0  0  0
   11.1972    0.6900    0.0000 N   0  0  0  0  0  0  0  0  0  0  0  0
   12.9292   -1.3100    0.0000 N   0  0  0  0  0  0  0  0  0  0  0  0
   14.6613   -2.3100    0.0000 N   0  0  0  0  0  0  0  0  0  0  0  0
   11.1972   -5.3100    0.0000 N   0  3  0  0  0  0  0  0  0  0  0  0
    5.1350    0.1900    0.0000 C   0  0  0  0  0  0  0  0  0  0  0  0
    4.2690    0.6900    0.0000 C   0  0  0  0  0  0  0  0  0  0  0  0
    5.1350   -0.8100    0.0000 C   0  0  0  0  0  0  0  0  0  0  0  0
    6.0010    0.6900    0.0000 C   0  0  0  0  0  0  0  0  0  0  0  0
    3.4030    0.1900    0.0000 C   0  0  0  0  0  0  0  0  0  0  0  0
    4.2690   -1.3100    0.0000 C   0  0  0  0  0  0  0  0  0  0  0  0
    3.4030   -0.8100    0.0000 C   0  0  0  0  0  0  0  0  0  0  0  0
    6.0010    1.6900    0.0000 C   0  0  1  0  0  0  0  0  0  0  0  0
    5.1350    2.1900    0.0000 C   0  0  0  0  0  0  0  0  0  0  0  0
    7.7331    1.6900    0.0000 C   0  0  0  0  0  0  0  0  0  0  0  0
    8.5991    2.1900    0.0000 C   0  0  2  0  0  0  0  0  0  0  0  0
    8.5991    3.1900    0.0000 C   0  0  0  0  0  0  0  0  0  0  0  0
    4.2690    3.6900    0.0000 C   0  0  1  0  0  0  0  0  0  0  0  0
   11.1972    1.6900    0.0000 C   0  0  2  0  0  0  0  0  0  0  0  0
   10.3312    2.1900    0.0000 C   0  0  0  0  0  0  0  0  0  0  0  0
   12.0632    2.1900    0.0000 C   0  0  0  0  0  0  0  0  0  0  0  0
    7.7331    3.6900    0.0000 C   0  0  0  0  0  0  0  0  0  0  0  0
    3.4030    3.1900    0.0000 C   0  0  0  0  0  0  0  0  0  0  0  0
   12.0632    3.1900    0.0000 C   0  0  0  0  0  0  0  0  0  0  0  0
    4.2690    4.6900    0.0000 C   0  0  0  0  0  0  0  0  0  0  0  0
   12.9292    3.6900    0.0000 C   0  0  0  0  0  0  0  0  0  0  0  0
   11.1972    3.6900    0.0000 C   0  0  0  0  0  0  0  0  0  0  0  0
   12.0632   -0.8100    0.0000 C   0  0  2  0  0  0  0  0  0  0  0  0
   12.0632    0.1900    0.0000 C   0  0  0  0  0  0  0  0  0  0  0  0
    7.7331    4.6900    0.0000 C   0  0  0  0  0  0  0  0  0  0  0  0
   11.1972   -1.3100    0.0000 C   0  0  0  0  0  0  0  0  0  0  0  0
   11.1972   -2.3100    0.0000 C   0  0  0  0  0  0  0  0  0  0  0  0
   13.7953   -0.8100    0.0000 C   0  0  0  0  0  0  0  0  0  0  0  0
   14.6613   -1.3100    0.0000 C   0  0  2  0  0  0  0  0  0  0  0  0
   12.0632   -2.8100    0.0000 C   0  0  0  0  0  0  0  0  0  0  0  0
   10.3312   -2.8100    0.0000 C   0  0  0  0  0  0  0  0  0  0  0  0
   15.5273   -0.8100    0.0000 C   0  0  0  0  0  0  0  0  0  0  0  0
   12.0632   -3.8100    0.0000 C   0  0  0  0  0  0  0  0  0  0  0  0
   10.3312   -3.8100    0.0000 C   0  0  0  0  0  0  0  0  0  0  0  0
   11.1972   -4.3100    0.0000 C   0  0  0  0  0  0  0  0  0  0  0  0
   16.3933   -1.3100    0.0000 C   0  0  0  0  0  0  0  0  0  0  0  0
    5.1350    0.8100    0.0000 H   0  0  0  0  0  0  0  0  0  0  0  0
    4.6675    1.1650    0.0000 H   0  0  0  0  0  0  0  0  0  0  0  0
    3.8705    1.1650    0.0000 H   0  0  0  0  0  0  0  0  0  0  0  0
    5.3471   -1.3926    0.0000 H   0  0  0  0  0  0  0  0  0  0  0  0
    5.7456   -0.7023    0.0000 H   0  0  0  0  0  0  0  0  0  0  0  0
    6.2131    0.1074    0.0000 H   0  0  0  0  0  0  0  0  0  0  0  0
    6.6116    0.7977    0.0000 H   0  0  0  0  0  0  0  0  0  0  0  0
    3.1909    0.7726    0.0000 H   0  0  0  0  0  0  0  0  0  0  0  0
    2.7924    0.0823    0.0000 H   0  0  0  0  0  0  0  0  0  0  0  0
    3.8705   -1.7850    0.0000 H   0  0  0  0  0  0  0  0  0  0  0  0
    4.6675   -1.7850    0.0000 H   0  0  0  0  0  0  0  0  0  0  0  0
    2.7924   -0.7023    0.0000 H   0  0  0  0  0  0  0  0  0  0  0  0
    3.1909   -1.3926    0.0000 H   0  0  0  0  0  0  0  0  0  0  0  0
    6.5380    1.3800    0.0000 H   0  0  0  0  0  0  0  0  0  0  0  0
    6.8671    2.8100    0.0000 H   0  0  0  0  0  0  0  0  0  0  0  0
    8.5991    1.5700    0.0000 H   0  0  0  0  0  0  0  0  0  0  0  0
    5.6720    3.5000    0.0000 H   0  0  0  0  0  0  0  0  0  0  0  0
    9.2097    3.0823    0.0000 H   0  0  0  0  0  0  0  0  0  0  0  0
    8.8112    3.7726    0.0000 H   0  0  0  0  0  0  0  0  0  0  0  0
    4.2690    3.0700    0.0000 H   0  0  0  0  0  0  0  0  0  0  0  0
    9.4651    1.0700    0.0000 H   0  0  0  0  0  0  0  0  0  0  0  0
   10.6603    1.3800    0.0000 H   0  0  0  0  0  0  0  0  0  0  0  0
   12.2753    1.6074    0.0000 H   0  0  0  0  0  0  0  0  0  0  0  0
   12.6738    2.2977    0.0000 H   0  0  0  0  0  0  0  0  0  0  0  0
    7.1225    3.7977    0.0000 H   0  0  0  0  0  0  0  0  0  0  0  0
    7.5210    3.1074    0.0000 H   0  0  0  0  0  0  0  0  0  0  0  0
   12.6002    2.8800    0.0000 H   0  0  0  0  0  0  0  0  0  0  0  0
    3.0044    2.7151    0.0000 H   0  0  0  0  0  0  0  0  0  0  0  0
    3.8015    2.7151    0.0000 H   0  0  0  0  0  0  0  0  0  0  0  0
   10.6603    0.3800    0.0000 H   0  0  0  0  0  0  0  0  0  0  0  0
   13.2392    3.1531    0.0000 H   0  0  0  0  0  0  0  0  0  0  0  0
   13.4662    4.0000    0.0000 H   0  0  0  0  0  0  0  0  0  0  0  0
   12.6192    4.2269    0.0000 H   0  0  0  0  0  0  0  0  0  0  0  0
   11.5072    4.2269    0.0000 H   0  0  0  0  0  0  0  0  0  0  0  0
   10.6603    4.0000    0.0000 H   0  0  0  0  0  0  0  0  0  0  0  0
   10.8872    3.1531    0.0000 H   0  0  0  0  0  0  0  0  0  0  0  0
   12.6002   -0.5000    0.0000 H   0  0  0  0  0  0  0  0  0  0  0  0
   10.9851   -0.7274    0.0000 H   0  0  0  0  0  0  0  0  0  0  0  0
   10.5866   -1.4177    0.0000 H   0  0  0  0  0  0  0  0  0  0  0  0
    2.0000    3.3800    0.0000 H   0  0  0  0  0  0  0  0  0  0  0  0
   12.9292   -1.9300    0.0000 H   0  0  0  0  0  0  0  0  0  0  0  0
    3.4030    5.8100    0.0000 H   0  0  0  0  0  0  0  0  0  0  0  0
    6.8671    5.8100    0.0000 H   0  0  0  0  0  0  0  0  0  0  0  0
   14.1244   -1.6200    0.0000 H   0  0  0  0  0  0  0  0  0  0  0  0
   12.6002   -2.5000    0.0000 H   0  0  0  0  0  0  0  0  0  0  0  0
    9.7942   -2.5000    0.0000 H   0  0  0  0  0  0  0  0  0  0  0  0
   15.9258   -0.3351    0.0000 H   0  0  0  0  0  0  0  0  0  0  0  0
   15.1288   -0.3351    0.0000 H   0  0  0  0  0  0  0  0  0  0  0  0
   12.6002   -4.1200    0.0000 H   0  0  0  0  0  0  0  0  0  0  0  0
    9.7942   -4.1200    0.0000 H   0  0  0  0  0  0  0  0  0  0  0  0
   15.1982   -2.6200    0.0000 H   0  0  0  0  0  0  0  0  0  0  0  0
   14.1244   -2.6200    0.0000 H   0  0  0  0  0  0  0  0  0  0  0  0
   17.7963   -1.1200    0.0000 H   0  0  0  0  0  0  0  0  0  0  0  0
  1 39  1  0  0  0  0
  1 97  1  0  0  0  0
  2 30  2  0  0  0  0
  3 31  2  0  0  0  0
  4 36  2  0  0  0  0
  5 41  1  0  0  0  0
  5 99  1  0  0  0  0
  6 41  2  0  0  0  0
  7 46  1  0  0  0  0
  7100  1  0  0  0  0
  8 45  2  0  0  0  0
  9 46  2  0  0  0  0
 10 49  2  0  0  0  0
 11 57  1  0  0  0  0
 11110  1  0  0  0  0
 12 57  2  0  0  0  0
 13 21  1  0  0  0  0
 14 21  2  0  0  0  0
 29 15  1  1  0  0  0
 15 31  1  0  0  0  0
 15 72  1  0  0  0  0
 16 30  1  0  0  0  0
 34 16  1  1  0  0  0
 16 74  1  0  0  0  0
 32 17  1  6  0  0  0
 17 36  1  0  0  0  0
 17 78  1  0  0  0  0
 35 18  1  6  0  0  0
 18 45  1  0  0  0  0
 18 87  1  0  0  0  0
 44 19  1  1  0  0  0
 19 49  1  0  0  0  0
 19 98  1  0  0  0  0
 50 20  1  6  0  0  0
 20108  1  0  0  0  0
 20109  1  0  0  0  0
 21 56  1  0  0  0  0
 22 23  1  0  0  0  0
 22 24  1  0  0  0  0
 22 25  1  0  0  0  0
 22 58  1  0  0  0  0
 23 26  1  0  0  0  0
 23 59  1  0  0  0  0
 23 60  1  0  0  0  0
 24 27  1  0  0  0  0
 24 61  1  0  0  0  0
 24 62  1  0  0  0  0
 25 29  1  0  0  0  0
 25 63  1  0  0  0  0
 25 64  1  0  0  0  0
 26 28  1  0  0  0  0
 26 65  1  0  0  0  0
 26 66  1  0  0  0  0
 27 28  1  0  0  0  0
 27 67  1  0  0  0  0
 27 68  1  0  0  0  0
 28 69  1  0  0  0  0
 28 70  1  0  0  0  0
 29 30  1  0  0  0  0
 29 71  1  0  0  0  0
 31 32  1  0  0  0  0
 32 33  1  0  0  0  0
 32 73  1  0  0  0  0
 33 38  1  0  0  0  0
 33 75  1  0  0  0  0
 33 76  1  0  0  0  0
 34 39  1  0  0  0  0
 34 41  1  0  0  0  0
 34 77  1  0  0  0  0
 35 36  1  0  0  0  0
 35 37  1  0  0  0  0
 35 79  1  0  0  0  0
 37 40  1  0  0  0  0
 37 80  1  0  0  0  0
 37 81  1  0  0  0  0
 38 46  1  0  0  0  0
 38 82  1  0  0  0  0
 38 83  1  0  0  0  0
 39 85  1  0  0  0  0
 39 86  1  0  0  0  0
 40 42  1  0  0  0  0
 40 43  1  0  0  0  0
 40 84  1  0  0  0  0
 42 88  1  0  0  0  0
 42 89  1  0  0  0  0
 42 90  1  0  0  0  0
 43 91  1  0  0  0  0
 43 92  1  0  0  0  0
 43 93  1  0  0  0  0
 44 45  1  0  0  0  0
 44 47  1  0  0  0  0
 44 94  1  0  0  0  0
 47 48  1  0  0  0  0
 47 95  1  0  0  0  0
 47 96  1  0  0  0  0
 48 51  2  0  0  0  0
 48 52  1  0  0  0  0
 49 50  1  0  0  0  0
 50 53  1  0  0  0  0
 50101  1  0  0  0  0
 51 54  1  0  0  0  0
 51102  1  0  0  0  0
 52 55  2  0  0  0  0
 52103  1  0  0  0  0
 53 57  1  0  0  0  0
 53104  1  0  0  0  0
 53105  1  0  0  0  0
 54 56  2  0  0  0  0
 54106  1  0  0  0  0
 55 56  1  0  0  0  0
 55107  1  0  0  0  0
M  CHG  2  13  -1  21   1
M  END
> <PUBCHEM_COMPOUND_CID>
512536
> <PUBCHEM_COMPOUND_CANONICALIZED>
1
> <PUBCHEM_CACTVS_COMPLEXITY>
1430
> <PUBCHEM_CACTVS_HBOND_ACCEPTOR>
15
> <PUBCHEM_CACTVS_HBOND_DONOR>
10
> <PUBCHEM_CACTVS_ROTATABLE_BOND>
23
> <PUBCHEM_CACTVS_SUBSKEYS>
AAADcfB/vABAAAAAAAAAAAAAAAAAAAAAAAAwYAAAAAAAAAABAAAAHgQUCAAADSjF2ASyyILQQgSJAiXSWwCCAAAgAgAoiIGIZIoKYDqAkbGUYABmlgCYyAe/n4KOCAAAAAAAAAAQAAAAAAAAAAAAAAAAAA==
> <PUBCHEM_IUPAC_OPENEYE_NAME>
(4S)-4-[[(2S)-2-[[(2S)-2-[[(2S)-2-amino-3-carboxy-propanoyl]amino]-3-(4-nitrophenyl)propanoyl]amino]-4-methyl-pentanoyl]amino]-5-[[(1S)-2-[[(1R)-1-carboxy-2-sulfanyl-ethyl]amino]-1-(cyclohexylmethyl)-2-oxo-ethyl]amino]-5-oxo-pentanoic acid
> <PUBCHEM_IUPAC_CAS_NAME>
(4S)-4-[[(2S)-2-[[(2S)-2-[[(2S)-2-amino-3-carboxy-1-oxopropyl]amino]-3-(4-nitrophenyl)-1-oxopropyl]amino]-4-methyl-1-oxopentyl]amino]-5-[[(2S)-1-[[(1R)-1-carboxy-2-mercaptoethyl]amino]-3-cyclohexyl-1-oxopropan-2-yl]amino]-5-oxopentanoic acid
> <PUBCHEM_IUPAC_NAME_MARKUP>
(4<I>S</I>)-4-[[(2<I>S</I>)-2-[[(2<I>S</I>)-2-[[(2<I>S</I>)-2-amino-3-carboxypropanoyl]amino]-3-(4-nitrophenyl)propanoyl]amino]-4-methylpentanoyl]amino]-5-[[(2<I>S</I>)-1-[[(1<I>R</I>)-1-carboxy-2-sulfanylethyl]amino]-3-cyclohexyl-1-oxopropan-2-yl]amino]-5-oxopentanoic acid
> <PUBCHEM_IUPAC_NAME>
(4S)-4-[[(2S)-2-[[(2S)-2-[[(2S)-2-amino-3-carboxypropanoyl]amino]-3-(4-nitrophenyl)propanoyl]amino]-4-methylpentanoyl]amino]-5-[[(2S)-1-[[(1R)-1-carboxy-2-sulfanylethyl]amino]-3-cyclohexyl-1-oxopropan-2-yl]amino]-5-oxopentanoic acid
> <PUBCHEM_IUPAC_SYSTEMATIC_NAME>
(4S)-4-[[(2S)-2-[[(2S)-2-[[(2S)-2-azanyl-4-oxidanyl-4-oxidanylidene-butanoyl]amino]-3-(4-nitrophenyl)propanoyl]amino]-4-methyl-pentanoyl]amino]-5-[[(2S)-3-cyclohexyl-1-oxidanylidene-1-[[(2R)-1-oxidanyl-1-oxidanylidene-3-sulfanyl-propan-2-yl]amino]propan-2-yl]amino]-5-oxidanylidene-pentanoic acid
> <PUBCHEM_IUPAC_TRADITIONAL_NAME>
(4S)-4-[[(2S)-2-[[(2S)-2-[[(2S)-2-amino-3-carboxy-propanoyl]amino]-3-(4-nitrophenyl)propanoyl]amino]-4-methyl-pentanoyl]amino]-5-[[(1S)-2-[[(1R)-1-carboxy-2-mercapto-ethyl]amino]-1-(cyclohexylmethyl)-2-keto-ethyl]amino]-5-keto-valeric acid
> <PUBCHEM_IUPAC_INCHI>
InChI=1S/C36H53N7O13S/c1-19(2)14-25(40-34(51)26(39-31(48)23(37)17-30(46)47)16-21-8-10-22(11-9-21)43(55)56)33(50)38-24(12-13-29(44)45)32(49)41-27(15-20-6-4-3-5-7-20)35(52)42-28(18-57)36(53)54/h8-11,19-20,23-28,57H,3-7,12-18,37H2,1-2H3,(H,38,50)(H,39,48)(H,40,51)(H,41,49)(H,42,52)(H,44,45)(H,46,47)(H,53,54)/t23-,24-,25-,26-,27-,28-/m0/s1
> <PUBCHEM_IUPAC_INCHIKEY>
BBVYFLDDYKIBCW-QUQVWLGBSA-N
> <PUBCHEM_XLOGP3_AA>
-0.3
> <PUBCHEM_EXACT_MASS>
823.34220594
> <PUBCHEM_MOLECULAR_FORMULA>
C36H53N7O13S
> <PUBCHEM_MOLECULAR_WEIGHT>
823.9
> <PUBCHEM_OPENEYE_CAN_SMILES>
CC(C)CC(C(=O)NC(CCC(=O)O)C(=O)NC(CC1CCCCC1)C(=O)NC(CS)C(=O)O)NC(=O)C(CC2=CC=C(C=C2)[N+](=O)[O-])NC(=O)C(CC(=O)O)N
> <PUBCHEM_OPENEYE_ISO_SMILES>
CC(C)C[C@@H](C(=O)N[C@@H](CCC(=O)O)C(=O)N[C@@H](CC1CCCCC1)C(=O)N[C@@H](CS)C(=O)O)NC(=O)[C@H](CC2=CC=C(C=C2)[N+](=O)[O-])NC(=O)[C@H](CC(=O)O)N
> <PUBCHEM_CACTVS_TPSA>
330
> <PUBCHEM_MONOISOTOPIC_WEIGHT>
823.34220594
> <PUBCHEM_TOTAL_CHARGE>
0
> <PUBCHEM_HEAVY_ATOM_COUNT>
57
> <PUBCHEM_ATOM_DEF_STEREO_COUNT>
6
> <PUBCHEM_ATOM_UDEF_STEREO_COUNT>
0
> <PUBCHEM_BOND_DEF_STEREO_COUNT>
0
> <PUBCHEM_BOND_UDEF_STEREO_COUNT>
0
> <PUBCHEM_ISOTOPIC_ATOM_COUNT>
0
> <PUBCHEM_COMPONENT_COUNT>
1
> <PUBCHEM_CACTVS_TAUTO_COUNT>
-1
> <PUBCHEM_COORDINATE_TYPE>
1
5
255
> <PUBCHEM_BONDANNOTATIONS>
29  15  5
34  16  5
32  17  6
35  18  6
44  19  5
50  20  6
48  51  8
48  52  8
51  54  8
52  55  8
54  56  8
55  56  8
$$$$
