512500
  -OEChem-10302200282D
 87 86  0     1  0  0  0  0  0999 V2000
    3.7320   -0.2500    0.0000 S   0  0  0  0  0  0  0  0  0  0  0  0
    8.9282    2.7500    0.0000 S   0  0  0  0  0  0  0  0  0  0  0  0
   16.7224   -1.7500    0.0000 S   0  0  0  0  0  0  0  0  0  0  0  0
    8.9282   -1.2500    0.0000 O   0  0  0  0  0  0  0  0  0  0  0  0
   11.5263    1.2500    0.0000 O   0  0  0  0  0  0  0  0  0  0  0  0
    6.3301    1.2500    0.0000 O   0  0  0  0  0  0  0  0  0  0  0  0
   14.1244   -1.2500    0.0000 O   0  0  0  0  0  0  0  0  0  0  0  0
    3.2320    0.6160    0.0000 O   0  0  0  0  0  0  0  0  0  0  0  0
    4.2320   -1.1160    0.0000 O   0  0  0  0  0  0  0  0  0  0  0  0
   12.3923   -3.2500    0.0000 O   0  0  0  0  0  0  0  0  0  0  0  0
   10.6603   -3.2500    0.0000 O   0  0  0  0  0  0  0  0  0  0  0  0
    7.1962   -3.2500    0.0000 O   0  0  0  0  0  0  0  0  0  0  0  0
   14.9904    3.2500    0.0000 O   0  0  0  0  0  0  0  0  0  0  0  0
    5.4641   -3.2500    0.0000 O   0  0  0  0  0  0  0  0  0  0  0  0
   13.2583    3.2500    0.0000 O   0  0  0  0  0  0  0  0  0  0  0  0
    2.8660   -1.7500    0.0000 O   0  0  0  0  0  0  0  0  0  0  0  0
   17.5885   -0.2500    0.0000 O   0  0  0  0  0  0  0  0  0  0  0  0
   16.7224    1.2500    0.0000 O   0  0  0  0  0  0  0  0  0  0  0  0
    9.7942    0.2500    0.0000 N   0  0  0  0  0  0  0  0  0  0  0  0
    7.1962   -0.2500    0.0000 N   0  0  0  0  0  0  0  0  0  0  0  0
   12.3923   -0.2500    0.0000 N   0  0  0  0  0  0  0  0  0  0  0  0
    4.5981    0.2500    0.0000 N   0  0  0  0  0  0  0  0  0  0  0  0
   14.9904    0.2500    0.0000 N   0  0  0  0  0  0  0  0  0  0  0  0
   10.6603   -0.2500    0.0000 C   0  0  1  0  0  0  0  0  0  0  0  0
    8.0622    0.2500    0.0000 C   0  0  1  0  0  0  0  0  0  0  0  0
   10.6603   -1.2500    0.0000 C   0  0  0  0  0  0  0  0  0  0  0  0
    5.4641   -0.2500    0.0000 C   0  0  1  0  0  0  0  0  0  0  0  0
    8.0622    1.2500    0.0000 C   0  0  0  0  0  0  0  0  0  0  0  0
   13.2583    0.2500    0.0000 C   0  0  1  0  0  0  0  0  0  0  0  0
    8.9282   -0.2500    0.0000 C   0  0  0  0  0  0  0  0  0  0  0  0
   11.5263    0.2500    0.0000 C   0  0  0  0  0  0  0  0  0  0  0  0
    5.4641   -1.2500    0.0000 C   0  0  0  0  0  0  0  0  0  0  0  0
    6.3301    0.2500    0.0000 C   0  0  0  0  0  0  0  0  0  0  0  0
   13.2583    1.2500    0.0000 C   0  0  0  0  0  0  0  0  0  0  0  0
   11.5263   -1.7500    0.0000 C   0  0  0  0  0  0  0  0  0  0  0  0
    8.9282    1.7500    0.0000 C   0  0  0  0  0  0  0  0  0  0  0  0
   14.1244   -0.2500    0.0000 C   0  0  0  0  0  0  0  0  0  0  0  0
    6.3301   -1.7500    0.0000 C   0  0  0  0  0  0  0  0  0  0  0  0
   14.1244    1.7500    0.0000 C   0  0  0  0  0  0  0  0  0  0  0  0
   15.8564   -0.2500    0.0000 C   0  0  1  0  0  0  0  0  0  0  0  0
   11.5263   -2.7500    0.0000 C   0  0  0  0  0  0  0  0  0  0  0  0
    6.3301   -2.7500    0.0000 C   0  0  0  0  0  0  0  0  0  0  0  0
   14.1244    2.7500    0.0000 C   0  0  0  0  0  0  0  0  0  0  0  0
    2.8660   -0.7500    0.0000 C   0  0  0  0  0  0  0  0  0  0  0  0
   15.8564   -1.2500    0.0000 C   0  0  0  0  0  0  0  0  0  0  0  0
   16.7224    0.2500    0.0000 C   0  0  0  0  0  0  0  0  0  0  0  0
    9.7942    3.2500    0.0000 C   0  0  0  0  0  0  0  0  0  0  0  0
    2.0000   -0.2500    0.0000 C   0  0  0  0  0  0  0  0  0  0  0  0
   10.6603    0.3700    0.0000 H   0  0  0  0  0  0  0  0  0  0  0  0
    8.0622   -0.3700    0.0000 H   0  0  0  0  0  0  0  0  0  0  0  0
   10.0497   -1.1423    0.0000 H   0  0  0  0  0  0  0  0  0  0  0  0
   10.4482   -1.8326    0.0000 H   0  0  0  0  0  0  0  0  0  0  0  0
    5.4641    0.3700    0.0000 H   0  0  0  0  0  0  0  0  0  0  0  0
    7.8501    1.8326    0.0000 H   0  0  0  0  0  0  0  0  0  0  0  0
    7.4516    1.1423    0.0000 H   0  0  0  0  0  0  0  0  0  0  0  0
   13.2583   -0.3700    0.0000 H   0  0  0  0  0  0  0  0  0  0  0  0
    9.7942    0.8700    0.0000 H   0  0  0  0  0  0  0  0  0  0  0  0
    7.1962   -0.8700    0.0000 H   0  0  0  0  0  0  0  0  0  0  0  0
    4.8535   -1.1423    0.0000 H   0  0  0  0  0  0  0  0  0  0  0  0
    5.2520   -1.8326    0.0000 H   0  0  0  0  0  0  0  0  0  0  0  0
   12.3923   -0.8700    0.0000 H   0  0  0  0  0  0  0  0  0  0  0  0
   13.0463    1.8326    0.0000 H   0  0  0  0  0  0  0  0  0  0  0  0
   12.6477    1.1423    0.0000 H   0  0  0  0  0  0  0  0  0  0  0  0
   12.1369   -1.8577    0.0000 H   0  0  0  0  0  0  0  0  0  0  0  0
   11.7383   -1.1674    0.0000 H   0  0  0  0  0  0  0  0  0  0  0  0
    9.1403    1.1674    0.0000 H   0  0  0  0  0  0  0  0  0  0  0  0
    9.5388    1.8577    0.0000 H   0  0  0  0  0  0  0  0  0  0  0  0
    4.5981    0.8700    0.0000 H   0  0  0  0  0  0  0  0  0  0  0  0
    6.9407   -1.8577    0.0000 H   0  0  0  0  0  0  0  0  0  0  0  0
    6.5422   -1.1674    0.0000 H   0  0  0  0  0  0  0  0  0  0  0  0
   14.3364    1.1674    0.0000 H   0  0  0  0  0  0  0  0  0  0  0  0
   14.7349    1.8577    0.0000 H   0  0  0  0  0  0  0  0  0  0  0  0
   14.9904    0.8700    0.0000 H   0  0  0  0  0  0  0  0  0  0  0  0
   15.3195   -0.5600    0.0000 H   0  0  0  0  0  0  0  0  0  0  0  0
   15.2458   -1.1423    0.0000 H   0  0  0  0  0  0  0  0  0  0  0  0
   15.6444   -1.8326    0.0000 H   0  0  0  0  0  0  0  0  0  0  0  0
   10.1042    2.7131    0.0000 H   0  0  0  0  0  0  0  0  0  0  0  0
   10.3312    3.5600    0.0000 H   0  0  0  0  0  0  0  0  0  0  0  0
    9.4842    3.7869    0.0000 H   0  0  0  0  0  0  0  0  0  0  0  0
    2.3100    0.2869    0.0000 H   0  0  0  0  0  0  0  0  0  0  0  0
    1.4631    0.0600    0.0000 H   0  0  0  0  0  0  0  0  0  0  0  0
    1.6900   -0.7869    0.0000 H   0  0  0  0  0  0  0  0  0  0  0  0
   12.3923   -3.8700    0.0000 H   0  0  0  0  0  0  0  0  0  0  0  0
    7.1962   -3.8700    0.0000 H   0  0  0  0  0  0  0  0  0  0  0  0
   14.9904    3.8700    0.0000 H   0  0  0  0  0  0  0  0  0  0  0  0
   16.7224   -2.3700    0.0000 H   0  0  0  0  0  0  0  0  0  0  0  0
   18.1254    0.0600    0.0000 H   0  0  0  0  0  0  0  0  0  0  0  0
  1  8  2  0  0  0  0
  1  9  2  0  0  0  0
  1 22  1  0  0  0  0
  1 44  1  0  0  0  0
  2 36  1  0  0  0  0
  2 47  1  0  0  0  0
  3 45  1  0  0  0  0
  3 86  1  0  0  0  0
  4 30  2  0  0  0  0
  5 31  2  0  0  0  0
  6 33  2  0  0  0  0
  7 37  2  0  0  0  0
 10 41  1  0  0  0  0
 10 83  1  0  0  0  0
 11 41  2  0  0  0  0
 12 42  1  0  0  0  0
 12 84  1  0  0  0  0
 13 43  1  0  0  0  0
 13 85  1  0  0  0  0
 14 42  2  0  0  0  0
 15 43  2  0  0  0  0
 16 44  2  0  0  0  0
 17 46  1  0  0  0  0
 17 87  1  0  0  0  0
 18 46  2  0  0  0  0
 24 19  1  6  0  0  0
 19 30  1  0  0  0  0
 19 57  1  0  0  0  0
 25 20  1  1  0  0  0
 20 33  1  0  0  0  0
 20 58  1  0  0  0  0
 29 21  1  1  0  0  0
 21 31  1  0  0  0  0
 21 61  1  0  0  0  0
 27 22  1  6  0  0  0
 22 68  1  0  0  0  0
 23 37  1  0  0  0  0
 40 23  1  6  0  0  0
 23 73  1  0  0  0  0
 24 26  1  0  0  0  0
 24 31  1  0  0  0  0
 24 49  1  0  0  0  0
 25 28  1  0  0  0  0
 25 30  1  0  0  0  0
 25 50  1  0  0  0  0
 26 35  1  0  0  0  0
 26 51  1  0  0  0  0
 26 52  1  0  0  0  0
 27 32  1  0  0  0  0
 27 33  1  0  0  0  0
 27 53  1  0  0  0  0
 28 36  1  0  0  0  0
 28 54  1  0  0  0  0
 28 55  1  0  0  0  0
 29 34  1  0  0  0  0
 29 37  1  0  0  0  0
 29 56  1  0  0  0  0
 32 38  1  0  0  0  0
 32 59  1  0  0  0  0
 32 60  1  0  0  0  0
 34 39  1  0  0  0  0
 34 62  1  0  0  0  0
 34 63  1  0  0  0  0
 35 41  1  0  0  0  0
 35 64  1  0  0  0  0
 35 65  1  0  0  0  0
 36 66  1  0  0  0  0
 36 67  1  0  0  0  0
 38 42  1  0  0  0  0
 38 69  1  0  0  0  0
 38 70  1  0  0  0  0
 39 43  1  0  0  0  0
 39 71  1  0  0  0  0
 39 72  1  0  0  0  0
 40 45  1  0  0  0  0
 40 46  1  0  0  0  0
 40 74  1  0  0  0  0
 44 48  1  0  0  0  0
 45 75  1  0  0  0  0
 45 76  1  0  0  0  0
 47 77  1  0  0  0  0
 47 78  1  0  0  0  0
 47 79  1  0  0  0  0
 48 80  1  0  0  0  0
 48 81  1  0  0  0  0
 48 82  1  0  0  0  0
M  END
> <PUBCHEM_COMPOUND_CID>
512500
> <PUBCHEM_COMPOUND_CANONICALIZED>
1
> <PUBCHEM_CACTVS_COMPLEXITY>
1320
> <PUBCHEM_CACTVS_HBOND_ACCEPTOR>
18
> <PUBCHEM_CACTVS_HBOND_DONOR>
10
> <PUBCHEM_CACTVS_ROTATABLE_BOND>
25
> <PUBCHEM_CACTVS_SUBSKEYS>
AAADcfB7vABgAAAAAAAAAAAAAAAAAAAAAAAAAAAAAAAAAAAAAAAAHgQQSAAACCjFwASCCALAAg4IAAGQGHBAAAAAABAAAIGIAAACQBIggCAUQAAEFgCQAAC8FwIAAAAAAAAAAAAAAAAAAAAAAAAAAAAAAA==
> <PUBCHEM_IUPAC_OPENEYE_NAME>
(4S)-4-[[(2S)-2-[[(2S)-2-(acetylsulfonylamino)-4-carboxy-butanoyl]amino]-4-methylsulfanyl-butanoyl]amino]-5-[[(1S)-3-carboxy-1-[[(1R)-1-carboxy-2-sulfanyl-ethyl]carbamoyl]propyl]amino]-5-oxo-pentanoic acid
> <PUBCHEM_IUPAC_CAS_NAME>
(4S)-4-[[(2S)-2-[[(2S)-2-(acetylsulfonylamino)-4-carboxy-1-oxobutyl]amino]-4-(methylthio)-1-oxobutyl]amino]-5-[[(2S)-4-carboxy-1-[[(1R)-1-carboxy-2-mercaptoethyl]amino]-1-oxobutan-2-yl]amino]-5-oxopentanoic acid
> <PUBCHEM_IUPAC_NAME_MARKUP>
(4<I>S</I>)-4-[[(2<I>S</I>)-2-[[(2<I>S</I>)-2-(acetylsulfonylamino)-4-carboxybutanoyl]amino]-4-methylsulfanylbutanoyl]amino]-5-[[(2<I>S</I>)-4-carboxy-1-[[(1<I>R</I>)-1-carboxy-2-sulfanylethyl]amino]-1-oxobutan-2-yl]amino]-5-oxopentanoic acid
> <PUBCHEM_IUPAC_NAME>
(4S)-4-[[(2S)-2-[[(2S)-2-(acetylsulfonylamino)-4-carboxybutanoyl]amino]-4-methylsulfanylbutanoyl]amino]-5-[[(2S)-4-carboxy-1-[[(1R)-1-carboxy-2-sulfanylethyl]amino]-1-oxobutan-2-yl]amino]-5-oxopentanoic acid
> <PUBCHEM_IUPAC_SYSTEMATIC_NAME>
(4S)-4-[[(2S)-2-[[(2S)-2-(ethanoylsulfonylamino)-5-oxidanyl-5-oxidanylidene-pentanoyl]amino]-4-methylsulfanyl-butanoyl]amino]-5-[[(2S)-5-oxidanyl-1,5-bis(oxidanylidene)-1-[[(2R)-1-oxidanyl-1-oxidanylidene-3-sulfanyl-propan-2-yl]amino]pentan-2-yl]amino]-5-oxidanylidene-pentanoic acid
> <PUBCHEM_IUPAC_TRADITIONAL_NAME>
(4S)-4-[[(2S)-2-[[(2S)-2-(acetylsulfonylamino)-4-carboxy-butanoyl]amino]-4-(methylthio)butanoyl]amino]-5-[[(1S)-3-carboxy-1-[[(1R)-1-carboxy-2-mercapto-ethyl]carbamoyl]propyl]amino]-5-keto-valeric acid
> <PUBCHEM_IUPAC_INCHI>
InChI=1S/C25H39N5O15S3/c1-12(31)48(44,45)30-16(5-8-20(36)37)24(41)28-15(9-10-47-2)23(40)27-13(3-6-18(32)33)21(38)26-14(4-7-19(34)35)22(39)29-17(11-46)25(42)43/h13-17,30,46H,3-11H2,1-2H3,(H,26,38)(H,27,40)(H,28,41)(H,29,39)(H,32,33)(H,34,35)(H,36,37)(H,42,43)/t13-,14-,15-,16-,17-/m0/s1
> <PUBCHEM_IUPAC_INCHIKEY>
ABPOGJVJFJBBNZ-WOYTXXSLSA-N
> <PUBCHEM_XLOGP3_AA>
-2.9
> <PUBCHEM_EXACT_MASS>
745.16047907
> <PUBCHEM_MOLECULAR_FORMULA>
C25H39N5O15S3
> <PUBCHEM_MOLECULAR_WEIGHT>
745.8
> <PUBCHEM_OPENEYE_CAN_SMILES>
CC(=O)S(=O)(=O)NC(CCC(=O)O)C(=O)NC(CCSC)C(=O)NC(CCC(=O)O)C(=O)NC(CCC(=O)O)C(=O)NC(CS)C(=O)O
> <PUBCHEM_OPENEYE_ISO_SMILES>
CC(=O)S(=O)(=O)N[C@@H](CCC(=O)O)C(=O)N[C@@H](CCSC)C(=O)N[C@@H](CCC(=O)O)C(=O)N[C@@H](CCC(=O)O)C(=O)N[C@@H](CS)C(=O)O
> <PUBCHEM_CACTVS_TPSA>
364
> <PUBCHEM_MONOISOTOPIC_WEIGHT>
745.16047907
> <PUBCHEM_TOTAL_CHARGE>
0
> <PUBCHEM_HEAVY_ATOM_COUNT>
48
> <PUBCHEM_ATOM_DEF_STEREO_COUNT>
5
> <PUBCHEM_ATOM_UDEF_STEREO_COUNT>
0
> <PUBCHEM_BOND_DEF_STEREO_COUNT>
0
> <PUBCHEM_BOND_UDEF_STEREO_COUNT>
0
> <PUBCHEM_ISOTOPIC_ATOM_COUNT>
0
> <PUBCHEM_COMPONENT_COUNT>
1
> <PUBCHEM_CACTVS_TAUTO_COUNT>
-1
> <PUBCHEM_COORDINATE_TYPE>
1
5
255
> <PUBCHEM_BONDANNOTATIONS>
24  19  6
25  20  5
29  21  5
27  22  6
40  23  6
$$$$
