512540
  -OEChem-10302200282D
109110  0     1  0  0  0  0  0999 V2000
    2.5369    3.5950    0.0000 S   0  0  0  0  0  0  0  0  0  0  0  0
    4.2690    1.5950    0.0000 O   0  0  0  0  0  0  0  0  0  0  0  0
    7.7331    0.5950    0.0000 O   0  0  0  0  0  0  0  0  0  0  0  0
   10.3312    3.0950    0.0000 O   0  0  0  0  0  0  0  0  0  0  0  0
    3.4030    5.0950    0.0000 O   0  0  0  0  0  0  0  0  0  0  0  0
    5.1350    5.0950    0.0000 O   0  0  0  0  0  0  0  0  0  0  0  0
    6.8671    5.0950    0.0000 O   0  0  0  0  0  0  0  0  0  0  0  0
   12.9292    0.5950    0.0000 O   0  0  0  0  0  0  0  0  0  0  0  0
    8.5991    5.0950    0.0000 O   0  0  0  0  0  0  0  0  0  0  0  0
   13.7953    0.0950    0.0000 O   0  0  0  0  0  0  0  0  0  0  0  0
   11.1972   -5.4050    0.0000 O   0  0  0  0  0  0  0  0  0  0  0  0
   17.2594   -0.9050    0.0000 O   0  0  0  0  0  0  0  0  0  0  0  0
   16.3933   -2.4050    0.0000 O   0  0  0  0  0  0  0  0  0  0  0  0
    6.8671    2.0950    0.0000 N   0  0  0  0  0  0  0  0  0  0  0  0
    5.1350    3.0950    0.0000 N   0  0  0  0  0  0  0  0  0  0  0  0
    9.4651    1.5950    0.0000 N   0  0  0  0  0  0  0  0  0  0  0  0
   11.1972    0.5950    0.0000 N   0  0  0  0  0  0  0  0  0  0  0  0
   12.9292   -1.4050    0.0000 N   0  0  0  0  0  0  0  0  0  0  0  0
   14.6613   -2.4050    0.0000 N   0  0  0  0  0  0  0  0  0  0  0  0
    5.1350    0.0950    0.0000 C   0  0  0  0  0  0  0  0  0  0  0  0
    4.2690    0.5950    0.0000 C   0  0  0  0  0  0  0  0  0  0  0  0
    5.1350   -0.9050    0.0000 C   0  0  0  0  0  0  0  0  0  0  0  0
    6.0010    0.5950    0.0000 C   0  0  0  0  0  0  0  0  0  0  0  0
    3.4030    0.0950    0.0000 C   0  0  0  0  0  0  0  0  0  0  0  0
    4.2690   -1.4050    0.0000 C   0  0  0  0  0  0  0  0  0  0  0  0
    3.4030   -0.9050    0.0000 C   0  0  0  0  0  0  0  0  0  0  0  0
    6.0010    1.5950    0.0000 C   0  0  1  0  0  0  0  0  0  0  0  0
    5.1350    2.0950    0.0000 C   0  0  0  0  0  0  0  0  0  0  0  0
    7.7331    1.5950    0.0000 C   0  0  0  0  0  0  0  0  0  0  0  0
    8.5991    2.0950    0.0000 C   0  0  2  0  0  0  0  0  0  0  0  0
    8.5991    3.0950    0.0000 C   0  0  0  0  0  0  0  0  0  0  0  0
    4.2690    3.5950    0.0000 C   0  0  1  0  0  0  0  0  0  0  0  0
   11.1972    1.5950    0.0000 C   0  0  2  0  0  0  0  0  0  0  0  0
   10.3312    2.0950    0.0000 C   0  0  0  0  0  0  0  0  0  0  0  0
   12.0632    2.0950    0.0000 C   0  0  0  0  0  0  0  0  0  0  0  0
    7.7331    3.5950    0.0000 C   0  0  0  0  0  0  0  0  0  0  0  0
   12.0632    3.0950    0.0000 C   0  0  0  0  0  0  0  0  0  0  0  0
    3.4030    3.0950    0.0000 C   0  0  0  0  0  0  0  0  0  0  0  0
    4.2690    4.5950    0.0000 C   0  0  0  0  0  0  0  0  0  0  0  0
   12.9292    3.5950    0.0000 C   0  0  0  0  0  0  0  0  0  0  0  0
   11.1972    3.5950    0.0000 C   0  0  0  0  0  0  0  0  0  0  0  0
   12.0632   -0.9050    0.0000 C   0  0  1  0  0  0  0  0  0  0  0  0
   12.0632    0.0950    0.0000 C   0  0  0  0  0  0  0  0  0  0  0  0
    7.7331    4.5950    0.0000 C   0  0  0  0  0  0  0  0  0  0  0  0
   11.1972   -1.4050    0.0000 C   0  0  0  0  0  0  0  0  0  0  0  0
   11.1972   -2.4050    0.0000 C   0  0  0  0  0  0  0  0  0  0  0  0
   13.7953   -0.9050    0.0000 C   0  0  0  0  0  0  0  0  0  0  0  0
   14.6613   -1.4050    0.0000 C   0  0  2  0  0  0  0  0  0  0  0  0
   12.0632   -2.9050    0.0000 C   0  0  0  0  0  0  0  0  0  0  0  0
   10.3312   -2.9050    0.0000 C   0  0  0  0  0  0  0  0  0  0  0  0
   15.5273   -0.9050    0.0000 C   0  0  0  0  0  0  0  0  0  0  0  0
   12.0632   -3.9050    0.0000 C   0  0  0  0  0  0  0  0  0  0  0  0
   10.3312   -3.9050    0.0000 C   0  0  0  0  0  0  0  0  0  0  0  0
   11.1972   -4.4050    0.0000 C   0  0  0  0  0  0  0  0  0  0  0  0
   16.3933   -1.4050    0.0000 C   0  0  0  0  0  0  0  0  0  0  0  0
    5.1350    0.7150    0.0000 H   0  0  0  0  0  0  0  0  0  0  0  0
    4.6675    1.0700    0.0000 H   0  0  0  0  0  0  0  0  0  0  0  0
    3.8705    1.0700    0.0000 H   0  0  0  0  0  0  0  0  0  0  0  0
    5.3471   -1.4876    0.0000 H   0  0  0  0  0  0  0  0  0  0  0  0
    5.7456   -0.7973    0.0000 H   0  0  0  0  0  0  0  0  0  0  0  0
    6.2131    0.0124    0.0000 H   0  0  0  0  0  0  0  0  0  0  0  0
    6.6116    0.7027    0.0000 H   0  0  0  0  0  0  0  0  0  0  0  0
    3.1909    0.6776    0.0000 H   0  0  0  0  0  0  0  0  0  0  0  0
    2.7924   -0.0127    0.0000 H   0  0  0  0  0  0  0  0  0  0  0  0
    3.8705   -1.8800    0.0000 H   0  0  0  0  0  0  0  0  0  0  0  0
    4.6675   -1.8800    0.0000 H   0  0  0  0  0  0  0  0  0  0  0  0
    2.7924   -0.7973    0.0000 H   0  0  0  0  0  0  0  0  0  0  0  0
    3.1909   -1.4876    0.0000 H   0  0  0  0  0  0  0  0  0  0  0  0
    6.5380    1.2850    0.0000 H   0  0  0  0  0  0  0  0  0  0  0  0
    6.8671    2.7150    0.0000 H   0  0  0  0  0  0  0  0  0  0  0  0
    8.5991    1.4750    0.0000 H   0  0  0  0  0  0  0  0  0  0  0  0
    5.6720    3.4050    0.0000 H   0  0  0  0  0  0  0  0  0  0  0  0
    9.2097    2.9873    0.0000 H   0  0  0  0  0  0  0  0  0  0  0  0
    8.8112    3.6776    0.0000 H   0  0  0  0  0  0  0  0  0  0  0  0
    4.2690    2.9750    0.0000 H   0  0  0  0  0  0  0  0  0  0  0  0
    9.4651    0.9750    0.0000 H   0  0  0  0  0  0  0  0  0  0  0  0
   10.6603    1.2850    0.0000 H   0  0  0  0  0  0  0  0  0  0  0  0
   12.2753    1.5124    0.0000 H   0  0  0  0  0  0  0  0  0  0  0  0
   12.6738    2.2027    0.0000 H   0  0  0  0  0  0  0  0  0  0  0  0
    7.1225    3.7027    0.0000 H   0  0  0  0  0  0  0  0  0  0  0  0
    7.5210    3.0124    0.0000 H   0  0  0  0  0  0  0  0  0  0  0  0
   12.6002    2.7850    0.0000 H   0  0  0  0  0  0  0  0  0  0  0  0
    3.0044    2.6200    0.0000 H   0  0  0  0  0  0  0  0  0  0  0  0
    3.8015    2.6200    0.0000 H   0  0  0  0  0  0  0  0  0  0  0  0
   10.6603    0.2850    0.0000 H   0  0  0  0  0  0  0  0  0  0  0  0
   13.2392    3.0581    0.0000 H   0  0  0  0  0  0  0  0  0  0  0  0
   13.4662    3.9050    0.0000 H   0  0  0  0  0  0  0  0  0  0  0  0
   12.6192    4.1319    0.0000 H   0  0  0  0  0  0  0  0  0  0  0  0
   11.5072    4.1319    0.0000 H   0  0  0  0  0  0  0  0  0  0  0  0
   10.6603    3.9050    0.0000 H   0  0  0  0  0  0  0  0  0  0  0  0
   10.8872    3.0581    0.0000 H   0  0  0  0  0  0  0  0  0  0  0  0
   12.6002   -0.5950    0.0000 H   0  0  0  0  0  0  0  0  0  0  0  0
   10.9851   -0.8224    0.0000 H   0  0  0  0  0  0  0  0  0  0  0  0
   10.5866   -1.5127    0.0000 H   0  0  0  0  0  0  0  0  0  0  0  0
    2.0000    3.2850    0.0000 H   0  0  0  0  0  0  0  0  0  0  0  0
   12.9292   -2.0250    0.0000 H   0  0  0  0  0  0  0  0  0  0  0  0
    3.4030    5.7150    0.0000 H   0  0  0  0  0  0  0  0  0  0  0  0
    6.8671    5.7150    0.0000 H   0  0  0  0  0  0  0  0  0  0  0  0
   14.1244   -1.7150    0.0000 H   0  0  0  0  0  0  0  0  0  0  0  0
   12.6002   -2.5950    0.0000 H   0  0  0  0  0  0  0  0  0  0  0  0
    9.7942   -2.5950    0.0000 H   0  0  0  0  0  0  0  0  0  0  0  0
   15.9258   -0.4301    0.0000 H   0  0  0  0  0  0  0  0  0  0  0  0
   15.1288   -0.4301    0.0000 H   0  0  0  0  0  0  0  0  0  0  0  0
   12.6002   -4.2150    0.0000 H   0  0  0  0  0  0  0  0  0  0  0  0
    9.7942   -4.2150    0.0000 H   0  0  0  0  0  0  0  0  0  0  0  0
   15.1982   -2.7150    0.0000 H   0  0  0  0  0  0  0  0  0  0  0  0
   14.1244   -2.7150    0.0000 H   0  0  0  0  0  0  0  0  0  0  0  0
   10.6603   -5.7150    0.0000 H   0  0  0  0  0  0  0  0  0  0  0  0
   17.7963   -1.2150    0.0000 H   0  0  0  0  0  0  0  0  0  0  0  0
  1 38  1  0  0  0  0
  1 95  1  0  0  0  0
  2 28  2  0  0  0  0
  3 29  2  0  0  0  0
  4 34  2  0  0  0  0
  5 39  1  0  0  0  0
  5 97  1  0  0  0  0
  6 39  2  0  0  0  0
  7 44  1  0  0  0  0
  7 98  1  0  0  0  0
  8 43  2  0  0  0  0
  9 44  2  0  0  0  0
 10 47  2  0  0  0  0
 11 54  1  0  0  0  0
 11108  1  0  0  0  0
 12 55  1  0  0  0  0
 12109  1  0  0  0  0
 13 55  2  0  0  0  0
 27 14  1  1  0  0  0
 14 29  1  0  0  0  0
 14 70  1  0  0  0  0
 15 28  1  0  0  0  0
 32 15  1  1  0  0  0
 15 72  1  0  0  0  0
 30 16  1  6  0  0  0
 16 34  1  0  0  0  0
 16 76  1  0  0  0  0
 33 17  1  6  0  0  0
 17 43  1  0  0  0  0
 17 85  1  0  0  0  0
 42 18  1  6  0  0  0
 18 47  1  0  0  0  0
 18 96  1  0  0  0  0
 48 19  1  6  0  0  0
 19106  1  0  0  0  0
 19107  1  0  0  0  0
 20 21  1  0  0  0  0
 20 22  1  0  0  0  0
 20 23  1  0  0  0  0
 20 56  1  0  0  0  0
 21 24  1  0  0  0  0
 21 57  1  0  0  0  0
 21 58  1  0  0  0  0
 22 25  1  0  0  0  0
 22 59  1  0  0  0  0
 22 60  1  0  0  0  0
 23 27  1  0  0  0  0
 23 61  1  0  0  0  0
 23 62  1  0  0  0  0
 24 26  1  0  0  0  0
 24 63  1  0  0  0  0
 24 64  1  0  0  0  0
 25 26  1  0  0  0  0
 25 65  1  0  0  0  0
 25 66  1  0  0  0  0
 26 67  1  0  0  0  0
 26 68  1  0  0  0  0
 27 28  1  0  0  0  0
 27 69  1  0  0  0  0
 29 30  1  0  0  0  0
 30 31  1  0  0  0  0
 30 71  1  0  0  0  0
 31 36  1  0  0  0  0
 31 73  1  0  0  0  0
 31 74  1  0  0  0  0
 32 38  1  0  0  0  0
 32 39  1  0  0  0  0
 32 75  1  0  0  0  0
 33 34  1  0  0  0  0
 33 35  1  0  0  0  0
 33 77  1  0  0  0  0
 35 37  1  0  0  0  0
 35 78  1  0  0  0  0
 35 79  1  0  0  0  0
 36 44  1  0  0  0  0
 36 80  1  0  0  0  0
 36 81  1  0  0  0  0
 37 40  1  0  0  0  0
 37 41  1  0  0  0  0
 37 82  1  0  0  0  0
 38 83  1  0  0  0  0
 38 84  1  0  0  0  0
 40 86  1  0  0  0  0
 40 87  1  0  0  0  0
 40 88  1  0  0  0  0
 41 89  1  0  0  0  0
 41 90  1  0  0  0  0
 41 91  1  0  0  0  0
 42 43  1  0  0  0  0
 42 45  1  0  0  0  0
 42 92  1  0  0  0  0
 45 46  1  0  0  0  0
 45 93  1  0  0  0  0
 45 94  1  0  0  0  0
 46 49  2  0  0  0  0
 46 50  1  0  0  0  0
 47 48  1  0  0  0  0
 48 51  1  0  0  0  0
 48 99  1  0  0  0  0
 49 52  1  0  0  0  0
 49100  1  0  0  0  0
 50 53  2  0  0  0  0
 50101  1  0  0  0  0
 51 55  1  0  0  0  0
 51102  1  0  0  0  0
 51103  1  0  0  0  0
 52 54  2  0  0  0  0
 52104  1  0  0  0  0
 53 54  1  0  0  0  0
 53105  1  0  0  0  0
M  END
> <PUBCHEM_COMPOUND_CID>
512540
> <PUBCHEM_COMPOUND_CANONICALIZED>
1
> <PUBCHEM_CACTVS_COMPLEXITY>
1340
> <PUBCHEM_CACTVS_HBOND_ACCEPTOR>
14
> <PUBCHEM_CACTVS_HBOND_DONOR>
11
> <PUBCHEM_CACTVS_ROTATABLE_BOND>
23
> <PUBCHEM_CACTVS_SUBSKEYS>
AAADcfB/vABAAAAAAAAAAAAAAAAAAAAAAAAwYAAAAAAAAAABAAAAHgQQCAAADSzF2ASyDoLAAgSIAiHSGAACAAAgIAAIiIGOCIgKZjqCkTOUcAAm1hGYmAe/36KOIAAAAAAAAABAAAAAAAAAAAAAAAAAAA==
> <PUBCHEM_IUPAC_OPENEYE_NAME>
(4S)-4-[[(2S)-2-[[(2R)-2-[[(2S)-2-amino-3-carboxy-propanoyl]amino]-3-(4-hydroxyphenyl)propanoyl]amino]-4-methyl-pentanoyl]amino]-5-[[(1S)-2-[[(1R)-1-carboxy-2-sulfanyl-ethyl]amino]-1-(cyclohexylmethyl)-2-oxo-ethyl]amino]-5-oxo-pentanoic acid
> <PUBCHEM_IUPAC_CAS_NAME>
(4S)-4-[[(2S)-2-[[(2R)-2-[[(2S)-2-amino-3-carboxy-1-oxopropyl]amino]-3-(4-hydroxyphenyl)-1-oxopropyl]amino]-4-methyl-1-oxopentyl]amino]-5-[[(2S)-1-[[(1R)-1-carboxy-2-mercaptoethyl]amino]-3-cyclohexyl-1-oxopropan-2-yl]amino]-5-oxopentanoic acid
> <PUBCHEM_IUPAC_NAME_MARKUP>
(4<I>S</I>)-4-[[(2<I>S</I>)-2-[[(2<I>R</I>)-2-[[(2<I>S</I>)-2-amino-3-carboxypropanoyl]amino]-3-(4-hydroxyphenyl)propanoyl]amino]-4-methylpentanoyl]amino]-5-[[(2<I>S</I>)-1-[[(1<I>R</I>)-1-carboxy-2-sulfanylethyl]amino]-3-cyclohexyl-1-oxopropan-2-yl]amino]-5-oxopentanoic acid
> <PUBCHEM_IUPAC_NAME>
(4S)-4-[[(2S)-2-[[(2R)-2-[[(2S)-2-amino-3-carboxypropanoyl]amino]-3-(4-hydroxyphenyl)propanoyl]amino]-4-methylpentanoyl]amino]-5-[[(2S)-1-[[(1R)-1-carboxy-2-sulfanylethyl]amino]-3-cyclohexyl-1-oxopropan-2-yl]amino]-5-oxopentanoic acid
> <PUBCHEM_IUPAC_SYSTEMATIC_NAME>
(4S)-4-[[(2S)-2-[[(2R)-2-[[(2S)-2-azanyl-4-oxidanyl-4-oxidanylidene-butanoyl]amino]-3-(4-hydroxyphenyl)propanoyl]amino]-4-methyl-pentanoyl]amino]-5-[[(2S)-3-cyclohexyl-1-oxidanylidene-1-[[(2R)-1-oxidanyl-1-oxidanylidene-3-sulfanyl-propan-2-yl]amino]propan-2-yl]amino]-5-oxidanylidene-pentanoic acid
> <PUBCHEM_IUPAC_TRADITIONAL_NAME>
(4S)-4-[[(2S)-2-[[(2R)-2-[[(2S)-2-amino-3-carboxy-propanoyl]amino]-3-(4-hydroxyphenyl)propanoyl]amino]-4-methyl-pentanoyl]amino]-5-[[(1S)-2-[[(1R)-1-carboxy-2-mercapto-ethyl]amino]-1-(cyclohexylmethyl)-2-keto-ethyl]amino]-5-keto-valeric acid
> <PUBCHEM_IUPAC_INCHI>
InChI=1S/C36H54N6O12S/c1-19(2)14-25(40-34(51)26(16-21-8-10-22(43)11-9-21)39-31(48)23(37)17-30(46)47)33(50)38-24(12-13-29(44)45)32(49)41-27(15-20-6-4-3-5-7-20)35(52)42-28(18-55)36(53)54/h8-11,19-20,23-28,43,55H,3-7,12-18,37H2,1-2H3,(H,38,50)(H,39,48)(H,40,51)(H,41,49)(H,42,52)(H,44,45)(H,46,47)(H,53,54)/t23-,24-,25-,26+,27-,28-/m0/s1
> <PUBCHEM_IUPAC_INCHIKEY>
XUUBIDSPKALZGO-XDHPVKSMSA-N
> <PUBCHEM_XLOGP3_AA>
-0.4
> <PUBCHEM_EXACT_MASS>
794.35204235
> <PUBCHEM_MOLECULAR_FORMULA>
C36H54N6O12S
> <PUBCHEM_MOLECULAR_WEIGHT>
794.9
> <PUBCHEM_OPENEYE_CAN_SMILES>
CC(C)CC(C(=O)NC(CCC(=O)O)C(=O)NC(CC1CCCCC1)C(=O)NC(CS)C(=O)O)NC(=O)C(CC2=CC=C(C=C2)O)NC(=O)C(CC(=O)O)N
> <PUBCHEM_OPENEYE_ISO_SMILES>
CC(C)C[C@@H](C(=O)N[C@@H](CCC(=O)O)C(=O)N[C@@H](CC1CCCCC1)C(=O)N[C@@H](CS)C(=O)O)NC(=O)[C@@H](CC2=CC=C(C=C2)O)NC(=O)[C@H](CC(=O)O)N
> <PUBCHEM_CACTVS_TPSA>
305
> <PUBCHEM_MONOISOTOPIC_WEIGHT>
794.35204235
> <PUBCHEM_TOTAL_CHARGE>
0
> <PUBCHEM_HEAVY_ATOM_COUNT>
55
> <PUBCHEM_ATOM_DEF_STEREO_COUNT>
6
> <PUBCHEM_ATOM_UDEF_STEREO_COUNT>
0
> <PUBCHEM_BOND_DEF_STEREO_COUNT>
0
> <PUBCHEM_BOND_UDEF_STEREO_COUNT>
0
> <PUBCHEM_ISOTOPIC_ATOM_COUNT>
0
> <PUBCHEM_COMPONENT_COUNT>
1
> <PUBCHEM_CACTVS_TAUTO_COUNT>
-1
> <PUBCHEM_COORDINATE_TYPE>
1
5
255
> <PUBCHEM_BONDANNOTATIONS>
27  14  5
32  15  5
30  16  6
33  17  6
42  18  6
48  19  6
46  49  8
46  50  8
49  52  8
50  53  8
52  54  8
53  54  8
$$$$
