512533
  -OEChem-10302200282D
109109  0     1  0  0  0  0  0999 V2000
    5.4641    2.9050    0.0000 O   0  0  0  0  0  0  0  0  0  0  0  0
    6.3301    2.4050    0.0000 O   0  0  0  0  0  0  0  0  0  0  0  0
    2.8660    5.4050    0.0000 O   0  0  0  0  0  0  0  0  0  0  0  0
    8.9282   -0.0950    0.0000 O   0  0  0  0  0  0  0  0  0  0  0  0
    2.0000    3.9050    0.0000 O   0  0  0  0  0  0  0  0  0  0  0  0
    8.9282   -2.0950    0.0000 O   0  0  0  0  0  0  0  0  0  0  0  0
    9.7942   -0.5950    0.0000 O   0  0  0  0  0  0  0  0  0  0  0  0
    7.1962   -2.0950    0.0000 O   0  0  0  0  0  0  0  0  0  0  0  0
   13.2583   -1.5950    0.0000 O   0  0  0  0  0  0  0  0  0  0  0  0
   14.9904   -0.5950    0.0000 O   0  0  0  0  0  0  0  0  0  0  0  0
   14.1244    0.9050    0.0000 O   0  0  0  0  0  0  0  0  0  0  0  0
   14.1244   -5.0950    0.0000 O   0  0  0  0  0  0  0  0  0  0  0  0
   12.3923   -5.0950    0.0000 O   0  0  0  0  0  0  0  0  0  0  0  0
    5.4641    0.9050    0.0000 N   0  0  0  0  0  0  0  0  0  0  0  0
    3.7320    2.9050    0.0000 N   0  0  0  0  0  0  0  0  0  0  0  0
    8.0622    1.4050    0.0000 N   0  0  0  0  0  0  0  0  0  0  0  0
   10.6603    0.9050    0.0000 N   0  0  0  0  0  0  0  0  0  0  0  0
   11.5263   -1.5950    0.0000 N   0  0  0  0  0  0  0  0  0  0  0  0
   11.5263   -3.5950    0.0000 N   0  0  0  0  0  0  0  0  0  0  0  0
    3.7320   -0.0950    0.0000 C   0  0  0  0  0  0  0  0  0  0  0  0
    2.8660   -0.5950    0.0000 C   0  0  0  0  0  0  0  0  0  0  0  0
    4.5981   -0.5950    0.0000 C   0  0  0  0  0  0  0  0  0  0  0  0
    3.7320    0.9050    0.0000 C   0  0  0  0  0  0  0  0  0  0  0  0
    2.8660   -1.5950    0.0000 C   0  0  0  0  0  0  0  0  0  0  0  0
    4.5981   -1.5950    0.0000 C   0  0  0  0  0  0  0  0  0  0  0  0
    3.7320   -2.0950    0.0000 C   0  0  0  0  0  0  0  0  0  0  0  0
    4.5981    1.4050    0.0000 C   0  0  1  0  0  0  0  0  0  0  0  0
    4.5981    2.4050    0.0000 C   0  0  0  0  0  0  0  0  0  0  0  0
    6.3301    1.4050    0.0000 C   0  0  0  0  0  0  0  0  0  0  0  0
    7.1962    0.9050    0.0000 C   0  0  2  0  0  0  0  0  0  0  0  0
    3.7320    3.9050    0.0000 C   0  0  1  0  0  0  0  0  0  0  0  0
    4.5981    4.4050    0.0000 C   0  0  0  0  0  0  0  0  0  0  0  0
    7.1962   -0.0950    0.0000 C   0  0  0  0  0  0  0  0  0  0  0  0
    9.7942    1.4050    0.0000 C   0  0  2  0  0  0  0  0  0  0  0  0
    8.9282    0.9050    0.0000 C   0  0  0  0  0  0  0  0  0  0  0  0
    9.7942    2.4050    0.0000 C   0  0  0  0  0  0  0  0  0  0  0  0
    2.8660    4.4050    0.0000 C   0  0  0  0  0  0  0  0  0  0  0  0
    8.0622   -0.5950    0.0000 C   0  0  0  0  0  0  0  0  0  0  0  0
    4.5981    5.4050    0.0000 C   0  0  0  0  0  0  0  0  0  0  0  0
    5.4641    3.9050    0.0000 C   0  0  0  0  0  0  0  0  0  0  0  0
   10.6603    2.9050    0.0000 C   0  0  0  0  0  0  0  0  0  0  0  0
   10.6603    3.9050    0.0000 C   0  0  0  0  0  0  0  0  0  0  0  0
   11.5263    2.4050    0.0000 C   0  0  0  0  0  0  0  0  0  0  0  0
   11.5263   -0.5950    0.0000 C   0  0  2  0  0  0  0  0  0  0  0  0
   10.6603   -0.0950    0.0000 C   0  0  0  0  0  0  0  0  0  0  0  0
    8.0622   -1.5950    0.0000 C   0  0  0  0  0  0  0  0  0  0  0  0
   12.3923   -0.0950    0.0000 C   0  0  0  0  0  0  0  0  0  0  0  0
   13.2583   -0.5950    0.0000 C   0  0  0  0  0  0  0  0  0  0  0  0
   12.3923   -2.0950    0.0000 C   0  0  0  0  0  0  0  0  0  0  0  0
   12.3923   -3.0950    0.0000 C   0  0  2  0  0  0  0  0  0  0  0  0
   14.1244   -0.0950    0.0000 C   0  0  0  0  0  0  0  0  0  0  0  0
   13.2583   -3.5950    0.0000 C   0  0  0  0  0  0  0  0  0  0  0  0
   13.2583   -4.5950    0.0000 C   0  0  0  0  0  0  0  0  0  0  0  0
    4.2690    0.2150    0.0000 H   0  0  0  0  0  0  0  0  0  0  0  0
    2.6540   -0.0124    0.0000 H   0  0  0  0  0  0  0  0  0  0  0  0
    2.2554   -0.7027    0.0000 H   0  0  0  0  0  0  0  0  0  0  0  0
    5.2087   -0.7027    0.0000 H   0  0  0  0  0  0  0  0  0  0  0  0
    4.8101   -0.0124    0.0000 H   0  0  0  0  0  0  0  0  0  0  0  0
    3.5200    1.4876    0.0000 H   0  0  0  0  0  0  0  0  0  0  0  0
    3.1215    0.7973    0.0000 H   0  0  0  0  0  0  0  0  0  0  0  0
    2.2554   -1.4873    0.0000 H   0  0  0  0  0  0  0  0  0  0  0  0
    2.6540   -2.1776    0.0000 H   0  0  0  0  0  0  0  0  0  0  0  0
    4.8101   -2.1776    0.0000 H   0  0  0  0  0  0  0  0  0  0  0  0
    5.2087   -1.4873    0.0000 H   0  0  0  0  0  0  0  0  0  0  0  0
    3.3335   -2.5700    0.0000 H   0  0  0  0  0  0  0  0  0  0  0  0
    4.1306   -2.5700    0.0000 H   0  0  0  0  0  0  0  0  0  0  0  0
    4.5981    0.7850    0.0000 H   0  0  0  0  0  0  0  0  0  0  0  0
    5.4641    0.2850    0.0000 H   0  0  0  0  0  0  0  0  0  0  0  0
    3.1951    2.5950    0.0000 H   0  0  0  0  0  0  0  0  0  0  0  0
    7.7331    0.5950    0.0000 H   0  0  0  0  0  0  0  0  0  0  0  0
    4.2690    3.5950    0.0000 H   0  0  0  0  0  0  0  0  0  0  0  0
    5.1350    4.7150    0.0000 H   0  0  0  0  0  0  0  0  0  0  0  0
    6.5856    0.0127    0.0000 H   0  0  0  0  0  0  0  0  0  0  0  0
    6.9841   -0.6776    0.0000 H   0  0  0  0  0  0  0  0  0  0  0  0
    8.0622    2.0250    0.0000 H   0  0  0  0  0  0  0  0  0  0  0  0
    9.7942    0.7850    0.0000 H   0  0  0  0  0  0  0  0  0  0  0  0
    9.5822    2.9876    0.0000 H   0  0  0  0  0  0  0  0  0  0  0  0
    9.1836    2.2973    0.0000 H   0  0  0  0  0  0  0  0  0  0  0  0
    8.6728   -0.7027    0.0000 H   0  0  0  0  0  0  0  0  0  0  0  0
    8.2742   -0.0124    0.0000 H   0  0  0  0  0  0  0  0  0  0  0  0
    5.2181    5.4050    0.0000 H   0  0  0  0  0  0  0  0  0  0  0  0
    4.5981    6.0250    0.0000 H   0  0  0  0  0  0  0  0  0  0  0  0
    3.9781    5.4050    0.0000 H   0  0  0  0  0  0  0  0  0  0  0  0
    5.1541    3.3681    0.0000 H   0  0  0  0  0  0  0  0  0  0  0  0
    6.0010    3.5950    0.0000 H   0  0  0  0  0  0  0  0  0  0  0  0
    5.7741    4.4419    0.0000 H   0  0  0  0  0  0  0  0  0  0  0  0
   11.1972    3.2150    0.0000 H   0  0  0  0  0  0  0  0  0  0  0  0
   11.1972    1.2150    0.0000 H   0  0  0  0  0  0  0  0  0  0  0  0
   11.2803    3.9050    0.0000 H   0  0  0  0  0  0  0  0  0  0  0  0
   10.6603    4.5250    0.0000 H   0  0  0  0  0  0  0  0  0  0  0  0
   10.0403    3.9050    0.0000 H   0  0  0  0  0  0  0  0  0  0  0  0
   11.2163    1.8681    0.0000 H   0  0  0  0  0  0  0  0  0  0  0  0
   12.0632    2.0950    0.0000 H   0  0  0  0  0  0  0  0  0  0  0  0
   11.8363    2.9419    0.0000 H   0  0  0  0  0  0  0  0  0  0  0  0
   12.0632   -0.9050    0.0000 H   0  0  0  0  0  0  0  0  0  0  0  0
   12.7908    0.3799    0.0000 H   0  0  0  0  0  0  0  0  0  0  0  0
   11.9938    0.3799    0.0000 H   0  0  0  0  0  0  0  0  0  0  0  0
    2.3291    5.7150    0.0000 H   0  0  0  0  0  0  0  0  0  0  0  0
   10.9893   -1.9050    0.0000 H   0  0  0  0  0  0  0  0  0  0  0  0
   12.8598   -1.0700    0.0000 H   0  0  0  0  0  0  0  0  0  0  0  0
   13.6569   -1.0700    0.0000 H   0  0  0  0  0  0  0  0  0  0  0  0
    8.9282   -2.7150    0.0000 H   0  0  0  0  0  0  0  0  0  0  0  0
   11.8554   -2.7850    0.0000 H   0  0  0  0  0  0  0  0  0  0  0  0
   13.8689   -3.7027    0.0000 H   0  0  0  0  0  0  0  0  0  0  0  0
   13.4704   -3.0124    0.0000 H   0  0  0  0  0  0  0  0  0  0  0  0
   11.5263   -4.2150    0.0000 H   0  0  0  0  0  0  0  0  0  0  0  0
   10.9893   -3.2850    0.0000 H   0  0  0  0  0  0  0  0  0  0  0  0
   15.5273   -0.2850    0.0000 H   0  0  0  0  0  0  0  0  0  0  0  0
   14.1244   -5.7150    0.0000 H   0  0  0  0  0  0  0  0  0  0  0  0
  1 28  2  0  0  0  0
  2 29  2  0  0  0  0
  3 37  1  0  0  0  0
  3 98  1  0  0  0  0
  4 35  2  0  0  0  0
  5 37  2  0  0  0  0
  6 46  1  0  0  0  0
  6102  1  0  0  0  0
  7 45  2  0  0  0  0
  8 46  2  0  0  0  0
  9 49  2  0  0  0  0
 10 51  1  0  0  0  0
 10108  1  0  0  0  0
 11 51  2  0  0  0  0
 12 53  1  0  0  0  0
 12109  1  0  0  0  0
 13 53  2  0  0  0  0
 27 14  1  1  0  0  0
 14 29  1  0  0  0  0
 14 68  1  0  0  0  0
 15 28  1  0  0  0  0
 31 15  1  6  0  0  0
 15 69  1  0  0  0  0
 30 16  1  1  0  0  0
 16 35  1  0  0  0  0
 16 75  1  0  0  0  0
 34 17  1  6  0  0  0
 17 45  1  0  0  0  0
 17 88  1  0  0  0  0
 44 18  1  6  0  0  0
 18 49  1  0  0  0  0
 18 99  1  0  0  0  0
 50 19  1  6  0  0  0
 19106  1  0  0  0  0
 19107  1  0  0  0  0
 20 21  1  0  0  0  0
 20 22  1  0  0  0  0
 20 23  1  0  0  0  0
 20 54  1  0  0  0  0
 21 24  1  0  0  0  0
 21 55  1  0  0  0  0
 21 56  1  0  0  0  0
 22 25  1  0  0  0  0
 22 57  1  0  0  0  0
 22 58  1  0  0  0  0
 23 27  1  0  0  0  0
 23 59  1  0  0  0  0
 23 60  1  0  0  0  0
 24 26  1  0  0  0  0
 24 61  1  0  0  0  0
 24 62  1  0  0  0  0
 25 26  1  0  0  0  0
 25 63  1  0  0  0  0
 25 64  1  0  0  0  0
 26 65  1  0  0  0  0
 26 66  1  0  0  0  0
 27 28  1  0  0  0  0
 27 67  1  0  0  0  0
 29 30  1  0  0  0  0
 30 33  1  0  0  0  0
 30 70  1  0  0  0  0
 31 32  1  0  0  0  0
 31 37  1  0  0  0  0
 31 71  1  0  0  0  0
 32 39  1  0  0  0  0
 32 40  1  0  0  0  0
 32 72  1  0  0  0  0
 33 38  1  0  0  0  0
 33 73  1  0  0  0  0
 33 74  1  0  0  0  0
 34 35  1  0  0  0  0
 34 36  1  0  0  0  0
 34 76  1  0  0  0  0
 36 41  1  0  0  0  0
 36 77  1  0  0  0  0
 36 78  1  0  0  0  0
 38 46  1  0  0  0  0
 38 79  1  0  0  0  0
 38 80  1  0  0  0  0
 39 81  1  0  0  0  0
 39 82  1  0  0  0  0
 39 83  1  0  0  0  0
 40 84  1  0  0  0  0
 40 85  1  0  0  0  0
 40 86  1  0  0  0  0
 41 42  1  0  0  0  0
 41 43  1  0  0  0  0
 41 87  1  0  0  0  0
 42 89  1  0  0  0  0
 42 90  1  0  0  0  0
 42 91  1  0  0  0  0
 43 92  1  0  0  0  0
 43 93  1  0  0  0  0
 43 94  1  0  0  0  0
 44 45  1  0  0  0  0
 44 47  1  0  0  0  0
 44 95  1  0  0  0  0
 47 48  1  0  0  0  0
 47 96  1  0  0  0  0
 47 97  1  0  0  0  0
 48 51  1  0  0  0  0
 48100  1  0  0  0  0
 48101  1  0  0  0  0
 49 50  1  0  0  0  0
 50 52  1  0  0  0  0
 50103  1  0  0  0  0
 52 53  1  0  0  0  0
 52104  1  0  0  0  0
 52105  1  0  0  0  0
M  END
> <PUBCHEM_COMPOUND_CID>
512533
> <PUBCHEM_COMPOUND_CANONICALIZED>
1
> <PUBCHEM_CACTVS_COMPLEXITY>
1320
> <PUBCHEM_CACTVS_HBOND_ACCEPTOR>
14
> <PUBCHEM_CACTVS_HBOND_DONOR>
10
> <PUBCHEM_CACTVS_ROTATABLE_BOND>
24
> <PUBCHEM_CACTVS_SUBSKEYS>
AAADcfB/vAAAAAAAAAAAAAAAAAAAAAAAAAAwAAAAAAAAAAAAAAAAHgAQCAAADSjBgAQCCALAAgAIAAGQGAAAAAAAAAAAAIGIAAACQBoAgCAUQAAGFgCQAAG/n4KOAAAAAAAAAAAAAAAAAAAAAAAAAAAAAA==
> <PUBCHEM_IUPAC_OPENEYE_NAME>
(4S)-4-[[(2S)-2-[[(2S)-2-[[(2S)-2-amino-3-carboxy-propanoyl]amino]-4-carboxy-butanoyl]amino]-4-methyl-pentanoyl]amino]-5-[[(1S)-2-[[(1S)-1-carboxy-2-methyl-propyl]amino]-1-(cyclohexylmethyl)-2-oxo-ethyl]amino]-5-oxo-pentanoic acid
> <PUBCHEM_IUPAC_CAS_NAME>
(4S)-4-[[(2S)-2-[[(2S)-2-[[(2S)-2-amino-3-carboxy-1-oxopropyl]amino]-4-carboxy-1-oxobutyl]amino]-4-methyl-1-oxopentyl]amino]-5-[[(2S)-1-[[(1S)-1-carboxy-2-methylpropyl]amino]-3-cyclohexyl-1-oxopropan-2-yl]amino]-5-oxopentanoic acid
> <PUBCHEM_IUPAC_NAME_MARKUP>
(4<I>S</I>)-4-[[(2<I>S</I>)-2-[[(2<I>S</I>)-2-[[(2<I>S</I>)-2-amino-3-carboxypropanoyl]amino]-4-carboxybutanoyl]amino]-4-methylpentanoyl]amino]-5-[[(2<I>S</I>)-1-[[(1<I>S</I>)-1-carboxy-2-methylpropyl]amino]-3-cyclohexyl-1-oxopropan-2-yl]amino]-5-oxopentanoic acid
> <PUBCHEM_IUPAC_NAME>
(4S)-4-[[(2S)-2-[[(2S)-2-[[(2S)-2-amino-3-carboxypropanoyl]amino]-4-carboxybutanoyl]amino]-4-methylpentanoyl]amino]-5-[[(2S)-1-[[(1S)-1-carboxy-2-methylpropyl]amino]-3-cyclohexyl-1-oxopropan-2-yl]amino]-5-oxopentanoic acid
> <PUBCHEM_IUPAC_SYSTEMATIC_NAME>
(4S)-4-[[(2S)-2-[[(2S)-2-[[(2S)-2-azanyl-4-oxidanyl-4-oxidanylidene-butanoyl]amino]-5-oxidanyl-5-oxidanylidene-pentanoyl]amino]-4-methyl-pentanoyl]amino]-5-[[(2S)-3-cyclohexyl-1-[[(2S)-3-methyl-1-oxidanyl-1-oxidanylidene-butan-2-yl]amino]-1-oxidanylidene-propan-2-yl]amino]-5-oxidanylidene-pentanoic acid
> <PUBCHEM_IUPAC_TRADITIONAL_NAME>
(4S)-4-[[(2S)-2-[[(2S)-2-[[(2S)-2-amino-3-carboxy-propanoyl]amino]-4-carboxy-butanoyl]amino]-4-methyl-pentanoyl]amino]-5-[[(1S)-2-[[(1S)-1-carboxy-2-methyl-propyl]amino]-1-(cyclohexylmethyl)-2-keto-ethyl]amino]-5-keto-valeric acid
> <PUBCHEM_IUPAC_INCHI>
InChI=1S/C34H56N6O13/c1-17(2)14-23(38-30(48)21(10-12-25(41)42)36-29(47)20(35)16-27(45)46)32(50)37-22(11-13-26(43)44)31(49)39-24(15-19-8-6-5-7-9-19)33(51)40-28(18(3)4)34(52)53/h17-24,28H,5-16,35H2,1-4H3,(H,36,47)(H,37,50)(H,38,48)(H,39,49)(H,40,51)(H,41,42)(H,43,44)(H,45,46)(H,52,53)/t20-,21-,22-,23-,24-,28-/m0/s1
> <PUBCHEM_IUPAC_INCHIKEY>
ICHVDIXDSUZAEI-BIWWIESBSA-N
> <PUBCHEM_XLOGP3_AA>
-1.1
> <PUBCHEM_EXACT_MASS>
756.39053586
> <PUBCHEM_MOLECULAR_FORMULA>
C34H56N6O13
> <PUBCHEM_MOLECULAR_WEIGHT>
756.8
> <PUBCHEM_OPENEYE_CAN_SMILES>
CC(C)CC(C(=O)NC(CCC(=O)O)C(=O)NC(CC1CCCCC1)C(=O)NC(C(C)C)C(=O)O)NC(=O)C(CCC(=O)O)NC(=O)C(CC(=O)O)N
> <PUBCHEM_OPENEYE_ISO_SMILES>
CC(C)C[C@@H](C(=O)N[C@@H](CCC(=O)O)C(=O)N[C@@H](CC1CCCCC1)C(=O)N[C@@H](C(C)C)C(=O)O)NC(=O)[C@H](CCC(=O)O)NC(=O)[C@H](CC(=O)O)N
> <PUBCHEM_CACTVS_TPSA>
321
> <PUBCHEM_MONOISOTOPIC_WEIGHT>
756.39053586
> <PUBCHEM_TOTAL_CHARGE>
0
> <PUBCHEM_HEAVY_ATOM_COUNT>
53
> <PUBCHEM_ATOM_DEF_STEREO_COUNT>
6
> <PUBCHEM_ATOM_UDEF_STEREO_COUNT>
0
> <PUBCHEM_BOND_DEF_STEREO_COUNT>
0
> <PUBCHEM_BOND_UDEF_STEREO_COUNT>
0
> <PUBCHEM_ISOTOPIC_ATOM_COUNT>
0
> <PUBCHEM_COMPONENT_COUNT>
1
> <PUBCHEM_CACTVS_TAUTO_COUNT>
-1
> <PUBCHEM_COORDINATE_TYPE>
1
5
255
> <PUBCHEM_BONDANNOTATIONS>
27  14  5
31  15  6
30  16  5
34  17  6
44  18  6
50  19  6
$$$$
