512522
  -OEChem-10302200282D
 86 88  0     1  0  0  0  0  0999 V2000
    5.4641    5.8450    0.0000 S   0  0  0  0  0  0  0  0  0  0  0  0
    4.5981    3.3450    0.0000 O   0  0  0  0  0  0  0  0  0  0  0  0
    5.4641   -0.1550    0.0000 O   0  0  0  0  0  0  0  0  0  0  0  0
    8.9282   -1.1550    0.0000 O   0  0  0  0  0  0  0  0  0  0  0  0
    7.1962    5.8450    0.0000 O   0  0  0  0  0  0  0  0  0  0  0  0
    8.0622    4.3450    0.0000 O   0  0  0  0  0  0  0  0  0  0  0  0
    8.9282    2.8450    0.0000 O   0  0  0  0  0  0  0  0  0  0  0  0
    9.7942    1.3450    0.0000 O   0  0  0  0  0  0  0  0  0  0  0  0
    6.3301    1.3450    0.0000 N   0  0  0  0  0  0  0  0  0  0  0  0
    6.3301    3.3450    0.0000 N   0  0  0  0  0  0  0  0  0  0  0  0
    7.1962   -1.1550    0.0000 N   0  0  0  0  0  0  0  0  0  0  0  0
    7.1962   -3.1550    0.0000 N   0  0  0  0  0  0  0  0  0  0  0  0
    3.7320    1.8450    0.0000 C   0  0  0  0  0  0  0  0  0  0  0  0
    3.7320    2.8450    0.0000 C   0  0  0  0  0  0  0  0  0  0  0  0
    2.8660    1.3450    0.0000 C   0  0  0  0  0  0  0  0  0  0  0  0
    4.5981    1.3450    0.0000 C   0  0  0  0  0  0  0  0  0  0  0  0
    2.8660    3.3450    0.0000 C   0  0  0  0  0  0  0  0  0  0  0  0
    2.0000    1.8450    0.0000 C   0  0  0  0  0  0  0  0  0  0  0  0
    2.0000    2.8450    0.0000 C   0  0  0  0  0  0  0  0  0  0  0  0
    5.4641    1.8450    0.0000 C   0  0  1  0  0  0  0  0  0  0  0  0
    5.4641    2.8450    0.0000 C   0  0  0  0  0  0  0  0  0  0  0  0
    6.3301    0.3450    0.0000 C   0  0  0  0  0  0  0  0  0  0  0  0
    7.1962   -0.1550    0.0000 C   0  0  2  0  0  0  0  0  0  0  0  0
    8.0622    0.3450    0.0000 C   0  0  0  0  0  0  0  0  0  0  0  0
    6.3301    4.3450    0.0000 C   0  0  1  0  0  0  0  0  0  0  0  0
    8.0622   -2.6550    0.0000 C   0  0  1  0  0  0  0  0  0  0  0  0
    8.9282   -3.1550    0.0000 C   0  0  0  0  0  0  0  0  0  0  0  0
    8.0622   -1.6550    0.0000 C   0  0  0  0  0  0  0  0  0  0  0  0
    8.0622    1.3450    0.0000 C   0  0  0  0  0  0  0  0  0  0  0  0
    5.4641    4.8450    0.0000 C   0  0  0  0  0  0  0  0  0  0  0  0
    8.9282   -4.1550    0.0000 C   0  0  0  0  0  0  0  0  0  0  0  0
    9.7942   -2.6550    0.0000 C   0  0  0  0  0  0  0  0  0  0  0  0
    7.1962    4.8450    0.0000 C   0  0  0  0  0  0  0  0  0  0  0  0
    8.9282    1.8450    0.0000 C   0  0  0  0  0  0  0  0  0  0  0  0
    8.0622   -4.6550    0.0000 C   0  0  0  0  0  0  0  0  0  0  0  0
   10.6603   -3.1550    0.0000 C   0  0  0  0  0  0  0  0  0  0  0  0
    9.7942   -4.6550    0.0000 C   0  0  0  0  0  0  0  0  0  0  0  0
    9.7942   -1.6550    0.0000 C   0  0  0  0  0  0  0  0  0  0  0  0
    8.0622   -5.6550    0.0000 C   0  0  0  0  0  0  0  0  0  0  0  0
   11.5263   -2.6550    0.0000 C   0  0  0  0  0  0  0  0  0  0  0  0
    9.7942   -5.6550    0.0000 C   0  0  0  0  0  0  0  0  0  0  0  0
   10.6603   -1.1550    0.0000 C   0  0  0  0  0  0  0  0  0  0  0  0
    8.9282   -6.1550    0.0000 C   0  0  0  0  0  0  0  0  0  0  0  0
   11.5263   -1.6550    0.0000 C   0  0  0  0  0  0  0  0  0  0  0  0
    3.7320    1.2250    0.0000 H   0  0  0  0  0  0  0  0  0  0  0  0
    4.3426    2.7373    0.0000 H   0  0  0  0  0  0  0  0  0  0  0  0
    3.9441    3.4276    0.0000 H   0  0  0  0  0  0  0  0  0  0  0  0
    2.4675    0.8701    0.0000 H   0  0  0  0  0  0  0  0  0  0  0  0
    3.2646    0.8701    0.0000 H   0  0  0  0  0  0  0  0  0  0  0  0
    4.1996    0.8701    0.0000 H   0  0  0  0  0  0  0  0  0  0  0  0
    4.9966    0.8701    0.0000 H   0  0  0  0  0  0  0  0  0  0  0  0
    3.2646    3.8200    0.0000 H   0  0  0  0  0  0  0  0  0  0  0  0
    2.4675    3.8200    0.0000 H   0  0  0  0  0  0  0  0  0  0  0  0
    1.3894    1.9527    0.0000 H   0  0  0  0  0  0  0  0  0  0  0  0
    1.7880    1.2624    0.0000 H   0  0  0  0  0  0  0  0  0  0  0  0
    1.7880    3.4276    0.0000 H   0  0  0  0  0  0  0  0  0  0  0  0
    1.3894    2.7373    0.0000 H   0  0  0  0  0  0  0  0  0  0  0  0
    5.4641    1.2250    0.0000 H   0  0  0  0  0  0  0  0  0  0  0  0
    6.8671    1.6550    0.0000 H   0  0  0  0  0  0  0  0  0  0  0  0
    6.6592   -0.4650    0.0000 H   0  0  0  0  0  0  0  0  0  0  0  0
    6.8671    3.0350    0.0000 H   0  0  0  0  0  0  0  0  0  0  0  0
    8.2742   -0.2376    0.0000 H   0  0  0  0  0  0  0  0  0  0  0  0
    8.6728    0.4527    0.0000 H   0  0  0  0  0  0  0  0  0  0  0  0
    6.8671    4.0350    0.0000 H   0  0  0  0  0  0  0  0  0  0  0  0
    6.6592   -1.4650    0.0000 H   0  0  0  0  0  0  0  0  0  0  0  0
    8.0622   -3.2750    0.0000 H   0  0  0  0  0  0  0  0  0  0  0  0
    8.9282   -2.5350    0.0000 H   0  0  0  0  0  0  0  0  0  0  0  0
    7.8501    1.9276    0.0000 H   0  0  0  0  0  0  0  0  0  0  0  0
    7.4516    1.2373    0.0000 H   0  0  0  0  0  0  0  0  0  0  0  0
    4.8535    4.9527    0.0000 H   0  0  0  0  0  0  0  0  0  0  0  0
    5.2520    4.2624    0.0000 H   0  0  0  0  0  0  0  0  0  0  0  0
    6.6592   -2.8450    0.0000 H   0  0  0  0  0  0  0  0  0  0  0  0
    7.1962   -3.7750    0.0000 H   0  0  0  0  0  0  0  0  0  0  0  0
    7.5252   -4.3450    0.0000 H   0  0  0  0  0  0  0  0  0  0  0  0
   10.6603   -3.7750    0.0000 H   0  0  0  0  0  0  0  0  0  0  0  0
   10.3312   -4.3450    0.0000 H   0  0  0  0  0  0  0  0  0  0  0  0
    9.2573   -1.3450    0.0000 H   0  0  0  0  0  0  0  0  0  0  0  0
    4.9272    6.1550    0.0000 H   0  0  0  0  0  0  0  0  0  0  0  0
    7.5252   -5.9650    0.0000 H   0  0  0  0  0  0  0  0  0  0  0  0
   12.0632   -2.9650    0.0000 H   0  0  0  0  0  0  0  0  0  0  0  0
   10.3312   -5.9650    0.0000 H   0  0  0  0  0  0  0  0  0  0  0  0
   10.6603   -0.5350    0.0000 H   0  0  0  0  0  0  0  0  0  0  0  0
    7.7331    6.1550    0.0000 H   0  0  0  0  0  0  0  0  0  0  0  0
    8.9282   -6.7750    0.0000 H   0  0  0  0  0  0  0  0  0  0  0  0
   12.0632   -1.3450    0.0000 H   0  0  0  0  0  0  0  0  0  0  0  0
    9.4651    3.1550    0.0000 H   0  0  0  0  0  0  0  0  0  0  0  0
  1 30  1  0  0  0  0
  1 78  1  0  0  0  0
  2 21  2  0  0  0  0
  3 22  2  0  0  0  0
  4 28  2  0  0  0  0
  5 33  1  0  0  0  0
  5 83  1  0  0  0  0
  6 33  2  0  0  0  0
  7 34  1  0  0  0  0
  7 86  1  0  0  0  0
  8 34  2  0  0  0  0
 20  9  1  1  0  0  0
  9 22  1  0  0  0  0
  9 59  1  0  0  0  0
 10 21  1  0  0  0  0
 25 10  1  1  0  0  0
 10 61  1  0  0  0  0
 23 11  1  6  0  0  0
 11 28  1  0  0  0  0
 11 65  1  0  0  0  0
 26 12  1  6  0  0  0
 12 72  1  0  0  0  0
 12 73  1  0  0  0  0
 13 14  1  0  0  0  0
 13 15  1  0  0  0  0
 13 16  1  0  0  0  0
 13 45  1  0  0  0  0
 14 17  1  0  0  0  0
 14 46  1  0  0  0  0
 14 47  1  0  0  0  0
 15 18  1  0  0  0  0
 15 48  1  0  0  0  0
 15 49  1  0  0  0  0
 16 20  1  0  0  0  0
 16 50  1  0  0  0  0
 16 51  1  0  0  0  0
 17 19  1  0  0  0  0
 17 52  1  0  0  0  0
 17 53  1  0  0  0  0
 18 19  1  0  0  0  0
 18 54  1  0  0  0  0
 18 55  1  0  0  0  0
 19 56  1  0  0  0  0
 19 57  1  0  0  0  0
 20 21  1  0  0  0  0
 20 58  1  0  0  0  0
 22 23  1  0  0  0  0
 23 24  1  0  0  0  0
 23 60  1  0  0  0  0
 24 29  1  0  0  0  0
 24 62  1  0  0  0  0
 24 63  1  0  0  0  0
 25 30  1  0  0  0  0
 25 33  1  0  0  0  0
 25 64  1  0  0  0  0
 26 27  1  0  0  0  0
 26 28  1  0  0  0  0
 26 66  1  0  0  0  0
 27 31  1  0  0  0  0
 27 32  1  0  0  0  0
 27 67  1  0  0  0  0
 29 34  1  0  0  0  0
 29 68  1  0  0  0  0
 29 69  1  0  0  0  0
 30 70  1  0  0  0  0
 30 71  1  0  0  0  0
 31 35  2  0  0  0  0
 31 37  1  0  0  0  0
 32 36  2  0  0  0  0
 32 38  1  0  0  0  0
 35 39  1  0  0  0  0
 35 74  1  0  0  0  0
 36 40  1  0  0  0  0
 36 75  1  0  0  0  0
 37 41  2  0  0  0  0
 37 76  1  0  0  0  0
 38 42  2  0  0  0  0
 38 77  1  0  0  0  0
 39 43  2  0  0  0  0
 39 79  1  0  0  0  0
 40 44  2  0  0  0  0
 40 80  1  0  0  0  0
 41 43  1  0  0  0  0
 41 81  1  0  0  0  0
 42 44  1  0  0  0  0
 42 82  1  0  0  0  0
 43 84  1  0  0  0  0
 44 85  1  0  0  0  0
M  END
> <PUBCHEM_COMPOUND_CID>
512522
> <PUBCHEM_COMPOUND_CANONICALIZED>
1
> <PUBCHEM_CACTVS_COMPLEXITY>
946
> <PUBCHEM_CACTVS_HBOND_ACCEPTOR>
9
> <PUBCHEM_CACTVS_HBOND_DONOR>
7
> <PUBCHEM_CACTVS_ROTATABLE_BOND>
16
> <PUBCHEM_CACTVS_SUBSKEYS>
AAADcfB/uABAAAAAAAAAAAAAAAAAAAAAAAAwYMAAAAAAAAABQAAAHgQQCAAADSjF2ASwCILAAgSIAiHSGAACAAAgAAAIiIGIAIgKYDKAkTGUYAAklgCYiAe8n8KOgAAAAAAAAAAAAAAAAAAAAAAAAAAAAA==
> <PUBCHEM_IUPAC_OPENEYE_NAME>
(4S)-4-[[(2S)-2-amino-3,3-diphenyl-propanoyl]amino]-5-[[(1S)-2-[[(1R)-1-carboxy-2-sulfanyl-ethyl]amino]-1-(cyclohexylmethyl)-2-oxo-ethyl]amino]-5-oxo-pentanoic acid
> <PUBCHEM_IUPAC_CAS_NAME>
(4S)-4-[[(2S)-2-amino-1-oxo-3,3-diphenylpropyl]amino]-5-[[(2S)-1-[[(1R)-1-carboxy-2-mercaptoethyl]amino]-3-cyclohexyl-1-oxopropan-2-yl]amino]-5-oxopentanoic acid
> <PUBCHEM_IUPAC_NAME_MARKUP>
(4<I>S</I>)-4-[[(2<I>S</I>)-2-amino-3,3-diphenylpropanoyl]amino]-5-[[(2<I>S</I>)-1-[[(1<I>R</I>)-1-carboxy-2-sulfanylethyl]amino]-3-cyclohexyl-1-oxopropan-2-yl]amino]-5-oxopentanoic acid
> <PUBCHEM_IUPAC_NAME>
(4S)-4-[[(2S)-2-amino-3,3-diphenylpropanoyl]amino]-5-[[(2S)-1-[[(1R)-1-carboxy-2-sulfanylethyl]amino]-3-cyclohexyl-1-oxopropan-2-yl]amino]-5-oxopentanoic acid
> <PUBCHEM_IUPAC_SYSTEMATIC_NAME>
(4S)-4-[[(2S)-2-azanyl-3,3-diphenyl-propanoyl]amino]-5-[[(2S)-3-cyclohexyl-1-oxidanylidene-1-[[(2R)-1-oxidanyl-1-oxidanylidene-3-sulfanyl-propan-2-yl]amino]propan-2-yl]amino]-5-oxidanylidene-pentanoic acid
> <PUBCHEM_IUPAC_TRADITIONAL_NAME>
(4S)-4-[[(2S)-2-amino-3,3-diphenyl-propanoyl]amino]-5-[[(1S)-2-[[(1R)-1-carboxy-2-mercapto-ethyl]amino]-1-(cyclohexylmethyl)-2-keto-ethyl]amino]-5-keto-valeric acid
> <PUBCHEM_IUPAC_INCHI>
InChI=1S/C32H42N4O7S/c33-28(27(21-12-6-2-7-13-21)22-14-8-3-9-15-22)31(41)34-23(16-17-26(37)38)29(39)35-24(18-20-10-4-1-5-11-20)30(40)36-25(19-44)32(42)43/h2-3,6-9,12-15,20,23-25,27-28,44H,1,4-5,10-11,16-19,33H2,(H,34,41)(H,35,39)(H,36,40)(H,37,38)(H,42,43)/t23-,24-,25-,28-/m0/s1
> <PUBCHEM_IUPAC_INCHIKEY>
UFGPLHFOVFXAAA-MGDCHWCSSA-N
> <PUBCHEM_XLOGP3_AA>
1.4
> <PUBCHEM_EXACT_MASS>
626.27742087
> <PUBCHEM_MOLECULAR_FORMULA>
C32H42N4O7S
> <PUBCHEM_MOLECULAR_WEIGHT>
626.8
> <PUBCHEM_OPENEYE_CAN_SMILES>
C1CCC(CC1)CC(C(=O)NC(CS)C(=O)O)NC(=O)C(CCC(=O)O)NC(=O)C(C(C2=CC=CC=C2)C3=CC=CC=C3)N
> <PUBCHEM_OPENEYE_ISO_SMILES>
C1CCC(CC1)C[C@@H](C(=O)N[C@@H](CS)C(=O)O)NC(=O)[C@H](CCC(=O)O)NC(=O)[C@H](C(C2=CC=CC=C2)C3=CC=CC=C3)N
> <PUBCHEM_CACTVS_TPSA>
189
> <PUBCHEM_MONOISOTOPIC_WEIGHT>
626.27742087
> <PUBCHEM_TOTAL_CHARGE>
0
> <PUBCHEM_HEAVY_ATOM_COUNT>
44
> <PUBCHEM_ATOM_DEF_STEREO_COUNT>
4
> <PUBCHEM_ATOM_UDEF_STEREO_COUNT>
0
> <PUBCHEM_BOND_DEF_STEREO_COUNT>
0
> <PUBCHEM_BOND_UDEF_STEREO_COUNT>
0
> <PUBCHEM_ISOTOPIC_ATOM_COUNT>
0
> <PUBCHEM_COMPONENT_COUNT>
1
> <PUBCHEM_CACTVS_TAUTO_COUNT>
-1
> <PUBCHEM_COORDINATE_TYPE>
1
5
255
> <PUBCHEM_BONDANNOTATIONS>
25  10  5
23  11  6
26  12  6
31  35  8
31  37  8
32  36  8
32  38  8
35  39  8
36  40  8
37  41  8
38  42  8
39  43  8
40  44  8
41  43  8
42  44  8
20  9  5
$$$$
