512529
  -OEChem-10302200282D
 89 91  0     1  0  0  0  0  0999 V2000
    5.4641    5.8450    0.0000 S   0  0  0  0  0  0  0  0  0  0  0  0
    4.5981    3.3450    0.0000 O   0  0  0  0  0  0  0  0  0  0  0  0
    5.4641   -0.1550    0.0000 O   0  0  0  0  0  0  0  0  0  0  0  0
    8.9282   -1.1550    0.0000 O   0  0  0  0  0  0  0  0  0  0  0  0
    7.1962    5.8450    0.0000 O   0  0  0  0  0  0  0  0  0  0  0  0
    8.0622    4.3450    0.0000 O   0  0  0  0  0  0  0  0  0  0  0  0
    6.3301    1.3450    0.0000 N   0  0  0  0  0  0  0  0  0  0  0  0
    6.3301    3.3450    0.0000 N   0  0  0  0  0  0  0  0  0  0  0  0
    7.1962   -1.1550    0.0000 N   0  0  0  0  0  0  0  0  0  0  0  0
    7.1962   -3.1550    0.0000 N   0  0  0  0  0  0  0  0  0  0  0  0
    3.7320    1.8450    0.0000 C   0  0  0  0  0  0  0  0  0  0  0  0
    3.7320    2.8450    0.0000 C   0  0  0  0  0  0  0  0  0  0  0  0
    2.8660    1.3450    0.0000 C   0  0  0  0  0  0  0  0  0  0  0  0
    4.5981    1.3450    0.0000 C   0  0  0  0  0  0  0  0  0  0  0  0
    2.8660    3.3450    0.0000 C   0  0  0  0  0  0  0  0  0  0  0  0
    2.0000    1.8450    0.0000 C   0  0  0  0  0  0  0  0  0  0  0  0
    2.0000    2.8450    0.0000 C   0  0  0  0  0  0  0  0  0  0  0  0
    5.4641    1.8450    0.0000 C   0  0  1  0  0  0  0  0  0  0  0  0
    5.4641    2.8450    0.0000 C   0  0  0  0  0  0  0  0  0  0  0  0
    7.1962   -0.1550    0.0000 C   0  0  2  0  0  0  0  0  0  0  0  0
    6.3301    0.3450    0.0000 C   0  0  0  0  0  0  0  0  0  0  0  0
    8.0622    0.3450    0.0000 C   0  0  2  0  0  0  0  0  0  0  0  0
    8.0622    1.3450    0.0000 C   0  0  0  0  0  0  0  0  0  0  0  0
    8.9282   -0.1550    0.0000 C   0  0  0  0  0  0  0  0  0  0  0  0
    6.3301    4.3450    0.0000 C   0  0  1  0  0  0  0  0  0  0  0  0
    8.0622   -2.6550    0.0000 C   0  0  2  0  0  0  0  0  0  0  0  0
    8.0622   -1.6550    0.0000 C   0  0  0  0  0  0  0  0  0  0  0  0
    8.9282   -3.1550    0.0000 C   0  0  0  0  0  0  0  0  0  0  0  0
    8.9282    1.8450    0.0000 C   0  0  0  0  0  0  0  0  0  0  0  0
    5.4641    4.8450    0.0000 C   0  0  0  0  0  0  0  0  0  0  0  0
    8.9282   -4.1550    0.0000 C   0  0  0  0  0  0  0  0  0  0  0  0
    9.7942   -2.6550    0.0000 C   0  0  0  0  0  0  0  0  0  0  0  0
    7.1962    4.8450    0.0000 C   0  0  0  0  0  0  0  0  0  0  0  0
    9.7942   -4.6550    0.0000 C   0  0  0  0  0  0  0  0  0  0  0  0
    9.7942   -1.6550    0.0000 C   0  0  0  0  0  0  0  0  0  0  0  0
    8.0622   -4.6550    0.0000 C   0  0  0  0  0  0  0  0  0  0  0  0
   10.6603   -3.1550    0.0000 C   0  0  0  0  0  0  0  0  0  0  0  0
    9.7942   -5.6550    0.0000 C   0  0  0  0  0  0  0  0  0  0  0  0
   10.6603   -1.1550    0.0000 C   0  0  0  0  0  0  0  0  0  0  0  0
    8.0622   -5.6550    0.0000 C   0  0  0  0  0  0  0  0  0  0  0  0
   11.5263   -2.6550    0.0000 C   0  0  0  0  0  0  0  0  0  0  0  0
    8.9282   -6.1550    0.0000 C   0  0  0  0  0  0  0  0  0  0  0  0
   11.5263   -1.6550    0.0000 C   0  0  0  0  0  0  0  0  0  0  0  0
    3.7320    1.2250    0.0000 H   0  0  0  0  0  0  0  0  0  0  0  0
    4.3426    2.7373    0.0000 H   0  0  0  0  0  0  0  0  0  0  0  0
    3.9441    3.4276    0.0000 H   0  0  0  0  0  0  0  0  0  0  0  0
    2.4675    0.8701    0.0000 H   0  0  0  0  0  0  0  0  0  0  0  0
    3.2646    0.8701    0.0000 H   0  0  0  0  0  0  0  0  0  0  0  0
    4.1996    0.8701    0.0000 H   0  0  0  0  0  0  0  0  0  0  0  0
    4.9966    0.8701    0.0000 H   0  0  0  0  0  0  0  0  0  0  0  0
    3.2646    3.8200    0.0000 H   0  0  0  0  0  0  0  0  0  0  0  0
    2.4675    3.8200    0.0000 H   0  0  0  0  0  0  0  0  0  0  0  0
    1.3894    1.9527    0.0000 H   0  0  0  0  0  0  0  0  0  0  0  0
    1.7880    1.2624    0.0000 H   0  0  0  0  0  0  0  0  0  0  0  0
    1.7880    3.4276    0.0000 H   0  0  0  0  0  0  0  0  0  0  0  0
    1.3894    2.7373    0.0000 H   0  0  0  0  0  0  0  0  0  0  0  0
    5.4641    1.2250    0.0000 H   0  0  0  0  0  0  0  0  0  0  0  0
    6.8671    1.6550    0.0000 H   0  0  0  0  0  0  0  0  0  0  0  0
    6.6592   -0.4650    0.0000 H   0  0  0  0  0  0  0  0  0  0  0  0
    8.0622   -0.2750    0.0000 H   0  0  0  0  0  0  0  0  0  0  0  0
    6.8671    3.0350    0.0000 H   0  0  0  0  0  0  0  0  0  0  0  0
    7.8501    1.9276    0.0000 H   0  0  0  0  0  0  0  0  0  0  0  0
    7.4516    1.2373    0.0000 H   0  0  0  0  0  0  0  0  0  0  0  0
    6.6592   -1.4650    0.0000 H   0  0  0  0  0  0  0  0  0  0  0  0
    8.6182   -0.6919    0.0000 H   0  0  0  0  0  0  0  0  0  0  0  0
    9.4651   -0.4650    0.0000 H   0  0  0  0  0  0  0  0  0  0  0  0
    9.2382    0.3819    0.0000 H   0  0  0  0  0  0  0  0  0  0  0  0
    6.8671    4.0350    0.0000 H   0  0  0  0  0  0  0  0  0  0  0  0
    8.0622   -3.2750    0.0000 H   0  0  0  0  0  0  0  0  0  0  0  0
    8.9282   -2.5350    0.0000 H   0  0  0  0  0  0  0  0  0  0  0  0
    9.2382    1.3081    0.0000 H   0  0  0  0  0  0  0  0  0  0  0  0
    9.4651    2.1550    0.0000 H   0  0  0  0  0  0  0  0  0  0  0  0
    8.6182    2.3819    0.0000 H   0  0  0  0  0  0  0  0  0  0  0  0
    4.8535    4.9527    0.0000 H   0  0  0  0  0  0  0  0  0  0  0  0
    5.2520    4.2624    0.0000 H   0  0  0  0  0  0  0  0  0  0  0  0
    6.6592   -2.8450    0.0000 H   0  0  0  0  0  0  0  0  0  0  0  0
    7.1962   -3.7750    0.0000 H   0  0  0  0  0  0  0  0  0  0  0  0
   10.3312   -4.3450    0.0000 H   0  0  0  0  0  0  0  0  0  0  0  0
    9.2573   -1.3450    0.0000 H   0  0  0  0  0  0  0  0  0  0  0  0
    7.5252   -4.3450    0.0000 H   0  0  0  0  0  0  0  0  0  0  0  0
   10.6603   -3.7750    0.0000 H   0  0  0  0  0  0  0  0  0  0  0  0
    4.9272    6.1550    0.0000 H   0  0  0  0  0  0  0  0  0  0  0  0
   10.3312   -5.9650    0.0000 H   0  0  0  0  0  0  0  0  0  0  0  0
   10.6603   -0.5350    0.0000 H   0  0  0  0  0  0  0  0  0  0  0  0
    7.5252   -5.9650    0.0000 H   0  0  0  0  0  0  0  0  0  0  0  0
   12.0632   -2.9650    0.0000 H   0  0  0  0  0  0  0  0  0  0  0  0
    7.7331    6.1550    0.0000 H   0  0  0  0  0  0  0  0  0  0  0  0
    8.9282   -6.7750    0.0000 H   0  0  0  0  0  0  0  0  0  0  0  0
   12.0632   -1.3450    0.0000 H   0  0  0  0  0  0  0  0  0  0  0  0
  1 30  1  0  0  0  0
  1 82  1  0  0  0  0
  2 19  2  0  0  0  0
  3 21  2  0  0  0  0
  4 27  2  0  0  0  0
  5 33  1  0  0  0  0
  5 87  1  0  0  0  0
  6 33  2  0  0  0  0
 18  7  1  1  0  0  0
  7 21  1  0  0  0  0
  7 58  1  0  0  0  0
  8 19  1  0  0  0  0
 25  8  1  1  0  0  0
  8 61  1  0  0  0  0
 20  9  1  6  0  0  0
  9 27  1  0  0  0  0
  9 64  1  0  0  0  0
 26 10  1  6  0  0  0
 10 76  1  0  0  0  0
 10 77  1  0  0  0  0
 11 12  1  0  0  0  0
 11 13  1  0  0  0  0
 11 14  1  0  0  0  0
 11 44  1  0  0  0  0
 12 15  1  0  0  0  0
 12 45  1  0  0  0  0
 12 46  1  0  0  0  0
 13 16  1  0  0  0  0
 13 47  1  0  0  0  0
 13 48  1  0  0  0  0
 14 18  1  0  0  0  0
 14 49  1  0  0  0  0
 14 50  1  0  0  0  0
 15 17  1  0  0  0  0
 15 51  1  0  0  0  0
 15 52  1  0  0  0  0
 16 17  1  0  0  0  0
 16 53  1  0  0  0  0
 16 54  1  0  0  0  0
 17 55  1  0  0  0  0
 17 56  1  0  0  0  0
 18 19  1  0  0  0  0
 18 57  1  0  0  0  0
 20 21  1  0  0  0  0
 20 22  1  0  0  0  0
 20 59  1  0  0  0  0
 22 23  1  0  0  0  0
 22 24  1  6  0  0  0
 22 60  1  0  0  0  0
 23 29  1  0  0  0  0
 23 62  1  0  0  0  0
 23 63  1  0  0  0  0
 24 65  1  0  0  0  0
 24 66  1  0  0  0  0
 24 67  1  0  0  0  0
 25 30  1  0  0  0  0
 25 33  1  0  0  0  0
 25 68  1  0  0  0  0
 26 27  1  0  0  0  0
 26 28  1  0  0  0  0
 26 69  1  0  0  0  0
 28 31  1  0  0  0  0
 28 32  1  0  0  0  0
 28 70  1  0  0  0  0
 29 71  1  0  0  0  0
 29 72  1  0  0  0  0
 29 73  1  0  0  0  0
 30 74  1  0  0  0  0
 30 75  1  0  0  0  0
 31 34  2  0  0  0  0
 31 36  1  0  0  0  0
 32 35  2  0  0  0  0
 32 37  1  0  0  0  0
 34 38  1  0  0  0  0
 34 78  1  0  0  0  0
 35 39  1  0  0  0  0
 35 79  1  0  0  0  0
 36 40  2  0  0  0  0
 36 80  1  0  0  0  0
 37 41  2  0  0  0  0
 37 81  1  0  0  0  0
 38 42  2  0  0  0  0
 38 83  1  0  0  0  0
 39 43  2  0  0  0  0
 39 84  1  0  0  0  0
 40 42  1  0  0  0  0
 40 85  1  0  0  0  0
 41 43  1  0  0  0  0
 41 86  1  0  0  0  0
 42 88  1  0  0  0  0
 43 89  1  0  0  0  0
M  END
> <PUBCHEM_COMPOUND_CID>
512529
> <PUBCHEM_COMPOUND_CANONICALIZED>
1
> <PUBCHEM_CACTVS_COMPLEXITY>
884
> <PUBCHEM_CACTVS_HBOND_ACCEPTOR>
7
> <PUBCHEM_CACTVS_HBOND_DONOR>
6
> <PUBCHEM_CACTVS_ROTATABLE_BOND>
15
> <PUBCHEM_CACTVS_SUBSKEYS>
AAADcfB/uABAAAAAAAAAAAAAAAAAAAAAAAAwYMAAAAAAAAABQAAAHgQQCAAADSjF2ASyCILAAgSIAiHSGAACAAAgAAAIiIGIAIgKYDKAkTGUYAAglgCYiAcYiMCOgAAAAAAAAAAAAAAAAAAAAAAAAAAAAA==
> <PUBCHEM_IUPAC_OPENEYE_NAME>
(2R)-2-[[(2S)-2-[[(2S,3S)-2-[[(2S)-2-amino-3,3-diphenyl-propanoyl]amino]-3-methyl-pentanoyl]amino]-3-cyclohexyl-propanoyl]amino]-3-sulfanyl-propanoic acid
> <PUBCHEM_IUPAC_CAS_NAME>
(2R)-2-[[(2S)-2-[[(2S,3S)-2-[[(2S)-2-amino-1-oxo-3,3-diphenylpropyl]amino]-3-methyl-1-oxopentyl]amino]-3-cyclohexyl-1-oxopropyl]amino]-3-mercaptopropanoic acid
> <PUBCHEM_IUPAC_NAME_MARKUP>
(2<I>R</I>)-2-[[(2<I>S</I>)-2-[[(2<I>S</I>,3<I>S</I>)-2-[[(2<I>S</I>)-2-amino-3,3-diphenylpropanoyl]amino]-3-methylpentanoyl]amino]-3-cyclohexylpropanoyl]amino]-3-sulfanylpropanoic acid
> <PUBCHEM_IUPAC_NAME>
(2R)-2-[[(2S)-2-[[(2S,3S)-2-[[(2S)-2-amino-3,3-diphenylpropanoyl]amino]-3-methylpentanoyl]amino]-3-cyclohexylpropanoyl]amino]-3-sulfanylpropanoic acid
> <PUBCHEM_IUPAC_SYSTEMATIC_NAME>
(2R)-2-[[(2S)-2-[[(2S,3S)-2-[[(2S)-2-azanyl-3,3-diphenyl-propanoyl]amino]-3-methyl-pentanoyl]amino]-3-cyclohexyl-propanoyl]amino]-3-sulfanyl-propanoic acid
> <PUBCHEM_IUPAC_TRADITIONAL_NAME>
(2R)-2-[[(2S)-2-[[(2S,3S)-2-[[(2S)-2-amino-3,3-diphenyl-propanoyl]amino]-3-methyl-pentanoyl]amino]-3-cyclohexyl-propanoyl]amino]-3-mercapto-propionic acid
> <PUBCHEM_IUPAC_INCHI>
InChI=1S/C33H46N4O5S/c1-3-21(2)29(37-31(39)28(34)27(23-15-9-5-10-16-23)24-17-11-6-12-18-24)32(40)35-25(19-22-13-7-4-8-14-22)30(38)36-26(20-43)33(41)42/h5-6,9-12,15-18,21-22,25-29,43H,3-4,7-8,13-14,19-20,34H2,1-2H3,(H,35,40)(H,36,38)(H,37,39)(H,41,42)/t21-,25-,26-,28-,29-/m0/s1
> <PUBCHEM_IUPAC_INCHIKEY>
GEULAMMMAJGRED-OXCSPVHJSA-N
> <PUBCHEM_XLOGP3_AA>
3.3
> <PUBCHEM_EXACT_MASS>
610.31889175
> <PUBCHEM_MOLECULAR_FORMULA>
C33H46N4O5S
> <PUBCHEM_MOLECULAR_WEIGHT>
610.8
> <PUBCHEM_OPENEYE_CAN_SMILES>
CCC(C)C(C(=O)NC(CC1CCCCC1)C(=O)NC(CS)C(=O)O)NC(=O)C(C(C2=CC=CC=C2)C3=CC=CC=C3)N
> <PUBCHEM_OPENEYE_ISO_SMILES>
CC[C@H](C)[C@@H](C(=O)N[C@@H](CC1CCCCC1)C(=O)N[C@@H](CS)C(=O)O)NC(=O)[C@H](C(C2=CC=CC=C2)C3=CC=CC=C3)N
> <PUBCHEM_CACTVS_TPSA>
152
> <PUBCHEM_MONOISOTOPIC_WEIGHT>
610.31889175
> <PUBCHEM_TOTAL_CHARGE>
0
> <PUBCHEM_HEAVY_ATOM_COUNT>
43
> <PUBCHEM_ATOM_DEF_STEREO_COUNT>
5
> <PUBCHEM_ATOM_UDEF_STEREO_COUNT>
0
> <PUBCHEM_BOND_DEF_STEREO_COUNT>
0
> <PUBCHEM_BOND_UDEF_STEREO_COUNT>
0
> <PUBCHEM_ISOTOPIC_ATOM_COUNT>
0
> <PUBCHEM_COMPONENT_COUNT>
1
> <PUBCHEM_CACTVS_TAUTO_COUNT>
-1
> <PUBCHEM_COORDINATE_TYPE>
1
5
255
> <PUBCHEM_BONDANNOTATIONS>
26  10  6
22  24  6
31  34  8
31  36  8
32  35  8
32  37  8
34  38  8
35  39  8
36  40  8
37  41  8
38  42  8
39  43  8
40  42  8
41  43  8
18  7  5
25  8  5
20  9  6
$$$$
