512618
  -OEChem-10302200282D
 35 37  0     1  0  0  0  0  0999 V2000
    3.3100    0.2577    0.0000 P   0  0  3  0  0  0  0  0  0  0  0  0
    5.9883   -1.0471    0.0000 O   0  0  0  0  0  0  0  0  0  0  0  0
    4.1760    0.7577    0.0000 O   0  0  0  0  0  0  0  0  0  0  0  0
    3.3100   -0.7423    0.0000 O   0  0  0  0  0  0  0  0  0  0  0  0
    6.2989    1.5129    0.0000 O   0  0  0  0  0  0  0  0  0  0  0  0
    2.3100    0.2577    0.0000 O   0  0  0  0  0  0  0  0  0  0  0  0
    2.8100    1.1237    0.0000 O   0  0  0  0  0  0  0  0  0  0  0  0
    7.5719   -1.9744    0.0000 O   0  0  0  0  0  0  0  0  0  0  0  0
    7.5719   -0.2423    0.0000 N   0  0  0  0  0  0  0  0  0  0  0  0
    9.0719   -1.1084    0.0000 N   0  0  0  0  0  0  0  0  0  0  0  0
   10.5719   -0.2423    0.0000 N   0  0  0  0  0  0  0  0  0  0  0  0
    5.0420    0.2577    0.0000 C   0  0  3  0  0  0  0  0  0  0  0  0
    5.0420   -0.7423    0.0000 C   0  0  3  0  0  0  0  0  0  0  0  0
    5.9883    0.5624    0.0000 C   0  0  2  0  0  0  0  0  0  0  0  0
    6.5719   -0.2423    0.0000 C   0  0  1  0  0  0  0  0  0  0  0  0
    4.1760   -1.2423    0.0000 C   0  0  0  0  0  0  0  0  0  0  0  0
    8.0719    0.6237    0.0000 C   0  0  0  0  0  0  0  0  0  0  0  0
    8.0719   -1.1084    0.0000 C   0  0  0  0  0  0  0  0  0  0  0  0
    9.0719    0.6237    0.0000 C   0  0  0  0  0  0  0  0  0  0  0  0
    9.5719   -0.2423    0.0000 C   0  0  0  0  0  0  0  0  0  0  0  0
    9.5719    1.4897    0.0000 C   0  0  0  0  0  0  0  0  0  0  0  0
    5.1320    1.1029    0.0000 H   0  0  0  0  0  0  0  0  0  0  0  0
    5.1320   -1.5876    0.0000 H   0  0  0  0  0  0  0  0  0  0  0  0
    6.6008    0.6586    0.0000 H   0  0  0  0  0  0  0  0  0  0  0  0
    6.8536   -0.7946    0.0000 H   0  0  0  0  0  0  0  0  0  0  0  0
    3.7775   -1.7173    0.0000 H   0  0  0  0  0  0  0  0  0  0  0  0
    4.5746   -1.7173    0.0000 H   0  0  0  0  0  0  0  0  0  0  0  0
    5.8849    1.9744    0.0000 H   0  0  0  0  0  0  0  0  0  0  0  0
    7.7619    1.1606    0.0000 H   0  0  0  0  0  0  0  0  0  0  0  0
    2.0000   -0.2793    0.0000 H   0  0  0  0  0  0  0  0  0  0  0  0
   10.1088    1.1797    0.0000 H   0  0  0  0  0  0  0  0  0  0  0  0
    9.8819    2.0266    0.0000 H   0  0  0  0  0  0  0  0  0  0  0  0
    9.0349    1.7997    0.0000 H   0  0  0  0  0  0  0  0  0  0  0  0
   10.8819   -0.7793    0.0000 H   0  0  0  0  0  0  0  0  0  0  0  0
   10.8819    0.2946    0.0000 H   0  0  0  0  0  0  0  0  0  0  0  0
  1  3  1  0  0  0  0
  1  4  1  0  0  0  0
  1  6  1  0  0  0  0
  1  7  2  0  0  0  0
  2 13  1  0  0  0  0
  2 15  1  0  0  0  0
  3 12  1  0  0  0  0
  4 16  1  0  0  0  0
 14  5  1  1  0  0  0
  5 28  1  0  0  0  0
  6 30  1  0  0  0  0
  8 18  2  0  0  0  0
 15  9  1  6  0  0  0
  9 17  1  0  0  0  0
  9 18  1  0  0  0  0
 10 18  1  0  0  0  0
 10 20  2  0  0  0  0
 11 20  1  0  0  0  0
 11 34  1  0  0  0  0
 11 35  1  0  0  0  0
 12 13  1  0  0  0  0
 12 14  1  0  0  0  0
 12 22  1  0  0  0  0
 13 16  1  0  0  0  0
 13 23  1  0  0  0  0
 14 15  1  0  0  0  0
 14 24  1  0  0  0  0
 15 25  1  0  0  0  0
 16 26  1  0  0  0  0
 16 27  1  0  0  0  0
 17 19  2  0  0  0  0
 17 29  1  0  0  0  0
 19 20  1  0  0  0  0
 19 21  1  0  0  0  0
 21 31  1  0  0  0  0
 21 32  1  0  0  0  0
 21 33  1  0  0  0  0
M  END
> <PUBCHEM_COMPOUND_CID>
512618
> <PUBCHEM_COMPOUND_CANONICALIZED>
1
> <PUBCHEM_CACTVS_COMPLEXITY>
591
> <PUBCHEM_CACTVS_HBOND_ACCEPTOR>
7
> <PUBCHEM_CACTVS_HBOND_DONOR>
3
> <PUBCHEM_CACTVS_ROTATABLE_BOND>
1
> <PUBCHEM_CACTVS_SUBSKEYS>
AAADccBzOAIAAAAAAAAAAAAAAAAAASAAAAAkQAAAAAAAAEgAAAAAHgAQCCAADBThgAYDAANABxCoQgJmdICAAAEAAAAAAAAoABCDEAIAgQAOQAAHBgITAADwMAIAAAAAAAAAAAAAAAAAAAAAAAAAAAAAAA==
> <PUBCHEM_IUPAC_OPENEYE_NAME>
4-amino-1-[(6R,7R)-2,7-dihydroxy-2-oxo-4a,6,7,7a-tetrahydro-4H-furo[3,2-d][1,3,2]dioxaphosphinin-6-yl]-5-methyl-pyrimidin-2-one
> <PUBCHEM_IUPAC_CAS_NAME>
4-amino-1-[(6R,7R)-2,7-dihydroxy-2-oxo-4a,6,7,7a-tetrahydro-4H-furo[3,2-d][1,3,2]dioxaphosphorin-6-yl]-5-methyl-2-pyrimidinone
> <PUBCHEM_IUPAC_NAME_MARKUP>
4-amino-1-[(6<I>R</I>,7<I>R</I>)-2,7-dihydroxy-2-oxo-4<I>a</I>,6,7,7<I>a</I>-tetrahydro-4<I>H</I>-furo[3,2-d][1,3,2]dioxaphosphinin-6-yl]-5-methylpyrimidin-2-one
> <PUBCHEM_IUPAC_NAME>
4-amino-1-[(6R,7R)-2,7-dihydroxy-2-oxo-4a,6,7,7a-tetrahydro-4H-furo[3,2-d][1,3,2]dioxaphosphinin-6-yl]-5-methylpyrimidin-2-one
> <PUBCHEM_IUPAC_SYSTEMATIC_NAME>
4-azanyl-1-[(6R,7R)-2,7-bis(oxidanyl)-2-oxidanylidene-4a,6,7,7a-tetrahydro-4H-furo[3,2-d][1,3,2]dioxaphosphinin-6-yl]-5-methyl-pyrimidin-2-one
> <PUBCHEM_IUPAC_TRADITIONAL_NAME>
4-amino-1-[(6R,7R)-2,7-dihydroxy-2-keto-4a,6,7,7a-tetrahydro-4H-furo[3,2-d][1,3,2]dioxaphosphorin-6-yl]-5-methyl-pyrimidin-2-one
> <PUBCHEM_IUPAC_INCHI>
InChI=1S/C10H14N3O7P/c1-4-2-13(10(15)12-8(4)11)9-6(14)7-5(19-9)3-18-21(16,17)20-7/h2,5-7,9,14H,3H2,1H3,(H,16,17)(H2,11,12,15)/t5?,6-,7?,9-/m1/s1
> <PUBCHEM_IUPAC_INCHIKEY>
GLSXTZUEAMDDQV-MFWQPVBSSA-N
> <PUBCHEM_XLOGP3_AA>
-2.9
> <PUBCHEM_EXACT_MASS>
319.05693679
> <PUBCHEM_MOLECULAR_FORMULA>
C10H14N3O7P
> <PUBCHEM_MOLECULAR_WEIGHT>
319.21
> <PUBCHEM_OPENEYE_CAN_SMILES>
CC1=CN(C(=O)N=C1N)C2C(C3C(O2)COP(=O)(O3)O)O
> <PUBCHEM_OPENEYE_ISO_SMILES>
CC1=CN(C(=O)N=C1N)[C@H]2[C@@H](C3C(O2)COP(=O)(O3)O)O
> <PUBCHEM_CACTVS_TPSA>
144
> <PUBCHEM_MONOISOTOPIC_WEIGHT>
319.05693679
> <PUBCHEM_TOTAL_CHARGE>
0
> <PUBCHEM_HEAVY_ATOM_COUNT>
21
> <PUBCHEM_ATOM_DEF_STEREO_COUNT>
2
> <PUBCHEM_ATOM_UDEF_STEREO_COUNT>
2
> <PUBCHEM_BOND_DEF_STEREO_COUNT>
0
> <PUBCHEM_BOND_UDEF_STEREO_COUNT>
0
> <PUBCHEM_ISOTOPIC_ATOM_COUNT>
0
> <PUBCHEM_COMPONENT_COUNT>
1
> <PUBCHEM_CACTVS_TAUTO_COUNT>
3
> <PUBCHEM_COORDINATE_TYPE>
1
5
255
> <PUBCHEM_BONDANNOTATIONS>
10  18  8
10  20  8
12  22  3
13  23  3
17  19  8
19  20  8
14  5  5
15  9  6
9  17  8
9  18  8
$$$$
