512691
  -OEChem-10302200282D
 65 67  0     1  0  0  0  0  0999 V2000
    5.4924   -0.3013    0.0000 S   0  0  0  0  0  0  0  0  0  0  0  0
    4.5402    2.2003    0.0000 O   0  0  0  0  0  0  0  0  0  0  0  0
    6.8862    3.2921    0.0000 O   0  0  0  0  0  0  0  0  0  0  0  0
    6.8899    1.1166    0.0000 O   0  0  0  0  0  0  0  0  0  0  0  0
    4.2629   -4.1076    0.0000 O   0  0  0  0  0  0  0  0  0  0  0  0
    3.8999   -2.4141    0.0000 O   0  0  0  0  0  0  0  0  0  0  0  0
    4.9334   -4.8496    0.0000 O   0  0  0  0  0  0  0  0  0  0  0  0
    6.2742   -6.3336    0.0000 O   0  0  0  0  0  0  0  0  0  0  0  0
    4.8159    3.9608    0.0000 N   0  0  0  0  0  0  0  0  0  0  0  0
    3.0037    3.7656    0.0000 N   0  0  0  0  0  0  0  0  0  0  0  0
    2.1376    5.2656    0.0000 N   0  0  0  0  0  0  0  0  0  0  0  0
    6.2185   -3.6884    0.0000 N   0  0  0  0  0  0  0  0  0  0  0  0
    3.0037    6.7656    0.0000 N   0  0  0  0  0  0  0  0  0  0  0  0
    6.0782    2.7030    0.0000 C   0  0  2  0  0  0  0  0  0  0  0  0
    6.0799    1.7030    0.0000 C   0  0  1  0  0  0  0  0  0  0  0  0
    5.1266    3.0103    0.0000 C   0  0  1  0  0  0  0  0  0  0  0  0
    5.1294    1.3923    0.0000 C   0  0  1  0  0  0  0  0  0  0  0  0
    4.8220    0.4407    0.0000 C   0  0  0  0  0  0  0  0  0  0  0  0
    3.8697    4.2656    0.0000 C   0  0  0  0  0  0  0  0  0  0  0  0
    5.3995    4.7656    0.0000 C   0  0  0  0  0  0  0  0  0  0  0  0
    3.8697    5.2656    0.0000 C   0  0  0  0  0  0  0  0  0  0  0  0
    4.8159    5.5703    0.0000 C   0  0  0  0  0  0  0  0  0  0  0  0
    5.1851   -1.2529    0.0000 C   0  0  0  0  0  0  0  0  0  0  0  0
    5.8555   -1.9948    0.0000 C   0  0  0  0  0  0  0  0  0  0  0  0
    3.0037    5.7656    0.0000 C   0  0  0  0  0  0  0  0  0  0  0  0
    5.5481   -2.9464    0.0000 C   0  0  3  0  0  0  0  0  0  0  0  0
    2.1376    4.2656    0.0000 C   0  0  0  0  0  0  0  0  0  0  0  0
    4.5703   -3.1560    0.0000 C   0  0  0  0  0  0  0  0  0  0  0  0
    5.9112   -4.6400    0.0000 C   0  0  0  0  0  0  0  0  0  0  0  0
    3.2852   -4.3172    0.0000 C   0  0  0  0  0  0  0  0  0  0  0  0
    6.5816   -5.3820    0.0000 C   0  0  0  0  0  0  0  0  0  0  0  0
    2.9778   -5.2688    0.0000 C   0  0  0  0  0  0  0  0  0  0  0  0
    2.0000   -5.4784    0.0000 C   0  0  0  0  0  0  0  0  0  0  0  0
    6.9446   -7.0756    0.0000 C   0  0  0  0  0  0  0  0  0  0  0  0
    5.9801    3.3152    0.0000 H   0  0  0  0  0  0  0  0  0  0  0  0
    6.6318    1.9854    0.0000 H   0  0  0  0  0  0  0  0  0  0  0  0
    4.5140    3.1063    0.0000 H   0  0  0  0  0  0  0  0  0  0  0  0
    4.5172    1.2942    0.0000 H   0  0  0  0  0  0  0  0  0  0  0  0
    4.2741    0.7308    0.0000 H   0  0  0  0  0  0  0  0  0  0  0  0
    4.4412   -0.0485    0.0000 H   0  0  0  0  0  0  0  0  0  0  0  0
    7.4530    3.0410    0.0000 H   0  0  0  0  0  0  0  0  0  0  0  0
    7.4559    1.3697    0.0000 H   0  0  0  0  0  0  0  0  0  0  0  0
    6.0195    4.7656    0.0000 H   0  0  0  0  0  0  0  0  0  0  0  0
    5.0085    6.1596    0.0000 H   0  0  0  0  0  0  0  0  0  0  0  0
    4.6371   -0.9627    0.0000 H   0  0  0  0  0  0  0  0  0  0  0  0
    4.8042   -1.7421    0.0000 H   0  0  0  0  0  0  0  0  0  0  0  0
    6.4034   -2.2850    0.0000 H   0  0  0  0  0  0  0  0  0  0  0  0
    6.2363   -1.5056    0.0000 H   0  0  0  0  0  0  0  0  0  0  0  0
    5.3575   -3.5364    0.0000 H   0  0  0  0  0  0  0  0  0  0  0  0
    1.6007    3.9556    0.0000 H   0  0  0  0  0  0  0  0  0  0  0  0
    6.8247   -3.5585    0.0000 H   0  0  0  0  0  0  0  0  0  0  0  0
    2.4667    7.0756    0.0000 H   0  0  0  0  0  0  0  0  0  0  0  0
    3.5406    7.0756    0.0000 H   0  0  0  0  0  0  0  0  0  0  0  0
    3.2624   -3.6977    0.0000 H   0  0  0  0  0  0  0  0  0  0  0  0
    2.6710   -4.2320    0.0000 H   0  0  0  0  0  0  0  0  0  0  0  0
    7.1295   -5.6721    0.0000 H   0  0  0  0  0  0  0  0  0  0  0  0
    6.9624   -4.8928    0.0000 H   0  0  0  0  0  0  0  0  0  0  0  0
    3.0005   -5.8884    0.0000 H   0  0  0  0  0  0  0  0  0  0  0  0
    3.5919   -5.3541    0.0000 H   0  0  0  0  0  0  0  0  0  0  0  0
    1.8700   -4.8722    0.0000 H   0  0  0  0  0  0  0  0  0  0  0  0
    1.3938   -5.6084    0.0000 H   0  0  0  0  0  0  0  0  0  0  0  0
    2.1300   -6.0847    0.0000 H   0  0  0  0  0  0  0  0  0  0  0  0
    6.4846   -7.4912    0.0000 H   0  0  0  0  0  0  0  0  0  0  0  0
    7.3603   -7.5356    0.0000 H   0  0  0  0  0  0  0  0  0  0  0  0
    7.4046   -6.6599    0.0000 H   0  0  0  0  0  0  0  0  0  0  0  0
  1 18  1  0  0  0  0
  1 23  1  0  0  0  0
  2 16  1  0  0  0  0
  2 17  1  0  0  0  0
 14  3  1  6  0  0  0
  3 41  1  0  0  0  0
 15  4  1  6  0  0  0
  4 42  1  0  0  0  0
  5 28  1  0  0  0  0
  5 30  1  0  0  0  0
  6 28  2  0  0  0  0
  7 29  2  0  0  0  0
  8 31  1  0  0  0  0
  8 34  1  0  0  0  0
 16  9  1  1  0  0  0
  9 19  1  0  0  0  0
  9 20  1  0  0  0  0
 10 19  2  0  0  0  0
 10 27  1  0  0  0  0
 11 25  1  0  0  0  0
 11 27  2  0  0  0  0
 12 26  1  0  0  0  0
 12 29  1  0  0  0  0
 12 51  1  0  0  0  0
 13 25  1  0  0  0  0
 13 52  1  0  0  0  0
 13 53  1  0  0  0  0
 14 15  1  0  0  0  0
 14 16  1  0  0  0  0
 14 35  1  0  0  0  0
 15 17  1  0  0  0  0
 15 36  1  0  0  0  0
 16 37  1  0  0  0  0
 17 18  1  1  0  0  0
 17 38  1  0  0  0  0
 18 39  1  0  0  0  0
 18 40  1  0  0  0  0
 19 21  1  0  0  0  0
 20 22  2  0  0  0  0
 20 43  1  0  0  0  0
 21 22  1  0  0  0  0
 21 25  2  0  0  0  0
 22 44  1  0  0  0  0
 23 24  1  0  0  0  0
 23 45  1  0  0  0  0
 23 46  1  0  0  0  0
 24 26  1  0  0  0  0
 24 47  1  0  0  0  0
 24 48  1  0  0  0  0
 26 28  1  0  0  0  0
 26 49  1  0  0  0  0
 27 50  1  0  0  0  0
 29 31  1  0  0  0  0
 30 32  1  0  0  0  0
 30 54  1  0  0  0  0
 30 55  1  0  0  0  0
 31 56  1  0  0  0  0
 31 57  1  0  0  0  0
 32 33  1  0  0  0  0
 32 58  1  0  0  0  0
 32 59  1  0  0  0  0
 33 60  1  0  0  0  0
 33 61  1  0  0  0  0
 33 62  1  0  0  0  0
 34 63  1  0  0  0  0
 34 64  1  0  0  0  0
 34 65  1  0  0  0  0
M  END
> <PUBCHEM_COMPOUND_CID>
512691
> <PUBCHEM_COMPOUND_CANONICALIZED>
1
> <PUBCHEM_CACTVS_COMPLEXITY>
677
> <PUBCHEM_CACTVS_HBOND_ACCEPTOR>
11
> <PUBCHEM_CACTVS_HBOND_DONOR>
4
> <PUBCHEM_CACTVS_ROTATABLE_BOND>
13
> <PUBCHEM_CACTVS_SUBSKEYS>
AAADceB7uABAAAAAAAAAAAAAAAAAAWJAAAAsAAAAAAAAAFgB+AAAHgQQCAAADDzl2wa/uN/MFgioAjP3fAKCgCkxArAJ2KH4ZJiLONJgyOUPRAhPFgLzQCCwAAAIAAAAAAAAAAAAAAAAAAAAAAAAAAAAAA==
> <PUBCHEM_IUPAC_OPENEYE_NAME>
propyl 4-[[(2S,3S,4R,5R)-5-(4-aminopyrrolo[2,3-d]pyrimidin-7-yl)-3,4-dihydroxy-tetrahydrofuran-2-yl]methylsulfanyl]-2-[(2-methoxyacetyl)amino]butanoate
> <PUBCHEM_IUPAC_CAS_NAME>
4-[[(2S,3S,4R,5R)-5-(4-amino-7-pyrrolo[2,3-d]pyrimidinyl)-3,4-dihydroxy-2-oxolanyl]methylthio]-2-[(2-methoxy-1-oxoethyl)amino]butanoic acid propyl ester
> <PUBCHEM_IUPAC_NAME_MARKUP>
propyl 4-[[(2<I>S</I>,3<I>S</I>,4<I>R</I>,5<I>R</I>)-5-(4-aminopyrrolo[2,3-d]pyrimidin-7-yl)-3,4-dihydroxyoxolan-2-yl]methylsulfanyl]-2-[(2-methoxyacetyl)amino]butanoate
> <PUBCHEM_IUPAC_NAME>
propyl 4-[[(2S,3S,4R,5R)-5-(4-aminopyrrolo[2,3-d]pyrimidin-7-yl)-3,4-dihydroxyoxolan-2-yl]methylsulfanyl]-2-[(2-methoxyacetyl)amino]butanoate
> <PUBCHEM_IUPAC_SYSTEMATIC_NAME>
propyl 4-[[(2S,3S,4R,5R)-5-(4-azanylpyrrolo[2,3-d]pyrimidin-7-yl)-3,4-bis(oxidanyl)oxolan-2-yl]methylsulfanyl]-2-(2-methoxyethanoylamino)butanoate
> <PUBCHEM_IUPAC_TRADITIONAL_NAME>
4-[[(2S,3S,4R,5R)-5-(4-aminopyrrolo[2,3-d]pyrimidin-7-yl)-3,4-dihydroxy-tetrahydrofuran-2-yl]methylthio]-2-[(2-methoxyacetyl)amino]butyric acid propyl ester
> <PUBCHEM_IUPAC_INCHI>
InChI=1S/C21H31N5O7S/c1-3-7-32-21(30)13(25-15(27)9-31-2)5-8-34-10-14-16(28)17(29)20(33-14)26-6-4-12-18(22)23-11-24-19(12)26/h4,6,11,13-14,16-17,20,28-29H,3,5,7-10H2,1-2H3,(H,25,27)(H2,22,23,24)/t13?,14-,16-,17-,20-/m1/s1
> <PUBCHEM_IUPAC_INCHIKEY>
HVSOOMIMKVNMGD-UEXBNONGSA-N
> <PUBCHEM_XLOGP3_AA>
-0.2
> <PUBCHEM_EXACT_MASS>
497.19441952
> <PUBCHEM_MOLECULAR_FORMULA>
C21H31N5O7S
> <PUBCHEM_MOLECULAR_WEIGHT>
497.6
> <PUBCHEM_OPENEYE_CAN_SMILES>
CCCOC(=O)C(CCSCC1C(C(C(O1)N2C=CC3=C(N=CN=C32)N)O)O)NC(=O)COC
> <PUBCHEM_OPENEYE_ISO_SMILES>
CCCOC(=O)C(CCSC[C@@H]1[C@H]([C@H]([C@@H](O1)N2C=CC3=C(N=CN=C32)N)O)O)NC(=O)COC
> <PUBCHEM_CACTVS_TPSA>
196
> <PUBCHEM_MONOISOTOPIC_WEIGHT>
497.19441952
> <PUBCHEM_TOTAL_CHARGE>
0
> <PUBCHEM_HEAVY_ATOM_COUNT>
34
> <PUBCHEM_ATOM_DEF_STEREO_COUNT>
4
> <PUBCHEM_ATOM_UDEF_STEREO_COUNT>
1
> <PUBCHEM_BOND_DEF_STEREO_COUNT>
0
> <PUBCHEM_BOND_UDEF_STEREO_COUNT>
0
> <PUBCHEM_ISOTOPIC_ATOM_COUNT>
0
> <PUBCHEM_COMPONENT_COUNT>
1
> <PUBCHEM_CACTVS_TAUTO_COUNT>
-1
> <PUBCHEM_COORDINATE_TYPE>
1
5
255
> <PUBCHEM_BONDANNOTATIONS>
10  19  8
10  27  8
11  25  8
11  27  8
17  18  5
19  21  8
20  22  8
21  22  8
21  25  8
26  24  3
14  3  6
15  4  6
16  9  5
9  19  8
9  20  8
$$$$
