512601
  -OEChem-10302200282D
 30 31  0     1  0  0  0  0  0999 V2000
    7.9108   -3.3725    0.0000 I   0  0  0  0  0  0  0  0  0  0  0  0
    2.7147   -0.3725    0.0000 F   0  0  0  0  0  0  0  0  0  0  0  0
    4.4467   -3.3725    0.0000 F   0  0  0  0  0  0  0  0  0  0  0  0
    3.6377    1.2153    0.0000 O   0  0  0  0  0  0  0  0  0  0  0  0
    5.5345    2.9754    0.0000 O   0  0  0  0  0  0  0  0  0  0  0  0
    2.3644    2.8709    0.0000 O   0  0  0  0  0  0  0  0  0  0  0  0
    4.9467    2.1664    0.0000 C   0  0  1  0  0  0  0  0  0  0  0  0
    5.2558    1.2153    0.0000 C   0  0  0  0  0  0  0  0  0  0  0  0
    4.4467    0.6275    0.0000 C   0  0  2  0  0  0  0  0  0  0  0  0
    3.9467    2.1664    0.0000 C   0  0  1  0  0  0  0  0  0  0  0  0
    4.4467   -0.3725    0.0000 C   0  0  0  0  0  0  0  0  0  0  0  0
    3.3590    2.9754    0.0000 C   0  0  0  0  0  0  0  0  0  0  0  0
    5.3128   -0.8725    0.0000 C   0  0  0  0  0  0  0  0  0  0  0  0
    3.5807   -0.8725    0.0000 C   0  0  0  0  0  0  0  0  0  0  0  0
    5.3128   -1.8725    0.0000 C   0  0  0  0  0  0  0  0  0  0  0  0
    3.5807   -1.8725    0.0000 C   0  0  0  0  0  0  0  0  0  0  0  0
    4.4467   -2.3725    0.0000 C   0  0  0  0  0  0  0  0  0  0  0  0
    6.1788   -2.3725    0.0000 C   0  0  0  0  0  0  0  0  0  0  0  0
    7.0448   -2.8725    0.0000 C   0  0  0  0  0  0  0  0  0  0  0  0
    4.6653    2.7188    0.0000 H   0  0  0  0  0  0  0  0  0  0  0  0
    3.8943    0.3461    0.0000 H   0  0  0  0  0  0  0  0  0  0  0  0
    5.5658    0.6784    0.0000 H   0  0  0  0  0  0  0  0  0  0  0  0
    5.8222    1.4675    0.0000 H   0  0  0  0  0  0  0  0  0  0  0  0
    3.3344    2.0694    0.0000 H   0  0  0  0  0  0  0  0  0  0  0  0
    3.9162    3.2472    0.0000 H   0  0  0  0  0  0  0  0  0  0  0  0
    3.1880    3.5714    0.0000 H   0  0  0  0  0  0  0  0  0  0  0  0
    6.1511    2.9106    0.0000 H   0  0  0  0  0  0  0  0  0  0  0  0
    5.8497   -0.5625    0.0000 H   0  0  0  0  0  0  0  0  0  0  0  0
    3.0438   -2.1825    0.0000 H   0  0  0  0  0  0  0  0  0  0  0  0
    2.0000    3.3725    0.0000 H   0  0  0  0  0  0  0  0  0  0  0  0
  1 19  1  0  0  0  0
  2 14  1  0  0  0  0
  3 17  1  0  0  0  0
  4  9  1  0  0  0  0
  4 10  1  0  0  0  0
  7  5  1  1  0  0  0
  5 27  1  0  0  0  0
  6 12  1  0  0  0  0
  6 30  1  0  0  0  0
  7  8  1  0  0  0  0
  7 10  1  0  0  0  0
  7 20  1  0  0  0  0
  8  9  1  0  0  0  0
  8 22  1  0  0  0  0
  8 23  1  0  0  0  0
  9 11  1  6  0  0  0
  9 21  1  0  0  0  0
 10 12  1  6  0  0  0
 10 24  1  0  0  0  0
 11 13  1  0  0  0  0
 11 14  2  0  0  0  0
 12 25  1  0  0  0  0
 12 26  1  0  0  0  0
 13 15  2  0  0  0  0
 13 28  1  0  0  0  0
 14 16  1  0  0  0  0
 15 17  1  0  0  0  0
 15 18  1  0  0  0  0
 16 17  2  0  0  0  0
 16 29  1  0  0  0  0
 18 19  3  0  0  0  0
M  END
> <PUBCHEM_COMPOUND_CID>
512601
> <PUBCHEM_COMPOUND_CANONICALIZED>
1
> <PUBCHEM_CACTVS_COMPLEXITY>
381
> <PUBCHEM_CACTVS_HBOND_ACCEPTOR>
5
> <PUBCHEM_CACTVS_HBOND_DONOR>
2
> <PUBCHEM_CACTVS_ROTATABLE_BOND>
3
> <PUBCHEM_CACTVS_SUBSKEYS>
AAADccBwMYAAAgAAAAAAAAAAAAAAASAAAAAwAAAAAAAAAAABAAAAGwAgCAAADBSimAowAIAABgDAEiBCAAgCAAAgAAAAiAAACIgJNiKAMRiCcAAlwAELqAeA4PQOAAACAAAAAAAAAAQAAAAAAAAAAAAAAA==
> <PUBCHEM_IUPAC_OPENEYE_NAME>
(2R,3S,5R)-5-[2,4-difluoro-5-(2-iodoethynyl)phenyl]-2-(hydroxymethyl)tetrahydrofuran-3-ol
> <PUBCHEM_IUPAC_CAS_NAME>
(2R,3S,5R)-5-[2,4-difluoro-5-(2-iodoethynyl)phenyl]-2-(hydroxymethyl)-3-oxolanol
> <PUBCHEM_IUPAC_NAME_MARKUP>
(2<I>R</I>,3<I>S</I>,5<I>R</I>)-5-[2,4-difluoro-5-(2-iodoethynyl)phenyl]-2-(hydroxymethyl)oxolan-3-ol
> <PUBCHEM_IUPAC_NAME>
(2R,3S,5R)-5-[2,4-difluoro-5-(2-iodoethynyl)phenyl]-2-(hydroxymethyl)oxolan-3-ol
> <PUBCHEM_IUPAC_SYSTEMATIC_NAME>
(2R,3S,5R)-5-[2,4-bis(fluoranyl)-5-(2-iodanylethynyl)phenyl]-2-(hydroxymethyl)oxolan-3-ol
> <PUBCHEM_IUPAC_TRADITIONAL_NAME>
(2R,3S,5R)-5-[2,4-difluoro-5-(2-iodoethynyl)phenyl]-2-methylol-tetrahydrofuran-3-ol
> <PUBCHEM_IUPAC_INCHI>
InChI=1S/C13H11F2IO3/c14-9-4-10(15)8(3-7(9)1-2-16)12-5-11(18)13(6-17)19-12/h3-4,11-13,17-18H,5-6H2/t11-,12+,13+/m0/s1
> <PUBCHEM_IUPAC_INCHIKEY>
UWUBHYABHLDFNL-YNEHKIRRSA-N
> <PUBCHEM_XLOGP3_AA>
2.3
> <PUBCHEM_EXACT_MASS>
379.97210
> <PUBCHEM_MOLECULAR_FORMULA>
C13H11F2IO3
> <PUBCHEM_MOLECULAR_WEIGHT>
380.13
> <PUBCHEM_OPENEYE_CAN_SMILES>
C1C(C(OC1C2=C(C=C(C(=C2)C#CI)F)F)CO)O
> <PUBCHEM_OPENEYE_ISO_SMILES>
C1[C@@H]([C@H](O[C@H]1C2=C(C=C(C(=C2)C#CI)F)F)CO)O
> <PUBCHEM_CACTVS_TPSA>
49.7
> <PUBCHEM_MONOISOTOPIC_WEIGHT>
379.97210
> <PUBCHEM_TOTAL_CHARGE>
0
> <PUBCHEM_HEAVY_ATOM_COUNT>
19
> <PUBCHEM_ATOM_DEF_STEREO_COUNT>
3
> <PUBCHEM_ATOM_UDEF_STEREO_COUNT>
0
> <PUBCHEM_BOND_DEF_STEREO_COUNT>
0
> <PUBCHEM_BOND_UDEF_STEREO_COUNT>
0
> <PUBCHEM_ISOTOPIC_ATOM_COUNT>
0
> <PUBCHEM_COMPONENT_COUNT>
1
> <PUBCHEM_CACTVS_TAUTO_COUNT>
-1
> <PUBCHEM_COORDINATE_TYPE>
1
5
255
> <PUBCHEM_BONDANNOTATIONS>
10  12  6
11  13  8
11  14  8
13  15  8
14  16  8
15  17  8
16  17  8
7  5  5
9  11  6
$$$$
