512628
  -OEChem-10302200282D
 44 45  0     1  0  0  0  0  0999 V2000
    8.1342   -3.2767    0.0000 P   0  0  0  0  0  0  0  0  0  0  0  0
    6.2731   -0.8121    0.0000 O   0  0  0  0  0  0  0  0  0  0  0  0
    3.7040   -0.5031    0.0000 O   0  0  0  0  0  0  0  0  0  0  0  0
    4.3763   -2.5722    0.0000 O   0  0  0  0  0  0  0  0  0  0  0  0
    7.5464   -2.4676    0.0000 O   0  0  0  0  0  0  0  0  0  0  0  0
    7.1962    0.7757    0.0000 O   0  0  0  0  0  0  0  0  0  0  0  0
    8.7220   -4.0857    0.0000 O   0  0  0  0  0  0  0  0  0  0  0  0
    8.9432   -2.6889    0.0000 O   0  0  0  0  0  0  0  0  0  0  0  0
    7.3252   -3.8644    0.0000 O   0  0  0  0  0  0  0  0  0  0  0  0
    5.4641    0.7757    0.0000 N   0  0  0  0  0  0  0  0  0  0  0  0
    6.3301    2.2757    0.0000 N   0  0  0  0  0  0  0  0  0  0  0  0
    5.4641    3.7757    0.0000 N   0  0  0  0  0  0  0  0  0  0  0  0
    4.6551   -0.8121    0.0000 C   0  0  2  0  0  0  0  0  0  0  0  0
    4.9641   -1.7632    0.0000 C   0  0  1  0  0  0  0  0  0  0  0  0
    5.4641   -0.2243    0.0000 C   0  0  1  0  0  0  0  0  0  0  0  0
    5.9641   -1.7632    0.0000 C   0  0  1  0  0  0  0  0  0  0  0  0
    6.5519   -2.5722    0.0000 C   0  0  0  0  0  0  0  0  0  0  0  0
    4.5981    1.2757    0.0000 C   0  0  0  0  0  0  0  0  0  0  0  0
    6.3301    1.2757    0.0000 C   0  0  0  0  0  0  0  0  0  0  0  0
    4.5981    2.2757    0.0000 C   0  0  0  0  0  0  0  0  0  0  0  0
    3.7320    2.7757    0.0000 C   0  0  0  0  0  0  0  0  0  0  0  0
    5.4641    2.7757    0.0000 C   0  0  0  0  0  0  0  0  0  0  0  0
    2.8660    2.2757    0.0000 C   0  0  0  0  0  0  0  0  0  0  0  0
    2.0000    2.7757    0.0000 C   0  0  0  0  0  0  0  0  0  0  0  0
    4.2167   -1.2505    0.0000 H   0  0  0  0  0  0  0  0  0  0  0  0
    5.2456   -2.3156    0.0000 H   0  0  0  0  0  0  0  0  0  0  0  0
    6.0165    0.0572    0.0000 H   0  0  0  0  0  0  0  0  0  0  0  0
    6.5765   -1.6662    0.0000 H   0  0  0  0  0  0  0  0  0  0  0  0
    5.9946   -2.8440    0.0000 H   0  0  0  0  0  0  0  0  0  0  0  0
    6.7228   -3.1682    0.0000 H   0  0  0  0  0  0  0  0  0  0  0  0
    3.2433   -0.9179    0.0000 H   0  0  0  0  0  0  0  0  0  0  0  0
    4.6285   -3.1386    0.0000 H   0  0  0  0  0  0  0  0  0  0  0  0
    4.0611    0.9657    0.0000 H   0  0  0  0  0  0  0  0  0  0  0  0
    4.1306    3.2506    0.0000 H   0  0  0  0  0  0  0  0  0  0  0  0
    3.3335    3.2506    0.0000 H   0  0  0  0  0  0  0  0  0  0  0  0
    2.4675    1.8007    0.0000 H   0  0  0  0  0  0  0  0  0  0  0  0
    3.2646    1.8007    0.0000 H   0  0  0  0  0  0  0  0  0  0  0  0
    6.0010    4.0857    0.0000 H   0  0  0  0  0  0  0  0  0  0  0  0
    4.9272    4.0857    0.0000 H   0  0  0  0  0  0  0  0  0  0  0  0
    2.3100    3.3126    0.0000 H   0  0  0  0  0  0  0  0  0  0  0  0
    1.4631    3.0857    0.0000 H   0  0  0  0  0  0  0  0  0  0  0  0
    1.6900    2.2388    0.0000 H   0  0  0  0  0  0  0  0  0  0  0  0
    9.3386   -4.0209    0.0000 H   0  0  0  0  0  0  0  0  0  0  0  0
    8.8784   -2.0723    0.0000 H   0  0  0  0  0  0  0  0  0  0  0  0
  1  5  1  0  0  0  0
  1  7  1  0  0  0  0
  1  8  1  0  0  0  0
  1  9  2  0  0  0  0
  2 15  1  0  0  0  0
  2 16  1  0  0  0  0
 13  3  1  1  0  0  0
  3 31  1  0  0  0  0
 14  4  1  1  0  0  0
  4 32  1  0  0  0  0
  5 17  1  0  0  0  0
  6 19  2  0  0  0  0
  7 43  1  0  0  0  0
  8 44  1  0  0  0  0
 15 10  1  6  0  0  0
 10 18  1  0  0  0  0
 10 19  1  0  0  0  0
 11 19  1  0  0  0  0
 11 22  2  0  0  0  0
 12 22  1  0  0  0  0
 12 38  1  0  0  0  0
 12 39  1  0  0  0  0
 13 14  1  0  0  0  0
 13 15  1  0  0  0  0
 13 25  1  0  0  0  0
 14 16  1  0  0  0  0
 14 26  1  0  0  0  0
 15 27  1  0  0  0  0
 16 17  1  6  0  0  0
 16 28  1  0  0  0  0
 17 29  1  0  0  0  0
 17 30  1  0  0  0  0
 18 20  2  0  0  0  0
 18 33  1  0  0  0  0
 20 21  1  0  0  0  0
 20 22  1  0  0  0  0
 21 23  1  0  0  0  0
 21 34  1  0  0  0  0
 21 35  1  0  0  0  0
 23 24  1  0  0  0  0
 23 36  1  0  0  0  0
 23 37  1  0  0  0  0
 24 40  1  0  0  0  0
 24 41  1  0  0  0  0
 24 42  1  0  0  0  0
M  END
> <PUBCHEM_COMPOUND_CID>
512628
> <PUBCHEM_COMPOUND_CANONICALIZED>
1
> <PUBCHEM_CACTVS_COMPLEXITY>
603
> <PUBCHEM_CACTVS_HBOND_ACCEPTOR>
8
> <PUBCHEM_CACTVS_HBOND_DONOR>
5
> <PUBCHEM_CACTVS_ROTATABLE_BOND>
6
> <PUBCHEM_CACTVS_SUBSKEYS>
AAADceBzPAIAAAAAAAAAAAAAAAAAASAAAAAgAAAAAAAAAAAAAAAAHgAQCCAADBThgAYDAANABxCoQgJmdICAAAEgAAAAAAAoABiDEAIAgQAOQAAHhgITAADwMAIAAAAAAAAAAAAAAAAAAAAAAAAAAAAAAA==
> <PUBCHEM_IUPAC_OPENEYE_NAME>
[(2R,3S,4R,5R)-5-(4-amino-2-oxo-5-propyl-pyrimidin-1-yl)-3,4-dihydroxy-tetrahydrofuran-2-yl]methyl dihydrogen phosphate
> <PUBCHEM_IUPAC_CAS_NAME>
[(2R,3S,4R,5R)-5-(4-amino-2-oxo-5-propyl-1-pyrimidinyl)-3,4-dihydroxy-2-oxolanyl]methyl dihydrogen phosphate
> <PUBCHEM_IUPAC_NAME_MARKUP>
[(2<I>R</I>,3<I>S</I>,4<I>R</I>,5<I>R</I>)-5-(4-amino-2-oxo-5-propylpyrimidin-1-yl)-3,4-dihydroxyoxolan-2-yl]methyl dihydrogen phosphate
> <PUBCHEM_IUPAC_NAME>
[(2R,3S,4R,5R)-5-(4-amino-2-oxo-5-propylpyrimidin-1-yl)-3,4-dihydroxyoxolan-2-yl]methyl dihydrogen phosphate
> <PUBCHEM_IUPAC_SYSTEMATIC_NAME>
[(2R,3S,4R,5R)-5-(4-azanyl-2-oxidanylidene-5-propyl-pyrimidin-1-yl)-3,4-bis(oxidanyl)oxolan-2-yl]methyl dihydrogen phosphate
> <PUBCHEM_IUPAC_TRADITIONAL_NAME>
[(2R,3S,4R,5R)-5-(4-amino-2-keto-5-propyl-pyrimidin-1-yl)-3,4-dihydroxy-tetrahydrofuran-2-yl]methyl dihydrogen phosphate
> <PUBCHEM_IUPAC_INCHI>
InChI=1S/C12H20N3O8P/c1-2-3-6-4-15(12(18)14-10(6)13)11-9(17)8(16)7(23-11)5-22-24(19,20)21/h4,7-9,11,16-17H,2-3,5H2,1H3,(H2,13,14,18)(H2,19,20,21)/t7-,8-,9-,11-/m1/s1
> <PUBCHEM_IUPAC_INCHIKEY>
DKEKQUGVBFJAGT-TURQNECASA-N
> <PUBCHEM_XLOGP3>
-2.7
> <PUBCHEM_EXACT_MASS>
365.09880160
> <PUBCHEM_MOLECULAR_FORMULA>
C12H20N3O8P
> <PUBCHEM_MOLECULAR_WEIGHT>
365.28
> <PUBCHEM_OPENEYE_CAN_SMILES>
CCCC1=CN(C(=O)N=C1N)C2C(C(C(O2)COP(=O)(O)O)O)O
> <PUBCHEM_OPENEYE_ISO_SMILES>
CCCC1=CN(C(=O)N=C1N)[C@H]2[C@@H]([C@@H]([C@H](O2)COP(=O)(O)O)O)O
> <PUBCHEM_CACTVS_TPSA>
175
> <PUBCHEM_MONOISOTOPIC_WEIGHT>
365.09880160
> <PUBCHEM_TOTAL_CHARGE>
0
> <PUBCHEM_HEAVY_ATOM_COUNT>
24
> <PUBCHEM_ATOM_DEF_STEREO_COUNT>
4
> <PUBCHEM_ATOM_UDEF_STEREO_COUNT>
0
> <PUBCHEM_BOND_DEF_STEREO_COUNT>
0
> <PUBCHEM_BOND_UDEF_STEREO_COUNT>
0
> <PUBCHEM_ISOTOPIC_ATOM_COUNT>
0
> <PUBCHEM_COMPONENT_COUNT>
1
> <PUBCHEM_CACTVS_TAUTO_COUNT>
3
> <PUBCHEM_COORDINATE_TYPE>
1
5
255
> <PUBCHEM_BONDANNOTATIONS>
15  10  6
10  18  8
10  19  8
11  19  8
11  22  8
16  17  6
18  20  8
20  22  8
13  3  5
14  4  5
$$$$
