512665
  -OEChem-10302200282D
 60 65  0     1  0  0  0  0  0999 V2000
    6.3301   -0.5000    0.0000 F   0  0  0  0  0  0  0  0  0  0  0  0
    2.8660    4.5000    0.0000 F   0  0  0  0  0  0  0  0  0  0  0  0
    5.7960    1.5749    0.0000 O   0  0  0  0  0  0  0  0  0  0  0  0
    7.1796    0.4609    0.0000 O   0  0  0  0  0  0  0  0  0  0  0  0
    3.4982   -4.0815    0.0000 O   0  0  0  0  0  0  0  0  0  0  0  0
    2.0463   -3.2433    0.0000 O   0  0  0  0  0  0  0  0  0  0  0  0
    7.1962   -4.0000    0.0000 O   0  0  0  0  0  0  0  0  0  0  0  0
    8.9282   -1.0000    0.0000 O   0  0  0  0  0  0  0  0  0  0  0  0
    8.9282   -3.0000    0.0000 O   0  0  0  0  0  0  0  0  0  0  0  0
    2.8660    0.5000    0.0000 N   0  0  0  0  0  0  0  0  0  0  0  0
    4.5981    0.5000    0.0000 C   0  0  1  0  0  0  0  0  0  0  0  0
    5.4641   -0.0000    0.0000 C   0  0  2  0  0  0  0  0  0  0  0  0
    5.4641   -1.0000    0.0000 C   0  0  1  0  0  0  0  0  0  0  0  0
    3.7320   -0.0000    0.0000 C   0  0  1  0  0  0  0  0  0  0  0  0
    4.5981   -1.5000    0.0000 C   0  0  0  0  0  0  0  0  0  0  0  0
    3.7320   -1.0000    0.0000 C   0  0  0  0  0  0  0  0  0  0  0  0
    4.8073    1.4718    0.0000 C   0  0  0  0  0  0  0  0  0  0  0  0
    6.2011    0.6671    0.0000 C   0  0  0  0  0  0  0  0  0  0  0  0
    6.3301   -1.5000    0.0000 C   0  0  0  0  0  0  0  0  0  0  0  0
    4.6141   -2.5415    0.0000 C   0  0  0  0  0  0  0  0  0  0  0  0
    2.8220   -1.5068    0.0000 C   0  0  0  0  0  0  0  0  0  0  0  0
    3.7161   -3.0693    0.0000 C   0  0  0  0  0  0  0  0  0  0  0  0
    2.8140   -2.5484    0.0000 C   0  0  0  0  0  0  0  0  0  0  0  0
    7.1962   -1.0000    0.0000 C   0  0  0  0  0  0  0  0  0  0  0  0
    6.3301   -2.5000    0.0000 C   0  0  0  0  0  0  0  0  0  0  0  0
    2.8660    1.5000    0.0000 C   0  0  0  0  0  0  0  0  0  0  0  0
    7.1962   -3.0000    0.0000 C   0  0  0  0  0  0  0  0  0  0  0  0
    8.0622   -1.5000    0.0000 C   0  0  0  0  0  0  0  0  0  0  0  0
    2.4683   -4.1889    0.0000 C   0  0  0  0  0  0  0  0  0  0  0  0
    8.0622   -2.5000    0.0000 C   0  0  0  0  0  0  0  0  0  0  0  0
    2.0000    2.0000    0.0000 C   0  0  0  0  0  0  0  0  0  0  0  0
    3.7320    2.0000    0.0000 C   0  0  0  0  0  0  0  0  0  0  0  0
    2.0000    3.0000    0.0000 C   0  0  0  0  0  0  0  0  0  0  0  0
    3.7320    3.0000    0.0000 C   0  0  0  0  0  0  0  0  0  0  0  0
    2.8660    3.5000    0.0000 C   0  0  0  0  0  0  0  0  0  0  0  0
    6.3301   -4.5000    0.0000 C   0  0  0  0  0  0  0  0  0  0  0  0
    9.7942   -1.5000    0.0000 C   0  0  0  0  0  0  0  0  0  0  0  0
    3.9111    1.0005    0.0000 H   0  0  0  0  0  0  0  0  0  0  0  0
    5.4641   -1.6200    0.0000 H   0  0  0  0  0  0  0  0  0  0  0  0
    3.7320    0.6200    0.0000 H   0  0  0  0  0  0  0  0  0  0  0  0
    4.8082    2.0918    0.0000 H   0  0  0  0  0  0  0  0  0  0  0  0
    4.1908    1.5379    0.0000 H   0  0  0  0  0  0  0  0  0  0  0  0
    2.3291    0.1900    0.0000 H   0  0  0  0  0  0  0  0  0  0  0  0
    5.1546   -2.8453    0.0000 H   0  0  0  0  0  0  0  0  0  0  0  0
    2.2887   -1.1907    0.0000 H   0  0  0  0  0  0  0  0  0  0  0  0
    7.1962   -0.3800    0.0000 H   0  0  0  0  0  0  0  0  0  0  0  0
    5.7932   -2.8100    0.0000 H   0  0  0  0  0  0  0  0  0  0  0  0
    1.8787   -4.3806    0.0000 H   0  0  0  0  0  0  0  0  0  0  0  0
    2.5970   -4.7954    0.0000 H   0  0  0  0  0  0  0  0  0  0  0  0
    1.4631    1.6900    0.0000 H   0  0  0  0  0  0  0  0  0  0  0  0
    4.2690    1.6900    0.0000 H   0  0  0  0  0  0  0  0  0  0  0  0
    1.4631    3.3100    0.0000 H   0  0  0  0  0  0  0  0  0  0  0  0
    4.2690    3.3100    0.0000 H   0  0  0  0  0  0  0  0  0  0  0  0
    8.9282   -3.6200    0.0000 H   0  0  0  0  0  0  0  0  0  0  0  0
    6.0201   -3.9631    0.0000 H   0  0  0  0  0  0  0  0  0  0  0  0
    5.7932   -4.8100    0.0000 H   0  0  0  0  0  0  0  0  0  0  0  0
    6.6401   -5.0369    0.0000 H   0  0  0  0  0  0  0  0  0  0  0  0
    9.4842   -2.0369    0.0000 H   0  0  0  0  0  0  0  0  0  0  0  0
   10.3312   -1.8100    0.0000 H   0  0  0  0  0  0  0  0  0  0  0  0
   10.1042   -0.9631    0.0000 H   0  0  0  0  0  0  0  0  0  0  0  0
 12  1  1  1  0  0  0
  2 35  1  0  0  0  0
  3 17  1  0  0  0  0
  3 18  1  0  0  0  0
  4 18  2  0  0  0  0
  5 22  1  0  0  0  0
  5 29  1  0  0  0  0
  6 23  1  0  0  0  0
  6 29  1  0  0  0  0
  7 27  1  0  0  0  0
  7 36  1  0  0  0  0
  8 28  1  0  0  0  0
  8 37  1  0  0  0  0
  9 30  1  0  0  0  0
  9 54  1  0  0  0  0
 14 10  1  1  0  0  0
 10 26  1  0  0  0  0
 10 43  1  0  0  0  0
 11 12  1  0  0  0  0
 11 14  1  0  0  0  0
 11 17  1  0  0  0  0
 11 38  1  6  0  0  0
 12 13  1  0  0  0  0
 12 18  1  0  0  0  0
 13 15  1  0  0  0  0
 13 19  1  6  0  0  0
 13 39  1  0  0  0  0
 14 16  1  0  0  0  0
 14 40  1  0  0  0  0
 15 16  1  0  0  0  0
 15 20  2  0  0  0  0
 16 21  2  0  0  0  0
 17 41  1  0  0  0  0
 17 42  1  0  0  0  0
 19 24  2  0  0  0  0
 19 25  1  0  0  0  0
 20 22  1  0  0  0  0
 20 44  1  0  0  0  0
 21 23  1  0  0  0  0
 21 45  1  0  0  0  0
 22 23  2  0  0  0  0
 24 28  1  0  0  0  0
 24 46  1  0  0  0  0
 25 27  2  0  0  0  0
 25 47  1  0  0  0  0
 26 31  2  0  0  0  0
 26 32  1  0  0  0  0
 27 30  1  0  0  0  0
 28 30  2  0  0  0  0
 29 48  1  0  0  0  0
 29 49  1  0  0  0  0
 31 33  1  0  0  0  0
 31 50  1  0  0  0  0
 32 34  2  0  0  0  0
 32 51  1  0  0  0  0
 33 35  2  0  0  0  0
 33 52  1  0  0  0  0
 34 35  1  0  0  0  0
 34 53  1  0  0  0  0
 36 55  1  0  0  0  0
 36 56  1  0  0  0  0
 36 57  1  0  0  0  0
 37 58  1  0  0  0  0
 37 59  1  0  0  0  0
 37 60  1  0  0  0  0
M  END
> <PUBCHEM_COMPOUND_CID>
512665
> <PUBCHEM_COMPOUND_CANONICALIZED>
1
> <PUBCHEM_CACTVS_COMPLEXITY>
830
> <PUBCHEM_CACTVS_HBOND_ACCEPTOR>
10
> <PUBCHEM_CACTVS_HBOND_DONOR>
2
> <PUBCHEM_CACTVS_ROTATABLE_BOND>
5
> <PUBCHEM_CACTVS_SUBSKEYS>
AAADceB6OYAAAAAAAAAAAAAAAAAAASJAAAAwYMGAAAAAAEjBUAAAHwAQCAAADSzhmA8yzoLABgCIAiTSSACCCAAhIgAIiIEO7IgdJzLGsZumcCtn0BXP+Ae++P+OoAABCAAQQADQAAaQACSAAAAAAAAAAA==
> <PUBCHEM_IUPAC_OPENEYE_NAME>
(5R,5aS,8aS,9S)-5a-fluoro-9-(4-fluoroanilino)-5-(4-hydroxy-3,5-dimethoxy-phenyl)-5,8,8a,9-tetrahydroisobenzofuro[5,6-f][1,3]benzodioxol-6-one
> <PUBCHEM_IUPAC_CAS_NAME>
(5R,5aS,8aS,9S)-5a-fluoro-9-(4-fluoroanilino)-5-(4-hydroxy-3,5-dimethoxyphenyl)-5,8,8a,9-tetrahydroisobenzofuro[5,6-f][1,3]benzodioxol-6-one
> <PUBCHEM_IUPAC_NAME_MARKUP>
(5<I>R</I>,5<I>a</I><I>S</I>,8<I>a</I><I>S</I>,9<I>S</I>)-5<I>a</I>-fluoro-9-(4-fluoroanilino)-5-(4-hydroxy-3,5-dimethoxyphenyl)-5,8,8<I>a</I>,9-tetrahydro-[2]benzofuro[5,6-f][1,3]benzodioxol-6-one
> <PUBCHEM_IUPAC_NAME>
(5R,5aS,8aS,9S)-5a-fluoro-9-(4-fluoroanilino)-5-(4-hydroxy-3,5-dimethoxyphenyl)-5,8,8a,9-tetrahydro-[2]benzofuro[5,6-f][1,3]benzodioxol-6-one
> <PUBCHEM_IUPAC_SYSTEMATIC_NAME>
(5R,5aS,8aS,9S)-5-(3,5-dimethoxy-4-oxidanyl-phenyl)-5a-fluoranyl-9-[(4-fluorophenyl)amino]-5,8,8a,9-tetrahydro-[2]benzofuro[5,6-f][1,3]benzodioxol-6-one
> <PUBCHEM_IUPAC_TRADITIONAL_NAME>
(5R,5aS,8aS,9S)-5a-fluoro-9-(4-fluoroanilino)-5-(4-hydroxy-3,5-dimethoxy-phenyl)-5,8,8a,9-tetrahydroisobenzofuro[5,6-f][1,3]benzodioxol-6-one
> <PUBCHEM_IUPAC_INCHI>
InChI=1S/C27H23F2NO7/c1-33-21-7-13(8-22(34-2)25(21)31)23-16-9-19-20(37-12-36-19)10-17(16)24(18-11-35-26(32)27(18,23)29)30-15-5-3-14(28)4-6-15/h3-10,18,23-24,30-31H,11-12H2,1-2H3/t18-,23-,24-,27-/m1/s1
> <PUBCHEM_IUPAC_INCHIKEY>
OGDQGPSYZMHIEI-UKLCIFCESA-N
> <PUBCHEM_XLOGP3_AA>
4.6
> <PUBCHEM_EXACT_MASS>
511.14425840
> <PUBCHEM_MOLECULAR_FORMULA>
C27H23F2NO7
> <PUBCHEM_MOLECULAR_WEIGHT>
511.5
> <PUBCHEM_OPENEYE_CAN_SMILES>
COC1=CC(=CC(=C1O)OC)C2C3=CC4=C(C=C3C(C5C2(C(=O)OC5)F)NC6=CC=C(C=C6)F)OCO4
> <PUBCHEM_OPENEYE_ISO_SMILES>
COC1=CC(=CC(=C1O)OC)[C@@H]2C3=CC4=C(C=C3[C@H]([C@@H]5[C@@]2(C(=O)OC5)F)NC6=CC=C(C=C6)F)OCO4
> <PUBCHEM_CACTVS_TPSA>
95.5
> <PUBCHEM_MONOISOTOPIC_WEIGHT>
511.14425840
> <PUBCHEM_TOTAL_CHARGE>
0
> <PUBCHEM_HEAVY_ATOM_COUNT>
37
> <PUBCHEM_ATOM_DEF_STEREO_COUNT>
4
> <PUBCHEM_ATOM_UDEF_STEREO_COUNT>
0
> <PUBCHEM_BOND_DEF_STEREO_COUNT>
0
> <PUBCHEM_BOND_UDEF_STEREO_COUNT>
0
> <PUBCHEM_ISOTOPIC_ATOM_COUNT>
0
> <PUBCHEM_COMPONENT_COUNT>
1
> <PUBCHEM_CACTVS_TAUTO_COUNT>
-1
> <PUBCHEM_COORDINATE_TYPE>
1
5
255
> <PUBCHEM_BONDANNOTATIONS>
12  1  5
14  10  5
11  38  6
13  19  6
15  16  8
15  20  8
16  21  8
19  24  8
19  25  8
20  22  8
21  23  8
22  23  8
24  28  8
25  27  8
26  31  8
26  32  8
27  30  8
28  30  8
31  33  8
32  34  8
33  35  8
34  35  8
$$$$
