512666
  -OEChem-10302200282D
 73 77  0     1  0  0  0  0  0999 V2000
    3.0000    2.0000    0.0000 Si  0  0  0  0  0  0  0  0  0  0  0  0
    6.4641   -0.0000    0.0000 F   0  0  0  0  0  0  0  0  0  0  0  0
    3.0000    1.0000    0.0000 O   0  0  0  0  0  0  0  0  0  0  0  0
    5.9300    2.0749    0.0000 O   0  0  0  0  0  0  0  0  0  0  0  0
    7.3136    0.9609    0.0000 O   0  0  0  0  0  0  0  0  0  0  0  0
    2.1803   -2.7433    0.0000 O   0  0  0  0  0  0  0  0  0  0  0  0
    3.6322   -3.5815    0.0000 O   0  0  0  0  0  0  0  0  0  0  0  0
    9.0622   -0.5000    0.0000 O   0  0  0  0  0  0  0  0  0  0  0  0
    7.3301   -3.5000    0.0000 O   0  0  0  0  0  0  0  0  0  0  0  0
    9.0622   -2.5000    0.0000 O   0  0  0  0  0  0  0  0  0  0  0  0
    4.7320    1.0000    0.0000 C   0  0  1  0  0  0  0  0  0  0  0  0
    5.5981    0.5000    0.0000 C   0  0  2  0  0  0  0  0  0  0  0  0
    3.8660    0.5000    0.0000 C   0  0  2  0  0  0  0  0  0  0  0  0
    5.5981   -0.5000    0.0000 C   0  0  1  0  0  0  0  0  0  0  0  0
    3.8660   -0.5000    0.0000 C   0  0  0  0  0  0  0  0  0  0  0  0
    4.7320   -1.0000    0.0000 C   0  0  0  0  0  0  0  0  0  0  0  0
    4.9412    1.9718    0.0000 C   0  0  0  0  0  0  0  0  0  0  0  0
    6.3351    1.1671    0.0000 C   0  0  0  0  0  0  0  0  0  0  0  0
    3.0000    3.0000    0.0000 C   0  0  0  0  0  0  0  0  0  0  0  0
    6.4641   -1.0000    0.0000 C   0  0  0  0  0  0  0  0  0  0  0  0
    2.9560   -1.0068    0.0000 C   0  0  0  0  0  0  0  0  0  0  0  0
    4.7481   -2.0415    0.0000 C   0  0  0  0  0  0  0  0  0  0  0  0
    2.0000    2.0000    0.0000 C   0  0  0  0  0  0  0  0  0  0  0  0
    4.0000    2.0000    0.0000 C   0  0  0  0  0  0  0  0  0  0  0  0
    2.9480   -2.0484    0.0000 C   0  0  0  0  0  0  0  0  0  0  0  0
    3.0000    4.0000    0.0000 C   0  0  0  0  0  0  0  0  0  0  0  0
    2.0000    3.0000    0.0000 C   0  0  0  0  0  0  0  0  0  0  0  0
    4.0000    3.0000    0.0000 C   0  0  0  0  0  0  0  0  0  0  0  0
    3.8501   -2.5693    0.0000 C   0  0  0  0  0  0  0  0  0  0  0  0
    6.4641   -2.0000    0.0000 C   0  0  0  0  0  0  0  0  0  0  0  0
    7.3301   -0.5000    0.0000 C   0  0  0  0  0  0  0  0  0  0  0  0
    8.1962   -1.0000    0.0000 C   0  0  0  0  0  0  0  0  0  0  0  0
    7.3301   -2.5000    0.0000 C   0  0  0  0  0  0  0  0  0  0  0  0
    2.6023   -3.6889    0.0000 C   0  0  0  0  0  0  0  0  0  0  0  0
    8.1962   -2.0000    0.0000 C   0  0  0  0  0  0  0  0  0  0  0  0
    9.9282   -1.0000    0.0000 C   0  0  0  0  0  0  0  0  0  0  0  0
    6.4641   -4.0000    0.0000 C   0  0  0  0  0  0  0  0  0  0  0  0
    9.0622   -3.5000    0.0000 C   0  0  0  0  0  0  0  0  0  0  0  0
    4.0450    1.5005    0.0000 H   0  0  0  0  0  0  0  0  0  0  0  0
    3.8660    1.1200    0.0000 H   0  0  0  0  0  0  0  0  0  0  0  0
    5.5981   -1.1200    0.0000 H   0  0  0  0  0  0  0  0  0  0  0  0
    4.9422    2.5918    0.0000 H   0  0  0  0  0  0  0  0  0  0  0  0
    4.3248    2.0379    0.0000 H   0  0  0  0  0  0  0  0  0  0  0  0
    2.4227   -0.6907    0.0000 H   0  0  0  0  0  0  0  0  0  0  0  0
    5.2886   -2.3453    0.0000 H   0  0  0  0  0  0  0  0  0  0  0  0
    2.0000    2.6200    0.0000 H   0  0  0  0  0  0  0  0  0  0  0  0
    1.3800    2.0000    0.0000 H   0  0  0  0  0  0  0  0  0  0  0  0
    2.0000    1.3800    0.0000 H   0  0  0  0  0  0  0  0  0  0  0  0
    4.0000    1.3800    0.0000 H   0  0  0  0  0  0  0  0  0  0  0  0
    4.6200    2.0000    0.0000 H   0  0  0  0  0  0  0  0  0  0  0  0
    4.0000    2.6200    0.0000 H   0  0  0  0  0  0  0  0  0  0  0  0
    3.6200    4.0000    0.0000 H   0  0  0  0  0  0  0  0  0  0  0  0
    3.0000    4.6200    0.0000 H   0  0  0  0  0  0  0  0  0  0  0  0
    2.3800    4.0000    0.0000 H   0  0  0  0  0  0  0  0  0  0  0  0
    2.0000    3.6200    0.0000 H   0  0  0  0  0  0  0  0  0  0  0  0
    1.3800    3.0000    0.0000 H   0  0  0  0  0  0  0  0  0  0  0  0
    2.0000    2.3800    0.0000 H   0  0  0  0  0  0  0  0  0  0  0  0
    4.0000    2.3800    0.0000 H   0  0  0  0  0  0  0  0  0  0  0  0
    4.6200    3.0000    0.0000 H   0  0  0  0  0  0  0  0  0  0  0  0
    4.0000    3.6200    0.0000 H   0  0  0  0  0  0  0  0  0  0  0  0
    5.9272   -2.3100    0.0000 H   0  0  0  0  0  0  0  0  0  0  0  0
    7.3301    0.1200    0.0000 H   0  0  0  0  0  0  0  0  0  0  0  0
    2.0127   -3.8806    0.0000 H   0  0  0  0  0  0  0  0  0  0  0  0
    2.7310   -4.2954    0.0000 H   0  0  0  0  0  0  0  0  0  0  0  0
    9.6182   -1.5369    0.0000 H   0  0  0  0  0  0  0  0  0  0  0  0
   10.4651   -1.3100    0.0000 H   0  0  0  0  0  0  0  0  0  0  0  0
   10.2382   -0.4631    0.0000 H   0  0  0  0  0  0  0  0  0  0  0  0
    6.1541   -3.4631    0.0000 H   0  0  0  0  0  0  0  0  0  0  0  0
    5.9272   -4.3100    0.0000 H   0  0  0  0  0  0  0  0  0  0  0  0
    6.7741   -4.5369    0.0000 H   0  0  0  0  0  0  0  0  0  0  0  0
    8.4422   -3.5000    0.0000 H   0  0  0  0  0  0  0  0  0  0  0  0
    9.0622   -4.1200    0.0000 H   0  0  0  0  0  0  0  0  0  0  0  0
    9.6822   -3.5000    0.0000 H   0  0  0  0  0  0  0  0  0  0  0  0
  1  3  1  0  0  0  0
  1 19  1  0  0  0  0
  1 23  1  0  0  0  0
  1 24  1  0  0  0  0
 12  2  1  1  0  0  0
 13  3  1  6  0  0  0
  4 17  1  0  0  0  0
  4 18  1  0  0  0  0
  5 18  2  0  0  0  0
  6 25  1  0  0  0  0
  6 34  1  0  0  0  0
  7 29  1  0  0  0  0
  7 34  1  0  0  0  0
  8 32  1  0  0  0  0
  8 36  1  0  0  0  0
  9 33  1  0  0  0  0
  9 37  1  0  0  0  0
 10 35  1  0  0  0  0
 10 38  1  0  0  0  0
 11 12  1  0  0  0  0
 11 13  1  0  0  0  0
 11 17  1  0  0  0  0
 11 39  1  6  0  0  0
 12 14  1  0  0  0  0
 12 18  1  0  0  0  0
 13 15  1  0  0  0  0
 13 40  1  0  0  0  0
 14 16  1  0  0  0  0
 14 20  1  6  0  0  0
 14 41  1  0  0  0  0
 15 16  1  0  0  0  0
 15 21  2  0  0  0  0
 16 22  2  0  0  0  0
 17 42  1  0  0  0  0
 17 43  1  0  0  0  0
 19 26  1  0  0  0  0
 19 27  1  0  0  0  0
 19 28  1  0  0  0  0
 20 30  2  0  0  0  0
 20 31  1  0  0  0  0
 21 25  1  0  0  0  0
 21 44  1  0  0  0  0
 22 29  1  0  0  0  0
 22 45  1  0  0  0  0
 23 46  1  0  0  0  0
 23 47  1  0  0  0  0
 23 48  1  0  0  0  0
 24 49  1  0  0  0  0
 24 50  1  0  0  0  0
 24 51  1  0  0  0  0
 25 29  2  0  0  0  0
 26 52  1  0  0  0  0
 26 53  1  0  0  0  0
 26 54  1  0  0  0  0
 27 55  1  0  0  0  0
 27 56  1  0  0  0  0
 27 57  1  0  0  0  0
 28 58  1  0  0  0  0
 28 59  1  0  0  0  0
 28 60  1  0  0  0  0
 30 33  1  0  0  0  0
 30 61  1  0  0  0  0
 31 32  2  0  0  0  0
 31 62  1  0  0  0  0
 32 35  1  0  0  0  0
 33 35  2  0  0  0  0
 34 63  1  0  0  0  0
 34 64  1  0  0  0  0
 36 65  1  0  0  0  0
 36 66  1  0  0  0  0
 36 67  1  0  0  0  0
 37 68  1  0  0  0  0
 37 69  1  0  0  0  0
 37 70  1  0  0  0  0
 38 71  1  0  0  0  0
 38 72  1  0  0  0  0
 38 73  1  0  0  0  0
M  END
> <PUBCHEM_COMPOUND_CID>
512666
> <PUBCHEM_COMPOUND_CANONICALIZED>
1
> <PUBCHEM_CACTVS_COMPLEXITY>
867
> <PUBCHEM_CACTVS_HBOND_ACCEPTOR>
9
> <PUBCHEM_CACTVS_HBOND_DONOR>
0
> <PUBCHEM_CACTVS_ROTATABLE_BOND>
7
> <PUBCHEM_CACTVS_SUBSKEYS>
AAADcfB4PQgAAAAAAAAAAAAAAAAAASJAAAAwYMAAAAAAAEjBQAAAGxAAAEAADRSguANyDoAABAGIAiDSCAACCAAgIAAAiAEGiIgdJzKEMRqiMCIlwBUOqAfK6PyOoAABCAAQQADAAAYQADCAAAAAAAAAAA==
> <PUBCHEM_IUPAC_OPENEYE_NAME>
(5R,5aS,8aR,9R)-9-[tert-butyl(dimethyl)silyl]oxy-5a-fluoro-5-(3,4,5-trimethoxyphenyl)-5,8,8a,9-tetrahydroisobenzofuro[6,5-f][1,3]benzodioxol-6-one
> <PUBCHEM_IUPAC_CAS_NAME>
(5R,5aS,8aR,9R)-9-[tert-butyl(dimethyl)silyl]oxy-5a-fluoro-5-(3,4,5-trimethoxyphenyl)-5,8,8a,9-tetrahydroisobenzofuro[6,5-f][1,3]benzodioxol-6-one
> <PUBCHEM_IUPAC_NAME_MARKUP>
(5<I>R</I>,5<I>a</I><I>S</I>,8<I>a</I><I>R</I>,9<I>R</I>)-9-[<I>tert</I>-butyl(dimethyl)silyl]oxy-5<I>a</I>-fluoro-5-(3,4,5-trimethoxyphenyl)-5,8,8<I>a</I>,9-tetrahydro-[2]benzofuro[6,5-f][1,3]benzodioxol-6-one
> <PUBCHEM_IUPAC_NAME>
(5R,5aS,8aR,9R)-9-[tert-butyl(dimethyl)silyl]oxy-5a-fluoro-5-(3,4,5-trimethoxyphenyl)-5,8,8a,9-tetrahydro-[2]benzofuro[6,5-f][1,3]benzodioxol-6-one
> <PUBCHEM_IUPAC_SYSTEMATIC_NAME>
(5R,5aS,8aR,9R)-9-[tert-butyl(dimethyl)silyl]oxy-5a-fluoranyl-5-(3,4,5-trimethoxyphenyl)-5,8,8a,9-tetrahydro-[2]benzofuro[6,5-f][1,3]benzodioxol-6-one
> <PUBCHEM_IUPAC_TRADITIONAL_NAME>
(5R,5aS,8aR,9R)-9-[tert-butyl(dimethyl)silyl]oxy-5a-fluoro-5-(3,4,5-trimethoxyphenyl)-5,8,8a,9-tetrahydroisobenzofuro[6,5-f][1,3]benzodioxol-6-one
> <PUBCHEM_IUPAC_INCHI>
InChI=1S/C28H35FO8Si/c1-27(2,3)38(7,8)37-24-17-12-20-19(35-14-36-20)11-16(17)23(28(29)18(24)13-34-26(28)30)15-9-21(31-4)25(33-6)22(10-15)32-5/h9-12,18,23-24H,13-14H2,1-8H3/t18-,23-,24+,28-/m1/s1
> <PUBCHEM_IUPAC_INCHIKEY>
YPILDQIQGKEZQT-JFRXHZBCSA-N
> <PUBCHEM_EXACT_MASS>
546.20852277
> <PUBCHEM_MOLECULAR_FORMULA>
C28H35FO8Si
> <PUBCHEM_MOLECULAR_WEIGHT>
546.7
> <PUBCHEM_OPENEYE_CAN_SMILES>
CC(C)(C)[Si](C)(C)OC1C2COC(=O)C2(C(C3=CC4=C(C=C13)OCO4)C5=CC(=C(C(=C5)OC)OC)OC)F
> <PUBCHEM_OPENEYE_ISO_SMILES>
CC(C)(C)[Si](C)(C)O[C@@H]1[C@H]2COC(=O)[C@@]2([C@@H](C3=CC4=C(C=C13)OCO4)C5=CC(=C(C(=C5)OC)OC)OC)F
> <PUBCHEM_CACTVS_TPSA>
81.7
> <PUBCHEM_MONOISOTOPIC_WEIGHT>
546.20852277
> <PUBCHEM_TOTAL_CHARGE>
0
> <PUBCHEM_HEAVY_ATOM_COUNT>
38
> <PUBCHEM_ATOM_DEF_STEREO_COUNT>
4
> <PUBCHEM_ATOM_UDEF_STEREO_COUNT>
0
> <PUBCHEM_BOND_DEF_STEREO_COUNT>
0
> <PUBCHEM_BOND_UDEF_STEREO_COUNT>
0
> <PUBCHEM_ISOTOPIC_ATOM_COUNT>
0
> <PUBCHEM_COMPONENT_COUNT>
1
> <PUBCHEM_CACTVS_TAUTO_COUNT>
-1
> <PUBCHEM_COORDINATE_TYPE>
1
5
255
> <PUBCHEM_BONDANNOTATIONS>
11  39  6
14  20  6
15  16  8
15  21  8
16  22  8
12  2  5
20  30  8
20  31  8
21  25  8
22  29  8
25  29  8
13  3  6
30  33  8
31  32  8
32  35  8
33  35  8
$$$$
