512632
  -OEChem-10302200282D
 59 60  0     1  0  0  0  0  0999 V2000
   12.4643   -3.2767    0.0000 P   0  0  0  0  0  0  0  0  0  0  0  0
   10.6032   -0.8121    0.0000 O   0  0  0  0  0  0  0  0  0  0  0  0
    8.0342   -0.5031    0.0000 O   0  0  0  0  0  0  0  0  0  0  0  0
    8.7064   -2.5722    0.0000 O   0  0  0  0  0  0  0  0  0  0  0  0
   11.8765   -2.4676    0.0000 O   0  0  0  0  0  0  0  0  0  0  0  0
   11.5263    0.7757    0.0000 O   0  0  0  0  0  0  0  0  0  0  0  0
   13.0521   -4.0857    0.0000 O   0  0  0  0  0  0  0  0  0  0  0  0
   13.2733   -2.6889    0.0000 O   0  0  0  0  0  0  0  0  0  0  0  0
   11.6553   -3.8644    0.0000 O   0  0  0  0  0  0  0  0  0  0  0  0
    9.7942    0.7757    0.0000 N   0  0  0  0  0  0  0  0  0  0  0  0
   10.6603    2.2757    0.0000 N   0  0  0  0  0  0  0  0  0  0  0  0
    9.7942    3.7757    0.0000 N   0  0  0  0  0  0  0  0  0  0  0  0
    8.9852   -0.8121    0.0000 C   0  0  2  0  0  0  0  0  0  0  0  0
    9.2942   -1.7632    0.0000 C   0  0  1  0  0  0  0  0  0  0  0  0
    9.7942   -0.2243    0.0000 C   0  0  1  0  0  0  0  0  0  0  0  0
   10.2942   -1.7632    0.0000 C   0  0  1  0  0  0  0  0  0  0  0  0
   10.8820   -2.5722    0.0000 C   0  0  0  0  0  0  0  0  0  0  0  0
    8.9282    1.2757    0.0000 C   0  0  0  0  0  0  0  0  0  0  0  0
    8.9282    2.2757    0.0000 C   0  0  0  0  0  0  0  0  0  0  0  0
   10.6603    1.2757    0.0000 C   0  0  0  0  0  0  0  0  0  0  0  0
    8.0622    2.7757    0.0000 C   0  0  0  0  0  0  0  0  0  0  0  0
    7.1962    2.2757    0.0000 C   0  0  0  0  0  0  0  0  0  0  0  0
    6.3301    2.7757    0.0000 C   0  0  0  0  0  0  0  0  0  0  0  0
    5.4641    2.2757    0.0000 C   0  0  0  0  0  0  0  0  0  0  0  0
    9.7942    2.7757    0.0000 C   0  0  0  0  0  0  0  0  0  0  0  0
    4.5981    2.7757    0.0000 C   0  0  0  0  0  0  0  0  0  0  0  0
    3.7320    2.2757    0.0000 C   0  0  0  0  0  0  0  0  0  0  0  0
    2.8660    2.7757    0.0000 C   0  0  0  0  0  0  0  0  0  0  0  0
    2.0000    2.2757    0.0000 C   0  0  0  0  0  0  0  0  0  0  0  0
    8.5468   -1.2505    0.0000 H   0  0  0  0  0  0  0  0  0  0  0  0
    8.6819   -1.6662    0.0000 H   0  0  0  0  0  0  0  0  0  0  0  0
   10.3467    0.0572    0.0000 H   0  0  0  0  0  0  0  0  0  0  0  0
   10.9066   -1.6662    0.0000 H   0  0  0  0  0  0  0  0  0  0  0  0
   10.3248   -2.8440    0.0000 H   0  0  0  0  0  0  0  0  0  0  0  0
   11.0529   -3.1682    0.0000 H   0  0  0  0  0  0  0  0  0  0  0  0
    8.3913    0.9657    0.0000 H   0  0  0  0  0  0  0  0  0  0  0  0
    7.5734   -0.9179    0.0000 H   0  0  0  0  0  0  0  0  0  0  0  0
    8.9586   -3.1386    0.0000 H   0  0  0  0  0  0  0  0  0  0  0  0
    8.4607    3.2506    0.0000 H   0  0  0  0  0  0  0  0  0  0  0  0
    7.6636    3.2506    0.0000 H   0  0  0  0  0  0  0  0  0  0  0  0
    6.7976    1.8007    0.0000 H   0  0  0  0  0  0  0  0  0  0  0  0
    7.5947    1.8007    0.0000 H   0  0  0  0  0  0  0  0  0  0  0  0
    6.7287    3.2506    0.0000 H   0  0  0  0  0  0  0  0  0  0  0  0
    5.9316    3.2506    0.0000 H   0  0  0  0  0  0  0  0  0  0  0  0
    5.0656    1.8007    0.0000 H   0  0  0  0  0  0  0  0  0  0  0  0
    5.8626    1.8007    0.0000 H   0  0  0  0  0  0  0  0  0  0  0  0
    4.9966    3.2506    0.0000 H   0  0  0  0  0  0  0  0  0  0  0  0
    4.1996    3.2506    0.0000 H   0  0  0  0  0  0  0  0  0  0  0  0
    3.3335    1.8007    0.0000 H   0  0  0  0  0  0  0  0  0  0  0  0
    4.1306    1.8007    0.0000 H   0  0  0  0  0  0  0  0  0  0  0  0
    3.2646    3.2506    0.0000 H   0  0  0  0  0  0  0  0  0  0  0  0
    2.4675    3.2506    0.0000 H   0  0  0  0  0  0  0  0  0  0  0  0
   10.3312    4.0857    0.0000 H   0  0  0  0  0  0  0  0  0  0  0  0
    9.2573    4.0857    0.0000 H   0  0  0  0  0  0  0  0  0  0  0  0
    1.6900    2.8126    0.0000 H   0  0  0  0  0  0  0  0  0  0  0  0
    1.4631    1.9657    0.0000 H   0  0  0  0  0  0  0  0  0  0  0  0
    2.3100    1.7388    0.0000 H   0  0  0  0  0  0  0  0  0  0  0  0
   13.6687   -4.0209    0.0000 H   0  0  0  0  0  0  0  0  0  0  0  0
   13.2085   -2.0723    0.0000 H   0  0  0  0  0  0  0  0  0  0  0  0
  1  5  1  0  0  0  0
  1  7  1  0  0  0  0
  1  8  1  0  0  0  0
  1  9  2  0  0  0  0
  2 15  1  0  0  0  0
  2 16  1  0  0  0  0
 13  3  1  1  0  0  0
  3 37  1  0  0  0  0
 14  4  1  1  0  0  0
  4 38  1  0  0  0  0
  5 17  1  0  0  0  0
  6 20  2  0  0  0  0
  7 58  1  0  0  0  0
  8 59  1  0  0  0  0
 15 10  1  6  0  0  0
 10 18  1  0  0  0  0
 10 20  1  0  0  0  0
 11 20  1  0  0  0  0
 11 25  2  0  0  0  0
 12 25  1  0  0  0  0
 12 53  1  0  0  0  0
 12 54  1  0  0  0  0
 13 14  1  0  0  0  0
 13 15  1  0  0  0  0
 13 30  1  0  0  0  0
 14 16  1  0  0  0  0
 14 31  1  0  0  0  0
 15 32  1  0  0  0  0
 16 17  1  6  0  0  0
 16 33  1  0  0  0  0
 17 34  1  0  0  0  0
 17 35  1  0  0  0  0
 18 19  2  0  0  0  0
 18 36  1  0  0  0  0
 19 21  1  0  0  0  0
 19 25  1  0  0  0  0
 21 22  1  0  0  0  0
 21 39  1  0  0  0  0
 21 40  1  0  0  0  0
 22 23  1  0  0  0  0
 22 41  1  0  0  0  0
 22 42  1  0  0  0  0
 23 24  1  0  0  0  0
 23 43  1  0  0  0  0
 23 44  1  0  0  0  0
 24 26  1  0  0  0  0
 24 45  1  0  0  0  0
 24 46  1  0  0  0  0
 26 27  1  0  0  0  0
 26 47  1  0  0  0  0
 26 48  1  0  0  0  0
 27 28  1  0  0  0  0
 27 49  1  0  0  0  0
 27 50  1  0  0  0  0
 28 29  1  0  0  0  0
 28 51  1  0  0  0  0
 28 52  1  0  0  0  0
 29 55  1  0  0  0  0
 29 56  1  0  0  0  0
 29 57  1  0  0  0  0
M  END
> <PUBCHEM_COMPOUND_CID>
512632
> <PUBCHEM_COMPOUND_CANONICALIZED>
1
> <PUBCHEM_CACTVS_COMPLEXITY>
680
> <PUBCHEM_CACTVS_HBOND_ACCEPTOR>
8
> <PUBCHEM_CACTVS_HBOND_DONOR>
5
> <PUBCHEM_CACTVS_ROTATABLE_BOND>
11
> <PUBCHEM_CACTVS_SUBSKEYS>
AAADceB7PAIAAAAAAAAAAAAAAAAAASAAAAAgAAAAAAAAAAAAAAAAHgAQCCAADBThgAYDAANABxCoQgJmdICAAAEgAAAAAAAoABiDEAIAgQAOQAAHhgITAAHwsIIAAAAAAAAAAAAAAAAAAAAAAAAAAAAAAA==
> <PUBCHEM_IUPAC_OPENEYE_NAME>
[(2R,3S,4R,5R)-5-(4-amino-5-octyl-2-oxo-pyrimidin-1-yl)-3,4-dihydroxy-tetrahydrofuran-2-yl]methyl dihydrogen phosphate
> <PUBCHEM_IUPAC_CAS_NAME>
[(2R,3S,4R,5R)-5-(4-amino-5-octyl-2-oxo-1-pyrimidinyl)-3,4-dihydroxy-2-oxolanyl]methyl dihydrogen phosphate
> <PUBCHEM_IUPAC_NAME_MARKUP>
[(2<I>R</I>,3<I>S</I>,4<I>R</I>,5<I>R</I>)-5-(4-amino-5-octyl-2-oxopyrimidin-1-yl)-3,4-dihydroxyoxolan-2-yl]methyl dihydrogen phosphate
> <PUBCHEM_IUPAC_NAME>
[(2R,3S,4R,5R)-5-(4-amino-5-octyl-2-oxopyrimidin-1-yl)-3,4-dihydroxyoxolan-2-yl]methyl dihydrogen phosphate
> <PUBCHEM_IUPAC_SYSTEMATIC_NAME>
[(2R,3S,4R,5R)-5-(4-azanyl-5-octyl-2-oxidanylidene-pyrimidin-1-yl)-3,4-bis(oxidanyl)oxolan-2-yl]methyl dihydrogen phosphate
> <PUBCHEM_IUPAC_TRADITIONAL_NAME>
[(2R,3S,4R,5R)-5-(4-amino-2-keto-5-octyl-pyrimidin-1-yl)-3,4-dihydroxy-tetrahydrofuran-2-yl]methyl dihydrogen phosphate
> <PUBCHEM_IUPAC_INCHI>
InChI=1S/C17H30N3O8P/c1-2-3-4-5-6-7-8-11-9-20(17(23)19-15(11)18)16-14(22)13(21)12(28-16)10-27-29(24,25)26/h9,12-14,16,21-22H,2-8,10H2,1H3,(H2,18,19,23)(H2,24,25,26)/t12-,13-,14-,16-/m1/s1
> <PUBCHEM_IUPAC_INCHIKEY>
CQZFSGSGTCMEHW-IXYNUQLISA-N
> <PUBCHEM_XLOGP3>
0
> <PUBCHEM_EXACT_MASS>
435.17705192
> <PUBCHEM_MOLECULAR_FORMULA>
C17H30N3O8P
> <PUBCHEM_MOLECULAR_WEIGHT>
435.4
> <PUBCHEM_OPENEYE_CAN_SMILES>
CCCCCCCCC1=CN(C(=O)N=C1N)C2C(C(C(O2)COP(=O)(O)O)O)O
> <PUBCHEM_OPENEYE_ISO_SMILES>
CCCCCCCCC1=CN(C(=O)N=C1N)[C@H]2[C@@H]([C@@H]([C@H](O2)COP(=O)(O)O)O)O
> <PUBCHEM_CACTVS_TPSA>
175
> <PUBCHEM_MONOISOTOPIC_WEIGHT>
435.17705192
> <PUBCHEM_TOTAL_CHARGE>
0
> <PUBCHEM_HEAVY_ATOM_COUNT>
29
> <PUBCHEM_ATOM_DEF_STEREO_COUNT>
4
> <PUBCHEM_ATOM_UDEF_STEREO_COUNT>
0
> <PUBCHEM_BOND_DEF_STEREO_COUNT>
0
> <PUBCHEM_BOND_UDEF_STEREO_COUNT>
0
> <PUBCHEM_ISOTOPIC_ATOM_COUNT>
0
> <PUBCHEM_COMPONENT_COUNT>
1
> <PUBCHEM_CACTVS_TAUTO_COUNT>
3
> <PUBCHEM_COORDINATE_TYPE>
1
5
255
> <PUBCHEM_BONDANNOTATIONS>
15  10  6
10  18  8
10  20  8
11  20  8
11  25  8
16  17  6
18  19  8
19  25  8
13  3  5
14  4  5
$$$$
