512608
  -OEChem-10302200282D
 31 33  0     1  0  0  0  0  0999 V2000
    9.5719    1.4897    0.0000 Br  0  0  0  0  0  0  0  0  0  0  0  0
    3.3100    0.2577    0.0000 P   0  0  3  0  0  0  0  0  0  0  0  0
    5.9883   -1.0471    0.0000 O   0  0  0  0  0  0  0  0  0  0  0  0
    4.1760    0.7577    0.0000 O   0  0  0  0  0  0  0  0  0  0  0  0
    3.3100   -0.7423    0.0000 O   0  0  0  0  0  0  0  0  0  0  0  0
    6.2989    1.5129    0.0000 O   0  0  0  0  0  0  0  0  0  0  0  0
    2.3100    0.2577    0.0000 O   0  0  0  0  0  0  0  0  0  0  0  0
    2.8100    1.1237    0.0000 O   0  0  0  0  0  0  0  0  0  0  0  0
    7.5719   -1.9744    0.0000 O   0  0  0  0  0  0  0  0  0  0  0  0
   10.5719   -0.2423    0.0000 O   0  0  0  0  0  0  0  0  0  0  0  0
    7.5719   -0.2423    0.0000 N   0  0  0  0  0  0  0  0  0  0  0  0
    9.0719   -1.1084    0.0000 N   0  0  0  0  0  0  0  0  0  0  0  0
    5.0420    0.2577    0.0000 C   0  0  3  0  0  0  0  0  0  0  0  0
    5.0420   -0.7423    0.0000 C   0  0  3  0  0  0  0  0  0  0  0  0
    5.9883    0.5624    0.0000 C   0  0  2  0  0  0  0  0  0  0  0  0
    6.5719   -0.2423    0.0000 C   0  0  1  0  0  0  0  0  0  0  0  0
    4.1760   -1.2423    0.0000 C   0  0  0  0  0  0  0  0  0  0  0  0
    8.0719   -1.1084    0.0000 C   0  0  0  0  0  0  0  0  0  0  0  0
    8.0719    0.6237    0.0000 C   0  0  0  0  0  0  0  0  0  0  0  0
    9.0719    0.6237    0.0000 C   0  0  0  0  0  0  0  0  0  0  0  0
    9.5719   -0.2423    0.0000 C   0  0  0  0  0  0  0  0  0  0  0  0
    5.1320    1.1029    0.0000 H   0  0  0  0  0  0  0  0  0  0  0  0
    5.1320   -1.5876    0.0000 H   0  0  0  0  0  0  0  0  0  0  0  0
    6.6008    0.6586    0.0000 H   0  0  0  0  0  0  0  0  0  0  0  0
    6.8536   -0.7946    0.0000 H   0  0  0  0  0  0  0  0  0  0  0  0
    3.7775   -1.7173    0.0000 H   0  0  0  0  0  0  0  0  0  0  0  0
    4.5746   -1.7173    0.0000 H   0  0  0  0  0  0  0  0  0  0  0  0
    5.8849    1.9744    0.0000 H   0  0  0  0  0  0  0  0  0  0  0  0
    7.7619    1.1606    0.0000 H   0  0  0  0  0  0  0  0  0  0  0  0
    9.3819   -1.6453    0.0000 H   0  0  0  0  0  0  0  0  0  0  0  0
    2.0000   -0.2793    0.0000 H   0  0  0  0  0  0  0  0  0  0  0  0
  1 20  1  0  0  0  0
  2  4  1  0  0  0  0
  2  5  1  0  0  0  0
  2  7  1  0  0  0  0
  2  8  2  0  0  0  0
  3 14  1  0  0  0  0
  3 16  1  0  0  0  0
  4 13  1  0  0  0  0
  5 17  1  0  0  0  0
 15  6  1  1  0  0  0
  6 28  1  0  0  0  0
  7 31  1  0  0  0  0
  9 18  2  0  0  0  0
 10 21  2  0  0  0  0
 16 11  1  6  0  0  0
 11 18  1  0  0  0  0
 11 19  1  0  0  0  0
 12 18  1  0  0  0  0
 12 21  1  0  0  0  0
 12 30  1  0  0  0  0
 13 14  1  0  0  0  0
 13 15  1  0  0  0  0
 13 22  1  0  0  0  0
 14 17  1  0  0  0  0
 14 23  1  0  0  0  0
 15 16  1  0  0  0  0
 15 24  1  0  0  0  0
 16 25  1  0  0  0  0
 17 26  1  0  0  0  0
 17 27  1  0  0  0  0
 19 20  2  0  0  0  0
 19 29  1  0  0  0  0
 20 21  1  0  0  0  0
M  END
> <PUBCHEM_COMPOUND_CID>
512608
> <PUBCHEM_COMPOUND_CANONICALIZED>
1
> <PUBCHEM_CACTVS_COMPLEXITY>
582
> <PUBCHEM_CACTVS_HBOND_ACCEPTOR>
8
> <PUBCHEM_CACTVS_HBOND_DONOR>
3
> <PUBCHEM_CACTVS_ROTATABLE_BOND>
1
> <PUBCHEM_CACTVS_SUBSKEYS>
AAADccBzPAIAEAAAAAAAAAAAAAAAASAAAAAkQAAAAAAAAEgAAAAAHgBQCCABiBThgAYBAAPABxCIQAFWUICAAAAAAAAAAAAIAECjEAIAgAAOQAAPByITAMDwMAIAAAAAAAAAAAAAAAAAAAAAAAAAAAAAAA==
> <PUBCHEM_IUPAC_OPENEYE_NAME>
5-bromo-1-[(6R,7R)-2,7-dihydroxy-2-oxo-4a,6,7,7a-tetrahydro-4H-furo[3,2-d][1,3,2]dioxaphosphinin-6-yl]pyrimidine-2,4-dione
> <PUBCHEM_IUPAC_CAS_NAME>
5-bromo-1-[(6R,7R)-2,7-dihydroxy-2-oxo-4a,6,7,7a-tetrahydro-4H-furo[3,2-d][1,3,2]dioxaphosphorin-6-yl]pyrimidine-2,4-dione
> <PUBCHEM_IUPAC_NAME_MARKUP>
5-bromo-1-[(6<I>R</I>,7<I>R</I>)-2,7-dihydroxy-2-oxo-4<I>a</I>,6,7,7<I>a</I>-tetrahydro-4<I>H</I>-furo[3,2-d][1,3,2]dioxaphosphinin-6-yl]pyrimidine-2,4-dione
> <PUBCHEM_IUPAC_NAME>
5-bromo-1-[(6R,7R)-2,7-dihydroxy-2-oxo-4a,6,7,7a-tetrahydro-4H-furo[3,2-d][1,3,2]dioxaphosphinin-6-yl]pyrimidine-2,4-dione
> <PUBCHEM_IUPAC_SYSTEMATIC_NAME>
1-[(6R,7R)-2,7-bis(oxidanyl)-2-oxidanylidene-4a,6,7,7a-tetrahydro-4H-furo[3,2-d][1,3,2]dioxaphosphinin-6-yl]-5-bromanyl-pyrimidine-2,4-dione
> <PUBCHEM_IUPAC_TRADITIONAL_NAME>
5-bromo-1-[(6R,7R)-2,7-dihydroxy-2-keto-4a,6,7,7a-tetrahydro-4H-furo[3,2-d][1,3,2]dioxaphosphorin-6-yl]pyrimidine-2,4-quinone
> <PUBCHEM_IUPAC_INCHI>
InChI=1S/C9H10BrN2O8P/c10-3-1-12(9(15)11-7(3)14)8-5(13)6-4(19-8)2-18-21(16,17)20-6/h1,4-6,8,13H,2H2,(H,16,17)(H,11,14,15)/t4?,5-,6?,8-/m1/s1
> <PUBCHEM_IUPAC_INCHIKEY>
PYITZFOYKGUPJT-DVMOCUDESA-N
> <PUBCHEM_XLOGP3_AA>
-2.1
> <PUBCHEM_EXACT_MASS>
383.93581
> <PUBCHEM_MOLECULAR_FORMULA>
C9H10BrN2O8P
> <PUBCHEM_MOLECULAR_WEIGHT>
385.06
> <PUBCHEM_OPENEYE_CAN_SMILES>
C1C2C(C(C(O2)N3C=C(C(=O)NC3=O)Br)O)OP(=O)(O1)O
> <PUBCHEM_OPENEYE_ISO_SMILES>
C1C2C([C@H]([C@@H](O2)N3C=C(C(=O)NC3=O)Br)O)OP(=O)(O1)O
> <PUBCHEM_CACTVS_TPSA>
135
> <PUBCHEM_MONOISOTOPIC_WEIGHT>
383.93581
> <PUBCHEM_TOTAL_CHARGE>
0
> <PUBCHEM_HEAVY_ATOM_COUNT>
21
> <PUBCHEM_ATOM_DEF_STEREO_COUNT>
2
> <PUBCHEM_ATOM_UDEF_STEREO_COUNT>
2
> <PUBCHEM_BOND_DEF_STEREO_COUNT>
0
> <PUBCHEM_BOND_UDEF_STEREO_COUNT>
0
> <PUBCHEM_ISOTOPIC_ATOM_COUNT>
0
> <PUBCHEM_COMPONENT_COUNT>
1
> <PUBCHEM_CACTVS_TAUTO_COUNT>
3
> <PUBCHEM_COORDINATE_TYPE>
1
5
255
> <PUBCHEM_BONDANNOTATIONS>
16  11  6
11  18  8
11  19  8
12  18  8
12  21  8
13  22  3
14  23  3
19  20  8
20  21  8
15  6  5
$$$$
