512667
  -OEChem-10302200282D
 73 77  0     1  0  0  0  0  0999 V2000
    3.0000    2.0000    0.0000 Si  0  0  0  0  0  0  0  0  0  0  0  0
    3.0000    1.0000    0.0000 O   0  0  0  0  0  0  0  0  0  0  0  0
    5.9300    2.0749    0.0000 O   0  0  0  0  0  0  0  0  0  0  0  0
    7.3136    0.9609    0.0000 O   0  0  0  0  0  0  0  0  0  0  0  0
    2.1803   -2.7433    0.0000 O   0  0  0  0  0  0  0  0  0  0  0  0
    3.6322   -3.5815    0.0000 O   0  0  0  0  0  0  0  0  0  0  0  0
    7.3301   -3.5000    0.0000 O   0  0  0  0  0  0  0  0  0  0  0  0
    9.0622   -0.5000    0.0000 O   0  0  0  0  0  0  0  0  0  0  0  0
    9.0622   -2.5000    0.0000 O   0  0  0  0  0  0  0  0  0  0  0  0
    4.7320    1.0000    0.0000 C   0  0  1  0  0  0  0  0  0  0  0  0
    5.5981    0.5000    0.0000 C   0  0  1  0  0  0  0  0  0  0  0  0
    3.8660    0.5000    0.0000 C   0  0  2  0  0  0  0  0  0  0  0  0
    5.5981   -0.5000    0.0000 C   0  0  1  0  0  0  0  0  0  0  0  0
    3.8660   -0.5000    0.0000 C   0  0  0  0  0  0  0  0  0  0  0  0
    4.7320   -1.0000    0.0000 C   0  0  0  0  0  0  0  0  0  0  0  0
    4.9412    1.9718    0.0000 C   0  0  0  0  0  0  0  0  0  0  0  0
    6.3351    1.1671    0.0000 C   0  0  0  0  0  0  0  0  0  0  0  0
    3.0000    3.0000    0.0000 C   0  0  0  0  0  0  0  0  0  0  0  0
    6.4641   -1.0000    0.0000 C   0  0  0  0  0  0  0  0  0  0  0  0
    2.9560   -1.0068    0.0000 C   0  0  0  0  0  0  0  0  0  0  0  0
    4.7481   -2.0415    0.0000 C   0  0  0  0  0  0  0  0  0  0  0  0
    2.0000    2.0000    0.0000 C   0  0  0  0  0  0  0  0  0  0  0  0
    4.0000    2.0000    0.0000 C   0  0  0  0  0  0  0  0  0  0  0  0
    2.9480   -2.0484    0.0000 C   0  0  0  0  0  0  0  0  0  0  0  0
    3.0000    4.0000    0.0000 C   0  0  0  0  0  0  0  0  0  0  0  0
    2.0000    3.0000    0.0000 C   0  0  0  0  0  0  0  0  0  0  0  0
    4.0000    3.0000    0.0000 C   0  0  0  0  0  0  0  0  0  0  0  0
    3.8501   -2.5693    0.0000 C   0  0  0  0  0  0  0  0  0  0  0  0
    7.3301   -0.5000    0.0000 C   0  0  0  0  0  0  0  0  0  0  0  0
    6.4641   -2.0000    0.0000 C   0  0  0  0  0  0  0  0  0  0  0  0
    7.3301   -2.5000    0.0000 C   0  0  0  0  0  0  0  0  0  0  0  0
    8.1962   -1.0000    0.0000 C   0  0  0  0  0  0  0  0  0  0  0  0
    2.6023   -3.6889    0.0000 C   0  0  0  0  0  0  0  0  0  0  0  0
    8.1962   -2.0000    0.0000 C   0  0  0  0  0  0  0  0  0  0  0  0
    8.1962   -4.0000    0.0000 C   0  0  0  0  0  0  0  0  0  0  0  0
    9.0622    0.5000    0.0000 C   0  0  0  0  0  0  0  0  0  0  0  0
    9.9282   -2.0000    0.0000 C   0  0  0  0  0  0  0  0  0  0  0  0
    4.0450    1.5005    0.0000 H   0  0  0  0  0  0  0  0  0  0  0  0
    6.3750    0.1553    0.0000 H   0  0  0  0  0  0  0  0  0  0  0  0
    3.8660    1.1200    0.0000 H   0  0  0  0  0  0  0  0  0  0  0  0
    5.5981   -1.1200    0.0000 H   0  0  0  0  0  0  0  0  0  0  0  0
    4.9422    2.5918    0.0000 H   0  0  0  0  0  0  0  0  0  0  0  0
    4.3248    2.0379    0.0000 H   0  0  0  0  0  0  0  0  0  0  0  0
    2.4227   -0.6907    0.0000 H   0  0  0  0  0  0  0  0  0  0  0  0
    5.2886   -2.3453    0.0000 H   0  0  0  0  0  0  0  0  0  0  0  0
    2.0000    2.6200    0.0000 H   0  0  0  0  0  0  0  0  0  0  0  0
    1.3800    2.0000    0.0000 H   0  0  0  0  0  0  0  0  0  0  0  0
    2.0000    1.3800    0.0000 H   0  0  0  0  0  0  0  0  0  0  0  0
    4.0000    1.3800    0.0000 H   0  0  0  0  0  0  0  0  0  0  0  0
    4.6200    2.0000    0.0000 H   0  0  0  0  0  0  0  0  0  0  0  0
    4.0000    2.6200    0.0000 H   0  0  0  0  0  0  0  0  0  0  0  0
    3.6200    4.0000    0.0000 H   0  0  0  0  0  0  0  0  0  0  0  0
    3.0000    4.6200    0.0000 H   0  0  0  0  0  0  0  0  0  0  0  0
    2.3800    4.0000    0.0000 H   0  0  0  0  0  0  0  0  0  0  0  0
    2.0000    3.6200    0.0000 H   0  0  0  0  0  0  0  0  0  0  0  0
    1.3800    3.0000    0.0000 H   0  0  0  0  0  0  0  0  0  0  0  0
    2.0000    2.3800    0.0000 H   0  0  0  0  0  0  0  0  0  0  0  0
    4.0000    2.3800    0.0000 H   0  0  0  0  0  0  0  0  0  0  0  0
    4.6200    3.0000    0.0000 H   0  0  0  0  0  0  0  0  0  0  0  0
    4.0000    3.6200    0.0000 H   0  0  0  0  0  0  0  0  0  0  0  0
    7.3301    0.1200    0.0000 H   0  0  0  0  0  0  0  0  0  0  0  0
    5.9272   -2.3100    0.0000 H   0  0  0  0  0  0  0  0  0  0  0  0
    2.0127   -3.8806    0.0000 H   0  0  0  0  0  0  0  0  0  0  0  0
    2.7310   -4.2954    0.0000 H   0  0  0  0  0  0  0  0  0  0  0  0
    7.8862   -4.5369    0.0000 H   0  0  0  0  0  0  0  0  0  0  0  0
    8.7331   -4.3100    0.0000 H   0  0  0  0  0  0  0  0  0  0  0  0
    8.5062   -3.4631    0.0000 H   0  0  0  0  0  0  0  0  0  0  0  0
    9.6822    0.5000    0.0000 H   0  0  0  0  0  0  0  0  0  0  0  0
    9.0622    1.1200    0.0000 H   0  0  0  0  0  0  0  0  0  0  0  0
    8.4422    0.5000    0.0000 H   0  0  0  0  0  0  0  0  0  0  0  0
   10.2382   -2.5369    0.0000 H   0  0  0  0  0  0  0  0  0  0  0  0
   10.4651   -1.6900    0.0000 H   0  0  0  0  0  0  0  0  0  0  0  0
    9.6182   -1.4631    0.0000 H   0  0  0  0  0  0  0  0  0  0  0  0
  1  2  1  0  0  0  0
  1 18  1  0  0  0  0
  1 22  1  0  0  0  0
  1 23  1  0  0  0  0
 12  2  1  6  0  0  0
  3 16  1  0  0  0  0
  3 17  1  0  0  0  0
  4 17  2  0  0  0  0
  5 24  1  0  0  0  0
  5 33  1  0  0  0  0
  6 28  1  0  0  0  0
  6 33  1  0  0  0  0
  7 31  1  0  0  0  0
  7 35  1  0  0  0  0
  8 32  1  0  0  0  0
  8 36  1  0  0  0  0
  9 34  1  0  0  0  0
  9 37  1  0  0  0  0
 10 11  1  0  0  0  0
 10 12  1  0  0  0  0
 10 16  1  0  0  0  0
 10 38  1  6  0  0  0
 11 13  1  0  0  0  0
 11 17  1  0  0  0  0
 11 39  1  1  0  0  0
 12 14  1  0  0  0  0
 12 40  1  0  0  0  0
 13 15  1  0  0  0  0
 13 19  1  6  0  0  0
 13 41  1  0  0  0  0
 14 15  1  0  0  0  0
 14 20  2  0  0  0  0
 15 21  2  0  0  0  0
 16 42  1  0  0  0  0
 16 43  1  0  0  0  0
 18 25  1  0  0  0  0
 18 26  1  0  0  0  0
 18 27  1  0  0  0  0
 19 29  2  0  0  0  0
 19 30  1  0  0  0  0
 20 24  1  0  0  0  0
 20 44  1  0  0  0  0
 21 28  1  0  0  0  0
 21 45  1  0  0  0  0
 22 46  1  0  0  0  0
 22 47  1  0  0  0  0
 22 48  1  0  0  0  0
 23 49  1  0  0  0  0
 23 50  1  0  0  0  0
 23 51  1  0  0  0  0
 24 28  2  0  0  0  0
 25 52  1  0  0  0  0
 25 53  1  0  0  0  0
 25 54  1  0  0  0  0
 26 55  1  0  0  0  0
 26 56  1  0  0  0  0
 26 57  1  0  0  0  0
 27 58  1  0  0  0  0
 27 59  1  0  0  0  0
 27 60  1  0  0  0  0
 29 32  1  0  0  0  0
 29 61  1  0  0  0  0
 30 31  2  0  0  0  0
 30 62  1  0  0  0  0
 31 34  1  0  0  0  0
 32 34  2  0  0  0  0
 33 63  1  0  0  0  0
 33 64  1  0  0  0  0
 35 65  1  0  0  0  0
 35 66  1  0  0  0  0
 35 67  1  0  0  0  0
 36 68  1  0  0  0  0
 36 69  1  0  0  0  0
 36 70  1  0  0  0  0
 37 71  1  0  0  0  0
 37 72  1  0  0  0  0
 37 73  1  0  0  0  0
M  END
> <PUBCHEM_COMPOUND_CID>
512667
> <PUBCHEM_COMPOUND_CANONICALIZED>
1
> <PUBCHEM_CACTVS_COMPLEXITY>
816
> <PUBCHEM_CACTVS_HBOND_ACCEPTOR>
8
> <PUBCHEM_CACTVS_HBOND_DONOR>
0
> <PUBCHEM_CACTVS_ROTATABLE_BOND>
7
> <PUBCHEM_CACTVS_SUBSKEYS>
AAADcfB4PAgAAAAAAAAAAAAAAAAAASJAAAAwYMAAAAAAAEjBQAAAGhAAAEAADRSguANyDoAABAGIAiDSCAACCAAgIAAAiAEGiIgdJzKEMRqiMCIlwBUOqAfK6PyOoAABCAAQQADAAAYQADCAAAAAAAAAAA==
> <PUBCHEM_IUPAC_OPENEYE_NAME>
(5R,5aR,8aR,9R)-5-[tert-butyl(dimethyl)silyl]oxy-9-(3,4,5-trimethoxyphenyl)-5a,6,8a,9-tetrahydro-5H-isobenzofuro[6,5-f][1,3]benzodioxol-8-one
> <PUBCHEM_IUPAC_CAS_NAME>
(5R,5aR,8aR,9R)-5-[tert-butyl(dimethyl)silyl]oxy-9-(3,4,5-trimethoxyphenyl)-5a,6,8a,9-tetrahydro-5H-isobenzofuro[6,5-f][1,3]benzodioxol-8-one
> <PUBCHEM_IUPAC_NAME_MARKUP>
(5<I>R</I>,5<I>a</I><I>R</I>,8<I>a</I><I>R</I>,9<I>R</I>)-5-[<I>tert</I>-butyl(dimethyl)silyl]oxy-9-(3,4,5-trimethoxyphenyl)-5<I>a</I>,6,8<I>a</I>,9-tetrahydro-5<I>H</I>-[2]benzofuro[6,5-f][1,3]benzodioxol-8-one
> <PUBCHEM_IUPAC_NAME>
(5R,5aR,8aR,9R)-5-[tert-butyl(dimethyl)silyl]oxy-9-(3,4,5-trimethoxyphenyl)-5a,6,8a,9-tetrahydro-5H-[2]benzofuro[6,5-f][1,3]benzodioxol-8-one
> <PUBCHEM_IUPAC_SYSTEMATIC_NAME>
(5R,5aR,8aR,9R)-5-[tert-butyl(dimethyl)silyl]oxy-9-(3,4,5-trimethoxyphenyl)-5a,6,8a,9-tetrahydro-5H-[2]benzofuro[6,5-f][1,3]benzodioxol-8-one
> <PUBCHEM_IUPAC_TRADITIONAL_NAME>
(5R,5aR,8aR,9R)-5-[tert-butyl(dimethyl)silyl]oxy-9-(3,4,5-trimethoxyphenyl)-5a,6,8a,9-tetrahydro-5H-isobenzofuro[6,5-f][1,3]benzodioxol-8-one
> <PUBCHEM_IUPAC_INCHI>
InChI=1S/C28H36O8Si/c1-28(2,3)37(7,8)36-25-17-12-20-19(34-14-35-20)11-16(17)23(24-18(25)13-33-27(24)29)15-9-21(30-4)26(32-6)22(10-15)31-5/h9-12,18,23-25H,13-14H2,1-8H3/t18-,23+,24-,25-/m0/s1
> <PUBCHEM_IUPAC_INCHIKEY>
RKDMQBDZYQYJGX-PVUOONDNSA-N
> <PUBCHEM_EXACT_MASS>
528.21794464
> <PUBCHEM_MOLECULAR_FORMULA>
C28H36O8Si
> <PUBCHEM_MOLECULAR_WEIGHT>
528.7
> <PUBCHEM_OPENEYE_CAN_SMILES>
CC(C)(C)[Si](C)(C)OC1C2COC(=O)C2C(C3=CC4=C(C=C13)OCO4)C5=CC(=C(C(=C5)OC)OC)OC
> <PUBCHEM_OPENEYE_ISO_SMILES>
CC(C)(C)[Si](C)(C)O[C@@H]1[C@H]2COC(=O)[C@@H]2[C@@H](C3=CC4=C(C=C13)OCO4)C5=CC(=C(C(=C5)OC)OC)OC
> <PUBCHEM_CACTVS_TPSA>
81.7
> <PUBCHEM_MONOISOTOPIC_WEIGHT>
528.21794464
> <PUBCHEM_TOTAL_CHARGE>
0
> <PUBCHEM_HEAVY_ATOM_COUNT>
37
> <PUBCHEM_ATOM_DEF_STEREO_COUNT>
4
> <PUBCHEM_ATOM_UDEF_STEREO_COUNT>
0
> <PUBCHEM_BOND_DEF_STEREO_COUNT>
0
> <PUBCHEM_BOND_UDEF_STEREO_COUNT>
0
> <PUBCHEM_ISOTOPIC_ATOM_COUNT>
0
> <PUBCHEM_COMPONENT_COUNT>
1
> <PUBCHEM_CACTVS_TAUTO_COUNT>
-1
> <PUBCHEM_COORDINATE_TYPE>
1
5
255
> <PUBCHEM_BONDANNOTATIONS>
10  38  6
11  39  5
13  19  6
14  15  8
14  20  8
15  21  8
19  29  8
19  30  8
12  2  6
20  24  8
21  28  8
24  28  8
29  32  8
30  31  8
31  34  8
32  34  8
$$$$
