512687
  -OEChem-10302200282D
 58 60  0     1  0  0  0  0  0999 V2000
    5.3548   -1.1481    0.0000 S   0  0  0  0  0  0  0  0  0  0  0  0
    4.4026    1.3535    0.0000 O   0  0  0  0  0  0  0  0  0  0  0  0
    6.7485    2.4454    0.0000 O   0  0  0  0  0  0  0  0  0  0  0  0
    6.7523    0.2698    0.0000 O   0  0  0  0  0  0  0  0  0  0  0  0
    4.1253   -4.9544    0.0000 O   0  0  0  0  0  0  0  0  0  0  0  0
    3.7622   -3.2608    0.0000 O   0  0  0  0  0  0  0  0  0  0  0  0
    4.7957   -5.6964    0.0000 O   0  0  0  0  0  0  0  0  0  0  0  0
    4.6783    3.1141    0.0000 N   0  0  0  0  0  0  0  0  0  0  0  0
    2.8660    2.9188    0.0000 N   0  0  0  0  0  0  0  0  0  0  0  0
    2.0000    4.4188    0.0000 N   0  0  0  0  0  0  0  0  0  0  0  0
    6.0809   -4.5352    0.0000 N   0  0  0  0  0  0  0  0  0  0  0  0
    2.8660    5.9188    0.0000 N   0  0  0  0  0  0  0  0  0  0  0  0
    5.9405    1.8562    0.0000 C   0  0  2  0  0  0  0  0  0  0  0  0
    5.9422    0.8562    0.0000 C   0  0  1  0  0  0  0  0  0  0  0  0
    4.9889    2.1635    0.0000 C   0  0  1  0  0  0  0  0  0  0  0  0
    4.9917    0.5455    0.0000 C   0  0  1  0  0  0  0  0  0  0  0  0
    4.6844   -0.4061    0.0000 C   0  0  0  0  0  0  0  0  0  0  0  0
    3.7320    3.4188    0.0000 C   0  0  0  0  0  0  0  0  0  0  0  0
    5.2619    3.9188    0.0000 C   0  0  0  0  0  0  0  0  0  0  0  0
    3.7320    4.4188    0.0000 C   0  0  0  0  0  0  0  0  0  0  0  0
    4.6783    4.7235    0.0000 C   0  0  0  0  0  0  0  0  0  0  0  0
    5.0474   -2.0997    0.0000 C   0  0  0  0  0  0  0  0  0  0  0  0
    5.7178   -2.8416    0.0000 C   0  0  0  0  0  0  0  0  0  0  0  0
    2.8660    4.9188    0.0000 C   0  0  0  0  0  0  0  0  0  0  0  0
    5.4104   -3.7932    0.0000 C   0  0  3  0  0  0  0  0  0  0  0  0
    2.0000    3.4188    0.0000 C   0  0  0  0  0  0  0  0  0  0  0  0
    4.4327   -4.0028    0.0000 C   0  0  0  0  0  0  0  0  0  0  0  0
    5.7735   -5.4868    0.0000 C   0  0  0  0  0  0  0  0  0  0  0  0
    3.1475   -5.1640    0.0000 C   0  0  0  0  0  0  0  0  0  0  0  0
    6.4439   -6.2288    0.0000 C   0  0  0  0  0  0  0  0  0  0  0  0
    2.8401   -6.1156    0.0000 C   0  0  0  0  0  0  0  0  0  0  0  0
    6.4934    1.5756    0.0000 H   0  0  0  0  0  0  0  0  0  0  0  0
    6.4942    1.1386    0.0000 H   0  0  0  0  0  0  0  0  0  0  0  0
    5.4266    2.6027    0.0000 H   0  0  0  0  0  0  0  0  0  0  0  0
    4.3795    0.4475    0.0000 H   0  0  0  0  0  0  0  0  0  0  0  0
    4.1364   -0.1160    0.0000 H   0  0  0  0  0  0  0  0  0  0  0  0
    4.3035   -0.8953    0.0000 H   0  0  0  0  0  0  0  0  0  0  0  0
    7.3154    2.1942    0.0000 H   0  0  0  0  0  0  0  0  0  0  0  0
    7.3182    0.5229    0.0000 H   0  0  0  0  0  0  0  0  0  0  0  0
    5.8819    3.9188    0.0000 H   0  0  0  0  0  0  0  0  0  0  0  0
    4.8709    5.3128    0.0000 H   0  0  0  0  0  0  0  0  0  0  0  0
    4.4995   -1.8095    0.0000 H   0  0  0  0  0  0  0  0  0  0  0  0
    4.6665   -2.5889    0.0000 H   0  0  0  0  0  0  0  0  0  0  0  0
    6.2658   -3.1318    0.0000 H   0  0  0  0  0  0  0  0  0  0  0  0
    6.0987   -2.3524    0.0000 H   0  0  0  0  0  0  0  0  0  0  0  0
    6.0167   -3.6633    0.0000 H   0  0  0  0  0  0  0  0  0  0  0  0
    1.4631    3.1088    0.0000 H   0  0  0  0  0  0  0  0  0  0  0  0
    6.6871   -4.4053    0.0000 H   0  0  0  0  0  0  0  0  0  0  0  0
    2.3291    6.2288    0.0000 H   0  0  0  0  0  0  0  0  0  0  0  0
    3.4030    6.2288    0.0000 H   0  0  0  0  0  0  0  0  0  0  0  0
    3.1248   -4.5444    0.0000 H   0  0  0  0  0  0  0  0  0  0  0  0
    2.5334   -5.0788    0.0000 H   0  0  0  0  0  0  0  0  0  0  0  0
    5.9839   -6.6444    0.0000 H   0  0  0  0  0  0  0  0  0  0  0  0
    6.8596   -6.6888    0.0000 H   0  0  0  0  0  0  0  0  0  0  0  0
    6.9039   -5.8131    0.0000 H   0  0  0  0  0  0  0  0  0  0  0  0
    2.2502   -5.9250    0.0000 H   0  0  0  0  0  0  0  0  0  0  0  0
    2.6496   -6.7056    0.0000 H   0  0  0  0  0  0  0  0  0  0  0  0
    3.4301   -6.3062    0.0000 H   0  0  0  0  0  0  0  0  0  0  0  0
  1 17  1  0  0  0  0
  1 22  1  0  0  0  0
  2 15  1  0  0  0  0
  2 16  1  0  0  0  0
 13  3  1  6  0  0  0
  3 38  1  0  0  0  0
 14  4  1  6  0  0  0
  4 39  1  0  0  0  0
  5 27  1  0  0  0  0
  5 29  1  0  0  0  0
  6 27  2  0  0  0  0
  7 28  2  0  0  0  0
 15  8  1  1  0  0  0
  8 18  1  0  0  0  0
  8 19  1  0  0  0  0
  9 18  2  0  0  0  0
  9 26  1  0  0  0  0
 10 24  1  0  0  0  0
 10 26  2  0  0  0  0
 11 25  1  0  0  0  0
 11 28  1  0  0  0  0
 11 48  1  0  0  0  0
 12 24  1  0  0  0  0
 12 49  1  0  0  0  0
 12 50  1  0  0  0  0
 13 14  1  0  0  0  0
 13 15  1  0  0  0  0
 13 32  1  0  0  0  0
 14 16  1  0  0  0  0
 14 33  1  0  0  0  0
 15 34  1  0  0  0  0
 16 17  1  1  0  0  0
 16 35  1  0  0  0  0
 17 36  1  0  0  0  0
 17 37  1  0  0  0  0
 18 20  1  0  0  0  0
 19 21  2  0  0  0  0
 19 40  1  0  0  0  0
 20 21  1  0  0  0  0
 20 24  2  0  0  0  0
 21 41  1  0  0  0  0
 22 23  1  0  0  0  0
 22 42  1  0  0  0  0
 22 43  1  0  0  0  0
 23 25  1  0  0  0  0
 23 44  1  0  0  0  0
 23 45  1  0  0  0  0
 25 27  1  0  0  0  0
 25 46  1  0  0  0  0
 26 47  1  0  0  0  0
 28 30  1  0  0  0  0
 29 31  1  0  0  0  0
 29 51  1  0  0  0  0
 29 52  1  0  0  0  0
 30 53  1  0  0  0  0
 30 54  1  0  0  0  0
 30 55  1  0  0  0  0
 31 56  1  0  0  0  0
 31 57  1  0  0  0  0
 31 58  1  0  0  0  0
M  END
> <PUBCHEM_COMPOUND_CID>
512687
> <PUBCHEM_COMPOUND_CANONICALIZED>
1
> <PUBCHEM_CACTVS_COMPLEXITY>
631
> <PUBCHEM_CACTVS_HBOND_ACCEPTOR>
10
> <PUBCHEM_CACTVS_HBOND_DONOR>
4
> <PUBCHEM_CACTVS_ROTATABLE_BOND>
10
> <PUBCHEM_CACTVS_SUBSKEYS>
AAADceB7uABAAAAAAAAAAAAAAAAAAWJAAAAsAAAAAAAAAFgB+AAAHgQQCAAADDzl2wa/uN/MFgioAjP3fACCgCkxArAJ2KG4ZJiLONJgyOEPRAhPFgLzQCCwAAAIAAAAAAAAAAAAAAAAAAAAAAAAAAAAAA==
> <PUBCHEM_IUPAC_OPENEYE_NAME>
ethyl 2-acetamido-4-[[(2S,3S,4R,5R)-5-(4-aminopyrrolo[2,3-d]pyrimidin-7-yl)-3,4-dihydroxy-tetrahydrofuran-2-yl]methylsulfanyl]butanoate
> <PUBCHEM_IUPAC_CAS_NAME>
2-acetamido-4-[[(2S,3S,4R,5R)-5-(4-amino-7-pyrrolo[2,3-d]pyrimidinyl)-3,4-dihydroxy-2-oxolanyl]methylthio]butanoic acid ethyl ester
> <PUBCHEM_IUPAC_NAME_MARKUP>
ethyl 2-acetamido-4-[[(2<I>S</I>,3<I>S</I>,4<I>R</I>,5<I>R</I>)-5-(4-aminopyrrolo[2,3-d]pyrimidin-7-yl)-3,4-dihydroxyoxolan-2-yl]methylsulfanyl]butanoate
> <PUBCHEM_IUPAC_NAME>
ethyl 2-acetamido-4-[[(2S,3S,4R,5R)-5-(4-aminopyrrolo[2,3-d]pyrimidin-7-yl)-3,4-dihydroxyoxolan-2-yl]methylsulfanyl]butanoate
> <PUBCHEM_IUPAC_SYSTEMATIC_NAME>
ethyl 2-acetamido-4-[[(2S,3S,4R,5R)-5-(4-azanylpyrrolo[2,3-d]pyrimidin-7-yl)-3,4-bis(oxidanyl)oxolan-2-yl]methylsulfanyl]butanoate
> <PUBCHEM_IUPAC_TRADITIONAL_NAME>
2-acetamido-4-[[(2S,3S,4R,5R)-5-(4-aminopyrrolo[2,3-d]pyrimidin-7-yl)-3,4-dihydroxy-tetrahydrofuran-2-yl]methylthio]butyric acid ethyl ester
> <PUBCHEM_IUPAC_INCHI>
InChI=1S/C19H27N5O6S/c1-3-29-19(28)12(23-10(2)25)5-7-31-8-13-14(26)15(27)18(30-13)24-6-4-11-16(20)21-9-22-17(11)24/h4,6,9,12-15,18,26-27H,3,5,7-8H2,1-2H3,(H,23,25)(H2,20,21,22)/t12?,13-,14-,15-,18-/m1/s1
> <PUBCHEM_IUPAC_INCHIKEY>
PTGWLPMVNRBNJA-KAWGGLBOSA-N
> <PUBCHEM_XLOGP3_AA>
-0.6
> <PUBCHEM_EXACT_MASS>
453.16820477
> <PUBCHEM_MOLECULAR_FORMULA>
C19H27N5O6S
> <PUBCHEM_MOLECULAR_WEIGHT>
453.5
> <PUBCHEM_OPENEYE_CAN_SMILES>
CCOC(=O)C(CCSCC1C(C(C(O1)N2C=CC3=C(N=CN=C32)N)O)O)NC(=O)C
> <PUBCHEM_OPENEYE_ISO_SMILES>
CCOC(=O)C(CCSC[C@@H]1[C@H]([C@H]([C@@H](O1)N2C=CC3=C(N=CN=C32)N)O)O)NC(=O)C
> <PUBCHEM_CACTVS_TPSA>
187
> <PUBCHEM_MONOISOTOPIC_WEIGHT>
453.16820477
> <PUBCHEM_TOTAL_CHARGE>
0
> <PUBCHEM_HEAVY_ATOM_COUNT>
31
> <PUBCHEM_ATOM_DEF_STEREO_COUNT>
4
> <PUBCHEM_ATOM_UDEF_STEREO_COUNT>
1
> <PUBCHEM_BOND_DEF_STEREO_COUNT>
0
> <PUBCHEM_BOND_UDEF_STEREO_COUNT>
0
> <PUBCHEM_ISOTOPIC_ATOM_COUNT>
0
> <PUBCHEM_COMPONENT_COUNT>
1
> <PUBCHEM_CACTVS_TAUTO_COUNT>
-1
> <PUBCHEM_COORDINATE_TYPE>
1
5
255
> <PUBCHEM_BONDANNOTATIONS>
10  24  8
10  26  8
16  17  5
18  20  8
19  21  8
20  21  8
20  24  8
25  23  3
13  3  6
14  4  6
15  8  5
8  18  8
8  19  8
9  18  8
9  26  8
$$$$
