512629
  -OEChem-10302200282D
 47 48  0     1  0  0  0  0  0999 V2000
    9.0002   -3.2767    0.0000 P   0  0  0  0  0  0  0  0  0  0  0  0
    7.1391   -0.8121    0.0000 O   0  0  0  0  0  0  0  0  0  0  0  0
    4.5700   -0.5031    0.0000 O   0  0  0  0  0  0  0  0  0  0  0  0
    5.2423   -2.5722    0.0000 O   0  0  0  0  0  0  0  0  0  0  0  0
    8.4124   -2.4676    0.0000 O   0  0  0  0  0  0  0  0  0  0  0  0
    8.0622    0.7757    0.0000 O   0  0  0  0  0  0  0  0  0  0  0  0
    9.5880   -4.0857    0.0000 O   0  0  0  0  0  0  0  0  0  0  0  0
    9.8092   -2.6889    0.0000 O   0  0  0  0  0  0  0  0  0  0  0  0
    8.1912   -3.8644    0.0000 O   0  0  0  0  0  0  0  0  0  0  0  0
    6.3301    0.7757    0.0000 N   0  0  0  0  0  0  0  0  0  0  0  0
    7.1962    2.2757    0.0000 N   0  0  0  0  0  0  0  0  0  0  0  0
    6.3301    3.7757    0.0000 N   0  0  0  0  0  0  0  0  0  0  0  0
    5.5211   -0.8121    0.0000 C   0  0  2  0  0  0  0  0  0  0  0  0
    5.8301   -1.7632    0.0000 C   0  0  1  0  0  0  0  0  0  0  0  0
    6.3301   -0.2243    0.0000 C   0  0  1  0  0  0  0  0  0  0  0  0
    6.8301   -1.7632    0.0000 C   0  0  1  0  0  0  0  0  0  0  0  0
    7.4179   -2.5722    0.0000 C   0  0  0  0  0  0  0  0  0  0  0  0
    5.4641    1.2757    0.0000 C   0  0  0  0  0  0  0  0  0  0  0  0
    7.1962    1.2757    0.0000 C   0  0  0  0  0  0  0  0  0  0  0  0
    5.4641    2.2757    0.0000 C   0  0  0  0  0  0  0  0  0  0  0  0
    4.5981    2.7757    0.0000 C   0  0  0  0  0  0  0  0  0  0  0  0
    6.3301    2.7757    0.0000 C   0  0  0  0  0  0  0  0  0  0  0  0
    3.7320    2.2757    0.0000 C   0  0  0  0  0  0  0  0  0  0  0  0
    2.8660    2.7757    0.0000 C   0  0  0  0  0  0  0  0  0  0  0  0
    2.0000    2.2757    0.0000 C   0  0  0  0  0  0  0  0  0  0  0  0
    5.0827   -1.2505    0.0000 H   0  0  0  0  0  0  0  0  0  0  0  0
    6.1116   -2.3156    0.0000 H   0  0  0  0  0  0  0  0  0  0  0  0
    6.8826    0.0572    0.0000 H   0  0  0  0  0  0  0  0  0  0  0  0
    7.4425   -1.6662    0.0000 H   0  0  0  0  0  0  0  0  0  0  0  0
    6.8607   -2.8440    0.0000 H   0  0  0  0  0  0  0  0  0  0  0  0
    7.5888   -3.1682    0.0000 H   0  0  0  0  0  0  0  0  0  0  0  0
    4.9272    0.9657    0.0000 H   0  0  0  0  0  0  0  0  0  0  0  0
    4.1093   -0.9179    0.0000 H   0  0  0  0  0  0  0  0  0  0  0  0
    5.4945   -3.1386    0.0000 H   0  0  0  0  0  0  0  0  0  0  0  0
    4.9966    3.2506    0.0000 H   0  0  0  0  0  0  0  0  0  0  0  0
    4.1996    3.2506    0.0000 H   0  0  0  0  0  0  0  0  0  0  0  0
    3.3335    1.8007    0.0000 H   0  0  0  0  0  0  0  0  0  0  0  0
    4.1306    1.8007    0.0000 H   0  0  0  0  0  0  0  0  0  0  0  0
    3.2646    3.2506    0.0000 H   0  0  0  0  0  0  0  0  0  0  0  0
    2.4675    3.2506    0.0000 H   0  0  0  0  0  0  0  0  0  0  0  0
    6.8671    4.0857    0.0000 H   0  0  0  0  0  0  0  0  0  0  0  0
    5.7932    4.0857    0.0000 H   0  0  0  0  0  0  0  0  0  0  0  0
    1.6900    2.8126    0.0000 H   0  0  0  0  0  0  0  0  0  0  0  0
    1.4631    1.9657    0.0000 H   0  0  0  0  0  0  0  0  0  0  0  0
    2.3100    1.7388    0.0000 H   0  0  0  0  0  0  0  0  0  0  0  0
   10.2046   -4.0209    0.0000 H   0  0  0  0  0  0  0  0  0  0  0  0
    9.7444   -2.0723    0.0000 H   0  0  0  0  0  0  0  0  0  0  0  0
  1  5  1  0  0  0  0
  1  7  1  0  0  0  0
  1  8  1  0  0  0  0
  1  9  2  0  0  0  0
  2 15  1  0  0  0  0
  2 16  1  0  0  0  0
 13  3  1  1  0  0  0
  3 33  1  0  0  0  0
 14  4  1  1  0  0  0
  4 34  1  0  0  0  0
  5 17  1  0  0  0  0
  6 19  2  0  0  0  0
  7 46  1  0  0  0  0
  8 47  1  0  0  0  0
 15 10  1  6  0  0  0
 10 18  1  0  0  0  0
 10 19  1  0  0  0  0
 11 19  1  0  0  0  0
 11 22  2  0  0  0  0
 12 22  1  0  0  0  0
 12 41  1  0  0  0  0
 12 42  1  0  0  0  0
 13 14  1  0  0  0  0
 13 15  1  0  0  0  0
 13 26  1  0  0  0  0
 14 16  1  0  0  0  0
 14 27  1  0  0  0  0
 15 28  1  0  0  0  0
 16 17  1  6  0  0  0
 16 29  1  0  0  0  0
 17 30  1  0  0  0  0
 17 31  1  0  0  0  0
 18 20  2  0  0  0  0
 18 32  1  0  0  0  0
 20 21  1  0  0  0  0
 20 22  1  0  0  0  0
 21 23  1  0  0  0  0
 21 35  1  0  0  0  0
 21 36  1  0  0  0  0
 23 24  1  0  0  0  0
 23 37  1  0  0  0  0
 23 38  1  0  0  0  0
 24 25  1  0  0  0  0
 24 39  1  0  0  0  0
 24 40  1  0  0  0  0
 25 43  1  0  0  0  0
 25 44  1  0  0  0  0
 25 45  1  0  0  0  0
M  END
> <PUBCHEM_COMPOUND_CID>
512629
> <PUBCHEM_COMPOUND_CANONICALIZED>
1
> <PUBCHEM_CACTVS_COMPLEXITY>
618
> <PUBCHEM_CACTVS_HBOND_ACCEPTOR>
8
> <PUBCHEM_CACTVS_HBOND_DONOR>
5
> <PUBCHEM_CACTVS_ROTATABLE_BOND>
7
> <PUBCHEM_CACTVS_SUBSKEYS>
AAADceBzPAIAAAAAAAAAAAAAAAAAASAAAAAgAAAAAAAAAAAAAAAAHgAQCCAADBThgAYDAANABxCoQgJmdICAAAEgAAAAAAAoABiDEAIAgQAOQAAHhgITAAHwMAIAAAAAAAAAAAAAAAAAAAAAAAAAAAAAAA==
> <PUBCHEM_IUPAC_OPENEYE_NAME>
[(2R,3S,4R,5R)-5-(4-amino-5-butyl-2-oxo-pyrimidin-1-yl)-3,4-dihydroxy-tetrahydrofuran-2-yl]methyl dihydrogen phosphate
> <PUBCHEM_IUPAC_CAS_NAME>
[(2R,3S,4R,5R)-5-(4-amino-5-butyl-2-oxo-1-pyrimidinyl)-3,4-dihydroxy-2-oxolanyl]methyl dihydrogen phosphate
> <PUBCHEM_IUPAC_NAME_MARKUP>
[(2<I>R</I>,3<I>S</I>,4<I>R</I>,5<I>R</I>)-5-(4-amino-5-butyl-2-oxopyrimidin-1-yl)-3,4-dihydroxyoxolan-2-yl]methyl dihydrogen phosphate
> <PUBCHEM_IUPAC_NAME>
[(2R,3S,4R,5R)-5-(4-amino-5-butyl-2-oxopyrimidin-1-yl)-3,4-dihydroxyoxolan-2-yl]methyl dihydrogen phosphate
> <PUBCHEM_IUPAC_SYSTEMATIC_NAME>
[(2R,3S,4R,5R)-5-(4-azanyl-5-butyl-2-oxidanylidene-pyrimidin-1-yl)-3,4-bis(oxidanyl)oxolan-2-yl]methyl dihydrogen phosphate
> <PUBCHEM_IUPAC_TRADITIONAL_NAME>
[(2R,3S,4R,5R)-5-(4-amino-5-butyl-2-keto-pyrimidin-1-yl)-3,4-dihydroxy-tetrahydrofuran-2-yl]methyl dihydrogen phosphate
> <PUBCHEM_IUPAC_INCHI>
InChI=1S/C13H22N3O8P/c1-2-3-4-7-5-16(13(19)15-11(7)14)12-10(18)9(17)8(24-12)6-23-25(20,21)22/h5,8-10,12,17-18H,2-4,6H2,1H3,(H2,14,15,19)(H2,20,21,22)/t8-,9-,10-,12-/m1/s1
> <PUBCHEM_IUPAC_INCHIKEY>
SBMCVKLRAARGNH-DNRKLUKYSA-N
> <PUBCHEM_XLOGP3>
-2.1
> <PUBCHEM_EXACT_MASS>
379.11445167
> <PUBCHEM_MOLECULAR_FORMULA>
C13H22N3O8P
> <PUBCHEM_MOLECULAR_WEIGHT>
379.30
> <PUBCHEM_OPENEYE_CAN_SMILES>
CCCCC1=CN(C(=O)N=C1N)C2C(C(C(O2)COP(=O)(O)O)O)O
> <PUBCHEM_OPENEYE_ISO_SMILES>
CCCCC1=CN(C(=O)N=C1N)[C@H]2[C@@H]([C@@H]([C@H](O2)COP(=O)(O)O)O)O
> <PUBCHEM_CACTVS_TPSA>
175
> <PUBCHEM_MONOISOTOPIC_WEIGHT>
379.11445167
> <PUBCHEM_TOTAL_CHARGE>
0
> <PUBCHEM_HEAVY_ATOM_COUNT>
25
> <PUBCHEM_ATOM_DEF_STEREO_COUNT>
4
> <PUBCHEM_ATOM_UDEF_STEREO_COUNT>
0
> <PUBCHEM_BOND_DEF_STEREO_COUNT>
0
> <PUBCHEM_BOND_UDEF_STEREO_COUNT>
0
> <PUBCHEM_ISOTOPIC_ATOM_COUNT>
0
> <PUBCHEM_COMPONENT_COUNT>
1
> <PUBCHEM_CACTVS_TAUTO_COUNT>
3
> <PUBCHEM_COORDINATE_TYPE>
1
5
255
> <PUBCHEM_BONDANNOTATIONS>
15  10  6
10  18  8
10  19  8
11  19  8
11  22  8
16  17  6
18  20  8
20  22  8
13  3  5
14  4  5
$$$$
