512682
  -OEChem-10302200282D
 28 30  0     1  0  0  0  0  0999 V2000
    2.0000    0.0221    0.0000 Cl  0  0  0  0  0  0  0  0  0  0  0  0
    7.6146    0.4956    0.0000 O   0  0  0  0  0  0  0  0  0  0  0  0
    7.6183    2.6712    0.0000 O   0  0  0  0  0  0  0  0  0  0  0  0
    5.5443   -0.1731    0.0000 N   0  0  0  0  0  0  0  0  0  0  0  0
    5.5443   -1.7826    0.0000 N   0  0  0  0  0  0  0  0  0  0  0  0
    3.7320    0.0221    0.0000 N   0  0  0  0  0  0  0  0  0  0  0  0
    2.8660   -1.4779    0.0000 N   0  0  0  0  0  0  0  0  0  0  0  0
    3.7320   -2.9779    0.0000 N   0  0  0  0  0  0  0  0  0  0  0  0
    5.8550    0.7774    0.0000 C   0  0  1  0  0  0  0  0  0  0  0  0
    6.8066    1.0848    0.0000 C   0  0  1  0  0  0  0  0  0  0  0  0
    6.8083    2.0848    0.0000 C   0  0  1  0  0  0  0  0  0  0  0  0
    5.2686    1.5874    0.0000 C   0  0  0  0  0  0  0  0  0  0  0  0
    5.8578    2.3954    0.0000 C   0  0  0  0  0  0  0  0  0  0  0  0
    4.5981   -0.4779    0.0000 C   0  0  0  0  0  0  0  0  0  0  0  0
    6.1279   -0.9779    0.0000 C   0  0  0  0  0  0  0  0  0  0  0  0
    4.5981   -1.4779    0.0000 C   0  0  0  0  0  0  0  0  0  0  0  0
    3.7320   -1.9779    0.0000 C   0  0  0  0  0  0  0  0  0  0  0  0
    2.8660   -0.4779    0.0000 C   0  0  0  0  0  0  0  0  0  0  0  0
    6.2926    0.3382    0.0000 H   0  0  0  0  0  0  0  0  0  0  0  0
    6.7085    0.4726    0.0000 H   0  0  0  0  0  0  0  0  0  0  0  0
    6.7124    2.6973    0.0000 H   0  0  0  0  0  0  0  0  0  0  0  0
    4.6486    1.5885    0.0000 H   0  0  0  0  0  0  0  0  0  0  0  0
    5.6672    2.9854    0.0000 H   0  0  0  0  0  0  0  0  0  0  0  0
    6.7479   -0.9779    0.0000 H   0  0  0  0  0  0  0  0  0  0  0  0
    8.1814    0.7468    0.0000 H   0  0  0  0  0  0  0  0  0  0  0  0
    7.5546    3.2879    0.0000 H   0  0  0  0  0  0  0  0  0  0  0  0
    3.1951   -3.2879    0.0000 H   0  0  0  0  0  0  0  0  0  0  0  0
    4.2690   -3.2879    0.0000 H   0  0  0  0  0  0  0  0  0  0  0  0
  1 18  1  0  0  0  0
 10  2  1  1  0  0  0
  2 25  1  0  0  0  0
 11  3  1  1  0  0  0
  3 26  1  0  0  0  0
  9  4  1  6  0  0  0
  4 14  1  0  0  0  0
  4 15  1  0  0  0  0
  5 15  2  0  0  0  0
  5 16  1  0  0  0  0
  6 14  2  0  0  0  0
  6 18  1  0  0  0  0
  7 17  1  0  0  0  0
  7 18  2  0  0  0  0
  8 17  1  0  0  0  0
  8 27  1  0  0  0  0
  8 28  1  0  0  0  0
  9 10  1  0  0  0  0
  9 12  1  0  0  0  0
  9 19  1  0  0  0  0
 10 11  1  0  0  0  0
 10 20  1  0  0  0  0
 11 13  1  0  0  0  0
 11 21  1  0  0  0  0
 12 13  2  0  0  0  0
 12 22  1  0  0  0  0
 13 23  1  0  0  0  0
 14 16  1  0  0  0  0
 15 24  1  0  0  0  0
 16 17  2  0  0  0  0
M  END
> <PUBCHEM_COMPOUND_CID>
512682
> <PUBCHEM_COMPOUND_CANONICALIZED>
1
> <PUBCHEM_CACTVS_COMPLEXITY>
357
> <PUBCHEM_CACTVS_HBOND_ACCEPTOR>
6
> <PUBCHEM_CACTVS_HBOND_DONOR>
3
> <PUBCHEM_CACTVS_ROTATABLE_BOND>
1
> <PUBCHEM_CACTVS_SUBSKEYS>
AAADccBzsAAEAAAAAAAAAAAAAAAAAWIAAAAsAAAAAAAAAFgB+AAAHgIQCAAACDzhlwYF8L9MEgCgASZjZACAgC0xEKAJWCAoVBiDXAJAyUAUVAgOwALZECIAAAAAAAAAAAAAAAAAAAAAAAAAAAAAAAAAAA==
> <PUBCHEM_IUPAC_OPENEYE_NAME>
(1S,2R,5R)-5-(6-amino-2-chloro-purin-9-yl)cyclopent-3-ene-1,2-diol
> <PUBCHEM_IUPAC_CAS_NAME>
(1S,2R,5R)-5-(6-amino-2-chloro-9-purinyl)cyclopent-3-ene-1,2-diol
> <PUBCHEM_IUPAC_NAME_MARKUP>
(1<I>S</I>,2<I>R</I>,5<I>R</I>)-5-(6-amino-2-chloropurin-9-yl)cyclopent-3-ene-1,2-diol
> <PUBCHEM_IUPAC_NAME>
(1S,2R,5R)-5-(6-amino-2-chloropurin-9-yl)cyclopent-3-ene-1,2-diol
> <PUBCHEM_IUPAC_SYSTEMATIC_NAME>
(1S,2R,5R)-5-(6-azanyl-2-chloranyl-purin-9-yl)cyclopent-3-ene-1,2-diol
> <PUBCHEM_IUPAC_TRADITIONAL_NAME>
(1S,2R,5R)-5-(6-amino-2-chloro-purin-9-yl)cyclopent-3-ene-1,2-diol
> <PUBCHEM_IUPAC_INCHI>
InChI=1S/C10H10ClN5O2/c11-10-14-8(12)6-9(15-10)16(3-13-6)4-1-2-5(17)7(4)18/h1-5,7,17-18H,(H2,12,14,15)/t4-,5-,7+/m1/s1
> <PUBCHEM_IUPAC_INCHIKEY>
FGGWFXXBNGSUIO-XAHCXIQSSA-N
> <PUBCHEM_XLOGP3_AA>
-0.2
> <PUBCHEM_EXACT_MASS>
267.0523023
> <PUBCHEM_MOLECULAR_FORMULA>
C10H10ClN5O2
> <PUBCHEM_MOLECULAR_WEIGHT>
267.67
> <PUBCHEM_OPENEYE_CAN_SMILES>
C1=CC(C(C1N2C=NC3=C(N=C(N=C32)Cl)N)O)O
> <PUBCHEM_OPENEYE_ISO_SMILES>
C1=C[C@H]([C@H]([C@@H]1N2C=NC3=C(N=C(N=C32)Cl)N)O)O
> <PUBCHEM_CACTVS_TPSA>
110
> <PUBCHEM_MONOISOTOPIC_WEIGHT>
267.0523023
> <PUBCHEM_TOTAL_CHARGE>
0
> <PUBCHEM_HEAVY_ATOM_COUNT>
18
> <PUBCHEM_ATOM_DEF_STEREO_COUNT>
3
> <PUBCHEM_ATOM_UDEF_STEREO_COUNT>
0
> <PUBCHEM_BOND_DEF_STEREO_COUNT>
0
> <PUBCHEM_BOND_UDEF_STEREO_COUNT>
0
> <PUBCHEM_ISOTOPIC_ATOM_COUNT>
0
> <PUBCHEM_COMPONENT_COUNT>
1
> <PUBCHEM_CACTVS_TAUTO_COUNT>
-1
> <PUBCHEM_COORDINATE_TYPE>
1
5
255
> <PUBCHEM_BONDANNOTATIONS>
14  16  8
16  17  8
10  2  5
11  3  5
4  14  8
4  15  8
9  4  6
5  15  8
5  16  8
6  14  8
6  18  8
7  17  8
7  18  8
$$$$
