512685
  -OEChem-10302200282D
 61 63  0     1  0  0  0  0  0999 V2000
    5.4924   -0.7771    0.0000 S   0  0  0  0  0  0  0  0  0  0  0  0
    7.2520   -6.5998    0.0000 F   0  0  0  0  0  0  0  0  0  0  0  0
    5.8396   -6.5282    0.0000 F   0  0  0  0  0  0  0  0  0  0  0  0
    7.3236   -5.1874    0.0000 F   0  0  0  0  0  0  0  0  0  0  0  0
    4.5402    1.7245    0.0000 O   0  0  0  0  0  0  0  0  0  0  0  0
    6.8862    2.8164    0.0000 O   0  0  0  0  0  0  0  0  0  0  0  0
    6.8899    0.6408    0.0000 O   0  0  0  0  0  0  0  0  0  0  0  0
    4.2629   -4.5834    0.0000 O   0  0  0  0  0  0  0  0  0  0  0  0
    3.8999   -2.8899    0.0000 O   0  0  0  0  0  0  0  0  0  0  0  0
    4.9334   -5.3254    0.0000 O   0  0  0  0  0  0  0  0  0  0  0  0
    4.8159    3.4850    0.0000 N   0  0  0  0  0  0  0  0  0  0  0  0
    3.0037    3.2898    0.0000 N   0  0  0  0  0  0  0  0  0  0  0  0
    2.1376    4.7898    0.0000 N   0  0  0  0  0  0  0  0  0  0  0  0
    6.2185   -4.1642    0.0000 N   0  0  0  0  0  0  0  0  0  0  0  0
    3.0037    6.2898    0.0000 N   0  0  0  0  0  0  0  0  0  0  0  0
    6.0782    2.2272    0.0000 C   0  0  2  0  0  0  0  0  0  0  0  0
    6.0799    1.2272    0.0000 C   0  0  1  0  0  0  0  0  0  0  0  0
    5.1266    2.5345    0.0000 C   0  0  1  0  0  0  0  0  0  0  0  0
    5.1294    0.9165    0.0000 C   0  0  1  0  0  0  0  0  0  0  0  0
    4.8220   -0.0351    0.0000 C   0  0  0  0  0  0  0  0  0  0  0  0
    3.8697    3.7898    0.0000 C   0  0  0  0  0  0  0  0  0  0  0  0
    5.3995    4.2898    0.0000 C   0  0  0  0  0  0  0  0  0  0  0  0
    3.8697    4.7898    0.0000 C   0  0  0  0  0  0  0  0  0  0  0  0
    4.8159    5.0945    0.0000 C   0  0  0  0  0  0  0  0  0  0  0  0
    5.1851   -1.7287    0.0000 C   0  0  0  0  0  0  0  0  0  0  0  0
    5.8555   -2.4706    0.0000 C   0  0  0  0  0  0  0  0  0  0  0  0
    3.0037    5.2898    0.0000 C   0  0  0  0  0  0  0  0  0  0  0  0
    5.5481   -3.4222    0.0000 C   0  0  3  0  0  0  0  0  0  0  0  0
    2.1376    3.7898    0.0000 C   0  0  0  0  0  0  0  0  0  0  0  0
    4.5703   -3.6318    0.0000 C   0  0  0  0  0  0  0  0  0  0  0  0
    5.9112   -5.1158    0.0000 C   0  0  0  0  0  0  0  0  0  0  0  0
    3.2852   -4.7930    0.0000 C   0  0  0  0  0  0  0  0  0  0  0  0
    2.9778   -5.7446    0.0000 C   0  0  0  0  0  0  0  0  0  0  0  0
    6.5816   -5.8578    0.0000 C   0  0  0  0  0  0  0  0  0  0  0  0
    2.0000   -5.9542    0.0000 C   0  0  0  0  0  0  0  0  0  0  0  0
    5.9801    2.8394    0.0000 H   0  0  0  0  0  0  0  0  0  0  0  0
    6.6318    1.5096    0.0000 H   0  0  0  0  0  0  0  0  0  0  0  0
    5.5642    2.9737    0.0000 H   0  0  0  0  0  0  0  0  0  0  0  0
    4.5172    0.8185    0.0000 H   0  0  0  0  0  0  0  0  0  0  0  0
    4.2741    0.2550    0.0000 H   0  0  0  0  0  0  0  0  0  0  0  0
    4.4412   -0.5243    0.0000 H   0  0  0  0  0  0  0  0  0  0  0  0
    7.4530    2.5652    0.0000 H   0  0  0  0  0  0  0  0  0  0  0  0
    7.4559    0.8939    0.0000 H   0  0  0  0  0  0  0  0  0  0  0  0
    6.0195    4.2898    0.0000 H   0  0  0  0  0  0  0  0  0  0  0  0
    5.0085    5.6838    0.0000 H   0  0  0  0  0  0  0  0  0  0  0  0
    4.6371   -1.4385    0.0000 H   0  0  0  0  0  0  0  0  0  0  0  0
    4.8042   -2.2179    0.0000 H   0  0  0  0  0  0  0  0  0  0  0  0
    6.4034   -2.7608    0.0000 H   0  0  0  0  0  0  0  0  0  0  0  0
    6.2363   -1.9814    0.0000 H   0  0  0  0  0  0  0  0  0  0  0  0
    5.3575   -4.0122    0.0000 H   0  0  0  0  0  0  0  0  0  0  0  0
    1.6007    3.4798    0.0000 H   0  0  0  0  0  0  0  0  0  0  0  0
    6.8247   -4.0343    0.0000 H   0  0  0  0  0  0  0  0  0  0  0  0
    2.4667    6.5998    0.0000 H   0  0  0  0  0  0  0  0  0  0  0  0
    3.5406    6.5998    0.0000 H   0  0  0  0  0  0  0  0  0  0  0  0
    3.2624   -4.1734    0.0000 H   0  0  0  0  0  0  0  0  0  0  0  0
    2.6710   -4.7078    0.0000 H   0  0  0  0  0  0  0  0  0  0  0  0
    3.0005   -6.3642    0.0000 H   0  0  0  0  0  0  0  0  0  0  0  0
    3.5919   -5.8299    0.0000 H   0  0  0  0  0  0  0  0  0  0  0  0
    1.8700   -5.3480    0.0000 H   0  0  0  0  0  0  0  0  0  0  0  0
    1.3938   -6.0842    0.0000 H   0  0  0  0  0  0  0  0  0  0  0  0
    2.1300   -6.5605    0.0000 H   0  0  0  0  0  0  0  0  0  0  0  0
  1 20  1  0  0  0  0
  1 25  1  0  0  0  0
  2 34  1  0  0  0  0
  3 34  1  0  0  0  0
  4 34  1  0  0  0  0
  5 18  1  0  0  0  0
  5 19  1  0  0  0  0
 16  6  1  6  0  0  0
  6 42  1  0  0  0  0
 17  7  1  6  0  0  0
  7 43  1  0  0  0  0
  8 30  1  0  0  0  0
  8 32  1  0  0  0  0
  9 30  2  0  0  0  0
 10 31  2  0  0  0  0
 18 11  1  1  0  0  0
 11 21  1  0  0  0  0
 11 22  1  0  0  0  0
 12 21  2  0  0  0  0
 12 29  1  0  0  0  0
 13 27  1  0  0  0  0
 13 29  2  0  0  0  0
 14 28  1  0  0  0  0
 14 31  1  0  0  0  0
 14 52  1  0  0  0  0
 15 27  1  0  0  0  0
 15 53  1  0  0  0  0
 15 54  1  0  0  0  0
 16 17  1  0  0  0  0
 16 18  1  0  0  0  0
 16 36  1  0  0  0  0
 17 19  1  0  0  0  0
 17 37  1  0  0  0  0
 18 38  1  0  0  0  0
 19 20  1  1  0  0  0
 19 39  1  0  0  0  0
 20 40  1  0  0  0  0
 20 41  1  0  0  0  0
 21 23  1  0  0  0  0
 22 24  2  0  0  0  0
 22 44  1  0  0  0  0
 23 24  1  0  0  0  0
 23 27  2  0  0  0  0
 24 45  1  0  0  0  0
 25 26  1  0  0  0  0
 25 46  1  0  0  0  0
 25 47  1  0  0  0  0
 26 28  1  0  0  0  0
 26 48  1  0  0  0  0
 26 49  1  0  0  0  0
 28 30  1  0  0  0  0
 28 50  1  0  0  0  0
 29 51  1  0  0  0  0
 31 34  1  0  0  0  0
 32 33  1  0  0  0  0
 32 55  1  0  0  0  0
 32 56  1  0  0  0  0
 33 35  1  0  0  0  0
 33 57  1  0  0  0  0
 33 58  1  0  0  0  0
 35 59  1  0  0  0  0
 35 60  1  0  0  0  0
 35 61  1  0  0  0  0
M  END
> <PUBCHEM_COMPOUND_CID>
512685
> <PUBCHEM_COMPOUND_CANONICALIZED>
1
> <PUBCHEM_CACTVS_COMPLEXITY>
738
> <PUBCHEM_CACTVS_HBOND_ACCEPTOR>
13
> <PUBCHEM_CACTVS_HBOND_DONOR>
4
> <PUBCHEM_CACTVS_ROTATABLE_BOND>
11
> <PUBCHEM_CACTVS_SUBSKEYS>
AAADceB7uYBAAAAAAAAAAAAAAAAAAWJAAAAsAAAAAAAAAFgB+AAAHwQQCAAADDzl2xa/uN/MFgioAjP3fACCgCkxArAJ2KG4ZJiLONJgyOEPRAhPFgLzQCCwAAAIAAAAAAAAAAAAAAAAAAAAAAAAAAAAAA==
> <PUBCHEM_IUPAC_OPENEYE_NAME>
propyl 4-[[(2S,3S,4R,5R)-5-(4-aminopyrrolo[2,3-d]pyrimidin-7-yl)-3,4-dihydroxy-tetrahydrofuran-2-yl]methylsulfanyl]-2-[(2,2,2-trifluoroacetyl)amino]butanoate
> <PUBCHEM_IUPAC_CAS_NAME>
4-[[(2S,3S,4R,5R)-5-(4-amino-7-pyrrolo[2,3-d]pyrimidinyl)-3,4-dihydroxy-2-oxolanyl]methylthio]-2-[(2,2,2-trifluoro-1-oxoethyl)amino]butanoic acid propyl ester
> <PUBCHEM_IUPAC_NAME_MARKUP>
propyl 4-[[(2<I>S</I>,3<I>S</I>,4<I>R</I>,5<I>R</I>)-5-(4-aminopyrrolo[2,3-d]pyrimidin-7-yl)-3,4-dihydroxyoxolan-2-yl]methylsulfanyl]-2-[(2,2,2-trifluoroacetyl)amino]butanoate
> <PUBCHEM_IUPAC_NAME>
propyl 4-[[(2S,3S,4R,5R)-5-(4-aminopyrrolo[2,3-d]pyrimidin-7-yl)-3,4-dihydroxyoxolan-2-yl]methylsulfanyl]-2-[(2,2,2-trifluoroacetyl)amino]butanoate
> <PUBCHEM_IUPAC_SYSTEMATIC_NAME>
propyl 4-[[(2S,3S,4R,5R)-5-(4-azanylpyrrolo[2,3-d]pyrimidin-7-yl)-3,4-bis(oxidanyl)oxolan-2-yl]methylsulfanyl]-2-[2,2,2-tris(fluoranyl)ethanoylamino]butanoate
> <PUBCHEM_IUPAC_TRADITIONAL_NAME>
4-[[(2S,3S,4R,5R)-5-(4-aminopyrrolo[2,3-d]pyrimidin-7-yl)-3,4-dihydroxy-tetrahydrofuran-2-yl]methylthio]-2-[(2,2,2-trifluoroacetyl)amino]butyric acid propyl ester
> <PUBCHEM_IUPAC_INCHI>
InChI=1S/C20H26F3N5O6S/c1-2-6-33-18(31)11(27-19(32)20(21,22)23)4-7-35-8-12-13(29)14(30)17(34-12)28-5-3-10-15(24)25-9-26-16(10)28/h3,5,9,11-14,17,29-30H,2,4,6-8H2,1H3,(H,27,32)(H2,24,25,26)/t11?,12-,13-,14-,17-/m1/s1
> <PUBCHEM_IUPAC_INCHIKEY>
KPDUAIWKBQEJBL-OJUGKFCDSA-N
> <PUBCHEM_XLOGP3_AA>
1.1
> <PUBCHEM_EXACT_MASS>
521.15558923
> <PUBCHEM_MOLECULAR_FORMULA>
C20H26F3N5O6S
> <PUBCHEM_MOLECULAR_WEIGHT>
521.5
> <PUBCHEM_OPENEYE_CAN_SMILES>
CCCOC(=O)C(CCSCC1C(C(C(O1)N2C=CC3=C(N=CN=C32)N)O)O)NC(=O)C(F)(F)F
> <PUBCHEM_OPENEYE_ISO_SMILES>
CCCOC(=O)C(CCSC[C@@H]1[C@H]([C@H]([C@@H](O1)N2C=CC3=C(N=CN=C32)N)O)O)NC(=O)C(F)(F)F
> <PUBCHEM_CACTVS_TPSA>
187
> <PUBCHEM_MONOISOTOPIC_WEIGHT>
521.15558923
> <PUBCHEM_TOTAL_CHARGE>
0
> <PUBCHEM_HEAVY_ATOM_COUNT>
35
> <PUBCHEM_ATOM_DEF_STEREO_COUNT>
4
> <PUBCHEM_ATOM_UDEF_STEREO_COUNT>
1
> <PUBCHEM_BOND_DEF_STEREO_COUNT>
0
> <PUBCHEM_BOND_UDEF_STEREO_COUNT>
0
> <PUBCHEM_ISOTOPIC_ATOM_COUNT>
0
> <PUBCHEM_COMPONENT_COUNT>
1
> <PUBCHEM_CACTVS_TAUTO_COUNT>
-1
> <PUBCHEM_COORDINATE_TYPE>
1
5
255
> <PUBCHEM_BONDANNOTATIONS>
18  11  5
11  21  8
11  22  8
12  21  8
12  29  8
13  27  8
13  29  8
19  20  5
21  23  8
22  24  8
23  24  8
23  27  8
28  26  3
16  6  6
17  7  6
$$$$
