512774
  -OEChem-10302200282D
 47 49  0     1  0  0  0  0  0999 V2000
    4.3020    0.0000    0.0000 Cl  0  0  0  0  0  0  0  0  0  0  0  0
    8.1464    7.6638    0.0000 F   0  0  0  0  0  0  0  0  0  0  0  0
    6.6651    3.4938    0.0000 F   0  0  0  0  0  0  0  0  0  0  0  0
    3.1350    2.5179    0.0000 O   0  0  0  0  0  0  0  0  0  0  0  0
    0.5369    4.0179    0.0000 O   0  0  0  0  0  0  0  0  0  0  0  0
    1.4030    2.5179    0.0000 O   0  0  0  0  0  0  0  0  0  0  0  0
    6.6651    5.5421    0.0000 N   0  0  3  0  0  0  0  0  0  0  0  0
    4.0010    4.0179    0.0000 N   0  0  0  0  0  0  0  0  0  0  0  0
    9.2414    5.7839    0.0000 N   0  0  0  0  0  0  0  0  0  0  0  0
    3.1350    6.5179    0.0000 C   0  0  0  0  0  0  0  0  0  0  0  0
    3.6350    7.3840    0.0000 C   0  0  0  0  0  0  0  0  0  0  0  0
    2.6350    7.3840    0.0000 C   0  0  0  0  0  0  0  0  0  0  0  0
    3.1350    5.5179    0.0000 C   0  0  0  0  0  0  0  0  0  0  0  0
    4.0010    5.0179    0.0000 C   0  0  0  0  0  0  0  0  0  0  0  0
    8.2465    5.8846    0.0000 C   0  0  2  0  0  0  0  0  0  0  0  0
    7.5802    5.1389    0.0000 C   0  0  0  0  0  0  0  0  0  0  0  0
    6.7658    6.5370    0.0000 C   0  0  0  0  0  0  0  0  0  0  0  0
    7.7432    6.7487    0.0000 C   0  0  2  0  0  0  0  0  0  0  0  0
    5.8010    5.0388    0.0000 C   0  0  0  0  0  0  0  0  0  0  0  0
    4.8950    5.5526    0.0000 C   0  0  0  0  0  0  0  0  0  0  0  0
    2.2690    5.0179    0.0000 C   0  0  0  0  0  0  0  0  0  0  0  0
    5.8010    3.9971    0.0000 C   0  0  0  0  0  0  0  0  0  0  0  0
    2.2690    4.0179    0.0000 C   0  0  0  0  0  0  0  0  0  0  0  0
    4.8950    3.4833    0.0000 C   0  0  0  0  0  0  0  0  0  0  0  0
    3.1350    3.5179    0.0000 C   0  0  0  0  0  0  0  0  0  0  0  0
    4.8834    6.5525    0.0000 C   0  0  0  0  0  0  0  0  0  0  0  0
    1.4030    3.5179    0.0000 C   0  0  0  0  0  0  0  0  0  0  0  0
    2.5361    6.3575    0.0000 H   0  0  0  0  0  0  0  0  0  0  0  0
    4.2176    7.1719    0.0000 H   0  0  0  0  0  0  0  0  0  0  0  0
    3.7427    7.9946    0.0000 H   0  0  0  0  0  0  0  0  0  0  0  0
    2.5274    7.9946    0.0000 H   0  0  0  0  0  0  0  0  0  0  0  0
    2.0524    7.1719    0.0000 H   0  0  0  0  0  0  0  0  0  0  0  0
    8.5822    6.4059    0.0000 H   0  0  0  0  0  0  0  0  0  0  0  0
    7.2723    4.6008    0.0000 H   0  0  0  0  0  0  0  0  0  0  0  0
    8.0832    4.7764    0.0000 H   0  0  0  0  0  0  0  0  0  0  0  0
    6.6986    7.1534    0.0000 H   0  0  0  0  0  0  0  0  0  0  0  0
    6.1458    6.5346    0.0000 H   0  0  0  0  0  0  0  0  0  0  0  0
    7.3511    7.2290    0.0000 H   0  0  0  0  0  0  0  0  0  0  0  0
    1.7320    5.3279    0.0000 H   0  0  0  0  0  0  0  0  0  0  0  0
    4.8878    2.8633    0.0000 H   0  0  0  0  0  0  0  0  0  0  0  0
    5.5034    6.5597    0.0000 H   0  0  0  0  0  0  0  0  0  0  0  0
    4.8762    7.1725    0.0000 H   0  0  0  0  0  0  0  0  0  0  0  0
    4.2635    6.5454    0.0000 H   0  0  0  0  0  0  0  0  0  0  0  0
    9.4958    5.2185    0.0000 H   0  0  0  0  0  0  0  0  0  0  0  0
    9.6039    6.2869    0.0000 H   0  0  0  0  0  0  0  0  0  0  0  0
    0.0000    3.7079    0.0000 H   0  0  0  0  0  0  0  0  0  0  0  0
    5.3020    0.0000    0.0000 H   0  0  0  0  0  0  0  0  0  0  0  0
  1 47  1  0  0  0  0
 18  2  1  6  0  0  0
  3 22  1  0  0  0  0
  4 25  2  0  0  0  0
  5 27  1  0  0  0  0
  5 46  1  0  0  0  0
  6 27  2  0  0  0  0
  7 16  1  0  0  0  0
  7 17  1  0  0  0  0
  7 19  1  0  0  0  0
  8 14  1  0  0  0  0
  8 24  1  0  0  0  0
  8 25  1  0  0  0  0
 15  9  1  6  0  0  0
  9 44  1  0  0  0  0
  9 45  1  0  0  0  0
 10 11  1  0  0  0  0
 10 12  1  0  0  0  0
 10 13  1  0  0  0  0
 10 28  1  0  0  0  0
 11 12  1  0  0  0  0
 11 29  1  0  0  0  0
 11 30  1  0  0  0  0
 12 31  1  0  0  0  0
 12 32  1  0  0  0  0
 13 14  2  0  0  0  0
 13 21  1  0  0  0  0
 14 20  1  0  0  0  0
 15 16  1  0  0  0  0
 15 18  1  0  0  0  0
 15 33  1  0  0  0  0
 16 34  1  0  0  0  0
 16 35  1  0  0  0  0
 17 18  1  0  0  0  0
 17 36  1  0  0  0  0
 17 37  1  0  0  0  0
 18 38  1  0  0  0  0
 19 20  2  0  0  0  0
 19 22  1  0  0  0  0
 20 26  1  0  0  0  0
 21 23  2  0  0  0  0
 21 39  1  0  0  0  0
 22 24  2  0  0  0  0
 23 25  1  0  0  0  0
 23 27  1  0  0  0  0
 24 40  1  0  0  0  0
 26 41  1  0  0  0  0
 26 42  1  0  0  0  0
 26 43  1  0  0  0  0
M  END
> <PUBCHEM_COMPOUND_CID>
512774
> <PUBCHEM_COMPOUND_CANONICALIZED>
1
> <PUBCHEM_CACTVS_COMPLEXITY>
839
> <PUBCHEM_CACTVS_HBOND_ACCEPTOR>
7
> <PUBCHEM_CACTVS_HBOND_DONOR>
3
> <PUBCHEM_CACTVS_ROTATABLE_BOND>
3
> <PUBCHEM_CACTVS_SUBSKEYS>
AAADceB7MYAEAAAAAAAAAAAAGAAAAWAAAAAgQAAAAAAAAACAAAAAHwAQCAAADSjBgAQCCANAAgCIAiXWWACAAAAgAAAACIEIAEgIRA4IwAAUUAACtgCIkYIAAAAIAAAAAAAAAAAAAAAAAAAAAAAAAAAAAA==
> <PUBCHEM_IUPAC_OPENEYE_NAME>
8-[(3R,4S)-3-amino-4-fluoro-pyrrolidin-1-yl]-1-cyclopropyl-7-fluoro-9-methyl-4-oxo-quinolizine-3-carboxylic acid;hydrochloride
> <PUBCHEM_IUPAC_CAS_NAME>
8-[(3R,4S)-3-amino-4-fluoro-1-pyrrolidinyl]-1-cyclopropyl-7-fluoro-9-methyl-4-oxo-3-quinolizinecarboxylic acid;hydrochloride
> <PUBCHEM_IUPAC_NAME_MARKUP>
8-[(3<I>R</I>,4<I>S</I>)-3-amino-4-fluoropyrrolidin-1-yl]-1-cyclopropyl-7-fluoro-9-methyl-4-oxoquinolizine-3-carboxylic acid;hydrochloride
> <PUBCHEM_IUPAC_NAME>
8-[(3R,4S)-3-amino-4-fluoropyrrolidin-1-yl]-1-cyclopropyl-7-fluoro-9-methyl-4-oxoquinolizine-3-carboxylic acid;hydrochloride
> <PUBCHEM_IUPAC_SYSTEMATIC_NAME>
8-[(3R,4S)-3-azanyl-4-fluoranyl-pyrrolidin-1-yl]-1-cyclopropyl-7-fluoranyl-9-methyl-4-oxidanylidene-quinolizine-3-carboxylic acid;hydrochloride
> <PUBCHEM_IUPAC_TRADITIONAL_NAME>
8-[(3R,4S)-3-amino-4-fluoro-pyrrolidino]-1-cyclopropyl-7-fluoro-4-keto-9-methyl-quinolizine-3-carboxylic acid;hydrochloride
> <PUBCHEM_IUPAC_INCHI>
InChI=1S/C18H19F2N3O3.ClH/c1-8-15-10(9-2-3-9)4-11(18(25)26)17(24)23(15)6-13(20)16(8)22-5-12(19)14(21)7-22;/h4,6,9,12,14H,2-3,5,7,21H2,1H3,(H,25,26);1H/t12-,14+;/m0./s1
> <PUBCHEM_IUPAC_INCHIKEY>
MJWYIHGMGMCMRY-DSHXVJGRSA-N
> <PUBCHEM_EXACT_MASS>
399.1161255
> <PUBCHEM_MOLECULAR_FORMULA>
C18H20ClF2N3O3
> <PUBCHEM_MOLECULAR_WEIGHT>
399.8
> <PUBCHEM_OPENEYE_CAN_SMILES>
CC1=C(C(=CN2C1=C(C=C(C2=O)C(=O)O)C3CC3)F)N4CC(C(C4)F)N.Cl
> <PUBCHEM_OPENEYE_ISO_SMILES>
CC1=C(C(=CN2C1=C(C=C(C2=O)C(=O)O)C3CC3)F)N4C[C@H]([C@H](C4)F)N.Cl
> <PUBCHEM_CACTVS_TPSA>
86.9
> <PUBCHEM_MONOISOTOPIC_WEIGHT>
399.1161255
> <PUBCHEM_TOTAL_CHARGE>
0
> <PUBCHEM_HEAVY_ATOM_COUNT>
27
> <PUBCHEM_ATOM_DEF_STEREO_COUNT>
2
> <PUBCHEM_ATOM_UDEF_STEREO_COUNT>
0
> <PUBCHEM_BOND_DEF_STEREO_COUNT>
0
> <PUBCHEM_BOND_UDEF_STEREO_COUNT>
0
> <PUBCHEM_ISOTOPIC_ATOM_COUNT>
0
> <PUBCHEM_COMPONENT_COUNT>
2
> <PUBCHEM_CACTVS_TAUTO_COUNT>
-1
> <PUBCHEM_COORDINATE_TYPE>
1
5
255
> <PUBCHEM_BONDANNOTATIONS>
13  14  8
13  21  8
14  20  8
19  20  8
19  22  8
18  2  6
21  23  8
22  24  8
23  25  8
8  14  8
8  24  8
8  25  8
15  9  6
$$$$
