512799
  -OEChem-10302200282D
 51 54  0     1  0  0  0  0  0999 V2000
    4.3809    0.0000    0.0000 Cl  0  0  0  0  0  0  0  0  0  0  0  0
    3.0960    3.5495    0.0000 F   0  0  0  0  0  0  0  0  0  0  0  0
    6.5765    2.5149    0.0000 O   0  0  0  0  0  0  0  0  0  0  0  0
    9.2262    4.0220    0.0000 O   0  0  0  0  0  0  0  0  0  0  0  0
    8.3544    2.5253    0.0000 O   0  0  0  0  0  0  0  0  0  0  0  0
    3.0960    5.5495    0.0000 N   0  0  3  0  0  0  0  0  0  0  0  0
    0.7110    4.4906    0.0000 N   0  0  0  0  0  0  0  0  0  0  0  0
    5.6941    4.0495    0.0000 N   0  0  0  0  0  0  0  0  0  0  0  0
    1.5134    5.8859    0.0000 C   0  0  3  0  0  0  0  0  0  0  0  0
    2.1825    5.1427    0.0000 C   0  0  3  0  0  0  0  0  0  0  0  0
    2.0134    6.7519    0.0000 C   0  0  0  0  0  0  0  0  0  0  0  0
    2.9915    6.5440    0.0000 C   0  0  0  0  0  0  0  0  0  0  0  0
    0.6063    5.4792    0.0000 C   0  0  0  0  0  0  0  0  0  0  0  0
    1.6832    4.2831    0.0000 C   0  0  0  0  0  0  0  0  0  0  0  0
    6.5765    6.5841    0.0000 C   0  0  0  0  0  0  0  0  0  0  0  0
    7.0664    7.4558    0.0000 C   0  0  0  0  0  0  0  0  0  0  0  0
    6.0665    7.4442    0.0000 C   0  0  0  0  0  0  0  0  0  0  0  0
    3.9620    5.0495    0.0000 C   0  0  0  0  0  0  0  0  0  0  0  0
    6.5880    5.5841    0.0000 C   0  0  0  0  0  0  0  0  0  0  0  0
    4.8281    5.5495    0.0000 C   0  0  0  0  0  0  0  0  0  0  0  0
    5.6941    5.0495    0.0000 C   0  0  0  0  0  0  0  0  0  0  0  0
    3.9620    4.0495    0.0000 C   0  0  0  0  0  0  0  0  0  0  0  0
    7.4941    5.0703    0.0000 C   0  0  0  0  0  0  0  0  0  0  0  0
    4.8281    3.5495    0.0000 C   0  0  0  0  0  0  0  0  0  0  0  0
    4.8281    6.5495    0.0000 C   0  0  0  0  0  0  0  0  0  0  0  0
    6.5880    3.5148    0.0000 C   0  0  0  0  0  0  0  0  0  0  0  0
    7.4941    4.0287    0.0000 C   0  0  0  0  0  0  0  0  0  0  0  0
    8.3582    3.5253    0.0000 C   0  0  0  0  0  0  0  0  0  0  0  0
    1.0979    6.3461    0.0000 H   0  0  0  0  0  0  0  0  0  0  0  0
    2.5967    4.6814    0.0000 H   0  0  0  0  0  0  0  0  0  0  0  0
    2.2049    7.3416    0.0000 H   0  0  0  0  0  0  0  0  0  0  0  0
    1.4470    7.0041    0.0000 H   0  0  0  0  0  0  0  0  0  0  0  0
    3.6115    6.5440    0.0000 H   0  0  0  0  0  0  0  0  0  0  0  0
    3.0563    7.1606    0.0000 H   0  0  0  0  0  0  0  0  0  0  0  0
    0.4135    6.0685    0.0000 H   0  0  0  0  0  0  0  0  0  0  0  0
    0.0000    5.3494    0.0000 H   0  0  0  0  0  0  0  0  0  0  0  0
    1.4908    3.6938    0.0000 H   0  0  0  0  0  0  0  0  0  0  0  0
    2.2491    4.0298    0.0000 H   0  0  0  0  0  0  0  0  0  0  0  0
    5.9795    6.4167    0.0000 H   0  0  0  0  0  0  0  0  0  0  0  0
    0.2503    4.0758    0.0000 H   0  0  0  0  0  0  0  0  0  0  0  0
    7.6514    7.2505    0.0000 H   0  0  0  0  0  0  0  0  0  0  0  0
    7.1670    8.0676    0.0000 H   0  0  0  0  0  0  0  0  0  0  0  0
    5.9518    8.0536    0.0000 H   0  0  0  0  0  0  0  0  0  0  0  0
    5.4864    7.2255    0.0000 H   0  0  0  0  0  0  0  0  0  0  0  0
    8.0298    5.3824    0.0000 H   0  0  0  0  0  0  0  0  0  0  0  0
    4.8281    2.9295    0.0000 H   0  0  0  0  0  0  0  0  0  0  0  0
    5.4481    6.5495    0.0000 H   0  0  0  0  0  0  0  0  0  0  0  0
    4.8281    7.1695    0.0000 H   0  0  0  0  0  0  0  0  0  0  0  0
    4.2081    6.5495    0.0000 H   0  0  0  0  0  0  0  0  0  0  0  0
    9.7619    3.7099    0.0000 H   0  0  0  0  0  0  0  0  0  0  0  0
    5.3809    0.0000    0.0000 H   0  0  0  0  0  0  0  0  0  0  0  0
  1 51  1  0  0  0  0
  2 22  1  0  0  0  0
  3 26  2  0  0  0  0
  4 28  1  0  0  0  0
  4 50  1  0  0  0  0
  5 28  2  0  0  0  0
  6 10  1  0  0  0  0
  6 12  1  0  0  0  0
  6 18  1  0  0  0  0
  7 13  1  0  0  0  0
  7 14  1  0  0  0  0
  7 40  1  0  0  0  0
  8 21  1  0  0  0  0
  8 24  1  0  0  0  0
  8 26  1  0  0  0  0
  9 10  1  0  0  0  0
  9 11  1  0  0  0  0
  9 13  1  0  0  0  0
  9 29  1  0  0  0  0
 10 14  1  0  0  0  0
 10 30  1  0  0  0  0
 11 12  1  0  0  0  0
 11 31  1  0  0  0  0
 11 32  1  0  0  0  0
 12 33  1  0  0  0  0
 12 34  1  0  0  0  0
 13 35  1  0  0  0  0
 13 36  1  0  0  0  0
 14 37  1  0  0  0  0
 14 38  1  0  0  0  0
 15 16  1  0  0  0  0
 15 17  1  0  0  0  0
 15 19  1  0  0  0  0
 15 39  1  0  0  0  0
 16 17  1  0  0  0  0
 16 41  1  0  0  0  0
 16 42  1  0  0  0  0
 17 43  1  0  0  0  0
 17 44  1  0  0  0  0
 18 20  2  0  0  0  0
 18 22  1  0  0  0  0
 19 21  2  0  0  0  0
 19 23  1  0  0  0  0
 20 21  1  0  0  0  0
 20 25  1  0  0  0  0
 22 24  2  0  0  0  0
 23 27  2  0  0  0  0
 23 45  1  0  0  0  0
 24 46  1  0  0  0  0
 25 47  1  0  0  0  0
 25 48  1  0  0  0  0
 25 49  1  0  0  0  0
 26 27  1  0  0  0  0
 27 28  1  0  0  0  0
M  END
> <PUBCHEM_COMPOUND_CID>
512799
> <PUBCHEM_COMPOUND_CANONICALIZED>
1
> <PUBCHEM_CACTVS_COMPLEXITY>
881
> <PUBCHEM_CACTVS_HBOND_ACCEPTOR>
6
> <PUBCHEM_CACTVS_HBOND_DONOR>
3
> <PUBCHEM_CACTVS_ROTATABLE_BOND>
3
> <PUBCHEM_CACTVS_SUBSKEYS>
AAADceB7MQAEAAAAAAAAAAAAGAAAAWLAAAAgQAAAAAAWAACAAAAAHwAQCAAADSjBgAQCCAPAAgCIAiXWWACAAAAgAAAACIEIAEgIRA4IwAAUUAACtgCIkYIQAAAKAAAAAAAAAAAAAAAAAAAAAAAAAAAAAA==
> <PUBCHEM_IUPAC_OPENEYE_NAME>
8-(3,3a,4,5,6,6a-hexahydro-2H-pyrrolo[2,3-c]pyrrol-1-yl)-1-cyclopropyl-7-fluoro-9-methyl-4-oxo-quinolizine-3-carboxylic acid;hydrochloride
> <PUBCHEM_IUPAC_CAS_NAME>
8-(3,3a,4,5,6,6a-hexahydro-2H-pyrrolo[2,3-c]pyrrol-1-yl)-1-cyclopropyl-7-fluoro-9-methyl-4-oxo-3-quinolizinecarboxylic acid;hydrochloride
> <PUBCHEM_IUPAC_NAME_MARKUP>
8-(3,3<I>a</I>,4,5,6,6<I>a</I>-hexahydro-2<I>H</I>-pyrrolo[2,3-c]pyrrol-1-yl)-1-cyclopropyl-7-fluoro-9-methyl-4-oxoquinolizine-3-carboxylic acid;hydrochloride
> <PUBCHEM_IUPAC_NAME>
8-(3,3a,4,5,6,6a-hexahydro-2H-pyrrolo[2,3-c]pyrrol-1-yl)-1-cyclopropyl-7-fluoro-9-methyl-4-oxoquinolizine-3-carboxylic acid;hydrochloride
> <PUBCHEM_IUPAC_SYSTEMATIC_NAME>
8-(3,3a,4,5,6,6a-hexahydro-2H-pyrrolo[2,3-c]pyrrol-1-yl)-1-cyclopropyl-7-fluoranyl-9-methyl-4-oxidanylidene-quinolizine-3-carboxylic acid;hydrochloride
> <PUBCHEM_IUPAC_TRADITIONAL_NAME>
8-(3,3a,4,5,6,6a-hexahydro-2H-pyrrolo[2,3-c]pyrrol-1-yl)-1-cyclopropyl-7-fluoro-4-keto-9-methyl-quinolizine-3-carboxylic acid;hydrochloride
> <PUBCHEM_IUPAC_INCHI>
InChI=1S/C20H22FN3O3.ClH/c1-10-17-13(11-2-3-11)6-14(20(26)27)19(25)24(17)9-15(21)18(10)23-5-4-12-7-22-8-16(12)23;/h6,9,11-12,16,22H,2-5,7-8H2,1H3,(H,26,27);1H
> <PUBCHEM_IUPAC_INCHIKEY>
NMZSALHOFJOEEA-UHFFFAOYSA-N
> <PUBCHEM_EXACT_MASS>
407.1411975
> <PUBCHEM_MOLECULAR_FORMULA>
C20H23ClFN3O3
> <PUBCHEM_MOLECULAR_WEIGHT>
407.9
> <PUBCHEM_OPENEYE_CAN_SMILES>
CC1=C(C(=CN2C1=C(C=C(C2=O)C(=O)O)C3CC3)F)N4CCC5C4CNC5.Cl
> <PUBCHEM_OPENEYE_ISO_SMILES>
CC1=C(C(=CN2C1=C(C=C(C2=O)C(=O)O)C3CC3)F)N4CCC5C4CNC5.Cl
> <PUBCHEM_CACTVS_TPSA>
72.9
> <PUBCHEM_MONOISOTOPIC_WEIGHT>
407.1411975
> <PUBCHEM_TOTAL_CHARGE>
0
> <PUBCHEM_HEAVY_ATOM_COUNT>
28
> <PUBCHEM_ATOM_DEF_STEREO_COUNT>
0
> <PUBCHEM_ATOM_UDEF_STEREO_COUNT>
2
> <PUBCHEM_BOND_DEF_STEREO_COUNT>
0
> <PUBCHEM_BOND_UDEF_STEREO_COUNT>
0
> <PUBCHEM_ISOTOPIC_ATOM_COUNT>
0
> <PUBCHEM_COMPONENT_COUNT>
2
> <PUBCHEM_CACTVS_TAUTO_COUNT>
-1
> <PUBCHEM_COORDINATE_TYPE>
1
5
255
> <PUBCHEM_BONDANNOTATIONS>
10  14  3
18  20  8
18  22  8
19  21  8
19  23  8
20  21  8
22  24  8
23  27  8
26  27  8
8  21  8
8  24  8
8  26  8
9  11  3
$$$$
