512717
  -OEChem-10302200282D
 33 35  0     1  0  0  0  0  0999 V2000
    6.2619    1.2374    0.0000 Cl  0  0  0  0  0  0  0  0  0  0  0  0
    4.9889    2.9927    0.0000 Cl  0  0  0  0  0  0  0  0  0  0  0  0
    5.9405   -0.8252    0.0000 O   0  0  0  0  0  0  0  0  0  0  0  0
    3.4026   -1.3296    0.0000 O   0  0  0  0  0  0  0  0  0  0  0  0
    4.6844   -3.0874    0.0000 O   0  0  0  0  0  0  0  0  0  0  0  0
    7.6651   -2.0032    0.0000 O   0  0  0  0  0  0  0  0  0  0  0  0
    4.6783    0.4327    0.0000 N   0  0  0  0  0  0  0  0  0  0  0  0
    2.8660    0.2375    0.0000 N   0  0  0  0  0  0  0  0  0  0  0  0
    2.0000    1.7374    0.0000 N   0  0  0  0  0  0  0  0  0  0  0  0
    2.8660    3.2374    0.0000 N   0  0  0  0  0  0  0  0  0  0  0  0
    4.9889   -0.5178    0.0000 C   0  0  1  0  0  0  0  0  0  0  0  0
    4.4026   -1.3278    0.0000 C   0  0  1  0  0  0  0  0  0  0  0  0
    4.9917   -2.1358    0.0000 C   0  0  1  0  0  0  0  0  0  0  0  0
    5.9422   -1.8252    0.0000 C   0  0  1  0  0  0  0  0  0  0  0  0
    6.7523   -2.4116    0.0000 C   0  0  0  0  0  0  0  0  0  0  0  0
    3.7320    0.7375    0.0000 C   0  0  0  0  0  0  0  0  0  0  0  0
    5.2619    1.2374    0.0000 C   0  0  0  0  0  0  0  0  0  0  0  0
    3.7320    1.7374    0.0000 C   0  0  0  0  0  0  0  0  0  0  0  0
    4.6783    2.0422    0.0000 C   0  0  0  0  0  0  0  0  0  0  0  0
    2.8660    2.2374    0.0000 C   0  0  0  0  0  0  0  0  0  0  0  0
    2.0000    0.7375    0.0000 C   0  0  0  0  0  0  0  0  0  0  0  0
    5.4266   -0.0786    0.0000 H   0  0  0  0  0  0  0  0  0  0  0  0
    4.1220   -1.8807    0.0000 H   0  0  0  0  0  0  0  0  0  0  0  0
    5.4309   -2.5735    0.0000 H   0  0  0  0  0  0  0  0  0  0  0  0
    6.4942   -1.5427    0.0000 H   0  0  0  0  0  0  0  0  0  0  0  0
    6.3070   -2.8430    0.0000 H   0  0  0  0  0  0  0  0  0  0  0  0
    7.0999   -2.9250    0.0000 H   0  0  0  0  0  0  0  0  0  0  0  0
    3.0935   -1.8670    0.0000 H   0  0  0  0  0  0  0  0  0  0  0  0
    5.1000   -3.5474    0.0000 H   0  0  0  0  0  0  0  0  0  0  0  0
    8.1674   -2.3668    0.0000 H   0  0  0  0  0  0  0  0  0  0  0  0
    1.4631    0.4275    0.0000 H   0  0  0  0  0  0  0  0  0  0  0  0
    2.3291    3.5474    0.0000 H   0  0  0  0  0  0  0  0  0  0  0  0
    3.4030    3.5474    0.0000 H   0  0  0  0  0  0  0  0  0  0  0  0
  1 17  1  0  0  0  0
  2 19  1  0  0  0  0
  3 11  1  0  0  0  0
  3 14  1  0  0  0  0
 12  4  1  1  0  0  0
  4 28  1  0  0  0  0
 13  5  1  1  0  0  0
  5 29  1  0  0  0  0
  6 15  1  0  0  0  0
  6 30  1  0  0  0  0
 11  7  1  6  0  0  0
  7 16  1  0  0  0  0
  7 17  1  0  0  0  0
  8 16  2  0  0  0  0
  8 21  1  0  0  0  0
  9 20  1  0  0  0  0
  9 21  2  0  0  0  0
 10 20  1  0  0  0  0
 10 32  1  0  0  0  0
 10 33  1  0  0  0  0
 11 12  1  0  0  0  0
 11 22  1  0  0  0  0
 12 13  1  0  0  0  0
 12 23  1  0  0  0  0
 13 14  1  0  0  0  0
 13 24  1  0  0  0  0
 14 15  1  6  0  0  0
 14 25  1  0  0  0  0
 15 26  1  0  0  0  0
 15 27  1  0  0  0  0
 16 18  1  0  0  0  0
 17 19  2  0  0  0  0
 18 19  1  0  0  0  0
 18 20  2  0  0  0  0
 21 31  1  0  0  0  0
M  END
> <PUBCHEM_COMPOUND_CID>
512717
> <PUBCHEM_COMPOUND_CANONICALIZED>
1
> <PUBCHEM_CACTVS_COMPLEXITY>
395
> <PUBCHEM_CACTVS_HBOND_ACCEPTOR>
7
> <PUBCHEM_CACTVS_HBOND_DONOR>
4
> <PUBCHEM_CACTVS_ROTATABLE_BOND>
2
> <PUBCHEM_CACTVS_SUBSKEYS>
AAADccBzuAAGAAAAAAAAAAAAAAAAAWJAAAAsAAAAAAAAAFgB+AAAHgIQCAAADBbhmyYFsN9MFgCgAgJhZACCgCkxBKAB2mAoRpiLOEJBysFORAhPAALTQCDwMAIIAAAAAAAAAAAAAAAAAAAAAAAAAAAAAA==
> <PUBCHEM_IUPAC_OPENEYE_NAME>
(2R,3R,4S,5R)-2-(4-amino-5,6-dichloro-pyrrolo[2,3-d]pyrimidin-7-yl)-5-(hydroxymethyl)tetrahydrofuran-3,4-diol
> <PUBCHEM_IUPAC_CAS_NAME>
(2R,3R,4S,5R)-2-(4-amino-5,6-dichloro-7-pyrrolo[2,3-d]pyrimidinyl)-5-(hydroxymethyl)oxolane-3,4-diol
> <PUBCHEM_IUPAC_NAME_MARKUP>
(2<I>R</I>,3<I>R</I>,4<I>S</I>,5<I>R</I>)-2-(4-amino-5,6-dichloropyrrolo[2,3-d]pyrimidin-7-yl)-5-(hydroxymethyl)oxolane-3,4-diol
> <PUBCHEM_IUPAC_NAME>
(2R,3R,4S,5R)-2-(4-amino-5,6-dichloropyrrolo[2,3-d]pyrimidin-7-yl)-5-(hydroxymethyl)oxolane-3,4-diol
> <PUBCHEM_IUPAC_SYSTEMATIC_NAME>
(2R,3R,4S,5R)-2-[4-azanyl-5,6-bis(chloranyl)pyrrolo[2,3-d]pyrimidin-7-yl]-5-(hydroxymethyl)oxolane-3,4-diol
> <PUBCHEM_IUPAC_TRADITIONAL_NAME>
(2R,3R,4S,5R)-2-(4-amino-5,6-dichloro-pyrrolo[2,3-d]pyrimidin-7-yl)-5-methylol-tetrahydrofuran-3,4-diol
> <PUBCHEM_IUPAC_INCHI>
InChI=1S/C11H12Cl2N4O4/c12-5-4-9(14)15-2-16-10(4)17(8(5)13)11-7(20)6(19)3(1-18)21-11/h2-3,6-7,11,18-20H,1H2,(H2,14,15,16)/t3-,6-,7-,11-/m1/s1
> <PUBCHEM_IUPAC_INCHIKEY>
AURHPCAMPHQFCR-BBBNYMBOSA-N
> <PUBCHEM_XLOGP3_AA>
0.2
> <PUBCHEM_EXACT_MASS>
334.0235603
> <PUBCHEM_MOLECULAR_FORMULA>
C11H12Cl2N4O4
> <PUBCHEM_MOLECULAR_WEIGHT>
335.14
> <PUBCHEM_OPENEYE_CAN_SMILES>
C1=NC(=C2C(=C(N(C2=N1)C3C(C(C(O3)CO)O)O)Cl)Cl)N
> <PUBCHEM_OPENEYE_ISO_SMILES>
C1=NC(=C2C(=C(N(C2=N1)[C@H]3[C@@H]([C@@H]([C@H](O3)CO)O)O)Cl)Cl)N
> <PUBCHEM_CACTVS_TPSA>
127
> <PUBCHEM_MONOISOTOPIC_WEIGHT>
334.0235603
> <PUBCHEM_TOTAL_CHARGE>
0
> <PUBCHEM_HEAVY_ATOM_COUNT>
21
> <PUBCHEM_ATOM_DEF_STEREO_COUNT>
4
> <PUBCHEM_ATOM_UDEF_STEREO_COUNT>
0
> <PUBCHEM_BOND_DEF_STEREO_COUNT>
0
> <PUBCHEM_BOND_UDEF_STEREO_COUNT>
0
> <PUBCHEM_ISOTOPIC_ATOM_COUNT>
0
> <PUBCHEM_COMPONENT_COUNT>
1
> <PUBCHEM_CACTVS_TAUTO_COUNT>
4
> <PUBCHEM_COORDINATE_TYPE>
1
5
255
> <PUBCHEM_BONDANNOTATIONS>
14  15  6
16  18  8
17  19  8
18  19  8
18  20  8
12  4  5
13  5  5
11  7  6
7  16  8
7  17  8
8  16  8
8  21  8
9  20  8
9  21  8
$$$$
