512741
  -OEChem-10302200282D
 63 65  0     1  0  0  0  0  0999 V2000
    4.2690   -1.7500    0.0000 O   0  0  0  0  0  0  0  0  0  0  0  0
    7.5188   -1.6680    0.0000 O   0  0  0  0  0  0  0  0  0  0  0  0
    6.0089   -2.5166    0.0000 O   0  0  0  0  0  0  0  0  0  0  0  0
    2.5369   -1.7500    0.0000 O   0  0  0  0  0  0  0  0  0  0  0  0
    2.5369    5.2500    0.0000 O   0  0  0  0  0  0  0  0  0  0  0  0
    5.1350    0.7500    0.0000 C   0  0  1  0  0  0  0  0  0  0  0  0
    5.1350   -0.2500    0.0000 C   0  0  2  0  0  0  0  0  0  0  0  0
    6.0290   -0.7847    0.0000 C   0  0  2  0  0  0  0  0  0  0  0  0
    4.2690    1.2500    0.0000 C   0  0  3  0  0  0  0  0  0  0  0  0
    6.0290    1.2847    0.0000 C   0  0  0  0  0  0  0  0  0  0  0  0
    4.2690   -0.7500    0.0000 C   0  0  1  0  0  0  0  0  0  0  0  0
    6.9350   -0.2708    0.0000 C   0  0  0  0  0  0  0  0  0  0  0  0
    6.9350    0.7708    0.0000 C   0  0  0  0  0  0  0  0  0  0  0  0
    3.4030   -0.2500    0.0000 C   0  0  0  0  0  0  0  0  0  0  0  0
    5.1350    1.7500    0.0000 C   0  0  0  0  0  0  0  0  0  0  0  0
    3.4030    0.7500    0.0000 C   0  0  0  0  0  0  0  0  0  0  0  0
    4.2690    2.2500    0.0000 C   0  0  0  0  0  0  0  0  0  0  0  0
    5.5190   -1.6448    0.0000 C   0  0  0  0  0  0  0  0  0  0  0  0
    6.5189   -1.6564    0.0000 C   0  0  0  0  0  0  0  0  0  0  0  0
    3.4030    2.7500    0.0000 C   0  0  0  0  0  0  0  0  0  0  0  0
    2.5369    1.2500    0.0000 C   0  0  0  0  0  0  0  0  0  0  0  0
    3.4030   -2.2500    0.0000 C   0  0  0  0  0  0  0  0  0  0  0  0
    3.4030    3.7500    0.0000 C   0  0  0  0  0  0  0  0  0  0  0  0
    3.4030   -3.2500    0.0000 C   0  0  0  0  0  0  0  0  0  0  0  0
    2.5369    4.2500    0.0000 C   0  0  0  0  0  0  0  0  0  0  0  0
    4.2690    4.2500    0.0000 C   0  0  0  0  0  0  0  0  0  0  0  0
    2.5369   -3.7500    0.0000 C   0  0  0  0  0  0  0  0  0  0  0  0
    4.2690   -3.7500    0.0000 C   0  0  0  0  0  0  0  0  0  0  0  0
    2.5369   -4.7500    0.0000 C   0  0  0  0  0  0  0  0  0  0  0  0
    4.2690   -4.7500    0.0000 C   0  0  0  0  0  0  0  0  0  0  0  0
    3.4030   -5.2500    0.0000 C   0  0  0  0  0  0  0  0  0  0  0  0
    5.8744    0.1693    0.0000 H   0  0  0  0  0  0  0  0  0  0  0  0
    3.7320    1.5600    0.0000 H   0  0  0  0  0  0  0  0  0  0  0  0
    6.4226    1.7637    0.0000 H   0  0  0  0  0  0  0  0  0  0  0  0
    5.6244    1.7544    0.0000 H   0  0  0  0  0  0  0  0  0  0  0  0
    4.8059   -1.0600    0.0000 H   0  0  0  0  0  0  0  0  0  0  0  0
    7.1441   -0.8545    0.0000 H   0  0  0  0  0  0  0  0  0  0  0  0
    7.5459   -0.1647    0.0000 H   0  0  0  0  0  0  0  0  0  0  0  0
    7.5459    0.6647    0.0000 H   0  0  0  0  0  0  0  0  0  0  0  0
    7.1441    1.3545    0.0000 H   0  0  0  0  0  0  0  0  0  0  0  0
    2.7924   -0.1423    0.0000 H   0  0  0  0  0  0  0  0  0  0  0  0
    3.1909   -0.8326    0.0000 H   0  0  0  0  0  0  0  0  0  0  0  0
    5.7550    1.7500    0.0000 H   0  0  0  0  0  0  0  0  0  0  0  0
    5.1350    2.3700    0.0000 H   0  0  0  0  0  0  0  0  0  0  0  0
    4.5150    1.7500    0.0000 H   0  0  0  0  0  0  0  0  0  0  0  0
    4.8796    2.1423    0.0000 H   0  0  0  0  0  0  0  0  0  0  0  0
    4.4810    2.8326    0.0000 H   0  0  0  0  0  0  0  0  0  0  0  0
    4.9857   -1.3287    0.0000 H   0  0  0  0  0  0  0  0  0  0  0  0
    5.2028   -2.1782    0.0000 H   0  0  0  0  0  0  0  0  0  0  0  0
    6.0523   -1.9610    0.0000 H   0  0  0  0  0  0  0  0  0  0  0  0
    2.7924    2.8577    0.0000 H   0  0  0  0  0  0  0  0  0  0  0  0
    3.1909    2.1674    0.0000 H   0  0  0  0  0  0  0  0  0  0  0  0
    2.5369    1.8700    0.0000 H   0  0  0  0  0  0  0  0  0  0  0  0
    2.0000    0.9400    0.0000 H   0  0  0  0  0  0  0  0  0  0  0  0
    7.8226   -2.2085    0.0000 H   0  0  0  0  0  0  0  0  0  0  0  0
    2.0000    3.9400    0.0000 H   0  0  0  0  0  0  0  0  0  0  0  0
    4.8059    3.9400    0.0000 H   0  0  0  0  0  0  0  0  0  0  0  0
    4.2690    4.8700    0.0000 H   0  0  0  0  0  0  0  0  0  0  0  0
    2.0000   -3.4400    0.0000 H   0  0  0  0  0  0  0  0  0  0  0  0
    4.8059   -3.4400    0.0000 H   0  0  0  0  0  0  0  0  0  0  0  0
    2.0000   -5.0600    0.0000 H   0  0  0  0  0  0  0  0  0  0  0  0
    4.8059   -5.0600    0.0000 H   0  0  0  0  0  0  0  0  0  0  0  0
    3.4030   -5.8700    0.0000 H   0  0  0  0  0  0  0  0  0  0  0  0
 11  1  1  6  0  0  0
  1 22  1  0  0  0  0
  2 19  1  0  0  0  0
  2 55  1  0  0  0  0
  3 19  2  0  0  0  0
  4 22  2  0  0  0  0
  5 25  2  0  0  0  0
  6  7  1  0  0  0  0
  6  9  1  0  0  0  0
  6 10  1  0  0  0  0
  6 15  1  6  0  0  0
  7  8  1  0  0  0  0
  7 11  1  0  0  0  0
  7 32  1  1  0  0  0
  8 12  1  0  0  0  0
  8 18  1  6  0  0  0
  8 19  1  0  0  0  0
  9 16  1  0  0  0  0
  9 17  1  0  0  0  0
  9 33  1  0  0  0  0
 10 13  1  0  0  0  0
 10 34  1  0  0  0  0
 10 35  1  0  0  0  0
 11 14  1  0  0  0  0
 11 36  1  0  0  0  0
 12 13  1  0  0  0  0
 12 37  1  0  0  0  0
 12 38  1  0  0  0  0
 13 39  1  0  0  0  0
 13 40  1  0  0  0  0
 14 16  1  0  0  0  0
 14 41  1  0  0  0  0
 14 42  1  0  0  0  0
 15 43  1  0  0  0  0
 15 44  1  0  0  0  0
 15 45  1  0  0  0  0
 16 21  2  0  0  0  0
 17 20  1  0  0  0  0
 17 46  1  0  0  0  0
 17 47  1  0  0  0  0
 18 48  1  0  0  0  0
 18 49  1  0  0  0  0
 18 50  1  0  0  0  0
 20 23  1  0  0  0  0
 20 51  1  0  0  0  0
 20 52  1  0  0  0  0
 21 53  1  0  0  0  0
 21 54  1  0  0  0  0
 22 24  1  0  0  0  0
 23 25  1  0  0  0  0
 23 26  2  0  0  0  0
 24 27  2  0  0  0  0
 24 28  1  0  0  0  0
 25 56  1  0  0  0  0
 26 57  1  0  0  0  0
 26 58  1  0  0  0  0
 27 29  1  0  0  0  0
 27 59  1  0  0  0  0
 28 30  2  0  0  0  0
 28 60  1  0  0  0  0
 29 31  2  0  0  0  0
 29 61  1  0  0  0  0
 30 31  1  0  0  0  0
 30 62  1  0  0  0  0
 31 63  1  0  0  0  0
M  END
> <PUBCHEM_COMPOUND_CID>
512741
> <PUBCHEM_COMPOUND_CANONICALIZED>
1
> <PUBCHEM_CACTVS_COMPLEXITY>
749
> <PUBCHEM_CACTVS_HBOND_ACCEPTOR>
5
> <PUBCHEM_CACTVS_HBOND_DONOR>
1
> <PUBCHEM_CACTVS_ROTATABLE_BOND>
8
> <PUBCHEM_CACTVS_SUBSKEYS>
AAADcfB4OAAAAAAAAAAAAAAAAAAAAAAAAAAwYMAAAAAAAADBAAAAGgAACAAADxSgmAIyCIAABgCIAijSiAACAAAkAAAIiAEACMgIJjKANRiCcQAkwAEIqYfKyPCPgAAAAAAAAABAAAYAADAAAAAAAAAAAA==
> <PUBCHEM_IUPAC_OPENEYE_NAME>
(1R,4aR,8R,8aR)-8-benzoyloxy-5-(3-formylbut-3-enyl)-1,4a-dimethyl-6-methylene-decalin-1-carboxylic acid
> <PUBCHEM_IUPAC_CAS_NAME>
(1R,4aR,8R,8aR)-8-benzoyloxy-5-(3-formylbut-3-enyl)-1,4a-dimethyl-6-methylene-3,4,5,7,8,8a-hexahydro-2H-naphthalene-1-carboxylic acid
> <PUBCHEM_IUPAC_NAME_MARKUP>
(1<I>R</I>,4<I>a</I><I>R</I>,8<I>R</I>,8<I>a</I><I>R</I>)-8-benzoyloxy-5-(3-formylbut-3-enyl)-1,4<I>a</I>-dimethyl-6-methylidene-3,4,5,7,8,8<I>a</I>-hexahydro-2<I>H</I>-naphthalene-1-carboxylic acid
> <PUBCHEM_IUPAC_NAME>
(1R,4aR,8R,8aR)-8-benzoyloxy-5-(3-formylbut-3-enyl)-1,4a-dimethyl-6-methylidene-3,4,5,7,8,8a-hexahydro-2H-naphthalene-1-carboxylic acid
> <PUBCHEM_IUPAC_SYSTEMATIC_NAME>
(1R,4aR,8R,8aR)-5-(3-methanoylbut-3-enyl)-1,4a-dimethyl-6-methylidene-8-(phenylcarbonyloxy)-3,4,5,7,8,8a-hexahydro-2H-naphthalene-1-carboxylic acid
> <PUBCHEM_IUPAC_TRADITIONAL_NAME>
(1R,4aR,8R,8aR)-8-benzoyloxy-5-(3-formylbut-3-enyl)-1,4a-dimethyl-6-methylene-decalin-1-carboxylic acid
> <PUBCHEM_IUPAC_INCHI>
InChI=1S/C26H32O5/c1-17(16-27)11-12-20-18(2)15-21(31-23(28)19-9-6-5-7-10-19)22-25(20,3)13-8-14-26(22,4)24(29)30/h5-7,9-10,16,20-22H,1-2,8,11-15H2,3-4H3,(H,29,30)/t20?,21-,22-,25-,26-/m1/s1
> <PUBCHEM_IUPAC_INCHIKEY>
NTDJBAOUNYDJKY-NGUJMDQRSA-N
> <PUBCHEM_XLOGP3_AA>
5.3
> <PUBCHEM_EXACT_MASS>
424.22497412
> <PUBCHEM_MOLECULAR_FORMULA>
C26H32O5
> <PUBCHEM_MOLECULAR_WEIGHT>
424.5
> <PUBCHEM_OPENEYE_CAN_SMILES>
CC12CCCC(C1C(CC(=C)C2CCC(=C)C=O)OC(=O)C3=CC=CC=C3)(C)C(=O)O
> <PUBCHEM_OPENEYE_ISO_SMILES>
C[C@]12CCC[C@@]([C@@H]1[C@@H](CC(=C)C2CCC(=C)C=O)OC(=O)C3=CC=CC=C3)(C)C(=O)O
> <PUBCHEM_CACTVS_TPSA>
80.7
> <PUBCHEM_MONOISOTOPIC_WEIGHT>
424.22497412
> <PUBCHEM_TOTAL_CHARGE>
0
> <PUBCHEM_HEAVY_ATOM_COUNT>
31
> <PUBCHEM_ATOM_DEF_STEREO_COUNT>
4
> <PUBCHEM_ATOM_UDEF_STEREO_COUNT>
1
> <PUBCHEM_BOND_DEF_STEREO_COUNT>
0
> <PUBCHEM_BOND_UDEF_STEREO_COUNT>
0
> <PUBCHEM_ISOTOPIC_ATOM_COUNT>
0
> <PUBCHEM_COMPONENT_COUNT>
1
> <PUBCHEM_CACTVS_TAUTO_COUNT>
-1
> <PUBCHEM_COORDINATE_TYPE>
1
5
255
> <PUBCHEM_BONDANNOTATIONS>
11  1  6
24  27  8
24  28  8
27  29  8
28  30  8
29  31  8
30  31  8
6  15  6
7  32  5
8  18  6
9  17  3
$$$$
