512781
  -OEChem-10302200282D
 57 59  0     1  0  0  0  0  0999 V2000
    5.5113    0.0000    0.0000 Cl  0  0  0  0  0  0  0  0  0  0  0  0
    6.6651    3.4916    0.0000 F   0  0  0  0  0  0  0  0  0  0  0  0
    3.1350    2.5158    0.0000 O   0  0  0  0  0  0  0  0  0  0  0  0
    9.4158    7.5050    0.0000 O   0  0  0  0  0  0  0  0  0  0  0  0
    0.5369    4.0158    0.0000 O   0  0  0  0  0  0  0  0  0  0  0  0
    1.4030    2.5158    0.0000 O   0  0  0  0  0  0  0  0  0  0  0  0
    6.6651    5.5399    0.0000 N   0  0  3  0  0  0  0  0  0  0  0  0
    4.0010    4.0158    0.0000 N   0  0  0  0  0  0  0  0  0  0  0  0
    9.2414    5.7817    0.0000 N   0  0  0  0  0  0  0  0  0  0  0  0
   11.4057    7.3036    0.0000 N   0  0  0  0  0  0  0  0  0  0  0  0
    3.1350    6.5158    0.0000 C   0  0  0  0  0  0  0  0  0  0  0  0
    3.6350    7.3818    0.0000 C   0  0  0  0  0  0  0  0  0  0  0  0
    2.6350    7.3818    0.0000 C   0  0  0  0  0  0  0  0  0  0  0  0
    3.1350    5.5158    0.0000 C   0  0  0  0  0  0  0  0  0  0  0  0
    4.0010    5.0158    0.0000 C   0  0  0  0  0  0  0  0  0  0  0  0
    8.2465    5.8824    0.0000 C   0  0  2  0  0  0  0  0  0  0  0  0
    7.5802    5.1367    0.0000 C   0  0  0  0  0  0  0  0  0  0  0  0
    7.7432    6.7465    0.0000 C   0  0  0  0  0  0  0  0  0  0  0  0
    6.7658    6.5348    0.0000 C   0  0  0  0  0  0  0  0  0  0  0  0
    5.8010    5.0366    0.0000 C   0  0  0  0  0  0  0  0  0  0  0  0
    4.8950    5.5504    0.0000 C   0  0  0  0  0  0  0  0  0  0  0  0
    2.2690    5.0158    0.0000 C   0  0  0  0  0  0  0  0  0  0  0  0
    5.8010    3.9950    0.0000 C   0  0  0  0  0  0  0  0  0  0  0  0
    2.2690    4.0158    0.0000 C   0  0  0  0  0  0  0  0  0  0  0  0
    4.8950    3.4811    0.0000 C   0  0  0  0  0  0  0  0  0  0  0  0
    3.1350    3.5158    0.0000 C   0  0  0  0  0  0  0  0  0  0  0  0
    4.8834    6.5504    0.0000 C   0  0  0  0  0  0  0  0  0  0  0  0
    9.8261    6.5930    0.0000 C   0  0  0  0  0  0  0  0  0  0  0  0
    1.4030    3.5158    0.0000 C   0  0  0  0  0  0  0  0  0  0  0  0
   10.8210    6.4923    0.0000 C   0  0  2  0  0  0  0  0  0  0  0  0
   11.2313    5.5803    0.0000 C   0  0  0  0  0  0  0  0  0  0  0  0
    2.5361    6.3553    0.0000 H   0  0  0  0  0  0  0  0  0  0  0  0
    4.2176    7.1697    0.0000 H   0  0  0  0  0  0  0  0  0  0  0  0
    3.7427    7.9924    0.0000 H   0  0  0  0  0  0  0  0  0  0  0  0
    2.5274    7.9924    0.0000 H   0  0  0  0  0  0  0  0  0  0  0  0
    2.0524    7.1697    0.0000 H   0  0  0  0  0  0  0  0  0  0  0  0
    8.5822    6.4037    0.0000 H   0  0  0  0  0  0  0  0  0  0  0  0
    7.2723    4.5986    0.0000 H   0  0  0  0  0  0  0  0  0  0  0  0
    8.0832    4.7742    0.0000 H   0  0  0  0  0  0  0  0  0  0  0  0
    8.3086    7.0009    0.0000 H   0  0  0  0  0  0  0  0  0  0  0  0
    7.5493    7.3354    0.0000 H   0  0  0  0  0  0  0  0  0  0  0  0
    6.6986    7.1512    0.0000 H   0  0  0  0  0  0  0  0  0  0  0  0
    6.1458    6.5324    0.0000 H   0  0  0  0  0  0  0  0  0  0  0  0
    1.7320    5.3258    0.0000 H   0  0  0  0  0  0  0  0  0  0  0  0
    9.4958    5.2163    0.0000 H   0  0  0  0  0  0  0  0  0  0  0  0
    4.8878    2.8612    0.0000 H   0  0  0  0  0  0  0  0  0  0  0  0
    5.5034    6.5575    0.0000 H   0  0  0  0  0  0  0  0  0  0  0  0
    4.8762    7.1703    0.0000 H   0  0  0  0  0  0  0  0  0  0  0  0
    4.2635    6.5432    0.0000 H   0  0  0  0  0  0  0  0  0  0  0  0
   11.4379    6.4299    0.0000 H   0  0  0  0  0  0  0  0  0  0  0  0
   10.6658    5.3260    0.0000 H   0  0  0  0  0  0  0  0  0  0  0  0
   11.4856    5.0149    0.0000 H   0  0  0  0  0  0  0  0  0  0  0  0
   11.7967    5.8347    0.0000 H   0  0  0  0  0  0  0  0  0  0  0  0
   12.0225    7.2412    0.0000 H   0  0  0  0  0  0  0  0  0  0  0  0
   11.1513    7.8690    0.0000 H   0  0  0  0  0  0  0  0  0  0  0  0
    0.0000    3.7058    0.0000 H   0  0  0  0  0  0  0  0  0  0  0  0
    6.5113    0.0000    0.0000 H   0  0  0  0  0  0  0  0  0  0  0  0
  1 57  1  0  0  0  0
  2 23  1  0  0  0  0
  3 26  2  0  0  0  0
  4 28  2  0  0  0  0
  5 29  1  0  0  0  0
  5 56  1  0  0  0  0
  6 29  2  0  0  0  0
  7 17  1  0  0  0  0
  7 19  1  0  0  0  0
  7 20  1  0  0  0  0
  8 15  1  0  0  0  0
  8 25  1  0  0  0  0
  8 26  1  0  0  0  0
 16  9  1  6  0  0  0
  9 28  1  0  0  0  0
  9 45  1  0  0  0  0
 30 10  1  1  0  0  0
 10 54  1  0  0  0  0
 10 55  1  0  0  0  0
 11 12  1  0  0  0  0
 11 13  1  0  0  0  0
 11 14  1  0  0  0  0
 11 32  1  0  0  0  0
 12 13  1  0  0  0  0
 12 33  1  0  0  0  0
 12 34  1  0  0  0  0
 13 35  1  0  0  0  0
 13 36  1  0  0  0  0
 14 15  2  0  0  0  0
 14 22  1  0  0  0  0
 15 21  1  0  0  0  0
 16 17  1  0  0  0  0
 16 18  1  0  0  0  0
 16 37  1  0  0  0  0
 17 38  1  0  0  0  0
 17 39  1  0  0  0  0
 18 19  1  0  0  0  0
 18 40  1  0  0  0  0
 18 41  1  0  0  0  0
 19 42  1  0  0  0  0
 19 43  1  0  0  0  0
 20 21  2  0  0  0  0
 20 23  1  0  0  0  0
 21 27  1  0  0  0  0
 22 24  2  0  0  0  0
 22 44  1  0  0  0  0
 23 25  2  0  0  0  0
 24 26  1  0  0  0  0
 24 29  1  0  0  0  0
 25 46  1  0  0  0  0
 27 47  1  0  0  0  0
 27 48  1  0  0  0  0
 27 49  1  0  0  0  0
 28 30  1  0  0  0  0
 30 31  1  0  0  0  0
 30 50  1  0  0  0  0
 31 51  1  0  0  0  0
 31 52  1  0  0  0  0
 31 53  1  0  0  0  0
M  END
> <PUBCHEM_COMPOUND_CID>
512781
> <PUBCHEM_COMPOUND_CANONICALIZED>
1
> <PUBCHEM_CACTVS_COMPLEXITY>
960
> <PUBCHEM_CACTVS_HBOND_ACCEPTOR>
7
> <PUBCHEM_CACTVS_HBOND_DONOR>
4
> <PUBCHEM_CACTVS_ROTATABLE_BOND>
5
> <PUBCHEM_CACTVS_SUBSKEYS>
AAADceB7uQAEAAAAAAAAAAAAGAAAAWAAAAAgQAAAAAAAAACAAAAAHwAQCAAADSjBgAQCCAPAAgCIAiXWWACAAAAgAAAACIGIAEgIRA4IwAAUUAACtgCIkYIAAAAIAAAAAAAAAAAAAAAAAAAAAAAAAAAAAA==
> <PUBCHEM_IUPAC_OPENEYE_NAME>
8-[(3S)-3-[[(2S)-2-aminopropanoyl]amino]pyrrolidin-1-yl]-1-cyclopropyl-7-fluoro-9-methyl-4-oxo-quinolizine-3-carboxylic acid;hydrochloride
> <PUBCHEM_IUPAC_CAS_NAME>
8-[(3S)-3-[[(2S)-2-amino-1-oxopropyl]amino]-1-pyrrolidinyl]-1-cyclopropyl-7-fluoro-9-methyl-4-oxo-3-quinolizinecarboxylic acid;hydrochloride
> <PUBCHEM_IUPAC_NAME_MARKUP>
8-[(3<I>S</I>)-3-[[(2<I>S</I>)-2-aminopropanoyl]amino]pyrrolidin-1-yl]-1-cyclopropyl-7-fluoro-9-methyl-4-oxoquinolizine-3-carboxylic acid;hydrochloride
> <PUBCHEM_IUPAC_NAME>
8-[(3S)-3-[[(2S)-2-aminopropanoyl]amino]pyrrolidin-1-yl]-1-cyclopropyl-7-fluoro-9-methyl-4-oxoquinolizine-3-carboxylic acid;hydrochloride
> <PUBCHEM_IUPAC_SYSTEMATIC_NAME>
8-[(3S)-3-[[(2S)-2-azanylpropanoyl]amino]pyrrolidin-1-yl]-1-cyclopropyl-7-fluoranyl-9-methyl-4-oxidanylidene-quinolizine-3-carboxylic acid;hydrochloride
> <PUBCHEM_IUPAC_TRADITIONAL_NAME>
8-[(3S)-3-[[(2S)-2-aminopropanoyl]amino]pyrrolidino]-1-cyclopropyl-7-fluoro-4-keto-9-methyl-quinolizine-3-carboxylic acid;hydrochloride
> <PUBCHEM_IUPAC_INCHI>
InChI=1S/C21H25FN4O4.ClH/c1-10-17-14(12-3-4-12)7-15(21(29)30)20(28)26(17)9-16(22)18(10)25-6-5-13(8-25)24-19(27)11(2)23;/h7,9,11-13H,3-6,8,23H2,1-2H3,(H,24,27)(H,29,30);1H/t11-,13-;/m0./s1
> <PUBCHEM_IUPAC_INCHIKEY>
JBPFCJRXXJLFDQ-JZKFLRDJSA-N
> <PUBCHEM_EXACT_MASS>
452.1626612
> <PUBCHEM_MOLECULAR_FORMULA>
C21H26ClFN4O4
> <PUBCHEM_MOLECULAR_WEIGHT>
452.9
> <PUBCHEM_OPENEYE_CAN_SMILES>
CC1=C(C(=CN2C1=C(C=C(C2=O)C(=O)O)C3CC3)F)N4CCC(C4)NC(=O)C(C)N.Cl
> <PUBCHEM_OPENEYE_ISO_SMILES>
CC1=C(C(=CN2C1=C(C=C(C2=O)C(=O)O)C3CC3)F)N4CC[C@@H](C4)NC(=O)[C@H](C)N.Cl
> <PUBCHEM_CACTVS_TPSA>
116
> <PUBCHEM_MONOISOTOPIC_WEIGHT>
452.1626612
> <PUBCHEM_TOTAL_CHARGE>
0
> <PUBCHEM_HEAVY_ATOM_COUNT>
31
> <PUBCHEM_ATOM_DEF_STEREO_COUNT>
2
> <PUBCHEM_ATOM_UDEF_STEREO_COUNT>
0
> <PUBCHEM_BOND_DEF_STEREO_COUNT>
0
> <PUBCHEM_BOND_UDEF_STEREO_COUNT>
0
> <PUBCHEM_ISOTOPIC_ATOM_COUNT>
0
> <PUBCHEM_COMPONENT_COUNT>
2
> <PUBCHEM_CACTVS_TAUTO_COUNT>
-1
> <PUBCHEM_COORDINATE_TYPE>
1
5
255
> <PUBCHEM_BONDANNOTATIONS>
30  10  5
14  15  8
14  22  8
15  21  8
20  21  8
20  23  8
22  24  8
23  25  8
24  26  8
8  15  8
8  25  8
8  26  8
16  9  6
$$$$
