512704
  -OEChem-10302200282D
 34 36  0     1  0  0  0  0  0999 V2000
    5.9405   -0.7140    0.0000 O   0  0  0  0  0  0  0  0  0  0  0  0
    3.4026   -1.2184    0.0000 O   0  0  0  0  0  0  0  0  0  0  0  0
    6.6495   -3.2951    0.0000 O   0  0  0  0  0  0  0  0  0  0  0  0
    4.6783    0.5439    0.0000 N   0  0  3  0  0  0  0  0  0  0  0  0
    2.8660    0.3486    0.0000 N   0  0  0  0  0  0  0  0  0  0  0  0
    2.0000    1.8486    0.0000 N   0  0  0  0  0  0  0  0  0  0  0  0
    2.8660    3.3486    0.0000 N   0  0  0  0  0  0  0  0  0  0  0  0
    4.9889   -0.4066    0.0000 C   0  0  1  0  0  0  0  0  0  0  0  0
    4.4026   -1.2166    0.0000 C   0  0  1  0  0  0  0  0  0  0  0  0
    4.9917   -2.0246    0.0000 C   0  0  0  0  0  0  0  0  0  0  0  0
    5.9422   -1.7140    0.0000 C   0  0  1  0  0  0  0  0  0  0  0  0
    5.2619    1.3486    0.0000 C   0  0  0  0  0  0  0  0  0  0  0  0
    4.6783    2.1534    0.0000 C   0  0  0  0  0  0  0  0  0  0  0  0
    3.7320    0.8486    0.0000 C   0  0  0  0  0  0  0  0  0  0  0  0
    3.7320    1.8486    0.0000 C   0  0  0  0  0  0  0  0  0  0  0  0
    6.7523   -2.3004    0.0000 C   0  0  0  0  0  0  0  0  0  0  0  0
    2.8660    2.3486    0.0000 C   0  0  0  0  0  0  0  0  0  0  0  0
    2.0000    0.8486    0.0000 C   0  0  0  0  0  0  0  0  0  0  0  0
    5.4266    0.0325    0.0000 H   0  0  0  0  0  0  0  0  0  0  0  0
    4.1220   -1.7696    0.0000 H   0  0  0  0  0  0  0  0  0  0  0  0
    4.4553   -2.3356    0.0000 H   0  0  0  0  0  0  0  0  0  0  0  0
    5.2449   -2.5906    0.0000 H   0  0  0  0  0  0  0  0  0  0  0  0
    6.4942   -1.4316    0.0000 H   0  0  0  0  0  0  0  0  0  0  0  0
    5.7227    0.9339    0.0000 H   0  0  0  0  0  0  0  0  0  0  0  0
    5.7227    1.7634    0.0000 H   0  0  0  0  0  0  0  0  0  0  0  0
    5.2156    2.4626    0.0000 H   0  0  0  0  0  0  0  0  0  0  0  0
    4.4272    2.7203    0.0000 H   0  0  0  0  0  0  0  0  0  0  0  0
    7.3486   -2.4702    0.0000 H   0  0  0  0  0  0  0  0  0  0  0  0
    7.0231   -1.7426    0.0000 H   0  0  0  0  0  0  0  0  0  0  0  0
    3.0935   -1.7558    0.0000 H   0  0  0  0  0  0  0  0  0  0  0  0
    7.1517   -3.6586    0.0000 H   0  0  0  0  0  0  0  0  0  0  0  0
    1.4631    0.5386    0.0000 H   0  0  0  0  0  0  0  0  0  0  0  0
    2.3291    3.6586    0.0000 H   0  0  0  0  0  0  0  0  0  0  0  0
    3.4030    3.6586    0.0000 H   0  0  0  0  0  0  0  0  0  0  0  0
  1  8  1  0  0  0  0
  1 11  1  0  0  0  0
  9  2  1  1  0  0  0
  2 30  1  0  0  0  0
  3 16  1  0  0  0  0
  3 31  1  0  0  0  0
  8  4  1  6  0  0  0
  4 12  1  0  0  0  0
  4 14  1  0  0  0  0
  5 14  2  0  0  0  0
  5 18  1  0  0  0  0
  6 17  1  0  0  0  0
  6 18  2  0  0  0  0
  7 17  1  0  0  0  0
  7 33  1  0  0  0  0
  7 34  1  0  0  0  0
  8  9  1  0  0  0  0
  8 19  1  0  0  0  0
  9 10  1  0  0  0  0
  9 20  1  0  0  0  0
 10 11  1  0  0  0  0
 10 21  1  0  0  0  0
 10 22  1  0  0  0  0
 11 16  1  6  0  0  0
 11 23  1  0  0  0  0
 12 13  1  0  0  0  0
 12 24  1  0  0  0  0
 12 25  1  0  0  0  0
 13 15  1  0  0  0  0
 13 26  1  0  0  0  0
 13 27  1  0  0  0  0
 14 15  1  0  0  0  0
 15 17  2  0  0  0  0
 16 28  1  0  0  0  0
 16 29  1  0  0  0  0
 18 32  1  0  0  0  0
M  END
> <PUBCHEM_COMPOUND_CID>
512704
> <PUBCHEM_COMPOUND_CANONICALIZED>
1
> <PUBCHEM_CACTVS_COMPLEXITY>
306
> <PUBCHEM_CACTVS_HBOND_ACCEPTOR>
7
> <PUBCHEM_CACTVS_HBOND_DONOR>
3
> <PUBCHEM_CACTVS_ROTATABLE_BOND>
2
> <PUBCHEM_CACTVS_SUBSKEYS>
AAADceBzsAAAAAAAAAAAAAAAAAAAAWJAAAAsAAAAAAAAAFgBgAAAHgAQCAAADBThmgYFsJdIFgCgAgJhZACAgCkxAKABUCAoRBiDOAJAyEEORAgNAALTQCDwMAIIAAAAAAAAAAAAAAAAAAAAAAAAAAAAAA==
> <PUBCHEM_IUPAC_OPENEYE_NAME>
(2R,3R,5S)-2-(4-amino-5,6-dihydropyrrolo[2,3-d]pyrimidin-7-yl)-5-(hydroxymethyl)tetrahydrofuran-3-ol
> <PUBCHEM_IUPAC_CAS_NAME>
(2R,3R,5S)-2-(4-amino-5,6-dihydropyrrolo[2,3-d]pyrimidin-7-yl)-5-(hydroxymethyl)-3-oxolanol
> <PUBCHEM_IUPAC_NAME_MARKUP>
(2<I>R</I>,3<I>R</I>,5<I>S</I>)-2-(4-amino-5,6-dihydropyrrolo[2,3-d]pyrimidin-7-yl)-5-(hydroxymethyl)oxolan-3-ol
> <PUBCHEM_IUPAC_NAME>
(2R,3R,5S)-2-(4-amino-5,6-dihydropyrrolo[2,3-d]pyrimidin-7-yl)-5-(hydroxymethyl)oxolan-3-ol
> <PUBCHEM_IUPAC_SYSTEMATIC_NAME>
(2R,3R,5S)-2-(4-azanyl-5,6-dihydropyrrolo[2,3-d]pyrimidin-7-yl)-5-(hydroxymethyl)oxolan-3-ol
> <PUBCHEM_IUPAC_TRADITIONAL_NAME>
(2R,3R,5S)-2-(4-amino-5,6-dihydropyrrolo[2,3-d]pyrimidin-7-yl)-5-methylol-tetrahydrofuran-3-ol
> <PUBCHEM_IUPAC_INCHI>
InChI=1S/C11H16N4O3/c12-9-7-1-2-15(10(7)14-5-13-9)11-8(17)3-6(4-16)18-11/h5-6,8,11,16-17H,1-4H2,(H2,12,13,14)/t6-,8+,11+/m0/s1
> <PUBCHEM_IUPAC_INCHIKEY>
VPKIOCDBUSOGML-FMTFEUNWSA-N
> <PUBCHEM_XLOGP3_AA>
-0.7
> <PUBCHEM_EXACT_MASS>
252.12224039
> <PUBCHEM_MOLECULAR_FORMULA>
C11H16N4O3
> <PUBCHEM_MOLECULAR_WEIGHT>
252.27
> <PUBCHEM_OPENEYE_CAN_SMILES>
C1CN(C2=NC=NC(=C21)N)C3C(CC(O3)CO)O
> <PUBCHEM_OPENEYE_ISO_SMILES>
C1CN(C2=NC=NC(=C21)N)[C@H]3[C@@H](C[C@H](O3)CO)O
> <PUBCHEM_CACTVS_TPSA>
105
> <PUBCHEM_MONOISOTOPIC_WEIGHT>
252.12224039
> <PUBCHEM_TOTAL_CHARGE>
0
> <PUBCHEM_HEAVY_ATOM_COUNT>
18
> <PUBCHEM_ATOM_DEF_STEREO_COUNT>
3
> <PUBCHEM_ATOM_UDEF_STEREO_COUNT>
0
> <PUBCHEM_BOND_DEF_STEREO_COUNT>
0
> <PUBCHEM_BOND_UDEF_STEREO_COUNT>
0
> <PUBCHEM_ISOTOPIC_ATOM_COUNT>
0
> <PUBCHEM_COMPONENT_COUNT>
1
> <PUBCHEM_CACTVS_TAUTO_COUNT>
-1
> <PUBCHEM_COORDINATE_TYPE>
1
5
255
> <PUBCHEM_BONDANNOTATIONS>
11  16  6
14  15  8
15  17  8
9  2  5
8  4  6
5  14  8
5  18  8
6  17  8
6  18  8
$$$$
