512725
  -OEChem-10302200282D
 45 47  0     1  0  0  0  0  0999 V2000
    5.9405   -1.2293    0.0000 O   0  0  0  0  0  0  0  0  0  0  0  0
    3.4026   -1.7337    0.0000 O   0  0  0  0  0  0  0  0  0  0  0  0
    4.6844   -3.4915    0.0000 O   0  0  0  0  0  0  0  0  0  0  0  0
    7.6651   -2.4073    0.0000 O   0  0  0  0  0  0  0  0  0  0  0  0
    4.6783    0.0286    0.0000 N   0  0  0  0  0  0  0  0  0  0  0  0
    2.8660   -0.1667    0.0000 N   0  0  0  0  0  0  0  0  0  0  0  0
    2.0000    1.3334    0.0000 N   0  0  0  0  0  0  0  0  0  0  0  0
    2.8660    2.8333    0.0000 N   0  0  0  0  0  0  0  0  0  0  0  0
    4.9889   -0.9219    0.0000 C   0  0  1  0  0  0  0  0  0  0  0  0
    4.4026   -1.7319    0.0000 C   0  0  1  0  0  0  0  0  0  0  0  0
    4.9917   -2.5399    0.0000 C   0  0  1  0  0  0  0  0  0  0  0  0
    5.9422   -2.2293    0.0000 C   0  0  1  0  0  0  0  0  0  0  0  0
    6.7523   -2.8157    0.0000 C   0  0  0  0  0  0  0  0  0  0  0  0
    3.7320    0.3333    0.0000 C   0  0  0  0  0  0  0  0  0  0  0  0
    5.2619    0.8333    0.0000 C   0  0  0  0  0  0  0  0  0  0  0  0
    4.6783    1.6381    0.0000 C   0  0  0  0  0  0  0  0  0  0  0  0
    3.7320    1.3334    0.0000 C   0  0  0  0  0  0  0  0  0  0  0  0
    4.9889    2.5886    0.0000 C   0  0  0  0  0  0  0  0  0  0  0  0
    5.9674    2.7948    0.0000 C   0  0  0  0  0  0  0  0  0  0  0  0
    2.8660    1.8334    0.0000 C   0  0  0  0  0  0  0  0  0  0  0  0
    6.2781    3.7453    0.0000 C   0  0  0  0  0  0  0  0  0  0  0  0
    2.0000    0.3333    0.0000 C   0  0  0  0  0  0  0  0  0  0  0  0
    7.2566    3.9516    0.0000 C   0  0  0  0  0  0  0  0  0  0  0  0
    5.4266   -0.4827    0.0000 H   0  0  0  0  0  0  0  0  0  0  0  0
    4.1201   -1.1800    0.0000 H   0  0  0  0  0  0  0  0  0  0  0  0
    5.4309   -2.9776    0.0000 H   0  0  0  0  0  0  0  0  0  0  0  0
    6.4942   -1.9468    0.0000 H   0  0  0  0  0  0  0  0  0  0  0  0
    6.3070   -3.2471    0.0000 H   0  0  0  0  0  0  0  0  0  0  0  0
    7.0999   -3.3291    0.0000 H   0  0  0  0  0  0  0  0  0  0  0  0
    5.8819    0.8333    0.0000 H   0  0  0  0  0  0  0  0  0  0  0  0
    4.9684    3.2083    0.0000 H   0  0  0  0  0  0  0  0  0  0  0  0
    4.3751    2.6760    0.0000 H   0  0  0  0  0  0  0  0  0  0  0  0
    3.0935   -2.2711    0.0000 H   0  0  0  0  0  0  0  0  0  0  0  0
    5.1000   -3.9516    0.0000 H   0  0  0  0  0  0  0  0  0  0  0  0
    5.9880    2.1752    0.0000 H   0  0  0  0  0  0  0  0  0  0  0  0
    6.5812    2.7075    0.0000 H   0  0  0  0  0  0  0  0  0  0  0  0
    6.2575    4.3650    0.0000 H   0  0  0  0  0  0  0  0  0  0  0  0
    5.6643    3.8327    0.0000 H   0  0  0  0  0  0  0  0  0  0  0  0
    8.1674   -2.7709    0.0000 H   0  0  0  0  0  0  0  0  0  0  0  0
    1.4631    0.0233    0.0000 H   0  0  0  0  0  0  0  0  0  0  0  0
    2.3291    3.1434    0.0000 H   0  0  0  0  0  0  0  0  0  0  0  0
    3.4030    3.1434    0.0000 H   0  0  0  0  0  0  0  0  0  0  0  0
    7.3845    3.3449    0.0000 H   0  0  0  0  0  0  0  0  0  0  0  0
    7.8633    4.0794    0.0000 H   0  0  0  0  0  0  0  0  0  0  0  0
    7.1288    4.5582    0.0000 H   0  0  0  0  0  0  0  0  0  0  0  0
  1  9  1  0  0  0  0
  1 12  1  0  0  0  0
 10  2  1  1  0  0  0
  2 33  1  0  0  0  0
 11  3  1  1  0  0  0
  3 34  1  0  0  0  0
  4 13  1  0  0  0  0
  4 39  1  0  0  0  0
  9  5  1  6  0  0  0
  5 14  1  0  0  0  0
  5 15  1  0  0  0  0
  6 14  2  0  0  0  0
  6 22  1  0  0  0  0
  7 20  1  0  0  0  0
  7 22  2  0  0  0  0
  8 20  1  0  0  0  0
  8 41  1  0  0  0  0
  8 42  1  0  0  0  0
  9 10  1  0  0  0  0
  9 24  1  0  0  0  0
 10 11  1  0  0  0  0
 10 25  1  0  0  0  0
 11 12  1  0  0  0  0
 11 26  1  0  0  0  0
 12 13  1  6  0  0  0
 12 27  1  0  0  0  0
 13 28  1  0  0  0  0
 13 29  1  0  0  0  0
 14 17  1  0  0  0  0
 15 16  2  0  0  0  0
 15 30  1  0  0  0  0
 16 17  1  0  0  0  0
 16 18  1  0  0  0  0
 17 20  2  0  0  0  0
 18 19  1  0  0  0  0
 18 31  1  0  0  0  0
 18 32  1  0  0  0  0
 19 21  1  0  0  0  0
 19 35  1  0  0  0  0
 19 36  1  0  0  0  0
 21 23  1  0  0  0  0
 21 37  1  0  0  0  0
 21 38  1  0  0  0  0
 22 40  1  0  0  0  0
 23 43  1  0  0  0  0
 23 44  1  0  0  0  0
 23 45  1  0  0  0  0
M  END
> <PUBCHEM_COMPOUND_CID>
512725
> <PUBCHEM_COMPOUND_CANONICALIZED>
1
> <PUBCHEM_CACTVS_COMPLEXITY>
402
> <PUBCHEM_CACTVS_HBOND_ACCEPTOR>
7
> <PUBCHEM_CACTVS_HBOND_DONOR>
4
> <PUBCHEM_CACTVS_ROTATABLE_BOND>
5
> <PUBCHEM_CACTVS_SUBSKEYS>
AAADceBzuAAAAAAAAAAAAAAAAAAAAWJAAAAsAAAAAAAAAFgB+AAAHgAQCAAADBThmwYvsN9MFgCgAhJnZACCgCkxAKAB2CAoRJiLOEJA2cGORAhvgALbSCPwsEIOgAAAAAAAAAAAAAAAAAAAAAAAAAAAAA==
> <PUBCHEM_IUPAC_OPENEYE_NAME>
(2R,3R,4S,5R)-2-(4-amino-5-butyl-pyrrolo[2,3-d]pyrimidin-7-yl)-5-(hydroxymethyl)tetrahydrofuran-3,4-diol
> <PUBCHEM_IUPAC_CAS_NAME>
(2R,3R,4S,5R)-2-(4-amino-5-butyl-7-pyrrolo[2,3-d]pyrimidinyl)-5-(hydroxymethyl)oxolane-3,4-diol
> <PUBCHEM_IUPAC_NAME_MARKUP>
(2<I>R</I>,3<I>R</I>,4<I>S</I>,5<I>R</I>)-2-(4-amino-5-butylpyrrolo[2,3-d]pyrimidin-7-yl)-5-(hydroxymethyl)oxolane-3,4-diol
> <PUBCHEM_IUPAC_NAME>
(2R,3R,4S,5R)-2-(4-amino-5-butylpyrrolo[2,3-d]pyrimidin-7-yl)-5-(hydroxymethyl)oxolane-3,4-diol
> <PUBCHEM_IUPAC_SYSTEMATIC_NAME>
(2R,3R,4S,5R)-2-(4-azanyl-5-butyl-pyrrolo[2,3-d]pyrimidin-7-yl)-5-(hydroxymethyl)oxolane-3,4-diol
> <PUBCHEM_IUPAC_TRADITIONAL_NAME>
(2R,3R,4S,5R)-2-(4-amino-5-butyl-pyrrolo[2,3-d]pyrimidin-7-yl)-5-methylol-tetrahydrofuran-3,4-diol
> <PUBCHEM_IUPAC_INCHI>
InChI=1S/C15H22N4O4/c1-2-3-4-8-5-19(14-10(8)13(16)17-7-18-14)15-12(22)11(21)9(6-20)23-15/h5,7,9,11-12,15,20-22H,2-4,6H2,1H3,(H2,16,17,18)/t9-,11-,12-,15-/m1/s1
> <PUBCHEM_IUPAC_INCHIKEY>
SEADMXXWLAJNQJ-SDBHATRESA-N
> <PUBCHEM_XLOGP3_AA>
0.5
> <PUBCHEM_EXACT_MASS>
322.16410520
> <PUBCHEM_MOLECULAR_FORMULA>
C15H22N4O4
> <PUBCHEM_MOLECULAR_WEIGHT>
322.36
> <PUBCHEM_OPENEYE_CAN_SMILES>
CCCCC1=CN(C2=NC=NC(=C12)N)C3C(C(C(O3)CO)O)O
> <PUBCHEM_OPENEYE_ISO_SMILES>
CCCCC1=CN(C2=NC=NC(=C12)N)[C@H]3[C@@H]([C@@H]([C@H](O3)CO)O)O
> <PUBCHEM_CACTVS_TPSA>
127
> <PUBCHEM_MONOISOTOPIC_WEIGHT>
322.16410520
> <PUBCHEM_TOTAL_CHARGE>
0
> <PUBCHEM_HEAVY_ATOM_COUNT>
23
> <PUBCHEM_ATOM_DEF_STEREO_COUNT>
4
> <PUBCHEM_ATOM_UDEF_STEREO_COUNT>
0
> <PUBCHEM_BOND_DEF_STEREO_COUNT>
0
> <PUBCHEM_BOND_UDEF_STEREO_COUNT>
0
> <PUBCHEM_ISOTOPIC_ATOM_COUNT>
0
> <PUBCHEM_COMPONENT_COUNT>
1
> <PUBCHEM_CACTVS_TAUTO_COUNT>
4
> <PUBCHEM_COORDINATE_TYPE>
1
5
255
> <PUBCHEM_BONDANNOTATIONS>
12  13  6
14  17  8
15  16  8
16  17  8
17  20  8
10  2  5
11  3  5
5  14  8
5  15  8
9  5  6
6  14  8
6  22  8
7  20  8
7  22  8
$$$$
