512742
  -OEChem-10302200282D
 66 70  0     1  0  0  0  0  0999 V2000
    5.5526   -0.2962    0.0000 O   0  0  0  0  0  0  0  0  0  0  0  0
    5.6645   -1.3934    0.0000 O   0  0  0  0  0  0  0  0  0  0  0  0
    7.6841   -3.4875    0.0000 O   0  0  0  0  0  0  0  0  0  0  0  0
    6.1264   -2.7300    0.0000 O   0  0  0  0  0  0  0  0  0  0  0  0
    5.4298    1.4315    0.0000 O   0  0  0  0  0  0  0  0  0  0  0  0
    8.2508    0.9535    0.0000 C   0  0  3  0  0  0  0  0  0  0  0  0
    8.3446   -0.0839    0.0000 C   0  0  2  0  0  0  0  0  0  0  0  0
    7.3498    1.3874    0.0000 C   0  0  3  0  0  0  0  0  0  0  0  0
    7.4885   -0.6773    0.0000 C   0  0  1  0  0  0  0  0  0  0  0  0
    8.1439    2.1303    0.0000 C   0  0  0  0  0  0  0  0  0  0  0  0
    9.1518    1.3874    0.0000 C   0  0  0  0  0  0  0  0  0  0  0  0
    8.7508    3.1441    0.0000 C   0  0  3  0  0  0  0  0  0  0  0  0
    6.5501   -0.2253    0.0000 C   0  0  1  0  0  0  0  0  0  0  0  0
    6.4802    0.8139    0.0000 C   0  0  0  0  0  0  0  0  0  0  0  0
    7.5613   -1.7598    0.0000 C   0  0  1  0  0  0  0  0  0  0  0  0
    9.3328   -0.5319    0.0000 C   0  0  0  0  0  0  0  0  0  0  0  0
    9.3743    2.3623    0.0000 C   0  0  0  0  0  0  0  0  0  0  0  0
    7.1273    2.3623    0.0000 C   0  0  0  0  0  0  0  0  0  0  0  0
    9.1665    0.4858    0.0000 C   0  0  0  0  0  0  0  0  0  0  0  0
    7.7508    3.1441    0.0000 C   0  0  0  0  0  0  0  0  0  0  0  0
    8.5388   -2.2306    0.0000 C   0  0  0  0  0  0  0  0  0  0  0  0
    9.4306   -1.6125    0.0000 C   0  0  0  0  0  0  0  0  0  0  0  0
    6.5638   -1.8307    0.0000 C   0  0  0  0  0  0  0  0  0  0  0  0
    7.1239   -2.6591    0.0000 C   0  0  0  0  0  0  0  0  0  0  0  0
    7.3169    4.0451    0.0000 C   0  0  0  0  0  0  0  0  0  0  0  0
    4.9925    0.5323    0.0000 C   0  0  0  0  0  0  0  0  0  0  0  0
    3.9950    0.4614    0.0000 C   0  0  0  0  0  0  0  0  0  0  0  0
    3.5576   -0.4380    0.0000 C   0  0  0  0  0  0  0  0  0  0  0  0
    3.4349    1.2898    0.0000 C   0  0  0  0  0  0  0  0  0  0  0  0
    2.5601   -0.5089    0.0000 C   0  0  0  0  0  0  0  0  0  0  0  0
    2.4374    1.2189    0.0000 C   0  0  0  0  0  0  0  0  0  0  0  0
    2.0000    0.3196    0.0000 C   0  0  0  0  0  0  0  0  0  0  0  0
    6.7744    1.6183    0.0000 H   0  0  0  0  0  0  0  0  0  0  0  0
    6.7844   -1.1534    0.0000 H   0  0  0  0  0  0  0  0  0  0  0  0
    7.7361    2.5973    0.0000 H   0  0  0  0  0  0  0  0  0  0  0  0
    7.5739    1.8864    0.0000 H   0  0  0  0  0  0  0  0  0  0  0  0
    9.2897    0.7829    0.0000 H   0  0  0  0  0  0  0  0  0  0  0  0
    9.7718    1.3874    0.0000 H   0  0  0  0  0  0  0  0  0  0  0  0
    9.0198    3.7027    0.0000 H   0  0  0  0  0  0  0  0  0  0  0  0
    6.4336   -0.8343    0.0000 H   0  0  0  0  0  0  0  0  0  0  0  0
    6.2325    1.3823    0.0000 H   0  0  0  0  0  0  0  0  0  0  0  0
    5.8779    0.6671    0.0000 H   0  0  0  0  0  0  0  0  0  0  0  0
    9.9507   -0.5826    0.0000 H   0  0  0  0  0  0  0  0  0  0  0  0
    9.4884    0.0682    0.0000 H   0  0  0  0  0  0  0  0  0  0  0  0
    9.9329    2.0933    0.0000 H   0  0  0  0  0  0  0  0  0  0  0  0
    9.7608    2.8470    0.0000 H   0  0  0  0  0  0  0  0  0  0  0  0
    6.7407    2.8470    0.0000 H   0  0  0  0  0  0  0  0  0  0  0  0
    6.5687    2.0933    0.0000 H   0  0  0  0  0  0  0  0  0  0  0  0
    9.5197   -0.0238    0.0000 H   0  0  0  0  0  0  0  0  0  0  0  0
    9.6761    0.8390    0.0000 H   0  0  0  0  0  0  0  0  0  0  0  0
    8.8133    0.9953    0.0000 H   0  0  0  0  0  0  0  0  0  0  0  0
    8.1782   -2.7349    0.0000 H   0  0  0  0  0  0  0  0  0  0  0  0
    8.9740   -2.6722    0.0000 H   0  0  0  0  0  0  0  0  0  0  0  0
    9.6914   -2.1750    0.0000 H   0  0  0  0  0  0  0  0  0  0  0  0
   10.0294   -1.4518    0.0000 H   0  0  0  0  0  0  0  0  0  0  0  0
    6.1183   -2.2619    0.0000 H   0  0  0  0  0  0  0  0  0  0  0  0
    6.6814   -1.2220    0.0000 H   0  0  0  0  0  0  0  0  0  0  0  0
    7.6662    4.5574    0.0000 H   0  0  0  0  0  0  0  0  0  0  0  0
    6.6986    4.0914    0.0000 H   0  0  0  0  0  0  0  0  0  0  0  0
    5.1509   -1.7407    0.0000 H   0  0  0  0  0  0  0  0  0  0  0  0
    7.4129   -4.0451    0.0000 H   0  0  0  0  0  0  0  0  0  0  0  0
    3.9049   -0.9516    0.0000 H   0  0  0  0  0  0  0  0  0  0  0  0
    3.7060    1.8473    0.0000 H   0  0  0  0  0  0  0  0  0  0  0  0
    2.2890   -1.0664    0.0000 H   0  0  0  0  0  0  0  0  0  0  0  0
    2.0901    1.7325    0.0000 H   0  0  0  0  0  0  0  0  0  0  0  0
    1.3816    0.2756    0.0000 H   0  0  0  0  0  0  0  0  0  0  0  0
 13  1  1  6  0  0  0
  1 26  1  0  0  0  0
  2 23  1  0  0  0  0
  2 60  1  0  0  0  0
  3 24  1  0  0  0  0
  3 61  1  0  0  0  0
  4 24  2  0  0  0  0
  5 26  2  0  0  0  0
  6  7  1  0  0  0  0
  6  8  1  0  0  0  0
  6 10  1  0  0  0  0
  6 11  1  0  0  0  0
  7  9  1  0  0  0  0
  7 16  1  0  0  0  0
  7 19  1  6  0  0  0
  8 14  1  0  0  0  0
  8 18  1  0  0  0  0
  8 33  1  0  0  0  0
  9 13  1  0  0  0  0
  9 15  1  0  0  0  0
  9 34  1  1  0  0  0
 10 12  1  0  0  0  0
 10 35  1  0  0  0  0
 10 36  1  0  0  0  0
 11 17  1  0  0  0  0
 11 37  1  0  0  0  0
 11 38  1  0  0  0  0
 12 17  1  0  0  0  0
 12 20  1  0  0  0  0
 12 39  1  0  0  0  0
 13 14  1  0  0  0  0
 13 40  1  0  0  0  0
 14 41  1  0  0  0  0
 14 42  1  0  0  0  0
 15 21  1  0  0  0  0
 15 23  1  1  0  0  0
 15 24  1  0  0  0  0
 16 22  1  0  0  0  0
 16 43  1  0  0  0  0
 16 44  1  0  0  0  0
 17 45  1  0  0  0  0
 17 46  1  0  0  0  0
 18 20  1  0  0  0  0
 18 47  1  0  0  0  0
 18 48  1  0  0  0  0
 19 49  1  0  0  0  0
 19 50  1  0  0  0  0
 19 51  1  0  0  0  0
 20 25  2  0  0  0  0
 21 22  1  0  0  0  0
 21 52  1  0  0  0  0
 21 53  1  0  0  0  0
 22 54  1  0  0  0  0
 22 55  1  0  0  0  0
 23 56  1  0  0  0  0
 23 57  1  0  0  0  0
 25 58  1  0  0  0  0
 25 59  1  0  0  0  0
 26 27  1  0  0  0  0
 27 28  2  0  0  0  0
 27 29  1  0  0  0  0
 28 30  1  0  0  0  0
 28 62  1  0  0  0  0
 29 31  2  0  0  0  0
 29 63  1  0  0  0  0
 30 32  2  0  0  0  0
 30 64  1  0  0  0  0
 31 32  1  0  0  0  0
 31 65  1  0  0  0  0
 32 66  1  0  0  0  0
M  END
> <PUBCHEM_COMPOUND_CID>
512742
> <PUBCHEM_COMPOUND_CANONICALIZED>
1
> <PUBCHEM_CACTVS_COMPLEXITY>
800
> <PUBCHEM_CACTVS_HBOND_ACCEPTOR>
5
> <PUBCHEM_CACTVS_HBOND_DONOR>
2
> <PUBCHEM_CACTVS_ROTATABLE_BOND>
5
> <PUBCHEM_CACTVS_SUBSKEYS>
AAADcfB4OAAAAAAAAAAAAAAAAAAAAYAAAAAwYMGABgAAAADBAAAAGgAACAAADxSgmAIyCIAABgCIAiDSCAACAAAkAAAIiAEACMgINjaANRiCcQAl4AEIqYfKyPCPgAAAAAAAAADAAAYAADAAAQAAAAAAAA==
> <PUBCHEM_IUPAC_OPENEYE_NAME>
(2S,6S,7R,8R)-8-benzoyloxy-6-(hydroxymethyl)-2-methyl-12-methylene-tetracyclo[11.2.1.01,10.02,7]hexadecane-6-carboxylic acid
> <PUBCHEM_IUPAC_CAS_NAME>
(2S,6S,7R,8R)-8-benzoyloxy-6-(hydroxymethyl)-2-methyl-12-methylene-6-tetracyclo[11.2.1.01,10.02,7]hexadecanecarboxylic acid
> <PUBCHEM_IUPAC_NAME_MARKUP>
(2<I>S</I>,6<I>S</I>,7<I>R</I>,8<I>R</I>)-8-benzoyloxy-6-(hydroxymethyl)-2-methyl-12-methylidenetetracyclo[11.2.1.0<SUP>1,10</SUP>.0<SUP>2,7</SUP>]hexadecane-6-carboxylic acid
> <PUBCHEM_IUPAC_NAME>
(2S,6S,7R,8R)-8-benzoyloxy-6-(hydroxymethyl)-2-methyl-12-methylidenetetracyclo[11.2.1.01,10.02,7]hexadecane-6-carboxylic acid
> <PUBCHEM_IUPAC_SYSTEMATIC_NAME>
(2S,6S,7R,8R)-6-(hydroxymethyl)-2-methyl-12-methylidene-8-(phenylcarbonyloxy)tetracyclo[11.2.1.01,10.02,7]hexadecane-6-carboxylic acid
> <PUBCHEM_IUPAC_TRADITIONAL_NAME>
(2S,6S,7R,8R)-8-benzoyloxy-2-methyl-12-methylene-6-methylol-tetracyclo[11.2.1.01,10.02,7]hexadecane-6-carboxylic acid
> <PUBCHEM_IUPAC_INCHI>
InChI=1S/C27H34O5/c1-17-13-20-14-21(32-23(29)18-7-4-3-5-8-18)22-25(2,27(20)12-9-19(17)15-27)10-6-11-26(22,16-28)24(30)31/h3-5,7-8,19-22,28H,1,6,9-16H2,2H3,(H,30,31)/t19?,20?,21-,22-,25+,26-,27?/m1/s1
> <PUBCHEM_IUPAC_INCHIKEY>
FKABAWURBLBFLT-DZHOZBSLSA-N
> <PUBCHEM_XLOGP3_AA>
5.1
> <PUBCHEM_EXACT_MASS>
438.24062418
> <PUBCHEM_MOLECULAR_FORMULA>
C27H34O5
> <PUBCHEM_MOLECULAR_WEIGHT>
438.6
> <PUBCHEM_OPENEYE_CAN_SMILES>
CC12CCCC(C1C(CC3C24CCC(C4)C(=C)C3)OC(=O)C5=CC=CC=C5)(CO)C(=O)O
> <PUBCHEM_OPENEYE_ISO_SMILES>
C[C@]12CCC[C@]([C@@H]1[C@@H](CC3C24CCC(C4)C(=C)C3)OC(=O)C5=CC=CC=C5)(CO)C(=O)O
> <PUBCHEM_CACTVS_TPSA>
83.8
> <PUBCHEM_MONOISOTOPIC_WEIGHT>
438.24062418
> <PUBCHEM_TOTAL_CHARGE>
0
> <PUBCHEM_HEAVY_ATOM_COUNT>
32
> <PUBCHEM_ATOM_DEF_STEREO_COUNT>
4
> <PUBCHEM_ATOM_UDEF_STEREO_COUNT>
3
> <PUBCHEM_BOND_DEF_STEREO_COUNT>
0
> <PUBCHEM_BOND_UDEF_STEREO_COUNT>
0
> <PUBCHEM_ISOTOPIC_ATOM_COUNT>
0
> <PUBCHEM_COMPONENT_COUNT>
1
> <PUBCHEM_CACTVS_TAUTO_COUNT>
-1
> <PUBCHEM_COORDINATE_TYPE>
1
5
255
> <PUBCHEM_BONDANNOTATIONS>
13  1  6
12  17  3
15  23  5
27  28  8
27  29  8
28  30  8
29  31  8
30  32  8
31  32  8
6  11  3
7  19  6
8  14  3
9  34  5
$$$$
