512743
  -OEChem-10302200282D
 65 69  0     1  0  0  0  0  0999 V2000
    5.4554   -0.7855    0.0000 O   0  0  0  0  0  0  0  0  0  0  0  0
    7.4178   -3.4875    0.0000 O   0  0  0  0  0  0  0  0  0  0  0  0
    5.8602   -2.7300    0.0000 O   0  0  0  0  0  0  0  0  0  0  0  0
    4.4852    0.6494    0.0000 O   0  0  0  0  0  0  0  0  0  0  0  0
    7.9845    0.9535    0.0000 C   0  0  3  0  0  0  0  0  0  0  0  0
    8.0784   -0.0839    0.0000 C   0  0  2  0  0  0  0  0  0  0  0  0
    7.0835    1.3874    0.0000 C   0  0  3  0  0  0  0  0  0  0  0  0
    7.2223   -0.6773    0.0000 C   0  0  1  0  0  0  0  0  0  0  0  0
    7.8777    2.1303    0.0000 C   0  0  0  0  0  0  0  0  0  0  0  0
    8.8855    1.3874    0.0000 C   0  0  0  0  0  0  0  0  0  0  0  0
    8.4845    3.1441    0.0000 C   0  0  3  0  0  0  0  0  0  0  0  0
    6.2838   -0.2253    0.0000 C   0  0  1  0  0  0  0  0  0  0  0  0
    6.2140    0.8139    0.0000 C   0  0  0  0  0  0  0  0  0  0  0  0
    9.0665   -0.5319    0.0000 C   0  0  0  0  0  0  0  0  0  0  0  0
    7.2950   -1.7598    0.0000 C   0  0  2  0  0  0  0  0  0  0  0  0
    9.1080    2.3623    0.0000 C   0  0  0  0  0  0  0  0  0  0  0  0
    6.8610    2.3623    0.0000 C   0  0  0  0  0  0  0  0  0  0  0  0
    8.9002    0.4858    0.0000 C   0  0  0  0  0  0  0  0  0  0  0  0
    7.4845    3.1441    0.0000 C   0  0  0  0  0  0  0  0  0  0  0  0
    9.1643   -1.6125    0.0000 C   0  0  0  0  0  0  0  0  0  0  0  0
    8.2726   -2.2306    0.0000 C   0  0  0  0  0  0  0  0  0  0  0  0
    6.2975   -1.8307    0.0000 C   0  0  0  0  0  0  0  0  0  0  0  0
    6.8576   -2.6591    0.0000 C   0  0  0  0  0  0  0  0  0  0  0  0
    7.0506    4.0451    0.0000 C   0  0  0  0  0  0  0  0  0  0  0  0
    4.5561   -0.3481    0.0000 C   0  0  0  0  0  0  0  0  0  0  0  0
    3.7277   -0.9083    0.0000 C   0  0  0  0  0  0  0  0  0  0  0  0
    2.8284   -0.4709    0.0000 C   0  0  0  0  0  0  0  0  0  0  0  0
    3.7986   -1.9057    0.0000 C   0  0  0  0  0  0  0  0  0  0  0  0
    2.0000   -1.0310    0.0000 C   0  0  0  0  0  0  0  0  0  0  0  0
    2.9702   -2.4659    0.0000 C   0  0  0  0  0  0  0  0  0  0  0  0
    2.0709   -2.0285    0.0000 C   0  0  0  0  0  0  0  0  0  0  0  0
    6.5082    1.6183    0.0000 H   0  0  0  0  0  0  0  0  0  0  0  0
    6.5181   -1.1534    0.0000 H   0  0  0  0  0  0  0  0  0  0  0  0
    7.4699    2.5973    0.0000 H   0  0  0  0  0  0  0  0  0  0  0  0
    7.3076    1.8864    0.0000 H   0  0  0  0  0  0  0  0  0  0  0  0
    9.0234    0.7829    0.0000 H   0  0  0  0  0  0  0  0  0  0  0  0
    9.5055    1.3874    0.0000 H   0  0  0  0  0  0  0  0  0  0  0  0
    8.7535    3.7027    0.0000 H   0  0  0  0  0  0  0  0  0  0  0  0
    5.7268    0.0469    0.0000 H   0  0  0  0  0  0  0  0  0  0  0  0
    5.9662    1.3823    0.0000 H   0  0  0  0  0  0  0  0  0  0  0  0
    5.6116    0.6671    0.0000 H   0  0  0  0  0  0  0  0  0  0  0  0
    9.6845   -0.5826    0.0000 H   0  0  0  0  0  0  0  0  0  0  0  0
    9.2221    0.0682    0.0000 H   0  0  0  0  0  0  0  0  0  0  0  0
    9.6666    2.0933    0.0000 H   0  0  0  0  0  0  0  0  0  0  0  0
    9.4946    2.8470    0.0000 H   0  0  0  0  0  0  0  0  0  0  0  0
    6.4745    2.8470    0.0000 H   0  0  0  0  0  0  0  0  0  0  0  0
    6.3024    2.0933    0.0000 H   0  0  0  0  0  0  0  0  0  0  0  0
    9.2534   -0.0238    0.0000 H   0  0  0  0  0  0  0  0  0  0  0  0
    9.4098    0.8390    0.0000 H   0  0  0  0  0  0  0  0  0  0  0  0
    8.5470    0.9953    0.0000 H   0  0  0  0  0  0  0  0  0  0  0  0
    9.4251   -2.1750    0.0000 H   0  0  0  0  0  0  0  0  0  0  0  0
    9.7631   -1.4518    0.0000 H   0  0  0  0  0  0  0  0  0  0  0  0
    7.9119   -2.7349    0.0000 H   0  0  0  0  0  0  0  0  0  0  0  0
    8.7077   -2.6722    0.0000 H   0  0  0  0  0  0  0  0  0  0  0  0
    6.2536   -1.2123    0.0000 H   0  0  0  0  0  0  0  0  0  0  0  0
    5.6791   -1.8747    0.0000 H   0  0  0  0  0  0  0  0  0  0  0  0
    6.3415   -2.4492    0.0000 H   0  0  0  0  0  0  0  0  0  0  0  0
    7.3999    4.5574    0.0000 H   0  0  0  0  0  0  0  0  0  0  0  0
    6.4324    4.0914    0.0000 H   0  0  0  0  0  0  0  0  0  0  0  0
    7.1466   -4.0451    0.0000 H   0  0  0  0  0  0  0  0  0  0  0  0
    2.7844    0.1475    0.0000 H   0  0  0  0  0  0  0  0  0  0  0  0
    4.3561   -2.1769    0.0000 H   0  0  0  0  0  0  0  0  0  0  0  0
    1.4424   -0.7599    0.0000 H   0  0  0  0  0  0  0  0  0  0  0  0
    3.0141   -3.0843    0.0000 H   0  0  0  0  0  0  0  0  0  0  0  0
    1.5573   -2.3758    0.0000 H   0  0  0  0  0  0  0  0  0  0  0  0
 12  1  1  6  0  0  0
  1 25  1  0  0  0  0
  2 23  1  0  0  0  0
  2 60  1  0  0  0  0
  3 23  2  0  0  0  0
  4 25  2  0  0  0  0
  5  6  1  0  0  0  0
  5  7  1  0  0  0  0
  5  9  1  0  0  0  0
  5 10  1  0  0  0  0
  6  8  1  0  0  0  0
  6 14  1  0  0  0  0
  6 18  1  6  0  0  0
  7 13  1  0  0  0  0
  7 17  1  0  0  0  0
  7 32  1  0  0  0  0
  8 12  1  0  0  0  0
  8 15  1  0  0  0  0
  8 33  1  1  0  0  0
  9 11  1  0  0  0  0
  9 34  1  0  0  0  0
  9 35  1  0  0  0  0
 10 16  1  0  0  0  0
 10 36  1  0  0  0  0
 10 37  1  0  0  0  0
 11 16  1  0  0  0  0
 11 19  1  0  0  0  0
 11 38  1  0  0  0  0
 12 13  1  0  0  0  0
 12 39  1  0  0  0  0
 13 40  1  0  0  0  0
 13 41  1  0  0  0  0
 14 20  1  0  0  0  0
 14 42  1  0  0  0  0
 14 43  1  0  0  0  0
 15 21  1  0  0  0  0
 15 22  1  6  0  0  0
 15 23  1  0  0  0  0
 16 44  1  0  0  0  0
 16 45  1  0  0  0  0
 17 19  1  0  0  0  0
 17 46  1  0  0  0  0
 17 47  1  0  0  0  0
 18 48  1  0  0  0  0
 18 49  1  0  0  0  0
 18 50  1  0  0  0  0
 19 24  2  0  0  0  0
 20 21  1  0  0  0  0
 20 51  1  0  0  0  0
 20 52  1  0  0  0  0
 21 53  1  0  0  0  0
 21 54  1  0  0  0  0
 22 55  1  0  0  0  0
 22 56  1  0  0  0  0
 22 57  1  0  0  0  0
 24 58  1  0  0  0  0
 24 59  1  0  0  0  0
 25 26  1  0  0  0  0
 26 27  2  0  0  0  0
 26 28  1  0  0  0  0
 27 29  1  0  0  0  0
 27 61  1  0  0  0  0
 28 30  2  0  0  0  0
 28 62  1  0  0  0  0
 29 31  2  0  0  0  0
 29 63  1  0  0  0  0
 30 31  1  0  0  0  0
 30 64  1  0  0  0  0
 31 65  1  0  0  0  0
M  END
> <PUBCHEM_COMPOUND_CID>
512743
> <PUBCHEM_COMPOUND_CANONICALIZED>
1
> <PUBCHEM_CACTVS_COMPLEXITY>
782
> <PUBCHEM_CACTVS_HBOND_ACCEPTOR>
4
> <PUBCHEM_CACTVS_HBOND_DONOR>
1
> <PUBCHEM_CACTVS_ROTATABLE_BOND>
4
> <PUBCHEM_CACTVS_SUBSKEYS>
AAADcfB4OAAAAAAAAAAAAAAAAAAAAYAAAAAwYMGABgAAAADBAAAAGgAACAAADxSgmAIyCIAABgCIAiDSCAACAAAkAAAIiAEACMgIJjKANRiCcQAkwAEIqYfKyPCPgAAAAAAAAADAAAYAADAAAQAAAAAAAA==
> <PUBCHEM_IUPAC_OPENEYE_NAME>
(2S,6R,7R,8R)-8-benzoyloxy-2,6-dimethyl-12-methylene-tetracyclo[11.2.1.01,10.02,7]hexadecane-6-carboxylic acid
> <PUBCHEM_IUPAC_CAS_NAME>
(2S,6R,7R,8R)-8-benzoyloxy-2,6-dimethyl-12-methylene-6-tetracyclo[11.2.1.01,10.02,7]hexadecanecarboxylic acid
> <PUBCHEM_IUPAC_NAME_MARKUP>
(2<I>S</I>,6<I>R</I>,7<I>R</I>,8<I>R</I>)-8-benzoyloxy-2,6-dimethyl-12-methylidenetetracyclo[11.2.1.0<SUP>1,10</SUP>.0<SUP>2,7</SUP>]hexadecane-6-carboxylic acid
> <PUBCHEM_IUPAC_NAME>
(2S,6R,7R,8R)-8-benzoyloxy-2,6-dimethyl-12-methylidenetetracyclo[11.2.1.01,10.02,7]hexadecane-6-carboxylic acid
> <PUBCHEM_IUPAC_SYSTEMATIC_NAME>
(2S,6R,7R,8R)-2,6-dimethyl-12-methylidene-8-(phenylcarbonyloxy)tetracyclo[11.2.1.01,10.02,7]hexadecane-6-carboxylic acid
> <PUBCHEM_IUPAC_TRADITIONAL_NAME>
(2S,6R,7R,8R)-8-benzoyloxy-2,6-dimethyl-12-methylene-tetracyclo[11.2.1.01,10.02,7]hexadecane-6-carboxylic acid
> <PUBCHEM_IUPAC_INCHI>
InChI=1S/C27H34O4/c1-17-14-20-15-21(31-23(28)18-8-5-4-6-9-18)22-25(2,24(29)30)11-7-12-26(22,3)27(20)13-10-19(17)16-27/h4-6,8-9,19-22H,1,7,10-16H2,2-3H3,(H,29,30)/t19?,20?,21-,22+,25-,26+,27?/m1/s1
> <PUBCHEM_IUPAC_INCHIKEY>
RRAHKVZCESQCAV-FLMZKRIWSA-N
> <PUBCHEM_XLOGP3_AA>
6.3
> <PUBCHEM_EXACT_MASS>
422.24570956
> <PUBCHEM_MOLECULAR_FORMULA>
C27H34O4
> <PUBCHEM_MOLECULAR_WEIGHT>
422.6
> <PUBCHEM_OPENEYE_CAN_SMILES>
CC1(CCCC2(C1C(CC3C24CCC(C4)C(=C)C3)OC(=O)C5=CC=CC=C5)C)C(=O)O
> <PUBCHEM_OPENEYE_ISO_SMILES>
C[C@]1(CCC[C@]2([C@H]1[C@@H](CC3C24CCC(C4)C(=C)C3)OC(=O)C5=CC=CC=C5)C)C(=O)O
> <PUBCHEM_CACTVS_TPSA>
63.6
> <PUBCHEM_MONOISOTOPIC_WEIGHT>
422.24570956
> <PUBCHEM_TOTAL_CHARGE>
0
> <PUBCHEM_HEAVY_ATOM_COUNT>
31
> <PUBCHEM_ATOM_DEF_STEREO_COUNT>
4
> <PUBCHEM_ATOM_UDEF_STEREO_COUNT>
3
> <PUBCHEM_BOND_DEF_STEREO_COUNT>
0
> <PUBCHEM_BOND_UDEF_STEREO_COUNT>
0
> <PUBCHEM_ISOTOPIC_ATOM_COUNT>
0
> <PUBCHEM_COMPONENT_COUNT>
1
> <PUBCHEM_CACTVS_TAUTO_COUNT>
-1
> <PUBCHEM_COORDINATE_TYPE>
1
5
255
> <PUBCHEM_BONDANNOTATIONS>
12  1  6
11  16  3
15  22  6
26  27  8
26  28  8
27  29  8
28  30  8
29  31  8
30  31  8
5  10  3
6  18  6
7  13  3
8  33  5
$$$$
