512700
  -OEChem-10302200282D
 52 54  0     1  0  0  0  0  0999 V2000
    5.3548   -1.1481    0.0000 S   0  0  0  0  0  0  0  0  0  0  0  0
    4.4026    1.3535    0.0000 O   0  0  0  0  0  0  0  0  0  0  0  0
    6.7485    2.4454    0.0000 O   0  0  0  0  0  0  0  0  0  0  0  0
    6.7523    0.2698    0.0000 O   0  0  0  0  0  0  0  0  0  0  0  0
    4.1253   -4.9544    0.0000 O   0  0  0  0  0  0  0  0  0  0  0  0
    3.7622   -3.2608    0.0000 O   0  0  0  0  0  0  0  0  0  0  0  0
    4.7957   -5.6964    0.0000 O   0  0  0  0  0  0  0  0  0  0  0  0
    4.6783    3.1141    0.0000 N   0  0  0  0  0  0  0  0  0  0  0  0
    2.8660    2.9188    0.0000 N   0  0  0  0  0  0  0  0  0  0  0  0
    2.0000    4.4188    0.0000 N   0  0  0  0  0  0  0  0  0  0  0  0
    6.0809   -4.5352    0.0000 N   0  0  0  0  0  0  0  0  0  0  0  0
    2.8660    5.9188    0.0000 N   0  0  0  0  0  0  0  0  0  0  0  0
    5.9405    1.8562    0.0000 C   0  0  2  0  0  0  0  0  0  0  0  0
    5.9422    0.8562    0.0000 C   0  0  1  0  0  0  0  0  0  0  0  0
    4.9889    2.1635    0.0000 C   0  0  1  0  0  0  0  0  0  0  0  0
    4.9917    0.5455    0.0000 C   0  0  1  0  0  0  0  0  0  0  0  0
    4.6844   -0.4061    0.0000 C   0  0  0  0  0  0  0  0  0  0  0  0
    3.7320    3.4188    0.0000 C   0  0  0  0  0  0  0  0  0  0  0  0
    5.2619    3.9188    0.0000 C   0  0  0  0  0  0  0  0  0  0  0  0
    3.7320    4.4188    0.0000 C   0  0  0  0  0  0  0  0  0  0  0  0
    4.6783    4.7235    0.0000 C   0  0  0  0  0  0  0  0  0  0  0  0
    5.0474   -2.0997    0.0000 C   0  0  0  0  0  0  0  0  0  0  0  0
    5.7178   -2.8416    0.0000 C   0  0  0  0  0  0  0  0  0  0  0  0
    2.8660    4.9188    0.0000 C   0  0  0  0  0  0  0  0  0  0  0  0
    5.4104   -3.7932    0.0000 C   0  0  3  0  0  0  0  0  0  0  0  0
    2.0000    3.4188    0.0000 C   0  0  0  0  0  0  0  0  0  0  0  0
    4.4327   -4.0028    0.0000 C   0  0  0  0  0  0  0  0  0  0  0  0
    5.7735   -5.4868    0.0000 C   0  0  0  0  0  0  0  0  0  0  0  0
    6.4439   -6.2288    0.0000 C   0  0  0  0  0  0  0  0  0  0  0  0
    6.4934    1.5756    0.0000 H   0  0  0  0  0  0  0  0  0  0  0  0
    6.4942    1.1386    0.0000 H   0  0  0  0  0  0  0  0  0  0  0  0
    5.4266    2.6027    0.0000 H   0  0  0  0  0  0  0  0  0  0  0  0
    4.3795    0.4475    0.0000 H   0  0  0  0  0  0  0  0  0  0  0  0
    4.1364   -0.1160    0.0000 H   0  0  0  0  0  0  0  0  0  0  0  0
    4.3035   -0.8953    0.0000 H   0  0  0  0  0  0  0  0  0  0  0  0
    7.3154    2.1942    0.0000 H   0  0  0  0  0  0  0  0  0  0  0  0
    7.3182    0.5229    0.0000 H   0  0  0  0  0  0  0  0  0  0  0  0
    5.8819    3.9188    0.0000 H   0  0  0  0  0  0  0  0  0  0  0  0
    4.8709    5.3128    0.0000 H   0  0  0  0  0  0  0  0  0  0  0  0
    4.4995   -1.8095    0.0000 H   0  0  0  0  0  0  0  0  0  0  0  0
    4.6665   -2.5889    0.0000 H   0  0  0  0  0  0  0  0  0  0  0  0
    6.2658   -3.1318    0.0000 H   0  0  0  0  0  0  0  0  0  0  0  0
    6.0987   -2.3524    0.0000 H   0  0  0  0  0  0  0  0  0  0  0  0
    6.0167   -3.6633    0.0000 H   0  0  0  0  0  0  0  0  0  0  0  0
    1.4631    3.1088    0.0000 H   0  0  0  0  0  0  0  0  0  0  0  0
    6.6871   -4.4053    0.0000 H   0  0  0  0  0  0  0  0  0  0  0  0
    2.3291    6.2288    0.0000 H   0  0  0  0  0  0  0  0  0  0  0  0
    3.4030    6.2288    0.0000 H   0  0  0  0  0  0  0  0  0  0  0  0
    3.5191   -5.0844    0.0000 H   0  0  0  0  0  0  0  0  0  0  0  0
    5.9839   -6.6444    0.0000 H   0  0  0  0  0  0  0  0  0  0  0  0
    6.8596   -6.6888    0.0000 H   0  0  0  0  0  0  0  0  0  0  0  0
    6.9039   -5.8131    0.0000 H   0  0  0  0  0  0  0  0  0  0  0  0
  1 17  1  0  0  0  0
  1 22  1  0  0  0  0
  2 15  1  0  0  0  0
  2 16  1  0  0  0  0
 13  3  1  6  0  0  0
  3 36  1  0  0  0  0
 14  4  1  6  0  0  0
  4 37  1  0  0  0  0
  5 27  1  0  0  0  0
  5 49  1  0  0  0  0
  6 27  2  0  0  0  0
  7 28  2  0  0  0  0
 15  8  1  1  0  0  0
  8 18  1  0  0  0  0
  8 19  1  0  0  0  0
  9 18  2  0  0  0  0
  9 26  1  0  0  0  0
 10 24  1  0  0  0  0
 10 26  2  0  0  0  0
 11 25  1  0  0  0  0
 11 28  1  0  0  0  0
 11 46  1  0  0  0  0
 12 24  1  0  0  0  0
 12 47  1  0  0  0  0
 12 48  1  0  0  0  0
 13 14  1  0  0  0  0
 13 15  1  0  0  0  0
 13 30  1  0  0  0  0
 14 16  1  0  0  0  0
 14 31  1  0  0  0  0
 15 32  1  0  0  0  0
 16 17  1  1  0  0  0
 16 33  1  0  0  0  0
 17 34  1  0  0  0  0
 17 35  1  0  0  0  0
 18 20  1  0  0  0  0
 19 21  2  0  0  0  0
 19 38  1  0  0  0  0
 20 21  1  0  0  0  0
 20 24  2  0  0  0  0
 21 39  1  0  0  0  0
 22 23  1  0  0  0  0
 22 40  1  0  0  0  0
 22 41  1  0  0  0  0
 23 25  1  0  0  0  0
 23 42  1  0  0  0  0
 23 43  1  0  0  0  0
 25 27  1  0  0  0  0
 25 44  1  0  0  0  0
 26 45  1  0  0  0  0
 28 29  1  0  0  0  0
 29 50  1  0  0  0  0
 29 51  1  0  0  0  0
 29 52  1  0  0  0  0
M  END
> <PUBCHEM_COMPOUND_CID>
512700
> <PUBCHEM_COMPOUND_CANONICALIZED>
1
> <PUBCHEM_CACTVS_COMPLEXITY>
601
> <PUBCHEM_CACTVS_HBOND_ACCEPTOR>
10
> <PUBCHEM_CACTVS_HBOND_DONOR>
5
> <PUBCHEM_CACTVS_ROTATABLE_BOND>
8
> <PUBCHEM_CACTVS_SUBSKEYS>
AAADceB7uABAAAAAAAAAAAAAAAAAAWJAAAAsAAAAAAAAAFgB+AAAHgQQCAAADDzl2wa/uN/MFgioAjP3fACCgCkxArAJ2KG4ZJiLONJgyOEORAhPFgLzQCCwAAAIAAAAAAAAAAAAAAAAAAAAAAAAAAAAAA==
> <PUBCHEM_IUPAC_OPENEYE_NAME>
2-acetamido-4-[[(2S,3S,4R,5R)-5-(4-aminopyrrolo[2,3-d]pyrimidin-7-yl)-3,4-dihydroxy-tetrahydrofuran-2-yl]methylsulfanyl]butanoic acid
> <PUBCHEM_IUPAC_CAS_NAME>
2-acetamido-4-[[(2S,3S,4R,5R)-5-(4-amino-7-pyrrolo[2,3-d]pyrimidinyl)-3,4-dihydroxy-2-oxolanyl]methylthio]butanoic acid
> <PUBCHEM_IUPAC_NAME_MARKUP>
2-acetamido-4-[[(2<I>S</I>,3<I>S</I>,4<I>R</I>,5<I>R</I>)-5-(4-aminopyrrolo[2,3-d]pyrimidin-7-yl)-3,4-dihydroxyoxolan-2-yl]methylsulfanyl]butanoic acid
> <PUBCHEM_IUPAC_NAME>
2-acetamido-4-[[(2S,3S,4R,5R)-5-(4-aminopyrrolo[2,3-d]pyrimidin-7-yl)-3,4-dihydroxyoxolan-2-yl]methylsulfanyl]butanoic acid
> <PUBCHEM_IUPAC_SYSTEMATIC_NAME>
2-acetamido-4-[[(2S,3S,4R,5R)-5-(4-azanylpyrrolo[2,3-d]pyrimidin-7-yl)-3,4-bis(oxidanyl)oxolan-2-yl]methylsulfanyl]butanoic acid
> <PUBCHEM_IUPAC_TRADITIONAL_NAME>
2-acetamido-4-[[(2S,3S,4R,5R)-5-(4-aminopyrrolo[2,3-d]pyrimidin-7-yl)-3,4-dihydroxy-tetrahydrofuran-2-yl]methylthio]butyric acid
> <PUBCHEM_IUPAC_INCHI>
InChI=1S/C17H23N5O6S/c1-8(23)21-10(17(26)27)3-5-29-6-11-12(24)13(25)16(28-11)22-4-2-9-14(18)19-7-20-15(9)22/h2,4,7,10-13,16,24-25H,3,5-6H2,1H3,(H,21,23)(H,26,27)(H2,18,19,20)/t10?,11-,12-,13-,16-/m1/s1
> <PUBCHEM_IUPAC_INCHIKEY>
RMJHGHIGJKAQAT-WJCKVMGOSA-N
> <PUBCHEM_XLOGP3_AA>
-1.3
> <PUBCHEM_EXACT_MASS>
425.13690464
> <PUBCHEM_MOLECULAR_FORMULA>
C17H23N5O6S
> <PUBCHEM_MOLECULAR_WEIGHT>
425.5
> <PUBCHEM_OPENEYE_CAN_SMILES>
CC(=O)NC(CCSCC1C(C(C(O1)N2C=CC3=C(N=CN=C32)N)O)O)C(=O)O
> <PUBCHEM_OPENEYE_ISO_SMILES>
CC(=O)NC(CCSC[C@@H]1[C@H]([C@H]([C@@H](O1)N2C=CC3=C(N=CN=C32)N)O)O)C(=O)O
> <PUBCHEM_CACTVS_TPSA>
198
> <PUBCHEM_MONOISOTOPIC_WEIGHT>
425.13690464
> <PUBCHEM_TOTAL_CHARGE>
0
> <PUBCHEM_HEAVY_ATOM_COUNT>
29
> <PUBCHEM_ATOM_DEF_STEREO_COUNT>
4
> <PUBCHEM_ATOM_UDEF_STEREO_COUNT>
1
> <PUBCHEM_BOND_DEF_STEREO_COUNT>
0
> <PUBCHEM_BOND_UDEF_STEREO_COUNT>
0
> <PUBCHEM_ISOTOPIC_ATOM_COUNT>
0
> <PUBCHEM_COMPONENT_COUNT>
1
> <PUBCHEM_CACTVS_TAUTO_COUNT>
-1
> <PUBCHEM_COORDINATE_TYPE>
1
5
255
> <PUBCHEM_BONDANNOTATIONS>
10  24  8
10  26  8
16  17  5
18  20  8
19  21  8
20  21  8
20  24  8
25  23  3
13  3  6
14  4  6
15  8  5
8  18  8
8  19  8
9  18  8
9  26  8
$$$$
