512731
  -OEChem-10302200282D
 42 44  0     1  0  0  0  0  0999 V2000
    3.3100   -0.7990    0.0000 P   0  0  3  0  0  0  0  0  0  0  0  0
    5.9883   -2.1038    0.0000 O   0  0  0  0  0  0  0  0  0  0  0  0
    4.1760   -0.2990    0.0000 O   0  0  0  0  0  0  0  0  0  0  0  0
    3.3100   -1.7990    0.0000 O   0  0  0  0  0  0  0  0  0  0  0  0
    2.3100   -0.7990    0.0000 O   0  0  0  0  0  0  0  0  0  0  0  0
    2.8100    0.0670    0.0000 O   0  0  0  0  0  0  0  0  0  0  0  0
    7.5719   -3.0311    0.0000 O   0  0  0  0  0  0  0  0  0  0  0  0
   10.5719   -1.2990    0.0000 O   0  0  0  0  0  0  0  0  0  0  0  0
    7.5719   -1.2990    0.0000 N   0  0  0  0  0  0  0  0  0  0  0  0
    9.0719   -2.1651    0.0000 N   0  0  0  0  0  0  0  0  0  0  0  0
    5.0420   -0.7990    0.0000 C   0  0  3  0  0  0  0  0  0  0  0  0
    5.0420   -1.7990    0.0000 C   0  0  3  0  0  0  0  0  0  0  0  0
    5.9883   -0.4943    0.0000 C   0  0  0  0  0  0  0  0  0  0  0  0
    6.5719   -1.2990    0.0000 C   0  0  1  0  0  0  0  0  0  0  0  0
    4.1760   -2.2990    0.0000 C   0  0  0  0  0  0  0  0  0  0  0  0
    8.0719   -0.4330    0.0000 C   0  0  0  0  0  0  0  0  0  0  0  0
    8.0719   -2.1651    0.0000 C   0  0  0  0  0  0  0  0  0  0  0  0
    9.0719   -0.4330    0.0000 C   0  0  0  0  0  0  0  0  0  0  0  0
    9.5719    0.4330    0.0000 C   0  0  0  0  0  0  0  0  0  0  0  0
    9.5719   -1.2990    0.0000 C   0  0  0  0  0  0  0  0  0  0  0  0
    9.0719    1.2990    0.0000 C   0  0  0  0  0  0  0  0  0  0  0  0
    9.5719    2.1651    0.0000 C   0  0  0  0  0  0  0  0  0  0  0  0
    9.0719    3.0311    0.0000 C   0  0  0  0  0  0  0  0  0  0  0  0
    5.1320    0.0462    0.0000 H   0  0  0  0  0  0  0  0  0  0  0  0
    5.1320   -2.6443    0.0000 H   0  0  0  0  0  0  0  0  0  0  0  0
    6.5256   -0.1851    0.0000 H   0  0  0  0  0  0  0  0  0  0  0  0
    5.7372    0.0726    0.0000 H   0  0  0  0  0  0  0  0  0  0  0  0
    6.8536   -0.7467    0.0000 H   0  0  0  0  0  0  0  0  0  0  0  0
    3.7775   -2.7740    0.0000 H   0  0  0  0  0  0  0  0  0  0  0  0
    4.5746   -2.7740    0.0000 H   0  0  0  0  0  0  0  0  0  0  0  0
    7.7619    0.1039    0.0000 H   0  0  0  0  0  0  0  0  0  0  0  0
   10.0468    0.0345    0.0000 H   0  0  0  0  0  0  0  0  0  0  0  0
   10.0468    0.8315    0.0000 H   0  0  0  0  0  0  0  0  0  0  0  0
    9.3819   -2.7020    0.0000 H   0  0  0  0  0  0  0  0  0  0  0  0
    8.5969    1.6976    0.0000 H   0  0  0  0  0  0  0  0  0  0  0  0
    8.5969    0.9005    0.0000 H   0  0  0  0  0  0  0  0  0  0  0  0
    2.0000   -1.3360    0.0000 H   0  0  0  0  0  0  0  0  0  0  0  0
   10.0468    1.7665    0.0000 H   0  0  0  0  0  0  0  0  0  0  0  0
   10.0468    2.5636    0.0000 H   0  0  0  0  0  0  0  0  0  0  0  0
    9.6088    3.3411    0.0000 H   0  0  0  0  0  0  0  0  0  0  0  0
    8.7619    3.5680    0.0000 H   0  0  0  0  0  0  0  0  0  0  0  0
    8.5349    2.7211    0.0000 H   0  0  0  0  0  0  0  0  0  0  0  0
  1  3  1  0  0  0  0
  1  4  1  0  0  0  0
  1  5  1  0  0  0  0
  1  6  2  0  0  0  0
  2 12  1  0  0  0  0
  2 14  1  0  0  0  0
  3 11  1  0  0  0  0
  4 15  1  0  0  0  0
  5 37  1  0  0  0  0
  7 17  2  0  0  0  0
  8 20  2  0  0  0  0
 14  9  1  6  0  0  0
  9 16  1  0  0  0  0
  9 17  1  0  0  0  0
 10 17  1  0  0  0  0
 10 20  1  0  0  0  0
 10 34  1  0  0  0  0
 11 12  1  0  0  0  0
 11 13  1  0  0  0  0
 11 24  1  0  0  0  0
 12 15  1  0  0  0  0
 12 25  1  0  0  0  0
 13 14  1  0  0  0  0
 13 26  1  0  0  0  0
 13 27  1  0  0  0  0
 14 28  1  0  0  0  0
 15 29  1  0  0  0  0
 15 30  1  0  0  0  0
 16 18  2  0  0  0  0
 16 31  1  0  0  0  0
 18 19  1  0  0  0  0
 18 20  1  0  0  0  0
 19 21  1  0  0  0  0
 19 32  1  0  0  0  0
 19 33  1  0  0  0  0
 21 22  1  0  0  0  0
 21 35  1  0  0  0  0
 21 36  1  0  0  0  0
 22 23  1  0  0  0  0
 22 38  1  0  0  0  0
 22 39  1  0  0  0  0
 23 40  1  0  0  0  0
 23 41  1  0  0  0  0
 23 42  1  0  0  0  0
M  END
> <PUBCHEM_COMPOUND_CID>
512731
> <PUBCHEM_COMPOUND_CANONICALIZED>
1
> <PUBCHEM_CACTVS_COMPLEXITY>
593
> <PUBCHEM_CACTVS_HBOND_ACCEPTOR>
7
> <PUBCHEM_CACTVS_HBOND_DONOR>
2
> <PUBCHEM_CACTVS_ROTATABLE_BOND>
4
> <PUBCHEM_CACTVS_SUBSKEYS>
AAADceBzOAIAAAAAAAAAAAAAAAAAASAAAAAkQAAAAAAAAEgAAAAAHgAQCCAADBThgAYDAAPABRCIQgFWUICAAAAgAAAAAAEIAEiBABIAgQAOAAAPhyICAMG4OAIAAAAAAAAAAAAAAAAAAAAAAAAAAAAAAA==
> <PUBCHEM_IUPAC_OPENEYE_NAME>
5-butyl-1-[(6R)-2-hydroxy-2-oxo-4a,6,7,7a-tetrahydro-4H-furo[3,2-d][1,3,2]dioxaphosphinin-6-yl]pyrimidine-2,4-dione
> <PUBCHEM_IUPAC_CAS_NAME>
5-butyl-1-[(6R)-2-hydroxy-2-oxo-4a,6,7,7a-tetrahydro-4H-furo[3,2-d][1,3,2]dioxaphosphorin-6-yl]pyrimidine-2,4-dione
> <PUBCHEM_IUPAC_NAME_MARKUP>
5-butyl-1-[(6<I>R</I>)-2-hydroxy-2-oxo-4<I>a</I>,6,7,7<I>a</I>-tetrahydro-4<I>H</I>-furo[3,2-d][1,3,2]dioxaphosphinin-6-yl]pyrimidine-2,4-dione
> <PUBCHEM_IUPAC_NAME>
5-butyl-1-[(6R)-2-hydroxy-2-oxo-4a,6,7,7a-tetrahydro-4H-furo[3,2-d][1,3,2]dioxaphosphinin-6-yl]pyrimidine-2,4-dione
> <PUBCHEM_IUPAC_SYSTEMATIC_NAME>
5-butyl-1-[(6R)-2-oxidanyl-2-oxidanylidene-4a,6,7,7a-tetrahydro-4H-furo[3,2-d][1,3,2]dioxaphosphinin-6-yl]pyrimidine-2,4-dione
> <PUBCHEM_IUPAC_TRADITIONAL_NAME>
5-butyl-1-[(6R)-2-hydroxy-2-keto-4a,6,7,7a-tetrahydro-4H-furo[3,2-d][1,3,2]dioxaphosphorin-6-yl]pyrimidine-2,4-quinone
> <PUBCHEM_IUPAC_INCHI>
InChI=1S/C13H19N2O7P/c1-2-3-4-8-6-15(13(17)14-12(8)16)11-5-9-10(21-11)7-20-23(18,19)22-9/h6,9-11H,2-5,7H2,1H3,(H,18,19)(H,14,16,17)/t9?,10?,11-/m1/s1
> <PUBCHEM_IUPAC_INCHIKEY>
OLFSWUMRPLLZBF-VQXHTEKXSA-N
> <PUBCHEM_XLOGP3_AA>
-0.1
> <PUBCHEM_EXACT_MASS>
346.09298795
> <PUBCHEM_MOLECULAR_FORMULA>
C13H19N2O7P
> <PUBCHEM_MOLECULAR_WEIGHT>
346.27
> <PUBCHEM_OPENEYE_CAN_SMILES>
CCCCC1=CN(C(=O)NC1=O)C2CC3C(O2)COP(=O)(O3)O
> <PUBCHEM_OPENEYE_ISO_SMILES>
CCCCC1=CN(C(=O)NC1=O)[C@H]2CC3C(O2)COP(=O)(O3)O
> <PUBCHEM_CACTVS_TPSA>
114
> <PUBCHEM_MONOISOTOPIC_WEIGHT>
346.09298795
> <PUBCHEM_TOTAL_CHARGE>
0
> <PUBCHEM_HEAVY_ATOM_COUNT>
23
> <PUBCHEM_ATOM_DEF_STEREO_COUNT>
1
> <PUBCHEM_ATOM_UDEF_STEREO_COUNT>
2
> <PUBCHEM_BOND_DEF_STEREO_COUNT>
0
> <PUBCHEM_BOND_UDEF_STEREO_COUNT>
0
> <PUBCHEM_ISOTOPIC_ATOM_COUNT>
0
> <PUBCHEM_COMPONENT_COUNT>
1
> <PUBCHEM_CACTVS_TAUTO_COUNT>
3
> <PUBCHEM_COORDINATE_TYPE>
1
5
255
> <PUBCHEM_BONDANNOTATIONS>
10  17  8
10  20  8
11  24  3
12  25  3
16  18  8
18  20  8
14  9  6
9  16  8
9  17  8
$$$$
