512787
  -OEChem-10302200282D
 57 60  0     1  0  0  0  0  0999 V2000
    8.6651   -1.4572    0.0000 F   0  0  0  0  0  0  0  0  0  0  0  0
    5.1350   -2.4330    0.0000 O   0  0  0  0  0  0  0  0  0  0  0  0
    2.5369   -0.9330    0.0000 O   0  0  0  0  0  0  0  0  0  0  0  0
    3.4030   -2.4330    0.0000 O   0  0  0  0  0  0  0  0  0  0  0  0
    8.6651    0.5911    0.0000 N   0  0  3  0  0  0  0  0  0  0  0  0
    6.0010   -0.9330    0.0000 N   0  0  0  0  0  0  0  0  0  0  0  0
   11.8261    1.6442    0.0000 N   0  0  0  0  0  0  0  0  0  0  0  0
    5.1350    1.5670    0.0000 C   0  0  0  0  0  0  0  0  0  0  0  0
   10.2465    0.9336    0.0000 C   0  0  1  0  0  0  0  0  0  0  0  0
    5.6350    2.4330    0.0000 C   0  0  0  0  0  0  0  0  0  0  0  0
    4.6350    2.4330    0.0000 C   0  0  0  0  0  0  0  0  0  0  0  0
    9.5802    0.1879    0.0000 C   0  0  0  0  0  0  0  0  0  0  0  0
    9.7432    1.7977    0.0000 C   0  0  0  0  0  0  0  0  0  0  0  0
   11.2414    0.8329    0.0000 C   0  0  2  0  0  0  0  0  0  0  0  0
    8.7658    1.5860    0.0000 C   0  0  0  0  0  0  0  0  0  0  0  0
    5.1350    0.5670    0.0000 C   0  0  0  0  0  0  0  0  0  0  0  0
    7.8010    0.0878    0.0000 C   0  0  0  0  0  0  0  0  0  0  0  0
    6.0010    0.0670    0.0000 C   0  0  0  0  0  0  0  0  0  0  0  0
    6.8950    0.6016    0.0000 C   0  0  0  0  0  0  0  0  0  0  0  0
   11.6517   -0.0790    0.0000 C   0  0  0  0  0  0  0  0  0  0  0  0
    4.2690    0.0670    0.0000 C   0  0  0  0  0  0  0  0  0  0  0  0
    7.8010   -0.9538    0.0000 C   0  0  0  0  0  0  0  0  0  0  0  0
    6.8950   -1.4677    0.0000 C   0  0  0  0  0  0  0  0  0  0  0  0
    4.2690   -0.9330    0.0000 C   0  0  0  0  0  0  0  0  0  0  0  0
    6.8834    1.6016    0.0000 C   0  0  0  0  0  0  0  0  0  0  0  0
    5.1350   -1.4330    0.0000 C   0  0  0  0  0  0  0  0  0  0  0  0
   12.6466   -0.1797    0.0000 C   0  0  0  0  0  0  0  0  0  0  0  0
   12.8210    1.5435    0.0000 C   0  0  0  0  0  0  0  0  0  0  0  0
    3.4030   -1.4330    0.0000 C   0  0  0  0  0  0  0  0  0  0  0  0
    5.7339    1.4065    0.0000 H   0  0  0  0  0  0  0  0  0  0  0  0
   10.7067    1.6483    0.0000 H   0  0  0  0  0  0  0  0  0  0  0  0
    6.2176    2.2210    0.0000 H   0  0  0  0  0  0  0  0  0  0  0  0
    5.7427    3.0436    0.0000 H   0  0  0  0  0  0  0  0  0  0  0  0
    4.5274    3.0436    0.0000 H   0  0  0  0  0  0  0  0  0  0  0  0
    4.0524    2.2210    0.0000 H   0  0  0  0  0  0  0  0  0  0  0  0
    9.2723   -0.3502    0.0000 H   0  0  0  0  0  0  0  0  0  0  0  0
   10.0832   -0.1746    0.0000 H   0  0  0  0  0  0  0  0  0  0  0  0
   10.3086    2.0521    0.0000 H   0  0  0  0  0  0  0  0  0  0  0  0
    9.5493    2.3866    0.0000 H   0  0  0  0  0  0  0  0  0  0  0  0
   10.9871    1.3984    0.0000 H   0  0  0  0  0  0  0  0  0  0  0  0
    8.6986    2.2024    0.0000 H   0  0  0  0  0  0  0  0  0  0  0  0
    8.1458    1.5837    0.0000 H   0  0  0  0  0  0  0  0  0  0  0  0
   11.0507   -0.2313    0.0000 H   0  0  0  0  0  0  0  0  0  0  0  0
   11.6973   -0.6973    0.0000 H   0  0  0  0  0  0  0  0  0  0  0  0
   11.5717    2.2096    0.0000 H   0  0  0  0  0  0  0  0  0  0  0  0
    3.7320    0.3770    0.0000 H   0  0  0  0  0  0  0  0  0  0  0  0
    6.8878   -2.0876    0.0000 H   0  0  0  0  0  0  0  0  0  0  0  0
    7.5034    1.6087    0.0000 H   0  0  0  0  0  0  0  0  0  0  0  0
    6.8762    2.2215    0.0000 H   0  0  0  0  0  0  0  0  0  0  0  0
    6.2635    1.5944    0.0000 H   0  0  0  0  0  0  0  0  0  0  0  0
   12.5842   -0.7966    0.0000 H   0  0  0  0  0  0  0  0  0  0  0  0
   13.2634   -0.2421    0.0000 H   0  0  0  0  0  0  0  0  0  0  0  0
   12.7090    0.4371    0.0000 H   0  0  0  0  0  0  0  0  0  0  0  0
   12.7586    0.9267    0.0000 H   0  0  0  0  0  0  0  0  0  0  0  0
   13.4379    1.4811    0.0000 H   0  0  0  0  0  0  0  0  0  0  0  0
   12.8834    2.1604    0.0000 H   0  0  0  0  0  0  0  0  0  0  0  0
    2.0000   -1.2430    0.0000 H   0  0  0  0  0  0  0  0  0  0  0  0
  1 22  1  0  0  0  0
  2 26  2  0  0  0  0
  3 29  1  0  0  0  0
  3 57  1  0  0  0  0
  4 29  2  0  0  0  0
  5 12  1  0  0  0  0
  5 15  1  0  0  0  0
  5 17  1  0  0  0  0
  6 18  1  0  0  0  0
  6 23  1  0  0  0  0
  6 26  1  0  0  0  0
 14  7  1  1  0  0  0
  7 28  1  0  0  0  0
  7 45  1  0  0  0  0
  8 10  1  0  0  0  0
  8 11  1  0  0  0  0
  8 16  1  0  0  0  0
  8 30  1  0  0  0  0
  9 12  1  0  0  0  0
  9 13  1  0  0  0  0
  9 14  1  0  0  0  0
  9 31  1  6  0  0  0
 10 11  1  0  0  0  0
 10 32  1  0  0  0  0
 10 33  1  0  0  0  0
 11 34  1  0  0  0  0
 11 35  1  0  0  0  0
 12 36  1  0  0  0  0
 12 37  1  0  0  0  0
 13 15  1  0  0  0  0
 13 38  1  0  0  0  0
 13 39  1  0  0  0  0
 14 20  1  0  0  0  0
 14 40  1  0  0  0  0
 15 41  1  0  0  0  0
 15 42  1  0  0  0  0
 16 18  2  0  0  0  0
 16 21  1  0  0  0  0
 17 19  2  0  0  0  0
 17 22  1  0  0  0  0
 18 19  1  0  0  0  0
 19 25  1  0  0  0  0
 20 27  1  0  0  0  0
 20 43  1  0  0  0  0
 20 44  1  0  0  0  0
 21 24  2  0  0  0  0
 21 46  1  0  0  0  0
 22 23  2  0  0  0  0
 23 47  1  0  0  0  0
 24 26  1  0  0  0  0
 24 29  1  0  0  0  0
 25 48  1  0  0  0  0
 25 49  1  0  0  0  0
 25 50  1  0  0  0  0
 27 51  1  0  0  0  0
 27 52  1  0  0  0  0
 27 53  1  0  0  0  0
 28 54  1  0  0  0  0
 28 55  1  0  0  0  0
 28 56  1  0  0  0  0
M  END
> <PUBCHEM_COMPOUND_CID>
512787
> <PUBCHEM_COMPOUND_CANONICALIZED>
1
> <PUBCHEM_CACTVS_COMPLEXITY>
882
> <PUBCHEM_CACTVS_HBOND_ACCEPTOR>
6
> <PUBCHEM_CACTVS_HBOND_DONOR>
2
> <PUBCHEM_CACTVS_ROTATABLE_BOND>
6
> <PUBCHEM_CACTVS_SUBSKEYS>
AAADceB7MQAAAAAAAAAAAAAAGAAAAWAAAAAgQAAAAAAAAACAAAAAHwAQCAAADSjBgAQCCAPAAgCIAiXWWACAAAAgAAAACIEIAEgIBA4IwAAEUAACtgCIkYMQAAAOAAAAAAAAAAAAAAAAAAAAAAAAAAAAAA==
> <PUBCHEM_IUPAC_OPENEYE_NAME>
1-cyclopropyl-7-fluoro-9-methyl-8-[(3R)-3-[(1S)-1-(methylamino)propyl]pyrrolidin-1-yl]-4-oxo-quinolizine-3-carboxylic acid
> <PUBCHEM_IUPAC_CAS_NAME>
1-cyclopropyl-7-fluoro-9-methyl-8-[(3R)-3-[(1S)-1-(methylamino)propyl]-1-pyrrolidinyl]-4-oxo-3-quinolizinecarboxylic acid
> <PUBCHEM_IUPAC_NAME_MARKUP>
1-cyclopropyl-7-fluoro-9-methyl-8-[(3<I>R</I>)-3-[(1<I>S</I>)-1-(methylamino)propyl]pyrrolidin-1-yl]-4-oxoquinolizine-3-carboxylic acid
> <PUBCHEM_IUPAC_NAME>
1-cyclopropyl-7-fluoro-9-methyl-8-[(3R)-3-[(1S)-1-(methylamino)propyl]pyrrolidin-1-yl]-4-oxoquinolizine-3-carboxylic acid
> <PUBCHEM_IUPAC_SYSTEMATIC_NAME>
1-cyclopropyl-7-fluoranyl-9-methyl-8-[(3R)-3-[(1S)-1-(methylamino)propyl]pyrrolidin-1-yl]-4-oxidanylidene-quinolizine-3-carboxylic acid
> <PUBCHEM_IUPAC_TRADITIONAL_NAME>
1-cyclopropyl-7-fluoro-4-keto-9-methyl-8-[(3R)-3-[(1S)-1-(methylamino)propyl]pyrrolidino]quinolizine-3-carboxylic acid
> <PUBCHEM_IUPAC_INCHI>
InChI=1S/C22H28FN3O3/c1-4-18(24-3)14-7-8-25(10-14)20-12(2)19-15(13-5-6-13)9-16(22(28)29)21(27)26(19)11-17(20)23/h9,11,13-14,18,24H,4-8,10H2,1-3H3,(H,28,29)/t14-,18+/m1/s1
> <PUBCHEM_IUPAC_INCHIKEY>
LSYSKHCHKXDYTB-KDOFPFPSSA-N
> <PUBCHEM_XLOGP3_AA>
0.3
> <PUBCHEM_EXACT_MASS>
401.21146993
> <PUBCHEM_MOLECULAR_FORMULA>
C22H28FN3O3
> <PUBCHEM_MOLECULAR_WEIGHT>
401.5
> <PUBCHEM_OPENEYE_CAN_SMILES>
CCC(C1CCN(C1)C2=C(C3=C(C=C(C(=O)N3C=C2F)C(=O)O)C4CC4)C)NC
> <PUBCHEM_OPENEYE_ISO_SMILES>
CC[C@@H]([C@@H]1CCN(C1)C2=C(C3=C(C=C(C(=O)N3C=C2F)C(=O)O)C4CC4)C)NC
> <PUBCHEM_CACTVS_TPSA>
72.9
> <PUBCHEM_MONOISOTOPIC_WEIGHT>
401.21146993
> <PUBCHEM_TOTAL_CHARGE>
0
> <PUBCHEM_HEAVY_ATOM_COUNT>
29
> <PUBCHEM_ATOM_DEF_STEREO_COUNT>
2
> <PUBCHEM_ATOM_UDEF_STEREO_COUNT>
0
> <PUBCHEM_BOND_DEF_STEREO_COUNT>
0
> <PUBCHEM_BOND_UDEF_STEREO_COUNT>
0
> <PUBCHEM_ISOTOPIC_ATOM_COUNT>
0
> <PUBCHEM_COMPONENT_COUNT>
1
> <PUBCHEM_CACTVS_TAUTO_COUNT>
-1
> <PUBCHEM_COORDINATE_TYPE>
1
5
255
> <PUBCHEM_BONDANNOTATIONS>
16  18  8
16  21  8
17  19  8
17  22  8
18  19  8
21  24  8
22  23  8
24  26  8
6  18  8
6  23  8
6  26  8
14  7  5
9  31  6
$$$$
