512738
  -OEChem-10302200282D
 52 53  0     1  0  0  0  0  0999 V2000
   10.6032   -1.2153    0.0000 O   0  0  0  0  0  0  0  0  0  0  0  0
    8.7064   -2.9754    0.0000 O   0  0  0  0  0  0  0  0  0  0  0  0
   11.8765   -2.8709    0.0000 O   0  0  0  0  0  0  0  0  0  0  0  0
   11.5263    0.3725    0.0000 O   0  0  0  0  0  0  0  0  0  0  0  0
    9.7942    3.3725    0.0000 O   0  0  0  0  0  0  0  0  0  0  0  0
    9.7942    0.3725    0.0000 N   0  0  0  0  0  0  0  0  0  0  0  0
   10.6603    1.8725    0.0000 N   0  0  0  0  0  0  0  0  0  0  0  0
    9.7942   -0.6275    0.0000 C   0  0  1  0  0  0  0  0  0  0  0  0
    9.2942   -2.1664    0.0000 C   0  0  1  0  0  0  0  0  0  0  0  0
    8.9852   -1.2153    0.0000 C   0  0  0  0  0  0  0  0  0  0  0  0
   10.2942   -2.1664    0.0000 C   0  0  1  0  0  0  0  0  0  0  0  0
   10.8820   -2.9754    0.0000 C   0  0  0  0  0  0  0  0  0  0  0  0
    8.9282    0.8725    0.0000 C   0  0  0  0  0  0  0  0  0  0  0  0
    8.9282    1.8725    0.0000 C   0  0  0  0  0  0  0  0  0  0  0  0
    8.0622    2.3725    0.0000 C   0  0  0  0  0  0  0  0  0  0  0  0
    7.1962    1.8725    0.0000 C   0  0  0  0  0  0  0  0  0  0  0  0
   10.6603    0.8725    0.0000 C   0  0  0  0  0  0  0  0  0  0  0  0
    6.3301    2.3725    0.0000 C   0  0  0  0  0  0  0  0  0  0  0  0
    5.4641    1.8725    0.0000 C   0  0  0  0  0  0  0  0  0  0  0  0
    4.5981    2.3725    0.0000 C   0  0  0  0  0  0  0  0  0  0  0  0
    9.7942    2.3725    0.0000 C   0  0  0  0  0  0  0  0  0  0  0  0
    3.7320    1.8725    0.0000 C   0  0  0  0  0  0  0  0  0  0  0  0
    2.8660    2.3725    0.0000 C   0  0  0  0  0  0  0  0  0  0  0  0
    2.0000    1.8725    0.0000 C   0  0  0  0  0  0  0  0  0  0  0  0
    9.2418   -0.3461    0.0000 H   0  0  0  0  0  0  0  0  0  0  0  0
    8.6819   -2.0694    0.0000 H   0  0  0  0  0  0  0  0  0  0  0  0
    8.6752   -0.6784    0.0000 H   0  0  0  0  0  0  0  0  0  0  0  0
    8.4188   -1.4675    0.0000 H   0  0  0  0  0  0  0  0  0  0  0  0
   10.9066   -2.0694    0.0000 H   0  0  0  0  0  0  0  0  0  0  0  0
   10.3248   -3.2472    0.0000 H   0  0  0  0  0  0  0  0  0  0  0  0
   11.0529   -3.5714    0.0000 H   0  0  0  0  0  0  0  0  0  0  0  0
    8.3913    0.5625    0.0000 H   0  0  0  0  0  0  0  0  0  0  0  0
    8.4607    2.8474    0.0000 H   0  0  0  0  0  0  0  0  0  0  0  0
    7.6636    2.8474    0.0000 H   0  0  0  0  0  0  0  0  0  0  0  0
    6.7976    1.3975    0.0000 H   0  0  0  0  0  0  0  0  0  0  0  0
    7.5947    1.3975    0.0000 H   0  0  0  0  0  0  0  0  0  0  0  0
    6.7287    2.8474    0.0000 H   0  0  0  0  0  0  0  0  0  0  0  0
    5.9316    2.8474    0.0000 H   0  0  0  0  0  0  0  0  0  0  0  0
    8.0898   -2.9106    0.0000 H   0  0  0  0  0  0  0  0  0  0  0  0
    5.0656    1.3975    0.0000 H   0  0  0  0  0  0  0  0  0  0  0  0
    5.8626    1.3975    0.0000 H   0  0  0  0  0  0  0  0  0  0  0  0
    4.9966    2.8474    0.0000 H   0  0  0  0  0  0  0  0  0  0  0  0
    4.1996    2.8474    0.0000 H   0  0  0  0  0  0  0  0  0  0  0  0
   11.1972    2.1825    0.0000 H   0  0  0  0  0  0  0  0  0  0  0  0
    3.3335    1.3975    0.0000 H   0  0  0  0  0  0  0  0  0  0  0  0
    4.1306    1.3975    0.0000 H   0  0  0  0  0  0  0  0  0  0  0  0
   12.2410   -3.3725    0.0000 H   0  0  0  0  0  0  0  0  0  0  0  0
    3.2646    2.8474    0.0000 H   0  0  0  0  0  0  0  0  0  0  0  0
    2.4675    2.8474    0.0000 H   0  0  0  0  0  0  0  0  0  0  0  0
    1.6900    2.4094    0.0000 H   0  0  0  0  0  0  0  0  0  0  0  0
    1.4631    1.5625    0.0000 H   0  0  0  0  0  0  0  0  0  0  0  0
    2.3100    1.3355    0.0000 H   0  0  0  0  0  0  0  0  0  0  0  0
  1  8  1  0  0  0  0
  1 11  1  0  0  0  0
  9  2  1  1  0  0  0
  2 39  1  0  0  0  0
  3 12  1  0  0  0  0
  3 47  1  0  0  0  0
  4 17  2  0  0  0  0
  5 21  2  0  0  0  0
  8  6  1  6  0  0  0
  6 13  1  0  0  0  0
  6 17  1  0  0  0  0
  7 17  1  0  0  0  0
  7 21  1  0  0  0  0
  7 44  1  0  0  0  0
  8 10  1  0  0  0  0
  8 25  1  0  0  0  0
  9 10  1  0  0  0  0
  9 11  1  0  0  0  0
  9 26  1  0  0  0  0
 10 27  1  0  0  0  0
 10 28  1  0  0  0  0
 11 12  1  6  0  0  0
 11 29  1  0  0  0  0
 12 30  1  0  0  0  0
 12 31  1  0  0  0  0
 13 14  2  0  0  0  0
 13 32  1  0  0  0  0
 14 15  1  0  0  0  0
 14 21  1  0  0  0  0
 15 16  1  0  0  0  0
 15 33  1  0  0  0  0
 15 34  1  0  0  0  0
 16 18  1  0  0  0  0
 16 35  1  0  0  0  0
 16 36  1  0  0  0  0
 18 19  1  0  0  0  0
 18 37  1  0  0  0  0
 18 38  1  0  0  0  0
 19 20  1  0  0  0  0
 19 40  1  0  0  0  0
 19 41  1  0  0  0  0
 20 22  1  0  0  0  0
 20 42  1  0  0  0  0
 20 43  1  0  0  0  0
 22 23  1  0  0  0  0
 22 45  1  0  0  0  0
 22 46  1  0  0  0  0
 23 24  1  0  0  0  0
 23 48  1  0  0  0  0
 23 49  1  0  0  0  0
 24 50  1  0  0  0  0
 24 51  1  0  0  0  0
 24 52  1  0  0  0  0
M  END
> <PUBCHEM_COMPOUND_CID>
512738
> <PUBCHEM_COMPOUND_CANONICALIZED>
1
> <PUBCHEM_CACTVS_COMPLEXITY>
480
> <PUBCHEM_CACTVS_HBOND_ACCEPTOR>
5
> <PUBCHEM_CACTVS_HBOND_DONOR>
3
> <PUBCHEM_CACTVS_ROTATABLE_BOND>
9
> <PUBCHEM_CACTVS_SUBSKEYS>
AAADceB7OAAAAAAAAAAAAAAAAAAAASAAAAAgAAAAAAAAAAAAAAAAHgAQCAAADBThgAYDAAPABgCIAgFWUACAAAAgAAAAAAEIAEiBEBIAgQAOQAAPhyIDAMG4uIKAAAAAAAAAAAAAAAAAAAAAAAAAAAAAAA==
> <PUBCHEM_IUPAC_OPENEYE_NAME>
1-[(2R,4S,5R)-4-hydroxy-5-(hydroxymethyl)tetrahydrofuran-2-yl]-5-octyl-pyrimidine-2,4-dione
> <PUBCHEM_IUPAC_CAS_NAME>
1-[(2R,4S,5R)-4-hydroxy-5-(hydroxymethyl)-2-oxolanyl]-5-octylpyrimidine-2,4-dione
> <PUBCHEM_IUPAC_NAME_MARKUP>
1-[(2<I>R</I>,4<I>S</I>,5<I>R</I>)-4-hydroxy-5-(hydroxymethyl)oxolan-2-yl]-5-octylpyrimidine-2,4-dione
> <PUBCHEM_IUPAC_NAME>
1-[(2R,4S,5R)-4-hydroxy-5-(hydroxymethyl)oxolan-2-yl]-5-octylpyrimidine-2,4-dione
> <PUBCHEM_IUPAC_SYSTEMATIC_NAME>
1-[(2R,4S,5R)-5-(hydroxymethyl)-4-oxidanyl-oxolan-2-yl]-5-octyl-pyrimidine-2,4-dione
> <PUBCHEM_IUPAC_TRADITIONAL_NAME>
1-[(2R,4S,5R)-4-hydroxy-5-methylol-tetrahydrofuran-2-yl]-5-octyl-pyrimidine-2,4-quinone
> <PUBCHEM_IUPAC_INCHI>
InChI=1S/C17H28N2O5/c1-2-3-4-5-6-7-8-12-10-19(17(23)18-16(12)22)15-9-13(21)14(11-20)24-15/h10,13-15,20-21H,2-9,11H2,1H3,(H,18,22,23)/t13-,14+,15+/m0/s1
> <PUBCHEM_IUPAC_INCHIKEY>
COHJIESNWCKYGM-RRFJBIMHSA-N
> <PUBCHEM_XLOGP3>
2.5
> <PUBCHEM_EXACT_MASS>
340.19982200
> <PUBCHEM_MOLECULAR_FORMULA>
C17H28N2O5
> <PUBCHEM_MOLECULAR_WEIGHT>
340.4
> <PUBCHEM_OPENEYE_CAN_SMILES>
CCCCCCCCC1=CN(C(=O)NC1=O)C2CC(C(O2)CO)O
> <PUBCHEM_OPENEYE_ISO_SMILES>
CCCCCCCCC1=CN(C(=O)NC1=O)[C@H]2C[C@@H]([C@H](O2)CO)O
> <PUBCHEM_CACTVS_TPSA>
99.1
> <PUBCHEM_MONOISOTOPIC_WEIGHT>
340.19982200
> <PUBCHEM_TOTAL_CHARGE>
0
> <PUBCHEM_HEAVY_ATOM_COUNT>
24
> <PUBCHEM_ATOM_DEF_STEREO_COUNT>
3
> <PUBCHEM_ATOM_UDEF_STEREO_COUNT>
0
> <PUBCHEM_BOND_DEF_STEREO_COUNT>
0
> <PUBCHEM_BOND_UDEF_STEREO_COUNT>
0
> <PUBCHEM_ISOTOPIC_ATOM_COUNT>
0
> <PUBCHEM_COMPONENT_COUNT>
1
> <PUBCHEM_CACTVS_TAUTO_COUNT>
3
> <PUBCHEM_COORDINATE_TYPE>
1
5
255
> <PUBCHEM_BONDANNOTATIONS>
11  12  6
13  14  8
14  21  8
9  2  5
6  13  8
6  17  8
8  6  6
7  17  8
7  21  8
$$$$
