512843
  -OEChem-10302200282D
 42 42  0     1  0  0  0  0  0999 V2000
    7.2242    2.6048    0.0000 O   0  0  0  0  0  0  0  0  0  0  0  0
    3.7040    2.6048    0.0000 O   0  0  0  0  0  0  0  0  0  0  0  0
    5.4641    2.3261    0.0000 N   0  0  0  0  0  0  0  0  0  0  0  0
    5.9641    3.8649    0.0000 C   0  0  3  0  0  0  0  0  0  0  0  0
    5.4641    1.3261    0.0000 C   0  0  0  0  0  0  0  0  0  0  0  0
    4.5981    0.8261    0.0000 C   0  0  0  0  0  0  0  0  0  0  0  0
    4.5981   -0.1739    0.0000 C   0  0  0  0  0  0  0  0  0  0  0  0
    4.9641    3.8649    0.0000 C   0  0  0  0  0  0  0  0  0  0  0  0
    3.7320   -0.6739    0.0000 C   0  0  0  0  0  0  0  0  0  0  0  0
    3.7320   -1.6739    0.0000 C   0  0  0  0  0  0  0  0  0  0  0  0
    6.2731    2.9139    0.0000 C   0  0  0  0  0  0  0  0  0  0  0  0
    4.6551    2.9139    0.0000 C   0  0  0  0  0  0  0  0  0  0  0  0
    2.8660   -2.1739    0.0000 C   0  0  0  0  0  0  0  0  0  0  0  0
    6.5519    4.6739    0.0000 C   0  0  0  0  0  0  0  0  0  0  0  0
    2.8660   -3.1739    0.0000 C   0  0  0  0  0  0  0  0  0  0  0  0
    2.0000   -3.6739    0.0000 C   0  0  0  0  0  0  0  0  0  0  0  0
    2.0000   -4.6739    0.0000 C   0  0  0  0  0  0  0  0  0  0  0  0
    6.5765    3.7679    0.0000 H   0  0  0  0  0  0  0  0  0  0  0  0
    5.6762    0.7435    0.0000 H   0  0  0  0  0  0  0  0  0  0  0  0
    6.0747    1.4337    0.0000 H   0  0  0  0  0  0  0  0  0  0  0  0
    4.3860    1.4087    0.0000 H   0  0  0  0  0  0  0  0  0  0  0  0
    3.9875    0.7184    0.0000 H   0  0  0  0  0  0  0  0  0  0  0  0
    4.8101   -0.7565    0.0000 H   0  0  0  0  0  0  0  0  0  0  0  0
    5.2087   -0.0663    0.0000 H   0  0  0  0  0  0  0  0  0  0  0  0
    5.0289    4.4815    0.0000 H   0  0  0  0  0  0  0  0  0  0  0  0
    4.3576    3.9938    0.0000 H   0  0  0  0  0  0  0  0  0  0  0  0
    3.5200   -0.0913    0.0000 H   0  0  0  0  0  0  0  0  0  0  0  0
    3.1215   -0.7816    0.0000 H   0  0  0  0  0  0  0  0  0  0  0  0
    3.9441   -2.2565    0.0000 H   0  0  0  0  0  0  0  0  0  0  0  0
    4.3426   -1.5663    0.0000 H   0  0  0  0  0  0  0  0  0  0  0  0
    2.6540   -1.5913    0.0000 H   0  0  0  0  0  0  0  0  0  0  0  0
    2.2554   -2.2816    0.0000 H   0  0  0  0  0  0  0  0  0  0  0  0
    7.0535    4.3095    0.0000 H   0  0  0  0  0  0  0  0  0  0  0  0
    6.9163    5.1755    0.0000 H   0  0  0  0  0  0  0  0  0  0  0  0
    6.0503    5.0384    0.0000 H   0  0  0  0  0  0  0  0  0  0  0  0
    3.0781   -3.7565    0.0000 H   0  0  0  0  0  0  0  0  0  0  0  0
    3.4766   -3.0663    0.0000 H   0  0  0  0  0  0  0  0  0  0  0  0
    1.7880   -3.0913    0.0000 H   0  0  0  0  0  0  0  0  0  0  0  0
    1.3894   -3.7816    0.0000 H   0  0  0  0  0  0  0  0  0  0  0  0
    1.3800   -4.6739    0.0000 H   0  0  0  0  0  0  0  0  0  0  0  0
    2.0000   -5.2939    0.0000 H   0  0  0  0  0  0  0  0  0  0  0  0
    2.6200   -4.6739    0.0000 H   0  0  0  0  0  0  0  0  0  0  0  0
  1 11  2  0  0  0  0
  2 12  2  0  0  0  0
  3  5  1  0  0  0  0
  3 11  1  0  0  0  0
  3 12  1  0  0  0  0
  4  8  1  0  0  0  0
  4 11  1  0  0  0  0
  4 14  1  0  0  0  0
  4 18  1  0  0  0  0
  5  6  1  0  0  0  0
  5 19  1  0  0  0  0
  5 20  1  0  0  0  0
  6  7  1  0  0  0  0
  6 21  1  0  0  0  0
  6 22  1  0  0  0  0
  7  9  1  0  0  0  0
  7 23  1  0  0  0  0
  7 24  1  0  0  0  0
  8 12  1  0  0  0  0
  8 25  1  0  0  0  0
  8 26  1  0  0  0  0
  9 10  1  0  0  0  0
  9 27  1  0  0  0  0
  9 28  1  0  0  0  0
 10 13  1  0  0  0  0
 10 29  1  0  0  0  0
 10 30  1  0  0  0  0
 13 15  1  0  0  0  0
 13 31  1  0  0  0  0
 13 32  1  0  0  0  0
 14 33  1  0  0  0  0
 14 34  1  0  0  0  0
 14 35  1  0  0  0  0
 15 16  1  0  0  0  0
 15 36  1  0  0  0  0
 15 37  1  0  0  0  0
 16 17  1  0  0  0  0
 16 38  1  0  0  0  0
 16 39  1  0  0  0  0
 17 40  1  0  0  0  0
 17 41  1  0  0  0  0
 17 42  1  0  0  0  0
M  END
> <PUBCHEM_COMPOUND_CID>
512843
> <PUBCHEM_COMPOUND_CANONICALIZED>
1
> <PUBCHEM_CACTVS_COMPLEXITY>
263
> <PUBCHEM_CACTVS_HBOND_ACCEPTOR>
2
> <PUBCHEM_CACTVS_HBOND_DONOR>
0
> <PUBCHEM_CACTVS_ROTATABLE_BOND>
8
> <PUBCHEM_CACTVS_SUBSKEYS>
AAADceByMAAAAAAAAAAAAAAAAAAAAWAAAAAAAAAAAAAAAAAAAAAAHgAAAAAADQDBgAQCAAMAAAAIAAEQEAAAAAAAAAAAAAEIAAAAABIAgAAEAAAABiCAAAEVgIAIAAAAAAAAAAAAAAAAAAAAAAAAAAAAAA==
> <PUBCHEM_IUPAC_OPENEYE_NAME>
3-methyl-1-nonyl-pyrrolidine-2,5-dione
> <PUBCHEM_IUPAC_CAS_NAME>
3-methyl-1-nonylpyrrolidine-2,5-dione
> <PUBCHEM_IUPAC_NAME_MARKUP>
3-methyl-1-nonylpyrrolidine-2,5-dione
> <PUBCHEM_IUPAC_NAME>
3-methyl-1-nonylpyrrolidine-2,5-dione
> <PUBCHEM_IUPAC_SYSTEMATIC_NAME>
3-methyl-1-nonyl-pyrrolidine-2,5-dione
> <PUBCHEM_IUPAC_TRADITIONAL_NAME>
3-methyl-1-nonyl-pyrrolidine-2,5-quinone
> <PUBCHEM_IUPAC_INCHI>
InChI=1S/C14H25NO2/c1-3-4-5-6-7-8-9-10-15-13(16)11-12(2)14(15)17/h12H,3-11H2,1-2H3
> <PUBCHEM_IUPAC_INCHIKEY>
UNPZOBDXMMCTQO-UHFFFAOYSA-N
> <PUBCHEM_XLOGP3_AA>
3.7
> <PUBCHEM_EXACT_MASS>
239.188529040
> <PUBCHEM_MOLECULAR_FORMULA>
C14H25NO2
> <PUBCHEM_MOLECULAR_WEIGHT>
239.35
> <PUBCHEM_OPENEYE_CAN_SMILES>
CCCCCCCCCN1C(=O)CC(C1=O)C
> <PUBCHEM_OPENEYE_ISO_SMILES>
CCCCCCCCCN1C(=O)CC(C1=O)C
> <PUBCHEM_CACTVS_TPSA>
37.4
> <PUBCHEM_MONOISOTOPIC_WEIGHT>
239.188529040
> <PUBCHEM_TOTAL_CHARGE>
0
> <PUBCHEM_HEAVY_ATOM_COUNT>
17
> <PUBCHEM_ATOM_DEF_STEREO_COUNT>
0
> <PUBCHEM_ATOM_UDEF_STEREO_COUNT>
1
> <PUBCHEM_BOND_DEF_STEREO_COUNT>
0
> <PUBCHEM_BOND_UDEF_STEREO_COUNT>
0
> <PUBCHEM_ISOTOPIC_ATOM_COUNT>
0
> <PUBCHEM_COMPONENT_COUNT>
1
> <PUBCHEM_CACTVS_TAUTO_COUNT>
-1
> <PUBCHEM_COORDINATE_TYPE>
1
5
255
> <PUBCHEM_BONDANNOTATIONS>
4  14  3
$$$$
