512838
  -OEChem-10302200282D
 65 65  0     1  0  0  0  0  0999 V2000
    2.0519   -0.8403    0.0000 O   0  0  0  0  0  0  0  0  0  0  0  0
    5.5720   -0.8403    0.0000 O   0  0  0  0  0  0  0  0  0  0  0  0
    3.8120   -1.1191    0.0000 N   0  0  0  0  0  0  0  0  0  0  0  0
    2.7242    1.2288    0.0000 N   0  0  0  0  0  0  0  0  0  0  0  0
    3.3120    0.4198    0.0000 C   0  0  3  0  0  0  0  0  0  0  0  0
    4.3120    0.4198    0.0000 C   0  0  0  0  0  0  0  0  0  0  0  0
    3.8120   -2.1190    0.0000 C   0  0  0  0  0  0  0  0  0  0  0  0
    3.0030   -0.5313    0.0000 C   0  0  0  0  0  0  0  0  0  0  0  0
    4.6780   -2.6190    0.0000 C   0  0  0  0  0  0  0  0  0  0  0  0
    4.6210   -0.5313    0.0000 C   0  0  0  0  0  0  0  0  0  0  0  0
    4.6780   -3.6190    0.0000 C   0  0  0  0  0  0  0  0  0  0  0  0
    3.1309    2.1424    0.0000 C   0  0  0  0  0  0  0  0  0  0  0  0
    5.5440   -4.1190    0.0000 C   0  0  0  0  0  0  0  0  0  0  0  0
    2.5431    2.9514    0.0000 C   0  0  0  0  0  0  0  0  0  0  0  0
    2.9499    3.8649    0.0000 C   0  0  0  0  0  0  0  0  0  0  0  0
    5.5440   -5.1190    0.0000 C   0  0  0  0  0  0  0  0  0  0  0  0
    2.3621    4.6739    0.0000 C   0  0  0  0  0  0  0  0  0  0  0  0
    6.4101   -5.6190    0.0000 C   0  0  0  0  0  0  0  0  0  0  0  0
    2.7688    5.5875    0.0000 C   0  0  0  0  0  0  0  0  0  0  0  0
    6.4101   -6.6190    0.0000 C   0  0  0  0  0  0  0  0  0  0  0  0
    2.1810    6.3965    0.0000 C   0  0  0  0  0  0  0  0  0  0  0  0
    7.2761   -7.1190    0.0000 C   0  0  0  0  0  0  0  0  0  0  0  0
    2.5878    7.3100    0.0000 C   0  0  0  0  0  0  0  0  0  0  0  0
    7.2761   -8.1190    0.0000 C   0  0  0  0  0  0  0  0  0  0  0  0
    2.0000    8.1190    0.0000 C   0  0  0  0  0  0  0  0  0  0  0  0
    3.5934    0.9722    0.0000 H   0  0  0  0  0  0  0  0  0  0  0  0
    4.9184    0.5487    0.0000 H   0  0  0  0  0  0  0  0  0  0  0  0
    4.2472    1.0364    0.0000 H   0  0  0  0  0  0  0  0  0  0  0  0
    3.2014   -2.0114    0.0000 H   0  0  0  0  0  0  0  0  0  0  0  0
    3.5999   -2.7017    0.0000 H   0  0  0  0  0  0  0  0  0  0  0  0
    5.2886   -2.7267    0.0000 H   0  0  0  0  0  0  0  0  0  0  0  0
    4.8901   -2.0364    0.0000 H   0  0  0  0  0  0  0  0  0  0  0  0
    4.0674   -3.5114    0.0000 H   0  0  0  0  0  0  0  0  0  0  0  0
    4.4660   -4.2017    0.0000 H   0  0  0  0  0  0  0  0  0  0  0  0
    2.1076    1.1640    0.0000 H   0  0  0  0  0  0  0  0  0  0  0  0
    3.6449    1.7956    0.0000 H   0  0  0  0  0  0  0  0  0  0  0  0
    3.5616    2.5883    0.0000 H   0  0  0  0  0  0  0  0  0  0  0  0
    6.1546   -4.2267    0.0000 H   0  0  0  0  0  0  0  0  0  0  0  0
    5.7561   -3.5364    0.0000 H   0  0  0  0  0  0  0  0  0  0  0  0
    2.0291    3.2981    0.0000 H   0  0  0  0  0  0  0  0  0  0  0  0
    2.1125    2.5054    0.0000 H   0  0  0  0  0  0  0  0  0  0  0  0
    3.4639    3.5182    0.0000 H   0  0  0  0  0  0  0  0  0  0  0  0
    3.3806    4.3109    0.0000 H   0  0  0  0  0  0  0  0  0  0  0  0
    4.9334   -5.0114    0.0000 H   0  0  0  0  0  0  0  0  0  0  0  0
    5.3320   -5.7017    0.0000 H   0  0  0  0  0  0  0  0  0  0  0  0
    1.8481    5.0206    0.0000 H   0  0  0  0  0  0  0  0  0  0  0  0
    1.9314    4.2279    0.0000 H   0  0  0  0  0  0  0  0  0  0  0  0
    7.0206   -5.7267    0.0000 H   0  0  0  0  0  0  0  0  0  0  0  0
    6.6221   -5.0364    0.0000 H   0  0  0  0  0  0  0  0  0  0  0  0
    3.2828    5.2408    0.0000 H   0  0  0  0  0  0  0  0  0  0  0  0
    3.1995    6.0335    0.0000 H   0  0  0  0  0  0  0  0  0  0  0  0
    5.7995   -6.5114    0.0000 H   0  0  0  0  0  0  0  0  0  0  0  0
    6.1980   -7.2017    0.0000 H   0  0  0  0  0  0  0  0  0  0  0  0
    1.6670    6.7432    0.0000 H   0  0  0  0  0  0  0  0  0  0  0  0
    1.7504    5.9505    0.0000 H   0  0  0  0  0  0  0  0  0  0  0  0
    7.8867   -7.2267    0.0000 H   0  0  0  0  0  0  0  0  0  0  0  0
    7.4881   -6.5364    0.0000 H   0  0  0  0  0  0  0  0  0  0  0  0
    3.1018    6.9633    0.0000 H   0  0  0  0  0  0  0  0  0  0  0  0
    3.0185    7.7560    0.0000 H   0  0  0  0  0  0  0  0  0  0  0  0
    6.6561   -8.1190    0.0000 H   0  0  0  0  0  0  0  0  0  0  0  0
    7.2761   -8.7390    0.0000 H   0  0  0  0  0  0  0  0  0  0  0  0
    7.8961   -8.1190    0.0000 H   0  0  0  0  0  0  0  0  0  0  0  0
    2.5016    8.4835    0.0000 H   0  0  0  0  0  0  0  0  0  0  0  0
    1.6356    8.6206    0.0000 H   0  0  0  0  0  0  0  0  0  0  0  0
    1.4984    7.7546    0.0000 H   0  0  0  0  0  0  0  0  0  0  0  0
  1  8  2  0  0  0  0
  2 10  2  0  0  0  0
  3  7  1  0  0  0  0
  3  8  1  0  0  0  0
  3 10  1  0  0  0  0
  4  5  1  0  0  0  0
  4 12  1  0  0  0  0
  4 35  1  0  0  0  0
  5  6  1  0  0  0  0
  5  8  1  0  0  0  0
  5 26  1  0  0  0  0
  6 10  1  0  0  0  0
  6 27  1  0  0  0  0
  6 28  1  0  0  0  0
  7  9  1  0  0  0  0
  7 29  1  0  0  0  0
  7 30  1  0  0  0  0
  9 11  1  0  0  0  0
  9 31  1  0  0  0  0
  9 32  1  0  0  0  0
 11 13  1  0  0  0  0
 11 33  1  0  0  0  0
 11 34  1  0  0  0  0
 12 14  1  0  0  0  0
 12 36  1  0  0  0  0
 12 37  1  0  0  0  0
 13 16  1  0  0  0  0
 13 38  1  0  0  0  0
 13 39  1  0  0  0  0
 14 15  1  0  0  0  0
 14 40  1  0  0  0  0
 14 41  1  0  0  0  0
 15 17  1  0  0  0  0
 15 42  1  0  0  0  0
 15 43  1  0  0  0  0
 16 18  1  0  0  0  0
 16 44  1  0  0  0  0
 16 45  1  0  0  0  0
 17 19  1  0  0  0  0
 17 46  1  0  0  0  0
 17 47  1  0  0  0  0
 18 20  1  0  0  0  0
 18 48  1  0  0  0  0
 18 49  1  0  0  0  0
 19 21  1  0  0  0  0
 19 50  1  0  0  0  0
 19 51  1  0  0  0  0
 20 22  1  0  0  0  0
 20 52  1  0  0  0  0
 20 53  1  0  0  0  0
 21 23  1  0  0  0  0
 21 54  1  0  0  0  0
 21 55  1  0  0  0  0
 22 24  1  0  0  0  0
 22 56  1  0  0  0  0
 22 57  1  0  0  0  0
 23 25  1  0  0  0  0
 23 58  1  0  0  0  0
 23 59  1  0  0  0  0
 24 60  1  0  0  0  0
 24 61  1  0  0  0  0
 24 62  1  0  0  0  0
 25 63  1  0  0  0  0
 25 64  1  0  0  0  0
 25 65  1  0  0  0  0
M  END
> <PUBCHEM_COMPOUND_CID>
512838
> <PUBCHEM_COMPOUND_CANONICALIZED>
1
> <PUBCHEM_CACTVS_COMPLEXITY>
371
> <PUBCHEM_CACTVS_HBOND_ACCEPTOR>
3
> <PUBCHEM_CACTVS_HBOND_DONOR>
1
> <PUBCHEM_CACTVS_ROTATABLE_BOND>
16
> <PUBCHEM_CACTVS_SUBSKEYS>
AAADcfB7MAAAAAAAAAAAAAAAAAAAAWAAAAAAAAAAAAAAAAAAAAAAHgAQAAAACCjBgAQCAAPAAAAIAAEQEAAAAAAAAAAAAIGIAAAAQBoAwCAUAAAAFiCAAAEVgIAAAAAAAAAAAAAAAAAAAAAAAAAAAAAAAA==
> <PUBCHEM_IUPAC_OPENEYE_NAME>
1-nonyl-3-(octylamino)pyrrolidine-2,5-dione
> <PUBCHEM_IUPAC_CAS_NAME>
1-nonyl-3-(octylamino)pyrrolidine-2,5-dione
> <PUBCHEM_IUPAC_NAME_MARKUP>
1-nonyl-3-(octylamino)pyrrolidine-2,5-dione
> <PUBCHEM_IUPAC_NAME>
1-nonyl-3-(octylamino)pyrrolidine-2,5-dione
> <PUBCHEM_IUPAC_SYSTEMATIC_NAME>
1-nonyl-3-(octylamino)pyrrolidine-2,5-dione
> <PUBCHEM_IUPAC_TRADITIONAL_NAME>
1-nonyl-3-(octylamino)pyrrolidine-2,5-quinone
> <PUBCHEM_IUPAC_INCHI>
InChI=1S/C21H40N2O2/c1-3-5-7-9-11-13-15-17-23-20(24)18-19(21(23)25)22-16-14-12-10-8-6-4-2/h19,22H,3-18H2,1-2H3
> <PUBCHEM_IUPAC_INCHIKEY>
KCGXRSVATDGVPO-UHFFFAOYSA-N
> <PUBCHEM_XLOGP3_AA>
6.2
> <PUBCHEM_EXACT_MASS>
352.308978523
> <PUBCHEM_MOLECULAR_FORMULA>
C21H40N2O2
> <PUBCHEM_MOLECULAR_WEIGHT>
352.6
> <PUBCHEM_OPENEYE_CAN_SMILES>
CCCCCCCCCN1C(=O)CC(C1=O)NCCCCCCCC
> <PUBCHEM_OPENEYE_ISO_SMILES>
CCCCCCCCCN1C(=O)CC(C1=O)NCCCCCCCC
> <PUBCHEM_CACTVS_TPSA>
49.4
> <PUBCHEM_MONOISOTOPIC_WEIGHT>
352.308978523
> <PUBCHEM_TOTAL_CHARGE>
0
> <PUBCHEM_HEAVY_ATOM_COUNT>
25
> <PUBCHEM_ATOM_DEF_STEREO_COUNT>
0
> <PUBCHEM_ATOM_UDEF_STEREO_COUNT>
1
> <PUBCHEM_BOND_DEF_STEREO_COUNT>
0
> <PUBCHEM_BOND_UDEF_STEREO_COUNT>
0
> <PUBCHEM_ISOTOPIC_ATOM_COUNT>
0
> <PUBCHEM_COMPONENT_COUNT>
1
> <PUBCHEM_CACTVS_TAUTO_COUNT>
-1
> <PUBCHEM_COORDINATE_TYPE>
1
5
255
> <PUBCHEM_BONDANNOTATIONS>
5  4  3
$$$$
