512890
  -OEChem-10302200282D
 90 95  0     1  0  0  0  0  0999 V2000
   10.2145   -4.8535    0.0000 F   0  0  0  0  0  0  0  0  0  0  0  0
    2.3644   -3.1616    0.0000 O   0  0  0  0  0  0  0  0  0  0  0  0
    3.7657   -4.1797    0.0000 O   0  0  0  0  0  0  0  0  0  0  0  0
    5.3480   -3.4752    0.0000 N   0  0  3  0  0  0  0  0  0  0  0  0
    7.7967   -1.6388    0.0000 N   0  0  0  0  0  0  0  0  0  0  0  0
    6.9877    1.9490    0.0000 N   0  0  0  0  0  0  0  0  0  0  0  0
    7.2967    2.9001    0.0000 N   0  0  0  0  0  0  0  0  0  0  0  0
    6.9307   -3.1388    0.0000 C   0  0  2  0  0  0  0  0  0  0  0  0
    6.8261   -4.1333    0.0000 C   0  0  2  0  0  0  0  0  0  0  0  0
    6.0171   -2.7320    0.0000 C   0  0  0  0  0  0  0  0  0  0  0  0
    3.9467   -2.4571    0.0000 C   0  0  0  0  0  0  0  0  0  0  0  0
    5.8480   -4.3412    0.0000 C   0  0  0  0  0  0  0  0  0  0  0  0
    4.3535   -3.3707    0.0000 C   0  0  0  0  0  0  0  0  0  0  0  0
    7.7967   -2.6388    0.0000 C   0  0  0  0  0  0  0  0  0  0  0  0
    3.1377   -1.8693    0.0000 C   0  0  0  0  0  0  0  0  0  0  0  0
    4.8603   -2.0504    0.0000 C   0  0  0  0  0  0  0  0  0  0  0  0
    7.5693   -4.8024    0.0000 C   0  0  0  0  0  0  0  0  0  0  0  0
    3.2422   -0.8748    0.0000 C   0  0  0  0  0  0  0  0  0  0  0  0
    4.9648   -1.0559    0.0000 C   0  0  0  0  0  0  0  0  0  0  0  0
    4.1558   -0.4681    0.0000 C   0  0  0  0  0  0  0  0  0  0  0  0
    6.9307   -1.1388    0.0000 C   0  0  0  0  0  0  0  0  0  0  0  0
    8.6627   -1.1388    0.0000 C   0  0  0  0  0  0  0  0  0  0  0  0
    7.7967    0.3612    0.0000 C   0  0  0  0  0  0  0  0  0  0  0  0
    6.9307   -0.1388    0.0000 C   0  0  0  0  0  0  0  0  0  0  0  0
    8.6627   -0.1388    0.0000 C   0  0  0  0  0  0  0  0  0  0  0  0
    3.3590   -3.2661    0.0000 C   0  0  0  0  0  0  0  0  0  0  0  0
    8.5203   -4.4934    0.0000 C   0  0  0  0  0  0  0  0  0  0  0  0
    7.3614   -5.7806    0.0000 C   0  0  0  0  0  0  0  0  0  0  0  0
    7.7967    1.3612    0.0000 C   0  0  0  0  0  0  0  0  0  0  0  0
    9.2635   -5.1626    0.0000 C   0  0  0  0  0  0  0  0  0  0  0  0
    8.1045   -6.4497    0.0000 C   0  0  0  0  0  0  0  0  0  0  0  0
    8.6057    1.9490    0.0000 C   0  0  0  0  0  0  0  0  0  0  0  0
    9.0556   -6.1407    0.0000 C   0  0  0  0  0  0  0  0  0  0  0  0
    8.2967    2.9001    0.0000 C   0  0  0  0  0  0  0  0  0  0  0  0
    6.0366    1.6400    0.0000 C   0  0  0  0  0  0  0  0  0  0  0  0
    8.8845    3.7091    0.0000 C   0  0  0  0  0  0  0  0  0  0  0  0
    5.2935    2.3091    0.0000 C   0  0  0  0  0  0  0  0  0  0  0  0
    8.4777    4.6226    0.0000 C   0  0  0  0  0  0  0  0  0  0  0  0
    7.4832    4.7272    0.0000 C   0  0  0  0  0  0  0  0  0  0  0  0
    9.0655    5.4316    0.0000 C   0  0  0  0  0  0  0  0  0  0  0  0
    7.0765    5.6407    0.0000 C   0  0  0  0  0  0  0  0  0  0  0  0
    8.6588    6.3452    0.0000 C   0  0  0  0  0  0  0  0  0  0  0  0
    7.6643    6.4497    0.0000 C   0  0  0  0  0  0  0  0  0  0  0  0
    7.4506   -3.4765    0.0000 H   0  0  0  0  0  0  0  0  0  0  0  0
    6.6657   -4.7322    0.0000 H   0  0  0  0  0  0  0  0  0  0  0  0
    6.3271   -2.1951    0.0000 H   0  0  0  0  0  0  0  0  0  0  0  0
    5.5155   -2.3676    0.0000 H   0  0  0  0  0  0  0  0  0  0  0  0
    5.2816   -4.5934    0.0000 H   0  0  0  0  0  0  0  0  0  0  0  0
    6.0396   -4.9309    0.0000 H   0  0  0  0  0  0  0  0  0  0  0  0
    3.7519   -3.5206    0.0000 H   0  0  0  0  0  0  0  0  0  0  0  0
    4.3967   -3.9892    0.0000 H   0  0  0  0  0  0  0  0  0  0  0  0
    8.0087   -3.2214    0.0000 H   0  0  0  0  0  0  0  0  0  0  0  0
    8.4073   -2.5311    0.0000 H   0  0  0  0  0  0  0  0  0  0  0  0
    2.5417   -1.6984    0.0000 H   0  0  0  0  0  0  0  0  0  0  0  0
    2.8659   -2.4266    0.0000 H   0  0  0  0  0  0  0  0  0  0  0  0
    5.0103   -2.6520    0.0000 H   0  0  0  0  0  0  0  0  0  0  0  0
    5.4788   -2.0071    0.0000 H   0  0  0  0  0  0  0  0  0  0  0  0
    3.0922   -0.2732    0.0000 H   0  0  0  0  0  0  0  0  0  0  0  0
    2.6238   -0.9181    0.0000 H   0  0  0  0  0  0  0  0  0  0  0  0
    5.5608   -1.2268    0.0000 H   0  0  0  0  0  0  0  0  0  0  0  0
    5.2366   -0.4986    0.0000 H   0  0  0  0  0  0  0  0  0  0  0  0
    4.6018   -0.0374    0.0000 H   0  0  0  0  0  0  0  0  0  0  0  0
    3.8091    0.0459    0.0000 H   0  0  0  0  0  0  0  0  0  0  0  0
    6.3201   -1.0311    0.0000 H   0  0  0  0  0  0  0  0  0  0  0  0
    6.7186   -1.7214    0.0000 H   0  0  0  0  0  0  0  0  0  0  0  0
    8.8748   -1.7214    0.0000 H   0  0  0  0  0  0  0  0  0  0  0  0
    9.2733   -1.0311    0.0000 H   0  0  0  0  0  0  0  0  0  0  0  0
    7.2598    0.6712    0.0000 H   0  0  0  0  0  0  0  0  0  0  0  0
    6.7186    0.4438    0.0000 H   0  0  0  0  0  0  0  0  0  0  0  0
    6.3201   -0.2464    0.0000 H   0  0  0  0  0  0  0  0  0  0  0  0
    9.2733   -0.2464    0.0000 H   0  0  0  0  0  0  0  0  0  0  0  0
    8.8748    0.4438    0.0000 H   0  0  0  0  0  0  0  0  0  0  0  0
    8.6492   -3.8870    0.0000 H   0  0  0  0  0  0  0  0  0  0  0  0
    6.7717   -5.9722    0.0000 H   0  0  0  0  0  0  0  0  0  0  0  0
    2.0000   -3.6632    0.0000 H   0  0  0  0  0  0  0  0  0  0  0  0
    7.9756   -7.0562    0.0000 H   0  0  0  0  0  0  0  0  0  0  0  0
    9.1954    1.7574    0.0000 H   0  0  0  0  0  0  0  0  0  0  0  0
    9.5163   -6.5556    0.0000 H   0  0  0  0  0  0  0  0  0  0  0  0
    5.5480    1.2583    0.0000 H   0  0  0  0  0  0  0  0  0  0  0  0
    6.3277    1.0926    0.0000 H   0  0  0  0  0  0  0  0  0  0  0  0
    9.3152    3.2631    0.0000 H   0  0  0  0  0  0  0  0  0  0  0  0
    9.3985    4.0558    0.0000 H   0  0  0  0  0  0  0  0  0  0  0  0
    5.7083    2.7699    0.0000 H   0  0  0  0  0  0  0  0  0  0  0  0
    4.8327    2.7240    0.0000 H   0  0  0  0  0  0  0  0  0  0  0  0
    4.8786    1.8484    0.0000 H   0  0  0  0  0  0  0  0  0  0  0  0
    7.1188    4.2256    0.0000 H   0  0  0  0  0  0  0  0  0  0  0  0
    9.6821    5.3668    0.0000 H   0  0  0  0  0  0  0  0  0  0  0  0
    6.4599    5.7055    0.0000 H   0  0  0  0  0  0  0  0  0  0  0  0
    9.0232    6.8468    0.0000 H   0  0  0  0  0  0  0  0  0  0  0  0
    7.4121    7.0161    0.0000 H   0  0  0  0  0  0  0  0  0  0  0  0
  1 30  1  0  0  0  0
  2 26  1  0  0  0  0
  2 75  1  0  0  0  0
  3 26  2  0  0  0  0
  4 10  1  0  0  0  0
  4 12  1  0  0  0  0
  4 13  1  0  0  0  0
  5 14  1  0  0  0  0
  5 21  1  0  0  0  0
  5 22  1  0  0  0  0
  6  7  1  0  0  0  0
  6 29  1  0  0  0  0
  6 35  1  0  0  0  0
  7 34  2  0  0  0  0
  8  9  1  0  0  0  0
  8 10  1  0  0  0  0
  8 14  1  6  0  0  0
  8 44  1  0  0  0  0
  9 12  1  0  0  0  0
  9 17  1  1  0  0  0
  9 45  1  0  0  0  0
 10 46  1  0  0  0  0
 10 47  1  0  0  0  0
 11 13  1  0  0  0  0
 11 15  1  0  0  0  0
 11 16  1  0  0  0  0
 11 26  1  0  0  0  0
 12 48  1  0  0  0  0
 12 49  1  0  0  0  0
 13 50  1  0  0  0  0
 13 51  1  0  0  0  0
 14 52  1  0  0  0  0
 14 53  1  0  0  0  0
 15 18  1  0  0  0  0
 15 54  1  0  0  0  0
 15 55  1  0  0  0  0
 16 19  1  0  0  0  0
 16 56  1  0  0  0  0
 16 57  1  0  0  0  0
 17 27  2  0  0  0  0
 17 28  1  0  0  0  0
 18 20  1  0  0  0  0
 18 58  1  0  0  0  0
 18 59  1  0  0  0  0
 19 20  1  0  0  0  0
 19 60  1  0  0  0  0
 19 61  1  0  0  0  0
 20 62  1  0  0  0  0
 20 63  1  0  0  0  0
 21 24  1  0  0  0  0
 21 64  1  0  0  0  0
 21 65  1  0  0  0  0
 22 25  1  0  0  0  0
 22 66  1  0  0  0  0
 22 67  1  0  0  0  0
 23 24  1  0  0  0  0
 23 25  1  0  0  0  0
 23 29  1  0  0  0  0
 23 68  1  0  0  0  0
 24 69  1  0  0  0  0
 24 70  1  0  0  0  0
 25 71  1  0  0  0  0
 25 72  1  0  0  0  0
 27 30  1  0  0  0  0
 27 73  1  0  0  0  0
 28 31  2  0  0  0  0
 28 74  1  0  0  0  0
 29 32  2  0  0  0  0
 30 33  2  0  0  0  0
 31 33  1  0  0  0  0
 31 76  1  0  0  0  0
 32 34  1  0  0  0  0
 32 77  1  0  0  0  0
 33 78  1  0  0  0  0
 34 36  1  0  0  0  0
 35 37  1  0  0  0  0
 35 79  1  0  0  0  0
 35 80  1  0  0  0  0
 36 38  1  0  0  0  0
 36 81  1  0  0  0  0
 36 82  1  0  0  0  0
 37 83  1  0  0  0  0
 37 84  1  0  0  0  0
 37 85  1  0  0  0  0
 38 39  2  0  0  0  0
 38 40  1  0  0  0  0
 39 41  1  0  0  0  0
 39 86  1  0  0  0  0
 40 42  2  0  0  0  0
 40 87  1  0  0  0  0
 41 43  2  0  0  0  0
 41 88  1  0  0  0  0
 42 43  1  0  0  0  0
 42 89  1  0  0  0  0
 43 90  1  0  0  0  0
M  END
> <PUBCHEM_COMPOUND_CID>
512890
> <PUBCHEM_COMPOUND_CANONICALIZED>
1
> <PUBCHEM_CACTVS_COMPLEXITY>
885
> <PUBCHEM_CACTVS_HBOND_ACCEPTOR>
6
> <PUBCHEM_CACTVS_HBOND_DONOR>
1
> <PUBCHEM_CACTVS_ROTATABLE_BOND>
10
> <PUBCHEM_CACTVS_SUBSKEYS>
AAADcfB/sQAAAAAAAAAAAAAAAAAAAWLAAAA8YMEAAAAAAAAB0AAAHwAICAAADwjBngwyiJMIAgCqAyTyTACSBAAhggAY2CE4ZJgIIDrA0dGE5AhmiADIyAeYyOCPgAAAAAAAAAAAAAAAAAAAAAAAAAAAAA==
> <PUBCHEM_IUPAC_OPENEYE_NAME>
1-[[(3S,4S)-3-[[4-(5-benzyl-2-ethyl-pyrazol-3-yl)-1-piperidyl]methyl]-4-(3-fluorophenyl)pyrrolidin-1-yl]methyl]cyclohexanecarboxylic acid
> <PUBCHEM_IUPAC_CAS_NAME>
1-[[(3S,4S)-3-[[4-[2-ethyl-5-(phenylmethyl)-3-pyrazolyl]-1-piperidinyl]methyl]-4-(3-fluorophenyl)-1-pyrrolidinyl]methyl]-1-cyclohexanecarboxylic acid
> <PUBCHEM_IUPAC_NAME_MARKUP>
1-[[(3<I>S</I>,4<I>S</I>)-3-[[4-(5-benzyl-2-ethylpyrazol-3-yl)piperidin-1-yl]methyl]-4-(3-fluorophenyl)pyrrolidin-1-yl]methyl]cyclohexane-1-carboxylic acid
> <PUBCHEM_IUPAC_NAME>
1-[[(3S,4S)-3-[[4-(5-benzyl-2-ethylpyrazol-3-yl)piperidin-1-yl]methyl]-4-(3-fluorophenyl)pyrrolidin-1-yl]methyl]cyclohexane-1-carboxylic acid
> <PUBCHEM_IUPAC_SYSTEMATIC_NAME>
1-[[(3S,4S)-3-[[4-[2-ethyl-5-(phenylmethyl)pyrazol-3-yl]piperidin-1-yl]methyl]-4-(3-fluorophenyl)pyrrolidin-1-yl]methyl]cyclohexane-1-carboxylic acid
> <PUBCHEM_IUPAC_TRADITIONAL_NAME>
1-[[(3S,4S)-3-[[4-(5-benzyl-2-ethyl-pyrazol-3-yl)piperidino]methyl]-4-(3-fluorophenyl)pyrrolidino]methyl]cyclohexanecarboxylic acid
> <PUBCHEM_IUPAC_INCHI>
InChI=1S/C36H47FN4O2/c1-2-41-34(22-32(38-41)20-27-10-5-3-6-11-27)28-14-18-39(19-15-28)23-30-24-40(25-33(30)29-12-9-13-31(37)21-29)26-36(35(42)43)16-7-4-8-17-36/h3,5-6,9-13,21-22,28,30,33H,2,4,7-8,14-20,23-26H2,1H3,(H,42,43)/t30-,33+/m0/s1
> <PUBCHEM_IUPAC_INCHIKEY>
SKTAQFGEDJSSSB-BZKUTMRRSA-N
> <PUBCHEM_XLOGP3_AA>
4.2
> <PUBCHEM_EXACT_MASS>
586.36830492
> <PUBCHEM_MOLECULAR_FORMULA>
C36H47FN4O2
> <PUBCHEM_MOLECULAR_WEIGHT>
586.8
> <PUBCHEM_OPENEYE_CAN_SMILES>
CCN1C(=CC(=N1)CC2=CC=CC=C2)C3CCN(CC3)CC4CN(CC4C5=CC(=CC=C5)F)CC6(CCCCC6)C(=O)O
> <PUBCHEM_OPENEYE_ISO_SMILES>
CCN1C(=CC(=N1)CC2=CC=CC=C2)C3CCN(CC3)C[C@H]4CN(C[C@@H]4C5=CC(=CC=C5)F)CC6(CCCCC6)C(=O)O
> <PUBCHEM_CACTVS_TPSA>
61.6
> <PUBCHEM_MONOISOTOPIC_WEIGHT>
586.36830492
> <PUBCHEM_TOTAL_CHARGE>
0
> <PUBCHEM_HEAVY_ATOM_COUNT>
43
> <PUBCHEM_ATOM_DEF_STEREO_COUNT>
2
> <PUBCHEM_ATOM_UDEF_STEREO_COUNT>
0
> <PUBCHEM_BOND_DEF_STEREO_COUNT>
0
> <PUBCHEM_BOND_UDEF_STEREO_COUNT>
0
> <PUBCHEM_ISOTOPIC_ATOM_COUNT>
0
> <PUBCHEM_COMPONENT_COUNT>
1
> <PUBCHEM_CACTVS_TAUTO_COUNT>
-1
> <PUBCHEM_COORDINATE_TYPE>
1
5
255
> <PUBCHEM_BONDANNOTATIONS>
17  27  8
17  28  8
27  30  8
28  31  8
29  32  8
30  33  8
31  33  8
32  34  8
38  39  8
38  40  8
39  41  8
40  42  8
41  43  8
42  43  8
6  29  8
6  7  8
7  34  8
8  14  6
9  17  5
$$$$
