512864
  -OEChem-10302200282D
 27 28  0     1  0  0  0  0  0999 V2000
    2.8257   -2.2207    0.0000 Br  0  0  0  0  0  0  0  0  0  0  0  0
    2.0000    0.0479    0.0000 O   0  0  0  0  0  0  0  0  0  0  0  0
    4.1432    1.2262    0.0000 C   0  0  0  0  0  0  0  0  0  0  0  0
    4.8798    0.2436    0.0000 C   0  0  1  0  0  0  0  0  0  0  0  0
    4.6210   -0.7224    0.0000 C   0  0  2  0  0  0  0  0  0  0  0  0
    6.2788   -0.2653    0.0000 C   0  0  0  0  0  0  0  0  0  0  0  0
    6.0200   -1.2312    0.0000 C   0  0  0  0  0  0  0  0  0  0  0  0
    3.2483   -1.3144    0.0000 C   0  0  1  0  0  0  0  0  0  0  0  0
    2.9063   -0.3747    0.0000 C   0  0  0  0  0  0  0  0  0  0  0  0
    4.2478    2.2207    0.0000 C   0  0  0  0  0  0  0  0  0  0  0  0
    3.2297    1.6329    0.0000 C   0  0  0  0  0  0  0  0  0  0  0  0
    5.1387    1.2095    0.0000 C   0  0  0  0  0  0  0  0  0  0  0  0
    4.4010   -1.5434    0.0000 H   0  0  0  0  0  0  0  0  0  0  0  0
    6.8728   -0.4430    0.0000 H   0  0  0  0  0  0  0  0  0  0  0  0
    6.4737    0.3233    0.0000 H   0  0  0  0  0  0  0  0  0  0  0  0
    5.8250   -1.8198    0.0000 H   0  0  0  0  0  0  0  0  0  0  0  0
    6.6139   -1.4090    0.0000 H   0  0  0  0  0  0  0  0  0  0  0  0
    3.6803   -1.7591    0.0000 H   0  0  0  0  0  0  0  0  0  0  0  0
    4.8644    2.1559    0.0000 H   0  0  0  0  0  0  0  0  0  0  0  0
    4.3126    2.8373    0.0000 H   0  0  0  0  0  0  0  0  0  0  0  0
    3.6312    2.2855    0.0000 H   0  0  0  0  0  0  0  0  0  0  0  0
    3.4819    2.1993    0.0000 H   0  0  0  0  0  0  0  0  0  0  0  0
    2.6633    1.8851    0.0000 H   0  0  0  0  0  0  0  0  0  0  0  0
    2.9775    1.0665    0.0000 H   0  0  0  0  0  0  0  0  0  0  0  0
    5.7376    1.0490    0.0000 H   0  0  0  0  0  0  0  0  0  0  0  0
    5.2991    1.8084    0.0000 H   0  0  0  0  0  0  0  0  0  0  0  0
    4.5398    1.3700    0.0000 H   0  0  0  0  0  0  0  0  0  0  0  0
  8  1  1  6  0  0  0
  2  9  2  0  0  0  0
  3  4  1  0  0  0  0
  3  5  1  0  0  0  0
  3 10  1  0  0  0  0
  3 11  1  0  0  0  0
  4  6  1  0  0  0  0
  4  9  1  0  0  0  0
  4 12  1  6  0  0  0
  5  7  1  0  0  0  0
  5  8  1  0  0  0  0
  5 13  1  1  0  0  0
  6  7  1  0  0  0  0
  6 14  1  0  0  0  0
  6 15  1  0  0  0  0
  7 16  1  0  0  0  0
  7 17  1  0  0  0  0
  8  9  1  0  0  0  0
  8 18  1  0  0  0  0
 10 19  1  0  0  0  0
 10 20  1  0  0  0  0
 10 21  1  0  0  0  0
 11 22  1  0  0  0  0
 11 23  1  0  0  0  0
 11 24  1  0  0  0  0
 12 25  1  0  0  0  0
 12 26  1  0  0  0  0
 12 27  1  0  0  0  0
M  END
> <PUBCHEM_COMPOUND_CID>
512864
> <PUBCHEM_COMPOUND_CANONICALIZED>
1
> <PUBCHEM_CACTVS_COMPLEXITY>
246
> <PUBCHEM_CACTVS_HBOND_ACCEPTOR>
1
> <PUBCHEM_CACTVS_HBOND_DONOR>
0
> <PUBCHEM_CACTVS_ROTATABLE_BOND>
0
> <PUBCHEM_CACTVS_SUBSKEYS>
AAADccBwIAAAEAAAAAAAAAAAAAAAAYMAAAAwAAAAAAAAAAAAAAAAGgBAAAABzwSAgAACAAAAAAAIAIAQAAAAAAAAAAAAAAEAACAgABIAAAAAAAAAAAAAAAEIiMCPgAAAAAAAAACAAAAgAAEAAQgACEAAAA==
> <PUBCHEM_IUPAC_OPENEYE_NAME>
(1R,3S,4S)-3-bromo-1,7,7-trimethyl-norbornan-2-one
> <PUBCHEM_IUPAC_CAS_NAME>
(1R,3S,4S)-3-bromo-1,7,7-trimethyl-2-bicyclo[2.2.1]heptanone
> <PUBCHEM_IUPAC_NAME_MARKUP>
(1<I>R</I>,3<I>S</I>,4<I>S</I>)-3-bromo-1,7,7-trimethylbicyclo[2.2.1]heptan-2-one
> <PUBCHEM_IUPAC_NAME>
(1R,3S,4S)-3-bromo-1,7,7-trimethylbicyclo[2.2.1]heptan-2-one
> <PUBCHEM_IUPAC_SYSTEMATIC_NAME>
(1R,3S,4S)-3-bromanyl-1,7,7-trimethyl-bicyclo[2.2.1]heptan-2-one
> <PUBCHEM_IUPAC_TRADITIONAL_NAME>
(1R,3S,4S)-3-bromo-1,7,7-trimethyl-norbornan-2-one
> <PUBCHEM_IUPAC_INCHI>
InChI=1S/C10H15BrO/c1-9(2)6-4-5-10(9,3)8(12)7(6)11/h6-7H,4-5H2,1-3H3/t6-,7+,10+/m1/s1
> <PUBCHEM_IUPAC_INCHIKEY>
NJQADTYRAYFBJN-FWWHASMVSA-N
> <PUBCHEM_XLOGP3_AA>
2.9
> <PUBCHEM_EXACT_MASS>
230.03063
> <PUBCHEM_MOLECULAR_FORMULA>
C10H15BrO
> <PUBCHEM_MOLECULAR_WEIGHT>
231.13
> <PUBCHEM_OPENEYE_CAN_SMILES>
CC1(C2CCC1(C(=O)C2Br)C)C
> <PUBCHEM_OPENEYE_ISO_SMILES>
C[C@@]12CC[C@@H](C1(C)C)[C@@H](C2=O)Br
> <PUBCHEM_CACTVS_TPSA>
17.1
> <PUBCHEM_MONOISOTOPIC_WEIGHT>
230.03063
> <PUBCHEM_TOTAL_CHARGE>
0
> <PUBCHEM_HEAVY_ATOM_COUNT>
12
> <PUBCHEM_ATOM_DEF_STEREO_COUNT>
3
> <PUBCHEM_ATOM_UDEF_STEREO_COUNT>
0
> <PUBCHEM_BOND_DEF_STEREO_COUNT>
0
> <PUBCHEM_BOND_UDEF_STEREO_COUNT>
0
> <PUBCHEM_ISOTOPIC_ATOM_COUNT>
0
> <PUBCHEM_COMPONENT_COUNT>
1
> <PUBCHEM_CACTVS_TAUTO_COUNT>
2
> <PUBCHEM_COORDINATE_TYPE>
1
5
255
> <PUBCHEM_BONDANNOTATIONS>
8  1  6
4  12  6
5  13  5
$$$$
