512883
  -OEChem-10302200282D
 74 77  0     1  0  0  0  0  0999 V2000
   10.7082   -3.4710    0.0000 O   0  0  0  0  0  0  0  0  0  0  0  0
   12.4402   -1.4710    0.0000 O   0  0  0  0  0  0  0  0  0  0  0  0
    8.9761   -3.4710    0.0000 O   0  0  0  0  0  0  0  0  0  0  0  0
   11.5742   -3.9710    0.0000 O   0  0  0  0  0  0  0  0  0  0  0  0
    7.2441   -1.4710    0.0000 O   0  0  0  0  0  0  0  0  0  0  0  0
   14.1723   -1.4710    0.0000 O   0  0  0  0  0  0  0  0  0  0  0  0
    8.1101    0.0290    0.0000 O   0  0  0  0  0  0  0  0  0  0  0  0
    7.2441    1.5290    0.0000 O   0  0  0  0  0  0  0  0  0  0  0  0
    5.4718    4.5776    0.0000 O   0  0  0  0  0  0  0  0  0  0  0  0
    2.0000    2.5910    0.0000 O   0  0  0  0  0  0  0  0  0  0  0  0
   11.5742   -2.9710    0.0000 C   0  0  3  0  0  0  0  0  0  0  0  0
   12.4402   -3.4710    0.0000 C   0  0  3  0  0  0  0  0  0  0  0  0
   11.5742   -1.9710    0.0000 C   0  0  3  0  0  0  0  0  0  0  0  0
   13.3063   -2.9710    0.0000 C   0  0  0  0  0  0  0  0  0  0  0  0
    9.8422   -2.9710    0.0000 C   0  0  3  0  0  0  0  0  0  0  0  0
   13.3063   -1.9710    0.0000 C   0  0  3  0  0  0  0  0  0  0  0  0
    9.8422   -1.9710    0.0000 C   0  0  0  0  0  0  0  0  0  0  0  0
    8.1101   -1.9710    0.0000 C   0  0  3  0  0  0  0  0  0  0  0  0
    8.9761   -1.4710    0.0000 C   0  0  0  0  0  0  0  0  0  0  0  0
    8.1101   -2.9710    0.0000 C   0  0  3  0  0  0  0  0  0  0  0  0
   13.3063   -3.9710    0.0000 C   0  0  0  0  0  0  0  0  0  0  0  0
   10.7082   -1.4710    0.0000 C   0  0  0  0  0  0  0  0  0  0  0  0
    7.2441   -3.4710    0.0000 C   0  0  0  0  0  0  0  0  0  0  0  0
    7.2441   -0.4710    0.0000 C   0  0  0  0  0  0  0  0  0  0  0  0
    6.3781    0.0290    0.0000 C   0  0  3  0  0  0  0  0  0  0  0  0
    6.3781    1.0290    0.0000 C   0  0  3  0  0  0  0  0  0  0  0  0
    5.5120   -0.4710    0.0000 C   0  0  0  0  0  0  0  0  0  0  0  0
    5.5120    1.5290    0.0000 C   0  0  0  0  0  0  0  0  0  0  0  0
    5.5080    2.5706    0.0000 C   0  0  0  0  0  0  0  0  0  0  0  0
    4.6080    1.0117    0.0000 C   0  0  0  0  0  0  0  0  0  0  0  0
    4.6000    3.0810    0.0000 C   0  0  0  0  0  0  0  0  0  0  0  0
    3.7320    2.5843    0.0000 C   0  0  0  0  0  0  0  0  0  0  0  0
    3.7120    1.5429    0.0000 C   0  0  0  0  0  0  0  0  0  0  0  0
    4.6038    4.0810    0.0000 C   0  0  0  0  0  0  0  0  0  0  0  0
    2.8680    3.0877    0.0000 C   0  0  0  0  0  0  0  0  0  0  0  0
    2.8718    4.0876    0.0000 C   0  0  0  0  0  0  0  0  0  0  0  0
    3.7398    4.5843    0.0000 C   0  0  0  0  0  0  0  0  0  0  0  0
    2.0077    4.5910    0.0000 C   0  0  0  0  0  0  0  0  0  0  0  0
   10.8381   -2.5460    0.0000 H   0  0  0  0  0  0  0  0  0  0  0  0
   11.5742   -1.1210    0.0000 H   0  0  0  0  0  0  0  0  0  0  0  0
   13.5183   -3.5536    0.0000 H   0  0  0  0  0  0  0  0  0  0  0  0
   13.9168   -2.8633    0.0000 H   0  0  0  0  0  0  0  0  0  0  0  0
    9.8422   -3.8210    0.0000 H   0  0  0  0  0  0  0  0  0  0  0  0
   13.3063   -1.1210    0.0000 H   0  0  0  0  0  0  0  0  0  0  0  0
   10.4527   -2.0786    0.0000 H   0  0  0  0  0  0  0  0  0  0  0  0
   10.0542   -1.3884    0.0000 H   0  0  0  0  0  0  0  0  0  0  0  0
    7.3740   -2.3960    0.0000 H   0  0  0  0  0  0  0  0  0  0  0  0
    9.3747   -0.9960    0.0000 H   0  0  0  0  0  0  0  0  0  0  0  0
    8.5776   -0.9960    0.0000 H   0  0  0  0  0  0  0  0  0  0  0  0
    8.1101   -3.8210    0.0000 H   0  0  0  0  0  0  0  0  0  0  0  0
   12.9963   -4.5079    0.0000 H   0  0  0  0  0  0  0  0  0  0  0  0
   13.8432   -4.2810    0.0000 H   0  0  0  0  0  0  0  0  0  0  0  0
   13.6163   -3.4340    0.0000 H   0  0  0  0  0  0  0  0  0  0  0  0
   11.0182   -0.9341    0.0000 H   0  0  0  0  0  0  0  0  0  0  0  0
   10.1713   -1.1610    0.0000 H   0  0  0  0  0  0  0  0  0  0  0  0
   10.3982   -2.0079    0.0000 H   0  0  0  0  0  0  0  0  0  0  0  0
   11.5742   -4.5910    0.0000 H   0  0  0  0  0  0  0  0  0  0  0  0
    6.9341   -2.9340    0.0000 H   0  0  0  0  0  0  0  0  0  0  0  0
    6.7072   -3.7810    0.0000 H   0  0  0  0  0  0  0  0  0  0  0  0
    7.5541   -4.0079    0.0000 H   0  0  0  0  0  0  0  0  0  0  0  0
   14.1723   -0.8510    0.0000 H   0  0  0  0  0  0  0  0  0  0  0  0
    5.6419    0.4540    0.0000 H   0  0  0  0  0  0  0  0  0  0  0  0
    7.1142    0.6040    0.0000 H   0  0  0  0  0  0  0  0  0  0  0  0
    5.2020    0.0659    0.0000 H   0  0  0  0  0  0  0  0  0  0  0  0
    4.9751   -0.7810    0.0000 H   0  0  0  0  0  0  0  0  0  0  0  0
    5.8220   -1.0079    0.0000 H   0  0  0  0  0  0  0  0  0  0  0  0
    6.0426    2.8848    0.0000 H   0  0  0  0  0  0  0  0  0  0  0  0
    4.6032    0.3917    0.0000 H   0  0  0  0  0  0  0  0  0  0  0  0
    7.2441    2.1490    0.0000 H   0  0  0  0  0  0  0  0  0  0  0  0
    3.1703    1.2412    0.0000 H   0  0  0  0  0  0  0  0  0  0  0  0
    3.7421    5.2043    0.0000 H   0  0  0  0  0  0  0  0  0  0  0  0
    2.3198    5.1267    0.0000 H   0  0  0  0  0  0  0  0  0  0  0  0
    1.4720    4.9030    0.0000 H   0  0  0  0  0  0  0  0  0  0  0  0
    1.6956    4.0552    0.0000 H   0  0  0  0  0  0  0  0  0  0  0  0
  1 11  1  0  0  0  0
  1 15  1  0  0  0  0
  2 13  1  0  0  0  0
  2 16  1  0  0  0  0
  3 15  1  0  0  0  0
  3 20  1  0  0  0  0
  4 12  1  0  0  0  0
  4 57  1  0  0  0  0
  5 18  1  0  0  0  0
  5 24  1  0  0  0  0
  6 16  1  0  0  0  0
  6 61  1  0  0  0  0
  7 24  2  0  0  0  0
  8 26  1  0  0  0  0
  8 69  1  0  0  0  0
  9 34  2  0  0  0  0
 10 35  2  0  0  0  0
 11 12  1  0  0  0  0
 11 13  1  0  0  0  0
 11 39  1  0  0  0  0
 12 14  1  0  0  0  0
 12 21  1  0  0  0  0
 13 22  1  0  0  0  0
 13 40  1  0  0  0  0
 14 16  1  0  0  0  0
 14 41  1  0  0  0  0
 14 42  1  0  0  0  0
 15 17  1  0  0  0  0
 15 43  1  0  0  0  0
 16 44  1  0  0  0  0
 17 19  1  0  0  0  0
 17 45  1  0  0  0  0
 17 46  1  0  0  0  0
 18 19  1  0  0  0  0
 18 20  1  0  0  0  0
 18 47  1  0  0  0  0
 19 48  1  0  0  0  0
 19 49  1  0  0  0  0
 20 23  1  0  0  0  0
 20 50  1  0  0  0  0
 21 51  1  0  0  0  0
 21 52  1  0  0  0  0
 21 53  1  0  0  0  0
 22 54  1  0  0  0  0
 22 55  1  0  0  0  0
 22 56  1  0  0  0  0
 23 58  1  0  0  0  0
 23 59  1  0  0  0  0
 23 60  1  0  0  0  0
 24 25  1  0  0  0  0
 25 26  1  0  0  0  0
 25 27  1  0  0  0  0
 25 62  1  0  0  0  0
 26 28  1  0  0  0  0
 26 63  1  0  0  0  0
 27 64  1  0  0  0  0
 27 65  1  0  0  0  0
 27 66  1  0  0  0  0
 28 29  2  0  0  0  0
 28 30  1  0  0  0  0
 29 31  1  0  0  0  0
 29 67  1  0  0  0  0
 30 33  2  0  0  0  0
 30 68  1  0  0  0  0
 31 32  2  0  0  0  0
 31 34  1  0  0  0  0
 32 33  1  0  0  0  0
 32 35  1  0  0  0  0
 33 70  1  0  0  0  0
 34 37  1  0  0  0  0
 35 36  1  0  0  0  0
 36 37  2  0  0  0  0
 36 38  1  0  0  0  0
 37 71  1  0  0  0  0
 38 72  1  0  0  0  0
 38 73  1  0  0  0  0
 38 74  1  0  0  0  0
M  END
> <PUBCHEM_COMPOUND_CID>
512883
> <PUBCHEM_COMPOUND_CANONICALIZED>
1
> <PUBCHEM_CACTVS_COMPLEXITY>
948
> <PUBCHEM_CACTVS_HBOND_ACCEPTOR>
10
> <PUBCHEM_CACTVS_HBOND_DONOR>
3
> <PUBCHEM_CACTVS_ROTATABLE_BOND>
7
> <PUBCHEM_CACTVS_SUBSKEYS>
AAADcfB4PAAAAAAAAAAAAAAAAAAAAAAAAAA0SIEAAAAAAACBAAAAGgAACAAADVSwmAMyCIAABgCIAqDSCAACAAAkAAAIiAEACMgZNjaAFRCicQAl4AEPmYfJ7PzOwAACAAAQAACAAAQAACAAAAAAAAAAAA==
> <PUBCHEM_IUPAC_OPENEYE_NAME>
[6-(4,6-dihydroxy-2,4-dimethyl-tetrahydropyran-3-yl)oxy-2-methyl-tetrahydropyran-3-yl] 3-hydroxy-2-methyl-3-(6-methyl-5,8-dioxo-2-naphthyl)propanoate
> <PUBCHEM_IUPAC_CAS_NAME>
3-hydroxy-2-methyl-3-(6-methyl-5,8-dioxo-2-naphthalenyl)propanoic acid [6-[(4,6-dihydroxy-2,4-dimethyl-3-oxanyl)oxy]-2-methyl-3-oxanyl] ester
> <PUBCHEM_IUPAC_NAME_MARKUP>
[6-(4,6-dihydroxy-2,4-dimethyloxan-3-yl)oxy-2-methyloxan-3-yl] 3-hydroxy-2-methyl-3-(6-methyl-5,8-dioxonaphthalen-2-yl)propanoate
> <PUBCHEM_IUPAC_NAME>
[6-(4,6-dihydroxy-2,4-dimethyloxan-3-yl)oxy-2-methyloxan-3-yl] 3-hydroxy-2-methyl-3-(6-methyl-5,8-dioxonaphthalen-2-yl)propanoate
> <PUBCHEM_IUPAC_SYSTEMATIC_NAME>
[6-[2,4-dimethyl-4,6-bis(oxidanyl)oxan-3-yl]oxy-2-methyl-oxan-3-yl] 2-methyl-3-[6-methyl-5,8-bis(oxidanylidene)naphthalen-2-yl]-3-oxidanyl-propanoate
> <PUBCHEM_IUPAC_TRADITIONAL_NAME>
3-(5,8-diketo-6-methyl-2-naphthyl)-3-hydroxy-2-methyl-propionic acid [6-(4,6-dihydroxy-2,4-dimethyl-tetrahydropyran-3-yl)oxy-2-methyl-tetrahydropyran-3-yl] ester
> <PUBCHEM_IUPAC_INCHI>
InChI=1S/C28H36O10/c1-13-10-20(29)19-11-17(6-7-18(19)24(13)31)25(32)14(2)27(33)37-21-8-9-23(36-15(21)3)38-26-16(4)35-22(30)12-28(26,5)34/h6-7,10-11,14-16,21-23,25-26,30,32,34H,8-9,12H2,1-5H3
> <PUBCHEM_IUPAC_INCHIKEY>
XEXQXYYGCFIZAN-UHFFFAOYSA-N
> <PUBCHEM_XLOGP3_AA>
1.8
> <PUBCHEM_EXACT_MASS>
532.23084734
> <PUBCHEM_MOLECULAR_FORMULA>
C28H36O10
> <PUBCHEM_MOLECULAR_WEIGHT>
532.6
> <PUBCHEM_OPENEYE_CAN_SMILES>
CC1C(CCC(O1)OC2C(OC(CC2(C)O)O)C)OC(=O)C(C)C(C3=CC4=C(C=C3)C(=O)C(=CC4=O)C)O
> <PUBCHEM_OPENEYE_ISO_SMILES>
CC1C(CCC(O1)OC2C(OC(CC2(C)O)O)C)OC(=O)C(C)C(C3=CC4=C(C=C3)C(=O)C(=CC4=O)C)O
> <PUBCHEM_CACTVS_TPSA>
149
> <PUBCHEM_MONOISOTOPIC_WEIGHT>
532.23084734
> <PUBCHEM_TOTAL_CHARGE>
0
> <PUBCHEM_HEAVY_ATOM_COUNT>
38
> <PUBCHEM_ATOM_DEF_STEREO_COUNT>
0
> <PUBCHEM_ATOM_UDEF_STEREO_COUNT>
9
> <PUBCHEM_BOND_DEF_STEREO_COUNT>
0
> <PUBCHEM_BOND_UDEF_STEREO_COUNT>
0
> <PUBCHEM_ISOTOPIC_ATOM_COUNT>
0
> <PUBCHEM_COMPONENT_COUNT>
1
> <PUBCHEM_CACTVS_TAUTO_COUNT>
12
> <PUBCHEM_COORDINATE_TYPE>
1
5
255
> <PUBCHEM_BONDANNOTATIONS>
11  39  3
13  40  3
15  43  3
16  44  3
18  47  3
20  50  3
25  62  3
26  63  3
28  29  8
28  30  8
29  31  8
30  33  8
31  32  8
32  33  8
12  4  3
$$$$
