512863
  -OEChem-10302200282D
115126  0     1  0  0  0  0  0999 V2000
    0.8660    6.4952    0.0000 S   0  0  0  0  0  0  0  0  0  0  0  0
   10.8032    0.6026    0.0000 O   0  0  0  0  0  0  0  0  0  0  0  0
   10.8032    8.0978    0.0000 O   0  0  0  0  0  0  0  0  0  0  0  0
    7.5361    0.5647    0.0000 O   0  0  0  0  0  0  0  0  0  0  0  0
    7.5361    8.0599    0.0000 O   0  0  0  0  0  0  0  0  0  0  0  0
    5.1350    3.8752    0.0000 O   0  0  0  0  0  0  0  0  0  0  0  0
    5.1350   11.3704    0.0000 O   0  0  0  0  0  0  0  0  0  0  0  0
    5.1350    1.9510    0.0000 O   0  0  0  0  0  0  0  0  0  0  0  0
    5.1350    9.4462    0.0000 O   0  0  0  0  0  0  0  0  0  0  0  0
    0.0000    5.9952    0.0000 O   0  5  0  0  0  0  0  0  0  0  0  0
    0.3660    7.3612    0.0000 O   0  5  0  0  0  0  0  0  0  0  0  0
    1.7320    6.9952    0.0000 O   0  0  0  0  0  0  0  0  0  0  0  0
    1.3660    5.6292    0.0000 O   0  0  0  0  0  0  0  0  0  0  0  0
    9.8107    4.7412    0.0000 N   0  0  3  0  0  0  0  0  0  0  0  0
    9.8107   12.2364    0.0000 N   0  0  3  0  0  0  0  0  0  0  0  0
    8.4021    1.9889    0.0000 N   0  0  0  0  0  0  0  0  0  0  0  0
    8.4021    9.4841    0.0000 N   0  0  0  0  0  0  0  0  0  0  0  0
    9.2025    3.3752    0.0000 C   0  0  2  0  0  0  0  0  0  0  0  0
    9.2025   10.8704    0.0000 C   0  0  2  0  0  0  0  0  0  0  0  0
    9.2025    2.4510    0.0000 C   0  0  2  0  0  0  0  0  0  0  0  0
    9.2025    9.9462    0.0000 C   0  0  2  0  0  0  0  0  0  0  0  0
   10.0028    3.8373    0.0000 C   0  0  2  0  0  0  0  0  0  0  0  0
   10.0028   11.3324    0.0000 C   0  0  2  0  0  0  0  0  0  0  0  0
   10.0028    1.9889    0.0000 C   0  0  1  0  0  0  0  0  0  0  0  0
   10.0028    9.4841    0.0000 C   0  0  1  0  0  0  0  0  0  0  0  0
   10.8032    2.4510    0.0000 C   0  0  1  0  0  0  0  0  0  0  0  0
   10.8032    9.9462    0.0000 C   0  0  1  0  0  0  0  0  0  0  0  0
   10.8032    3.3752    0.0000 C   0  0  0  0  0  0  0  0  0  0  0  0
   10.8032   10.8704    0.0000 C   0  0  0  0  0  0  0  0  0  0  0  0
    8.5157    3.9936    0.0000 C   0  0  0  0  0  0  0  0  0  0  0  0
    8.5157   11.4888    0.0000 C   0  0  0  0  0  0  0  0  0  0  0  0
    7.6018    3.3752    0.0000 C   0  0  0  0  0  0  0  0  0  0  0  0
    7.6018   10.8704    0.0000 C   0  0  0  0  0  0  0  0  0  0  0  0
    8.8916    4.8379    0.0000 C   0  0  0  0  0  0  0  0  0  0  0  0
    8.8916   12.3330    0.0000 C   0  0  0  0  0  0  0  0  0  0  0  0
   10.0028    1.0647    0.0000 C   0  0  2  0  0  0  0  0  0  0  0  0
   10.0028    8.5599    0.0000 C   0  0  2  0  0  0  0  0  0  0  0  0
   11.6635    2.1134    0.0000 C   0  0  0  0  0  0  0  0  0  0  0  0
   11.6635    9.6085    0.0000 C   0  0  0  0  0  0  0  0  0  0  0  0
   11.6277    3.9400    0.0000 C   0  0  0  0  0  0  0  0  0  0  0  0
   11.6277   11.4351    0.0000 C   0  0  0  0  0  0  0  0  0  0  0  0
    7.6018    2.4510    0.0000 C   0  0  0  0  0  0  0  0  0  0  0  0
    7.6018    9.9462    0.0000 C   0  0  0  0  0  0  0  0  0  0  0  0
    9.2025    0.6026    0.0000 C   0  0  0  0  0  0  0  0  0  0  0  0
    9.2025    8.0978    0.0000 C   0  0  0  0  0  0  0  0  0  0  0  0
    8.4021    1.0647    0.0000 C   0  0  0  0  0  0  0  0  0  0  0  0
    8.4021    8.5599    0.0000 C   0  0  0  0  0  0  0  0  0  0  0  0
    6.8014    3.8373    0.0000 C   0  0  0  0  0  0  0  0  0  0  0  0
    6.8014   11.3324    0.0000 C   0  0  0  0  0  0  0  0  0  0  0  0
   11.9768    1.4755    0.0000 C   0  0  0  0  0  0  0  0  0  0  0  0
   11.9768    8.9707    0.0000 C   0  0  0  0  0  0  0  0  0  0  0  0
   11.5250    0.6129    0.0000 C   0  0  0  0  0  0  0  0  0  0  0  0
   11.5250    8.1081    0.0000 C   0  0  0  0  0  0  0  0  0  0  0  0
    6.8014    1.9889    0.0000 C   0  0  0  0  0  0  0  0  0  0  0  0
    6.8014    9.4841    0.0000 C   0  0  0  0  0  0  0  0  0  0  0  0
    6.0010    3.3752    0.0000 C   0  0  0  0  0  0  0  0  0  0  0  0
    6.0010   10.8704    0.0000 C   0  0  0  0  0  0  0  0  0  0  0  0
    6.0010    2.4510    0.0000 C   0  0  0  0  0  0  0  0  0  0  0  0
    6.0010    9.9462    0.0000 C   0  0  0  0  0  0  0  0  0  0  0  0
    5.1350    4.8752    0.0000 C   0  0  0  0  0  0  0  0  0  0  0  0
    5.1350   12.3704    0.0000 C   0  0  0  0  0  0  0  0  0  0  0  0
    4.2690    2.4510    0.0000 C   0  0  0  0  0  0  0  0  0  0  0  0
    4.2690    9.9462    0.0000 C   0  0  0  0  0  0  0  0  0  0  0  0
    9.2051    1.6010    0.0000 H   0  0  0  0  0  0  0  0  0  0  0  0
    9.2051    9.0962    0.0000 H   0  0  0  0  0  0  0  0  0  0  0  0
   10.7453    4.2511    0.0000 H   0  0  0  0  0  0  0  0  0  0  0  0
   10.7453   11.7463    0.0000 H   0  0  0  0  0  0  0  0  0  0  0  0
   10.7390    1.5639    0.0000 H   0  0  0  0  0  0  0  0  0  0  0  0
   10.7390    9.0591    0.0000 H   0  0  0  0  0  0  0  0  0  0  0  0
   11.5055    2.9298    0.0000 H   0  0  0  0  0  0  0  0  0  0  0  0
   11.5055   10.4250    0.0000 H   0  0  0  0  0  0  0  0  0  0  0  0
   11.4138    3.2675    0.0000 H   0  0  0  0  0  0  0  0  0  0  0  0
   11.0153    3.9578    0.0000 H   0  0  0  0  0  0  0  0  0  0  0  0
   11.4138   10.7627    0.0000 H   0  0  0  0  0  0  0  0  0  0  0  0
   11.0153   11.4530    0.0000 H   0  0  0  0  0  0  0  0  0  0  0  0
    7.9788    4.3036    0.0000 H   0  0  0  0  0  0  0  0  0  0  0  0
    8.1513    3.4920    0.0000 H   0  0  0  0  0  0  0  0  0  0  0  0
    7.9788   11.7988    0.0000 H   0  0  0  0  0  0  0  0  0  0  0  0
    8.1513   10.9872    0.0000 H   0  0  0  0  0  0  0  0  0  0  0  0
    9.0205    5.4443    0.0000 H   0  0  0  0  0  0  0  0  0  0  0  0
    8.3019    5.0294    0.0000 H   0  0  0  0  0  0  0  0  0  0  0  0
    9.0205   12.9395    0.0000 H   0  0  0  0  0  0  0  0  0  0  0  0
    8.3019   12.5246    0.0000 H   0  0  0  0  0  0  0  0  0  0  0  0
    9.9955    0.2148    0.0000 H   0  0  0  0  0  0  0  0  0  0  0  0
    9.9955    7.7100    0.0000 H   0  0  0  0  0  0  0  0  0  0  0  0
   12.2428    3.8624    0.0000 H   0  0  0  0  0  0  0  0  0  0  0  0
   11.7933    4.5374    0.0000 H   0  0  0  0  0  0  0  0  0  0  0  0
   12.2428   11.3576    0.0000 H   0  0  0  0  0  0  0  0  0  0  0  0
   11.7933   12.0326    0.0000 H   0  0  0  0  0  0  0  0  0  0  0  0
    8.8040    0.1277    0.0000 H   0  0  0  0  0  0  0  0  0  0  0  0
    9.6010    0.1277    0.0000 H   0  0  0  0  0  0  0  0  0  0  0  0
    8.8040    7.6229    0.0000 H   0  0  0  0  0  0  0  0  0  0  0  0
    9.6010    7.6229    0.0000 H   0  0  0  0  0  0  0  0  0  0  0  0
    6.8014    4.4573    0.0000 H   0  0  0  0  0  0  0  0  0  0  0  0
    6.8014   11.9524    0.0000 H   0  0  0  0  0  0  0  0  0  0  0  0
   12.5967    1.4674    0.0000 H   0  0  0  0  0  0  0  0  0  0  0  0
   12.5967    8.9626    0.0000 H   0  0  0  0  0  0  0  0  0  0  0  0
   11.4315    0.0000    0.0000 H   0  0  0  0  0  0  0  0  0  0  0  0
   12.1141    0.4197    0.0000 H   0  0  0  0  0  0  0  0  0  0  0  0
   11.4315    7.4952    0.0000 H   0  0  0  0  0  0  0  0  0  0  0  0
   12.1141    7.9149    0.0000 H   0  0  0  0  0  0  0  0  0  0  0  0
    6.8014    1.3689    0.0000 H   0  0  0  0  0  0  0  0  0  0  0  0
    6.8014    8.8641    0.0000 H   0  0  0  0  0  0  0  0  0  0  0  0
    5.7550    4.8752    0.0000 H   0  0  0  0  0  0  0  0  0  0  0  0
    5.1350    5.4952    0.0000 H   0  0  0  0  0  0  0  0  0  0  0  0
    4.5150    4.8752    0.0000 H   0  0  0  0  0  0  0  0  0  0  0  0
    5.7550   12.3704    0.0000 H   0  0  0  0  0  0  0  0  0  0  0  0
    5.1350   12.9904    0.0000 H   0  0  0  0  0  0  0  0  0  0  0  0
    4.5150   12.3704    0.0000 H   0  0  0  0  0  0  0  0  0  0  0  0
    4.5790    2.9879    0.0000 H   0  0  0  0  0  0  0  0  0  0  0  0
    3.7320    2.7610    0.0000 H   0  0  0  0  0  0  0  0  0  0  0  0
    3.9590    1.9141    0.0000 H   0  0  0  0  0  0  0  0  0  0  0  0
    4.5790   10.4831    0.0000 H   0  0  0  0  0  0  0  0  0  0  0  0
    3.7320   10.2562    0.0000 H   0  0  0  0  0  0  0  0  0  0  0  0
    3.9590    9.4093    0.0000 H   0  0  0  0  0  0  0  0  0  0  0  0
  1 10  1  0  0  0  0
  1 11  1  0  0  0  0
  1 12  2  0  0  0  0
  1 13  2  0  0  0  0
  2 36  1  0  0  0  0
  2 52  1  0  0  0  0
  3 37  1  0  0  0  0
  3 53  1  0  0  0  0
  4 46  2  0  0  0  0
  5 47  2  0  0  0  0
  6 56  1  0  0  0  0
  6 60  1  0  0  0  0
  7 57  1  0  0  0  0
  7 61  1  0  0  0  0
  8 58  1  0  0  0  0
  8 62  1  0  0  0  0
  9 59  1  0  0  0  0
  9 63  1  0  0  0  0
 14 22  1  0  0  0  0
 14 34  1  0  0  0  0
 14 40  1  0  0  0  0
 15 23  1  0  0  0  0
 15 35  1  0  0  0  0
 15 41  1  0  0  0  0
 16 20  1  0  0  0  0
 16 42  1  0  0  0  0
 16 46  1  0  0  0  0
 17 21  1  0  0  0  0
 17 43  1  0  0  0  0
 17 47  1  0  0  0  0
 18 20  1  0  0  0  0
 18 22  1  0  0  0  0
 18 30  1  0  0  0  0
 18 32  1  6  0  0  0
 19 21  1  0  0  0  0
 19 23  1  0  0  0  0
 19 31  1  0  0  0  0
 19 33  1  6  0  0  0
 20 24  1  0  0  0  0
 20 64  1  1  0  0  0
 21 25  1  0  0  0  0
 21 65  1  1  0  0  0
 22 28  1  0  0  0  0
 22 66  1  6  0  0  0
 23 29  1  0  0  0  0
 23 67  1  6  0  0  0
 24 26  1  0  0  0  0
 24 36  1  0  0  0  0
 24 68  1  6  0  0  0
 25 27  1  0  0  0  0
 25 37  1  0  0  0  0
 25 69  1  6  0  0  0
 26 28  1  0  0  0  0
 26 38  1  0  0  0  0
 26 70  1  6  0  0  0
 27 29  1  0  0  0  0
 27 39  1  0  0  0  0
 27 71  1  6  0  0  0
 28 72  1  0  0  0  0
 28 73  1  0  0  0  0
 29 74  1  0  0  0  0
 29 75  1  0  0  0  0
 30 34  1  0  0  0  0
 30 76  1  0  0  0  0
 30 77  1  0  0  0  0
 31 35  1  0  0  0  0
 31 78  1  0  0  0  0
 31 79  1  0  0  0  0
 32 42  1  0  0  0  0
 32 48  2  0  0  0  0
 33 43  1  0  0  0  0
 33 49  2  0  0  0  0
 34 80  1  0  0  0  0
 34 81  1  0  0  0  0
 35 82  1  0  0  0  0
 35 83  1  0  0  0  0
 36 44  1  0  0  0  0
 36 84  1  6  0  0  0
 37 45  1  0  0  0  0
 37 85  1  6  0  0  0
 38 40  1  0  0  0  0
 38 50  2  0  0  0  0
 39 41  1  0  0  0  0
 39 51  2  0  0  0  0
 40 86  1  0  0  0  0
 40 87  1  0  0  0  0
 41 88  1  0  0  0  0
 41 89  1  0  0  0  0
 42 54  2  0  0  0  0
 43 55  2  0  0  0  0
 44 46  1  0  0  0  0
 44 90  1  0  0  0  0
 44 91  1  0  0  0  0
 45 47  1  0  0  0  0
 45 92  1  0  0  0  0
 45 93  1  0  0  0  0
 48 56  1  0  0  0  0
 48 94  1  0  0  0  0
 49 57  1  0  0  0  0
 49 95  1  0  0  0  0
 50 52  1  0  0  0  0
 50 96  1  0  0  0  0
 51 53  1  0  0  0  0
 51 97  1  0  0  0  0
 52 98  1  0  0  0  0
 52 99  1  0  0  0  0
 53100  1  0  0  0  0
 53101  1  0  0  0  0
 54 58  1  0  0  0  0
 54102  1  0  0  0  0
 55 59  1  0  0  0  0
 55103  1  0  0  0  0
 56 58  2  0  0  0  0
 57 59  2  0  0  0  0
 60104  1  0  0  0  0
 60105  1  0  0  0  0
 60106  1  0  0  0  0
 61107  1  0  0  0  0
 61108  1  0  0  0  0
 61109  1  0  0  0  0
 62110  1  0  0  0  0
 62111  1  0  0  0  0
 62112  1  0  0  0  0
 63113  1  0  0  0  0
 63114  1  0  0  0  0
 63115  1  0  0  0  0
M  CHG  2  10  -1  11  -1
M  END
> <PUBCHEM_COMPOUND_CID>
512863
> <PUBCHEM_COMPOUND_CANONICALIZED>
1
> <PUBCHEM_CACTVS_COMPLEXITY>
847
> <PUBCHEM_CACTVS_HBOND_ACCEPTOR>
14
> <PUBCHEM_CACTVS_HBOND_DONOR>
0
> <PUBCHEM_CACTVS_ROTATABLE_BOND>
4
> <PUBCHEM_CACTVS_SUBSKEYS>
AAADcfB/vABAAAAAAAAAAAAAAAAAAWLFiwA8ePHiBAgAAFgBQAAAHgAAAAAADzzhmAYyxoMABACIAiVSUDCCCAAhIgAAiAEO7IgNJjbE8ZuGMCpm5hnK6Ae42fOfoEABAgACQADQgAaECCSAAAAAAAAAAA==
> <PUBCHEM_IUPAC_OPENEYE_NAME>
(4aR,5aS,8aR,13aS,15aS,15bR)-10,11-dimethoxy-4a,5,5a,7,8,13a,15,15a,15b,16-decahydro-2H-4,6-methanoindolo[3,2,1-ij]oxepino[2,3,4-de]pyrrolo[2,3-h]quinolin-14-one;sulfate
> <PUBCHEM_IUPAC_CAS_NAME>
(4aR,5aS,8aR,13aS,15aS,15bR)-10,11-dimethoxy-4a,5,5a,7,8,13a,15,15a,15b,16-decahydro-2H-4,6-methanoindolo[3,2,1-ij]oxepino[2,3,4-de]pyrrolo[2,3-h]quinolin-14-one;sulfate
> <PUBCHEM_IUPAC_NAME_MARKUP>
(4<I>a</I><I>R</I>,5<I>a</I><I>S</I>,8<I>a</I><I>R</I>,13<I>a</I><I>S</I>,15<I>a</I><I>S</I>,15<I>b</I><I>R</I>)-10,11-dimethoxy-4<I>a</I>,5,5<I>a</I>,7,8,13<I>a</I>,15,15<I>a</I>,15<I>b</I>,16-decahydro-2<I>H</I>-4,6-methanoindolo[3,2,1-ij]oxepino[2,3,4-de]pyrrolo[2,3-h]quinolin-14-one;sulfate
> <PUBCHEM_IUPAC_NAME>
(4aR,5aS,8aR,13aS,15aS,15bR)-10,11-dimethoxy-4a,5,5a,7,8,13a,15,15a,15b,16-decahydro-2H-4,6-methanoindolo[3,2,1-ij]oxepino[2,3,4-de]pyrrolo[2,3-h]quinolin-14-one;sulfate
> <PUBCHEM_IUPAC_SYSTEMATIC_NAME>
(4aR,5aS,8aR,13aS,15aS,15bR)-10,11-dimethoxy-4a,5,5a,7,8,13a,15,15a,15b,16-decahydro-2H-4,6-methanoindolo[3,2,1-ij]oxepino[2,3,4-de]pyrrolo[2,3-h]quinolin-14-one;sulfate
> <PUBCHEM_IUPAC_TRADITIONAL_NAME>
(4aR,5aS,8aR,13aS,15aS,15bR)-10,11-dimethoxy-4a,5,5a,7,8,13a,15,15a,15b,16-decahydro-2H-4,6-methanoindolo[3,2,1-ij]oxepino[2,3,4-de]pyrrolo[2,3-h]quinolin-14-one;sulfate
> <PUBCHEM_IUPAC_INCHI>
InChI=1S/2C23H26N2O4.H2O4S/c2*1-27-16-8-14-15(9-17(16)28-2)25-20(26)10-18-21-13-7-19-23(14,22(21)25)4-5-24(19)11-12(13)3-6-29-18;1-5(2,3)4/h2*3,8-9,13,18-19,21-22H,4-7,10-11H2,1-2H3;(H2,1,2,3,4)/p-2/t2*13-,18-,19-,21-,22-,23+;/m00./s1
> <PUBCHEM_IUPAC_INCHIKEY>
HCMSIGALSOEZRW-WIMNQIPBSA-L
> <PUBCHEM_EXACT_MASS>
884.33024428
> <PUBCHEM_MOLECULAR_FORMULA>
C46H52N4O12S-2
> <PUBCHEM_MOLECULAR_WEIGHT>
885.0
> <PUBCHEM_OPENEYE_CAN_SMILES>
COC1=C(C=C2C(=C1)C34CCN5C3CC6C7C4N2C(=O)CC7OCC=C6C5)OC.COC1=C(C=C2C(=C1)C34CCN5C3CC6C7C4N2C(=O)CC7OCC=C6C5)OC.[O-]S(=O)(=O)[O-]
> <PUBCHEM_OPENEYE_ISO_SMILES>
COC1=C(C=C2C(=C1)[C@]34CCN5[C@H]3C[C@@H]6[C@@H]7[C@@H]4N2C(=O)C[C@@H]7OCC=C6C5)OC.COC1=C(C=C2C(=C1)[C@]34CCN5[C@H]3C[C@@H]6[C@@H]7[C@@H]4N2C(=O)C[C@@H]7OCC=C6C5)OC.[O-]S(=O)(=O)[O-]
> <PUBCHEM_CACTVS_TPSA>
191
> <PUBCHEM_MONOISOTOPIC_WEIGHT>
884.33024428
> <PUBCHEM_TOTAL_CHARGE>
-2
> <PUBCHEM_HEAVY_ATOM_COUNT>
63
> <PUBCHEM_ATOM_DEF_STEREO_COUNT>
12
> <PUBCHEM_ATOM_UDEF_STEREO_COUNT>
0
> <PUBCHEM_BOND_DEF_STEREO_COUNT>
0
> <PUBCHEM_BOND_UDEF_STEREO_COUNT>
0
> <PUBCHEM_ISOTOPIC_ATOM_COUNT>
0
> <PUBCHEM_COMPONENT_COUNT>
3
> <PUBCHEM_CACTVS_TAUTO_COUNT>
-1
> <PUBCHEM_COORDINATE_TYPE>
1
5
255
> <PUBCHEM_BONDANNOTATIONS>
18  32  6
19  33  6
20  64  5
21  65  5
22  66  6
23  67  6
24  68  6
25  69  6
26  70  6
27  71  6
32  42  8
32  48  8
33  43  8
33  49  8
36  84  6
37  85  6
42  54  8
43  55  8
48  56  8
49  57  8
54  58  8
55  59  8
56  58  8
57  59  8
$$$$
