512862
  -OEChem-10302200282D
 65 65  0     1  0  0  0  0  0999 V2000
    4.8479    0.0861    0.0000 O   0  0  0  0  0  0  0  0  0  0  0  0
    2.0000   -1.9830    0.0000 O   0  0  0  0  0  0  0  0  0  0  0  0
    3.5878   -1.1739    0.0000 N   0  0  0  0  0  0  0  0  0  0  0  0
    3.6756    1.1739    0.0000 N   0  0  0  0  0  0  0  0  0  0  0  0
    3.0878    0.3649    0.0000 C   0  0  3  0  0  0  0  0  0  0  0  0
    2.2788   -0.2229    0.0000 C   0  0  0  0  0  0  0  0  0  0  0  0
    3.8968   -0.2229    0.0000 C   0  0  0  0  0  0  0  0  0  0  0  0
    2.5878   -1.1739    0.0000 C   0  0  0  0  0  0  0  0  0  0  0  0
    2.5000    1.1739    0.0000 C   0  0  0  0  0  0  0  0  0  0  0  0
    4.1756   -1.9830    0.0000 C   0  0  0  0  0  0  0  0  0  0  0  0
    3.2688    2.0875    0.0000 C   0  0  0  0  0  0  0  0  0  0  0  0
    3.7688   -2.8965    0.0000 C   0  0  0  0  0  0  0  0  0  0  0  0
    3.8566    2.8965    0.0000 C   0  0  0  0  0  0  0  0  0  0  0  0
    4.3566   -3.7055    0.0000 C   0  0  0  0  0  0  0  0  0  0  0  0
    3.4499    3.8100    0.0000 C   0  0  0  0  0  0  0  0  0  0  0  0
    3.9499   -4.6190    0.0000 C   0  0  0  0  0  0  0  0  0  0  0  0
    4.0377    4.6190    0.0000 C   0  0  0  0  0  0  0  0  0  0  0  0
    4.5377   -5.4281    0.0000 C   0  0  0  0  0  0  0  0  0  0  0  0
    3.6309    5.5326    0.0000 C   0  0  0  0  0  0  0  0  0  0  0  0
    4.1309   -6.3416    0.0000 C   0  0  0  0  0  0  0  0  0  0  0  0
    4.2187    6.3416    0.0000 C   0  0  0  0  0  0  0  0  0  0  0  0
    4.7187   -7.1506    0.0000 C   0  0  0  0  0  0  0  0  0  0  0  0
    3.8120    7.2552    0.0000 C   0  0  0  0  0  0  0  0  0  0  0  0
    4.3120   -8.0642    0.0000 C   0  0  0  0  0  0  0  0  0  0  0  0
    4.3998    8.0642    0.0000 C   0  0  0  0  0  0  0  0  0  0  0  0
    1.9688    0.3141    0.0000 H   0  0  0  0  0  0  0  0  0  0  0  0
    1.7124   -0.4750    0.0000 H   0  0  0  0  0  0  0  0  0  0  0  0
    4.2922    1.1091    0.0000 H   0  0  0  0  0  0  0  0  0  0  0  0
    3.0016    1.5384    0.0000 H   0  0  0  0  0  0  0  0  0  0  0  0
    2.1356    1.6755    0.0000 H   0  0  0  0  0  0  0  0  0  0  0  0
    1.9984    0.8095    0.0000 H   0  0  0  0  0  0  0  0  0  0  0  0
    4.6896   -2.3296    0.0000 H   0  0  0  0  0  0  0  0  0  0  0  0
    4.6063   -1.5370    0.0000 H   0  0  0  0  0  0  0  0  0  0  0  0
    2.8382    2.5335    0.0000 H   0  0  0  0  0  0  0  0  0  0  0  0
    2.7548    1.7408    0.0000 H   0  0  0  0  0  0  0  0  0  0  0  0
    3.2548   -2.5498    0.0000 H   0  0  0  0  0  0  0  0  0  0  0  0
    3.3382   -3.3425    0.0000 H   0  0  0  0  0  0  0  0  0  0  0  0
    4.2873    2.4505    0.0000 H   0  0  0  0  0  0  0  0  0  0  0  0
    4.3706    3.2432    0.0000 H   0  0  0  0  0  0  0  0  0  0  0  0
    4.8706   -4.0522    0.0000 H   0  0  0  0  0  0  0  0  0  0  0  0
    4.7873   -3.2595    0.0000 H   0  0  0  0  0  0  0  0  0  0  0  0
    3.0192    4.2560    0.0000 H   0  0  0  0  0  0  0  0  0  0  0  0
    2.9359    3.4633    0.0000 H   0  0  0  0  0  0  0  0  0  0  0  0
    3.4359   -4.2724    0.0000 H   0  0  0  0  0  0  0  0  0  0  0  0
    3.5192   -5.0650    0.0000 H   0  0  0  0  0  0  0  0  0  0  0  0
    4.4684    4.1731    0.0000 H   0  0  0  0  0  0  0  0  0  0  0  0
    4.5517    4.9658    0.0000 H   0  0  0  0  0  0  0  0  0  0  0  0
    5.0517   -5.7748    0.0000 H   0  0  0  0  0  0  0  0  0  0  0  0
    4.9684   -4.9821    0.0000 H   0  0  0  0  0  0  0  0  0  0  0  0
    3.2002    5.9786    0.0000 H   0  0  0  0  0  0  0  0  0  0  0  0
    3.1169    5.1859    0.0000 H   0  0  0  0  0  0  0  0  0  0  0  0
    3.6169   -5.9949    0.0000 H   0  0  0  0  0  0  0  0  0  0  0  0
    3.7002   -6.7876    0.0000 H   0  0  0  0  0  0  0  0  0  0  0  0
    4.6494    5.8956    0.0000 H   0  0  0  0  0  0  0  0  0  0  0  0
    4.7327    6.6883    0.0000 H   0  0  0  0  0  0  0  0  0  0  0  0
    5.2327   -7.4973    0.0000 H   0  0  0  0  0  0  0  0  0  0  0  0
    5.1494   -6.7046    0.0000 H   0  0  0  0  0  0  0  0  0  0  0  0
    3.3813    7.7012    0.0000 H   0  0  0  0  0  0  0  0  0  0  0  0
    3.2980    6.9085    0.0000 H   0  0  0  0  0  0  0  0  0  0  0  0
    3.7456   -7.8120    0.0000 H   0  0  0  0  0  0  0  0  0  0  0  0
    4.0598   -8.6306    0.0000 H   0  0  0  0  0  0  0  0  0  0  0  0
    4.8784   -8.3164    0.0000 H   0  0  0  0  0  0  0  0  0  0  0  0
    4.9014    7.6998    0.0000 H   0  0  0  0  0  0  0  0  0  0  0  0
    4.7642    8.5658    0.0000 H   0  0  0  0  0  0  0  0  0  0  0  0
    3.8982    8.4286    0.0000 H   0  0  0  0  0  0  0  0  0  0  0  0
  1  7  2  0  0  0  0
  2  8  2  0  0  0  0
  3  7  1  0  0  0  0
  3  8  1  0  0  0  0
  3 10  1  0  0  0  0
  4  5  1  0  0  0  0
  4 11  1  0  0  0  0
  4 28  1  0  0  0  0
  5  6  1  0  0  0  0
  5  7  1  0  0  0  0
  5  9  1  0  0  0  0
  6  8  1  0  0  0  0
  6 26  1  0  0  0  0
  6 27  1  0  0  0  0
  9 29  1  0  0  0  0
  9 30  1  0  0  0  0
  9 31  1  0  0  0  0
 10 12  1  0  0  0  0
 10 32  1  0  0  0  0
 10 33  1  0  0  0  0
 11 13  1  0  0  0  0
 11 34  1  0  0  0  0
 11 35  1  0  0  0  0
 12 14  1  0  0  0  0
 12 36  1  0  0  0  0
 12 37  1  0  0  0  0
 13 15  1  0  0  0  0
 13 38  1  0  0  0  0
 13 39  1  0  0  0  0
 14 16  1  0  0  0  0
 14 40  1  0  0  0  0
 14 41  1  0  0  0  0
 15 17  1  0  0  0  0
 15 42  1  0  0  0  0
 15 43  1  0  0  0  0
 16 18  1  0  0  0  0
 16 44  1  0  0  0  0
 16 45  1  0  0  0  0
 17 19  1  0  0  0  0
 17 46  1  0  0  0  0
 17 47  1  0  0  0  0
 18 20  1  0  0  0  0
 18 48  1  0  0  0  0
 18 49  1  0  0  0  0
 19 21  1  0  0  0  0
 19 50  1  0  0  0  0
 19 51  1  0  0  0  0
 20 22  1  0  0  0  0
 20 52  1  0  0  0  0
 20 53  1  0  0  0  0
 21 23  1  0  0  0  0
 21 54  1  0  0  0  0
 21 55  1  0  0  0  0
 22 24  1  0  0  0  0
 22 56  1  0  0  0  0
 22 57  1  0  0  0  0
 23 25  1  0  0  0  0
 23 58  1  0  0  0  0
 23 59  1  0  0  0  0
 24 60  1  0  0  0  0
 24 61  1  0  0  0  0
 24 62  1  0  0  0  0
 25 63  1  0  0  0  0
 25 64  1  0  0  0  0
 25 65  1  0  0  0  0
M  END
> <PUBCHEM_COMPOUND_CID>
512862
> <PUBCHEM_COMPOUND_CANONICALIZED>
1
> <PUBCHEM_CACTVS_COMPLEXITY>
397
> <PUBCHEM_CACTVS_HBOND_ACCEPTOR>
3
> <PUBCHEM_CACTVS_HBOND_DONOR>
1
> <PUBCHEM_CACTVS_ROTATABLE_BOND>
15
> <PUBCHEM_CACTVS_SUBSKEYS>
AAADcfB7MAAAAAAAAAAAAAAAAAAAAWAAAAAAAAAAAAAAAAAAAAAAHgAQAAAADIjBgAQCAAPAAAAIAAEQEAAAAAAAAAAAAIGIAAAAQBoAwCAUAAAAFiCAAAEVgIAIAAAAAAAAAAAAAAAAAAAAAAAAAAAAAA==
> <PUBCHEM_IUPAC_OPENEYE_NAME>
3-methyl-1-octyl-3-(octylamino)pyrrolidine-2,5-dione
> <PUBCHEM_IUPAC_CAS_NAME>
3-methyl-1-octyl-3-(octylamino)pyrrolidine-2,5-dione
> <PUBCHEM_IUPAC_NAME_MARKUP>
3-methyl-1-octyl-3-(octylamino)pyrrolidine-2,5-dione
> <PUBCHEM_IUPAC_NAME>
3-methyl-1-octyl-3-(octylamino)pyrrolidine-2,5-dione
> <PUBCHEM_IUPAC_SYSTEMATIC_NAME>
3-methyl-1-octyl-3-(octylamino)pyrrolidine-2,5-dione
> <PUBCHEM_IUPAC_TRADITIONAL_NAME>
3-methyl-1-octyl-3-(octylamino)pyrrolidine-2,5-quinone
> <PUBCHEM_IUPAC_INCHI>
InChI=1S/C21H40N2O2/c1-4-6-8-10-12-14-16-22-21(3)18-19(24)23(20(21)25)17-15-13-11-9-7-5-2/h22H,4-18H2,1-3H3
> <PUBCHEM_IUPAC_INCHIKEY>
ISEXSHDJYCIBTA-UHFFFAOYSA-N
> <PUBCHEM_XLOGP3_AA>
5.9
> <PUBCHEM_EXACT_MASS>
352.308978523
> <PUBCHEM_MOLECULAR_FORMULA>
C21H40N2O2
> <PUBCHEM_MOLECULAR_WEIGHT>
352.6
> <PUBCHEM_OPENEYE_CAN_SMILES>
CCCCCCCCNC1(CC(=O)N(C1=O)CCCCCCCC)C
> <PUBCHEM_OPENEYE_ISO_SMILES>
CCCCCCCCNC1(CC(=O)N(C1=O)CCCCCCCC)C
> <PUBCHEM_CACTVS_TPSA>
49.4
> <PUBCHEM_MONOISOTOPIC_WEIGHT>
352.308978523
> <PUBCHEM_TOTAL_CHARGE>
0
> <PUBCHEM_HEAVY_ATOM_COUNT>
25
> <PUBCHEM_ATOM_DEF_STEREO_COUNT>
0
> <PUBCHEM_ATOM_UDEF_STEREO_COUNT>
1
> <PUBCHEM_BOND_DEF_STEREO_COUNT>
0
> <PUBCHEM_BOND_UDEF_STEREO_COUNT>
0
> <PUBCHEM_ISOTOPIC_ATOM_COUNT>
0
> <PUBCHEM_COMPONENT_COUNT>
1
> <PUBCHEM_CACTVS_TAUTO_COUNT>
-1
> <PUBCHEM_COORDINATE_TYPE>
1
5
255
> <PUBCHEM_BONDANNOTATIONS>
5  9  3
$$$$
