512898
  -OEChem-10302200282D
 80 84  0     1  0  0  0  0  0999 V2000
    3.0000   -3.1445    0.0000 S   0  0  0  0  0  0  0  0  0  0  0  0
    3.7661    7.1445    0.0000 F   0  0  0  0  0  0  0  0  0  0  0  0
    3.0000   -7.1445    0.0000 F   0  0  0  0  0  0  0  0  0  0  0  0
    9.4102    2.5339    0.0000 O   0  0  0  0  0  0  0  0  0  0  0  0
    8.2512    3.8211    0.0000 O   0  0  0  0  0  0  0  0  0  0  0  0
    4.0000   -3.1445    0.0000 O   0  0  0  0  0  0  0  0  0  0  0  0
    2.0000   -3.1445    0.0000 O   0  0  0  0  0  0  0  0  0  0  0  0
    6.3147    3.1919    0.0000 N   0  0  3  0  0  0  0  0  0  0  0  0
    3.8660    1.3555    0.0000 N   0  0  0  0  0  0  0  0  0  0  0  0
    4.7320    2.8555    0.0000 C   0  0  2  0  0  0  0  0  0  0  0  0
    4.8366    3.8500    0.0000 C   0  0  2  0  0  0  0  0  0  0  0  0
    7.7160    2.1738    0.0000 C   0  0  0  0  0  0  0  0  0  0  0  0
    5.6456    2.4487    0.0000 C   0  0  0  0  0  0  0  0  0  0  0  0
    5.8147    4.0579    0.0000 C   0  0  0  0  0  0  0  0  0  0  0  0
    7.3092    3.0873    0.0000 C   0  0  0  0  0  0  0  0  0  0  0  0
    3.8660    2.3555    0.0000 C   0  0  0  0  0  0  0  0  0  0  0  0
    8.3851    1.4306    0.0000 C   0  0  0  0  0  0  0  0  0  0  0  0
    6.8024    1.7671    0.0000 C   0  0  0  0  0  0  0  0  0  0  0  0
    7.8851    0.5646    0.0000 C   0  0  0  0  0  0  0  0  0  0  0  0
    6.9070    0.7725    0.0000 C   0  0  0  0  0  0  0  0  0  0  0  0
    4.0934    4.5191    0.0000 C   0  0  0  0  0  0  0  0  0  0  0  0
    3.8660   -0.6445    0.0000 C   0  0  0  0  0  0  0  0  0  0  0  0
    3.0000    0.8555    0.0000 C   0  0  0  0  0  0  0  0  0  0  0  0
    4.7320    0.8555    0.0000 C   0  0  0  0  0  0  0  0  0  0  0  0
    3.0000   -0.1445    0.0000 C   0  0  0  0  0  0  0  0  0  0  0  0
    4.7320   -0.1445    0.0000 C   0  0  0  0  0  0  0  0  0  0  0  0
    8.4591    2.8429    0.0000 C   0  0  0  0  0  0  0  0  0  0  0  0
    3.8660   -1.6445    0.0000 C   0  0  0  0  0  0  0  0  0  0  0  0
    4.3014    5.4973    0.0000 C   0  0  0  0  0  0  0  0  0  0  0  0
    3.1424    4.2101    0.0000 C   0  0  0  0  0  0  0  0  0  0  0  0
    3.0000   -2.1445    0.0000 C   0  0  0  0  0  0  0  0  0  0  0  0
    3.5582    6.1664    0.0000 C   0  0  0  0  0  0  0  0  0  0  0  0
    2.3992    4.8792    0.0000 C   0  0  0  0  0  0  0  0  0  0  0  0
    2.6071    5.8574    0.0000 C   0  0  0  0  0  0  0  0  0  0  0  0
    3.0000   -4.1445    0.0000 C   0  0  0  0  0  0  0  0  0  0  0  0
    2.1340   -4.6445    0.0000 C   0  0  0  0  0  0  0  0  0  0  0  0
    3.8660   -4.6445    0.0000 C   0  0  0  0  0  0  0  0  0  0  0  0
    2.1340   -5.6445    0.0000 C   0  0  0  0  0  0  0  0  0  0  0  0
    3.8660   -5.6445    0.0000 C   0  0  0  0  0  0  0  0  0  0  0  0
    3.0000   -6.1445    0.0000 C   0  0  0  0  0  0  0  0  0  0  0  0
    4.2121    3.1931    0.0000 H   0  0  0  0  0  0  0  0  0  0  0  0
    4.9970    4.4489    0.0000 H   0  0  0  0  0  0  0  0  0  0  0  0
    5.3356    1.9118    0.0000 H   0  0  0  0  0  0  0  0  0  0  0  0
    6.1472    2.0843    0.0000 H   0  0  0  0  0  0  0  0  0  0  0  0
    6.3811    4.3101    0.0000 H   0  0  0  0  0  0  0  0  0  0  0  0
    5.6231    4.6476    0.0000 H   0  0  0  0  0  0  0  0  0  0  0  0
    7.9108    3.2373    0.0000 H   0  0  0  0  0  0  0  0  0  0  0  0
    7.2660    3.7058    0.0000 H   0  0  0  0  0  0  0  0  0  0  0  0
    3.6540    2.9381    0.0000 H   0  0  0  0  0  0  0  0  0  0  0  0
    3.2554    2.2478    0.0000 H   0  0  0  0  0  0  0  0  0  0  0  0
    8.8867    1.0662    0.0000 H   0  0  0  0  0  0  0  0  0  0  0  0
    8.8000    1.8914    0.0000 H   0  0  0  0  0  0  0  0  0  0  0  0
    6.6108    2.3567    0.0000 H   0  0  0  0  0  0  0  0  0  0  0  0
    6.1960    1.6382    0.0000 H   0  0  0  0  0  0  0  0  0  0  0  0
    7.6935   -0.0250    0.0000 H   0  0  0  0  0  0  0  0  0  0  0  0
    8.4515    0.3124    0.0000 H   0  0  0  0  0  0  0  0  0  0  0  0
    6.2870    0.7725    0.0000 H   0  0  0  0  0  0  0  0  0  0  0  0
    6.8422    0.1559    0.0000 H   0  0  0  0  0  0  0  0  0  0  0  0
    4.4030   -0.9545    0.0000 H   0  0  0  0  0  0  0  0  0  0  0  0
    2.7880    1.4381    0.0000 H   0  0  0  0  0  0  0  0  0  0  0  0
    2.3894    0.7478    0.0000 H   0  0  0  0  0  0  0  0  0  0  0  0
    5.3426    0.7478    0.0000 H   0  0  0  0  0  0  0  0  0  0  0  0
    4.9441    1.4381    0.0000 H   0  0  0  0  0  0  0  0  0  0  0  0
    2.3894   -0.0369    0.0000 H   0  0  0  0  0  0  0  0  0  0  0  0
    2.7880   -0.7271    0.0000 H   0  0  0  0  0  0  0  0  0  0  0  0
    4.9441   -0.7271    0.0000 H   0  0  0  0  0  0  0  0  0  0  0  0
    5.3426   -0.0369    0.0000 H   0  0  0  0  0  0  0  0  0  0  0  0
    4.0781   -2.2272    0.0000 H   0  0  0  0  0  0  0  0  0  0  0  0
    4.4766   -1.5369    0.0000 H   0  0  0  0  0  0  0  0  0  0  0  0
    4.8910    5.6889    0.0000 H   0  0  0  0  0  0  0  0  0  0  0  0
    3.0135    3.6036    0.0000 H   0  0  0  0  0  0  0  0  0  0  0  0
    2.7880   -1.5619    0.0000 H   0  0  0  0  0  0  0  0  0  0  0  0
    2.3894   -2.2522    0.0000 H   0  0  0  0  0  0  0  0  0  0  0  0
    9.8709    2.9488    0.0000 H   0  0  0  0  0  0  0  0  0  0  0  0
    1.8096    4.6876    0.0000 H   0  0  0  0  0  0  0  0  0  0  0  0
    2.1464    6.2722    0.0000 H   0  0  0  0  0  0  0  0  0  0  0  0
    1.5970   -4.3345    0.0000 H   0  0  0  0  0  0  0  0  0  0  0  0
    4.4030   -4.3345    0.0000 H   0  0  0  0  0  0  0  0  0  0  0  0
    1.5970   -5.9545    0.0000 H   0  0  0  0  0  0  0  0  0  0  0  0
    4.4030   -5.9545    0.0000 H   0  0  0  0  0  0  0  0  0  0  0  0
  1  6  2  0  0  0  0
  1  7  2  0  0  0  0
  1 31  1  0  0  0  0
  1 35  1  0  0  0  0
  2 32  1  0  0  0  0
  3 40  1  0  0  0  0
  4 27  1  0  0  0  0
  4 74  1  0  0  0  0
  5 27  2  0  0  0  0
  8 13  1  0  0  0  0
  8 14  1  0  0  0  0
  8 15  1  0  0  0  0
  9 16  1  0  0  0  0
  9 23  1  0  0  0  0
  9 24  1  0  0  0  0
 10 11  1  0  0  0  0
 10 13  1  0  0  0  0
 10 16  1  6  0  0  0
 10 41  1  0  0  0  0
 11 14  1  0  0  0  0
 11 21  1  1  0  0  0
 11 42  1  0  0  0  0
 12 15  1  0  0  0  0
 12 17  1  0  0  0  0
 12 18  1  0  0  0  0
 12 27  1  0  0  0  0
 13 43  1  0  0  0  0
 13 44  1  0  0  0  0
 14 45  1  0  0  0  0
 14 46  1  0  0  0  0
 15 47  1  0  0  0  0
 15 48  1  0  0  0  0
 16 49  1  0  0  0  0
 16 50  1  0  0  0  0
 17 19  1  0  0  0  0
 17 51  1  0  0  0  0
 17 52  1  0  0  0  0
 18 20  1  0  0  0  0
 18 53  1  0  0  0  0
 18 54  1  0  0  0  0
 19 20  1  0  0  0  0
 19 55  1  0  0  0  0
 19 56  1  0  0  0  0
 20 57  1  0  0  0  0
 20 58  1  0  0  0  0
 21 29  2  0  0  0  0
 21 30  1  0  0  0  0
 22 25  1  0  0  0  0
 22 26  1  0  0  0  0
 22 28  1  0  0  0  0
 22 59  1  0  0  0  0
 23 25  1  0  0  0  0
 23 60  1  0  0  0  0
 23 61  1  0  0  0  0
 24 26  1  0  0  0  0
 24 62  1  0  0  0  0
 24 63  1  0  0  0  0
 25 64  1  0  0  0  0
 25 65  1  0  0  0  0
 26 66  1  0  0  0  0
 26 67  1  0  0  0  0
 28 31  1  0  0  0  0
 28 68  1  0  0  0  0
 28 69  1  0  0  0  0
 29 32  1  0  0  0  0
 29 70  1  0  0  0  0
 30 33  2  0  0  0  0
 30 71  1  0  0  0  0
 31 72  1  0  0  0  0
 31 73  1  0  0  0  0
 32 34  2  0  0  0  0
 33 34  1  0  0  0  0
 33 75  1  0  0  0  0
 34 76  1  0  0  0  0
 35 36  2  0  0  0  0
 35 37  1  0  0  0  0
 36 38  1  0  0  0  0
 36 77  1  0  0  0  0
 37 39  2  0  0  0  0
 37 78  1  0  0  0  0
 38 40  2  0  0  0  0
 38 79  1  0  0  0  0
 39 40  1  0  0  0  0
 39 80  1  0  0  0  0
M  END
> <PUBCHEM_COMPOUND_CID>
512898
> <PUBCHEM_COMPOUND_CANONICALIZED>
1
> <PUBCHEM_CACTVS_COMPLEXITY>
938
> <PUBCHEM_CACTVS_HBOND_ACCEPTOR>
8
> <PUBCHEM_CACTVS_HBOND_DONOR>
1
> <PUBCHEM_CACTVS_ROTATABLE_BOND>
10
> <PUBCHEM_CACTVS_SUBSKEYS>
AAADcfB7OYBAAAAAAAAAAAAAAAAAAeIAAAA8YIAAAAAAAAABQAAAHwQACAAADwDF2AywCYMAAgqIAiDSCHBCAAAgCBAIiBkIAIgIIDqg0RGEYAAmgACoiAeYyMAPgAAAAAAAAAAAAAAAAAAAAAAAAAAAAA==
> <PUBCHEM_IUPAC_OPENEYE_NAME>
1-[[(3S,4S)-3-(3-fluorophenyl)-4-[[4-[2-(4-fluorophenyl)sulfonylethyl]-1-piperidyl]methyl]pyrrolidin-1-yl]methyl]cyclopentanecarboxylic acid
> <PUBCHEM_IUPAC_CAS_NAME>
1-[[(3S,4S)-3-(3-fluorophenyl)-4-[[4-[2-(4-fluorophenyl)sulfonylethyl]-1-piperidinyl]methyl]-1-pyrrolidinyl]methyl]-1-cyclopentanecarboxylic acid
> <PUBCHEM_IUPAC_NAME_MARKUP>
1-[[(3<I>S</I>,4<I>S</I>)-3-(3-fluorophenyl)-4-[[4-[2-(4-fluorophenyl)sulfonylethyl]piperidin-1-yl]methyl]pyrrolidin-1-yl]methyl]cyclopentane-1-carboxylic acid
> <PUBCHEM_IUPAC_NAME>
1-[[(3S,4S)-3-(3-fluorophenyl)-4-[[4-[2-(4-fluorophenyl)sulfonylethyl]piperidin-1-yl]methyl]pyrrolidin-1-yl]methyl]cyclopentane-1-carboxylic acid
> <PUBCHEM_IUPAC_SYSTEMATIC_NAME>
1-[[(3S,4S)-3-(3-fluorophenyl)-4-[[4-[2-(4-fluorophenyl)sulfonylethyl]piperidin-1-yl]methyl]pyrrolidin-1-yl]methyl]cyclopentane-1-carboxylic acid
> <PUBCHEM_IUPAC_TRADITIONAL_NAME>
1-[[(3S,4S)-3-(3-fluorophenyl)-4-[[4-[2-(4-fluorophenyl)sulfonylethyl]piperidino]methyl]pyrrolidino]methyl]cyclopentanecarboxylic acid
> <PUBCHEM_IUPAC_INCHI>
InChI=1S/C31H40F2N2O4S/c32-26-6-8-28(9-7-26)40(38,39)17-12-23-10-15-34(16-11-23)19-25-20-35(22-31(30(36)37)13-1-2-14-31)21-29(25)24-4-3-5-27(33)18-24/h3-9,18,23,25,29H,1-2,10-17,19-22H2,(H,36,37)/t25-,29+/m0/s1
> <PUBCHEM_IUPAC_INCHIKEY>
JLKKIAYYHXNZIY-ABYGYWHVSA-N
> <PUBCHEM_XLOGP3_AA>
3
> <PUBCHEM_EXACT_MASS>
574.26768526
> <PUBCHEM_MOLECULAR_FORMULA>
C31H40F2N2O4S
> <PUBCHEM_MOLECULAR_WEIGHT>
574.7
> <PUBCHEM_OPENEYE_CAN_SMILES>
C1CCC(C1)(CN2CC(C(C2)C3=CC(=CC=C3)F)CN4CCC(CC4)CCS(=O)(=O)C5=CC=C(C=C5)F)C(=O)O
> <PUBCHEM_OPENEYE_ISO_SMILES>
C1CCC(C1)(CN2C[C@@H]([C@H](C2)C3=CC(=CC=C3)F)CN4CCC(CC4)CCS(=O)(=O)C5=CC=C(C=C5)F)C(=O)O
> <PUBCHEM_CACTVS_TPSA>
86.3
> <PUBCHEM_MONOISOTOPIC_WEIGHT>
574.26768526
> <PUBCHEM_TOTAL_CHARGE>
0
> <PUBCHEM_HEAVY_ATOM_COUNT>
40
> <PUBCHEM_ATOM_DEF_STEREO_COUNT>
2
> <PUBCHEM_ATOM_UDEF_STEREO_COUNT>
0
> <PUBCHEM_BOND_DEF_STEREO_COUNT>
0
> <PUBCHEM_BOND_UDEF_STEREO_COUNT>
0
> <PUBCHEM_ISOTOPIC_ATOM_COUNT>
0
> <PUBCHEM_COMPONENT_COUNT>
1
> <PUBCHEM_CACTVS_TAUTO_COUNT>
-1
> <PUBCHEM_COORDINATE_TYPE>
1
5
255
> <PUBCHEM_BONDANNOTATIONS>
10  16  6
11  21  5
21  29  8
21  30  8
29  32  8
30  33  8
32  34  8
33  34  8
35  36  8
35  37  8
36  38  8
37  39  8
38  40  8
39  40  8
$$$$
