512849
  -OEChem-10302200282D
 57 58  0     1  0  0  0  0  0999 V2000
    3.3566    1.9973    0.0000 S   0  0  0  0  0  0  0  0  0  0  0  0
    2.0000    5.3379    0.0000 O   0  0  0  0  0  0  0  0  0  0  0  0
    2.6843   -0.0718    0.0000 O   0  0  0  0  0  0  0  0  0  0  0  0
    6.2045   -0.0718    0.0000 O   0  0  0  0  0  0  0  0  0  0  0  0
    3.5823    4.6334    0.0000 N   0  0  0  0  0  0  0  0  0  0  0  0
    4.4444   -0.3505    0.0000 N   0  0  0  0  0  0  0  0  0  0  0  0
    3.4013    6.3560    0.0000 C   0  0  0  0  0  0  0  0  0  0  0  0
    4.2103    6.9438    0.0000 C   0  0  0  0  0  0  0  0  0  0  0  0
    3.2967    7.3505    0.0000 C   0  0  0  0  0  0  0  0  0  0  0  0
    2.9945    5.4425    0.0000 C   0  0  0  0  0  0  0  0  0  0  0  0
    3.9444    1.1883    0.0000 C   0  0  3  0  0  0  0  0  0  0  0  0
    4.4444   -1.3505    0.0000 C   0  0  0  0  0  0  0  0  0  0  0  0
    5.3104   -1.8505    0.0000 C   0  0  0  0  0  0  0  0  0  0  0  0
    3.1756    3.7199    0.0000 C   0  0  0  0  0  0  0  0  0  0  0  0
    5.3104   -2.8505    0.0000 C   0  0  0  0  0  0  0  0  0  0  0  0
    4.9444    1.1883    0.0000 C   0  0  0  0  0  0  0  0  0  0  0  0
    6.1765   -3.3505    0.0000 C   0  0  0  0  0  0  0  0  0  0  0  0
    3.6354    0.2373    0.0000 C   0  0  0  0  0  0  0  0  0  0  0  0
    5.2534    0.2373    0.0000 C   0  0  0  0  0  0  0  0  0  0  0  0
    6.1765   -4.3505    0.0000 C   0  0  0  0  0  0  0  0  0  0  0  0
    3.7634    2.9109    0.0000 C   0  0  0  0  0  0  0  0  0  0  0  0
    7.0425   -4.8505    0.0000 C   0  0  0  0  0  0  0  0  0  0  0  0
    7.0425   -5.8505    0.0000 C   0  0  0  0  0  0  0  0  0  0  0  0
    7.9085   -6.3505    0.0000 C   0  0  0  0  0  0  0  0  0  0  0  0
    7.9085   -7.3505    0.0000 C   0  0  0  0  0  0  0  0  0  0  0  0
    2.7889    6.4530    0.0000 H   0  0  0  0  0  0  0  0  0  0  0  0
    4.6563    6.5131    0.0000 H   0  0  0  0  0  0  0  0  0  0  0  0
    4.5570    7.4578    0.0000 H   0  0  0  0  0  0  0  0  0  0  0  0
    3.4467    7.9521    0.0000 H   0  0  0  0  0  0  0  0  0  0  0  0
    2.6782    7.3938    0.0000 H   0  0  0  0  0  0  0  0  0  0  0  0
    4.1989    4.6982    0.0000 H   0  0  0  0  0  0  0  0  0  0  0  0
    3.3320    1.0913    0.0000 H   0  0  0  0  0  0  0  0  0  0  0  0
    3.8338   -1.2429    0.0000 H   0  0  0  0  0  0  0  0  0  0  0  0
    4.2324   -1.9331    0.0000 H   0  0  0  0  0  0  0  0  0  0  0  0
    5.9210   -1.9582    0.0000 H   0  0  0  0  0  0  0  0  0  0  0  0
    5.5225   -1.2679    0.0000 H   0  0  0  0  0  0  0  0  0  0  0  0
    4.6998   -2.7429    0.0000 H   0  0  0  0  0  0  0  0  0  0  0  0
    5.0984   -3.4331    0.0000 H   0  0  0  0  0  0  0  0  0  0  0  0
    5.5509    1.3172    0.0000 H   0  0  0  0  0  0  0  0  0  0  0  0
    4.8796    1.8049    0.0000 H   0  0  0  0  0  0  0  0  0  0  0  0
    2.6616    4.0666    0.0000 H   0  0  0  0  0  0  0  0  0  0  0  0
    2.7449    3.2739    0.0000 H   0  0  0  0  0  0  0  0  0  0  0  0
    6.7870   -3.4582    0.0000 H   0  0  0  0  0  0  0  0  0  0  0  0
    6.3885   -2.7679    0.0000 H   0  0  0  0  0  0  0  0  0  0  0  0
    5.5659   -4.2429    0.0000 H   0  0  0  0  0  0  0  0  0  0  0  0
    5.9644   -4.9331    0.0000 H   0  0  0  0  0  0  0  0  0  0  0  0
    4.2774    2.5642    0.0000 H   0  0  0  0  0  0  0  0  0  0  0  0
    4.1940    3.3569    0.0000 H   0  0  0  0  0  0  0  0  0  0  0  0
    7.6531   -4.9582    0.0000 H   0  0  0  0  0  0  0  0  0  0  0  0
    7.2545   -4.2679    0.0000 H   0  0  0  0  0  0  0  0  0  0  0  0
    6.4319   -5.7429    0.0000 H   0  0  0  0  0  0  0  0  0  0  0  0
    6.8304   -6.4331    0.0000 H   0  0  0  0  0  0  0  0  0  0  0  0
    8.5191   -6.4582    0.0000 H   0  0  0  0  0  0  0  0  0  0  0  0
    8.1206   -5.7679    0.0000 H   0  0  0  0  0  0  0  0  0  0  0  0
    7.2885   -7.3505    0.0000 H   0  0  0  0  0  0  0  0  0  0  0  0
    7.9085   -7.9705    0.0000 H   0  0  0  0  0  0  0  0  0  0  0  0
    8.5285   -7.3505    0.0000 H   0  0  0  0  0  0  0  0  0  0  0  0
  1 11  1  0  0  0  0
  1 21  1  0  0  0  0
  2 10  2  0  0  0  0
  3 18  2  0  0  0  0
  4 19  2  0  0  0  0
  5 10  1  0  0  0  0
  5 14  1  0  0  0  0
  5 31  1  0  0  0  0
  6 12  1  0  0  0  0
  6 18  1  0  0  0  0
  6 19  1  0  0  0  0
  7  8  1  0  0  0  0
  7  9  1  0  0  0  0
  7 10  1  0  0  0  0
  7 26  1  0  0  0  0
  8  9  1  0  0  0  0
  8 27  1  0  0  0  0
  8 28  1  0  0  0  0
  9 29  1  0  0  0  0
  9 30  1  0  0  0  0
 11 16  1  0  0  0  0
 11 18  1  0  0  0  0
 11 32  1  0  0  0  0
 12 13  1  0  0  0  0
 12 33  1  0  0  0  0
 12 34  1  0  0  0  0
 13 15  1  0  0  0  0
 13 35  1  0  0  0  0
 13 36  1  0  0  0  0
 14 21  1  0  0  0  0
 14 41  1  0  0  0  0
 14 42  1  0  0  0  0
 15 17  1  0  0  0  0
 15 37  1  0  0  0  0
 15 38  1  0  0  0  0
 16 19  1  0  0  0  0
 16 39  1  0  0  0  0
 16 40  1  0  0  0  0
 17 20  1  0  0  0  0
 17 43  1  0  0  0  0
 17 44  1  0  0  0  0
 20 22  1  0  0  0  0
 20 45  1  0  0  0  0
 20 46  1  0  0  0  0
 21 47  1  0  0  0  0
 21 48  1  0  0  0  0
 22 23  1  0  0  0  0
 22 49  1  0  0  0  0
 22 50  1  0  0  0  0
 23 24  1  0  0  0  0
 23 51  1  0  0  0  0
 23 52  1  0  0  0  0
 24 25  1  0  0  0  0
 24 53  1  0  0  0  0
 24 54  1  0  0  0  0
 25 55  1  0  0  0  0
 25 56  1  0  0  0  0
 25 57  1  0  0  0  0
M  END
> <PUBCHEM_COMPOUND_CID>
512849
> <PUBCHEM_COMPOUND_CANONICALIZED>
1
> <PUBCHEM_CACTVS_COMPLEXITY>
466
> <PUBCHEM_CACTVS_HBOND_ACCEPTOR>
4
> <PUBCHEM_CACTVS_HBOND_DONOR>
1
> <PUBCHEM_CACTVS_ROTATABLE_BOND>
13
> <PUBCHEM_CACTVS_SUBSKEYS>
AAADcfB7MABAAAAAAAAAAAAAGAAAAWAAAAAAAAAAAAAAAAAAAAAAHgQQAAAADQDFwASCAAPAAAgIAAEQEAAAAAAAABAAAIEIAAAAABIggAAEAAAAFiCgAAEVgIAAAAAAAAAAAAAAAAAAAAAAAAAAAAAAAA==
> <PUBCHEM_IUPAC_OPENEYE_NAME>
N-[2-(1-nonyl-2,5-dioxo-pyrrolidin-3-yl)sulfanylethyl]cyclopropanecarboxamide
> <PUBCHEM_IUPAC_CAS_NAME>
N-[2-[(1-nonyl-2,5-dioxo-3-pyrrolidinyl)thio]ethyl]cyclopropanecarboxamide
> <PUBCHEM_IUPAC_NAME_MARKUP>
<I>N</I>-[2-(1-nonyl-2,5-dioxopyrrolidin-3-yl)sulfanylethyl]cyclopropanecarboxamide
> <PUBCHEM_IUPAC_NAME>
N-[2-(1-nonyl-2,5-dioxopyrrolidin-3-yl)sulfanylethyl]cyclopropanecarboxamide
> <PUBCHEM_IUPAC_SYSTEMATIC_NAME>
N-[2-[1-nonyl-2,5-bis(oxidanylidene)pyrrolidin-3-yl]sulfanylethyl]cyclopropanecarboxamide
> <PUBCHEM_IUPAC_TRADITIONAL_NAME>
N-[2-[(2,5-diketo-1-nonyl-pyrrolidin-3-yl)thio]ethyl]cyclopropanecarboxamide
> <PUBCHEM_IUPAC_INCHI>
InChI=1S/C19H32N2O3S/c1-2-3-4-5-6-7-8-12-21-17(22)14-16(19(21)24)25-13-11-20-18(23)15-9-10-15/h15-16H,2-14H2,1H3,(H,20,23)
> <PUBCHEM_IUPAC_INCHIKEY>
QBMHXRZWSJSPDN-UHFFFAOYSA-N
> <PUBCHEM_XLOGP3_AA>
3.7
> <PUBCHEM_EXACT_MASS>
368.21336406
> <PUBCHEM_MOLECULAR_FORMULA>
C19H32N2O3S
> <PUBCHEM_MOLECULAR_WEIGHT>
368.5
> <PUBCHEM_OPENEYE_CAN_SMILES>
CCCCCCCCCN1C(=O)CC(C1=O)SCCNC(=O)C2CC2
> <PUBCHEM_OPENEYE_ISO_SMILES>
CCCCCCCCCN1C(=O)CC(C1=O)SCCNC(=O)C2CC2
> <PUBCHEM_CACTVS_TPSA>
91.8
> <PUBCHEM_MONOISOTOPIC_WEIGHT>
368.21336406
> <PUBCHEM_TOTAL_CHARGE>
0
> <PUBCHEM_HEAVY_ATOM_COUNT>
25
> <PUBCHEM_ATOM_DEF_STEREO_COUNT>
0
> <PUBCHEM_ATOM_UDEF_STEREO_COUNT>
1
> <PUBCHEM_BOND_DEF_STEREO_COUNT>
0
> <PUBCHEM_BOND_UDEF_STEREO_COUNT>
0
> <PUBCHEM_ISOTOPIC_ATOM_COUNT>
0
> <PUBCHEM_COMPONENT_COUNT>
1
> <PUBCHEM_CACTVS_TAUTO_COUNT>
-1
> <PUBCHEM_COORDINATE_TYPE>
1
5
255
> <PUBCHEM_BONDANNOTATIONS>
11  1  3
$$$$
