512857
  -OEChem-10302200282D
 73 73  0     1  0  0  0  0  0999 V2000
    2.0000   -0.4358    0.0000 O   0  0  0  0  0  0  0  0  0  0  0  0
    5.5202   -0.4358    0.0000 O   0  0  0  0  0  0  0  0  0  0  0  0
    3.7601   -0.7145    0.0000 N   0  0  0  0  0  0  0  0  0  0  0  0
    2.6723    1.6333    0.0000 N   0  0  0  0  0  0  0  0  0  0  0  0
    2.8980    4.2694    0.0000 N   0  0  0  0  0  0  0  0  0  0  0  0
    3.2601    0.8243    0.0000 C   0  0  3  0  0  0  0  0  0  0  0  0
    4.2601    0.8243    0.0000 C   0  0  0  0  0  0  0  0  0  0  0  0
    3.7601   -1.7146    0.0000 C   0  0  0  0  0  0  0  0  0  0  0  0
    2.9511   -0.1268    0.0000 C   0  0  0  0  0  0  0  0  0  0  0  0
    4.6261   -2.2146    0.0000 C   0  0  0  0  0  0  0  0  0  0  0  0
    3.0790    2.5469    0.0000 C   0  0  0  0  0  0  0  0  0  0  0  0
    2.4912    3.3559    0.0000 C   0  0  0  0  0  0  0  0  0  0  0  0
    4.5691   -0.1268    0.0000 C   0  0  0  0  0  0  0  0  0  0  0  0
    4.6261   -3.2146    0.0000 C   0  0  0  0  0  0  0  0  0  0  0  0
    5.4921   -3.7146    0.0000 C   0  0  0  0  0  0  0  0  0  0  0  0
    2.3102    5.0784    0.0000 C   0  0  0  0  0  0  0  0  0  0  0  0
    3.8925    4.3740    0.0000 C   0  0  0  0  0  0  0  0  0  0  0  0
    5.4921   -4.7146    0.0000 C   0  0  0  0  0  0  0  0  0  0  0  0
    2.7169    5.9920    0.0000 C   0  0  0  0  0  0  0  0  0  0  0  0
    4.2992    5.2875    0.0000 C   0  0  0  0  0  0  0  0  0  0  0  0
    6.3582   -5.2146    0.0000 C   0  0  0  0  0  0  0  0  0  0  0  0
    6.3582   -6.2146    0.0000 C   0  0  0  0  0  0  0  0  0  0  0  0
    2.1291    6.8010    0.0000 C   0  0  0  0  0  0  0  0  0  0  0  0
    5.2938    5.3920    0.0000 C   0  0  0  0  0  0  0  0  0  0  0  0
    7.2242   -6.7146    0.0000 C   0  0  0  0  0  0  0  0  0  0  0  0
    2.5359    7.7146    0.0000 C   0  0  0  0  0  0  0  0  0  0  0  0
    5.7005    6.3056    0.0000 C   0  0  0  0  0  0  0  0  0  0  0  0
    7.2242   -7.7146    0.0000 C   0  0  0  0  0  0  0  0  0  0  0  0
    2.6477    0.7273    0.0000 H   0  0  0  0  0  0  0  0  0  0  0  0
    4.8665    0.9532    0.0000 H   0  0  0  0  0  0  0  0  0  0  0  0
    4.1953    1.4409    0.0000 H   0  0  0  0  0  0  0  0  0  0  0  0
    3.1495   -1.6069    0.0000 H   0  0  0  0  0  0  0  0  0  0  0  0
    3.5480   -2.2972    0.0000 H   0  0  0  0  0  0  0  0  0  0  0  0
    2.0557    1.5685    0.0000 H   0  0  0  0  0  0  0  0  0  0  0  0
    5.2367   -2.3222    0.0000 H   0  0  0  0  0  0  0  0  0  0  0  0
    4.8382   -1.6319    0.0000 H   0  0  0  0  0  0  0  0  0  0  0  0
    3.5930    2.2002    0.0000 H   0  0  0  0  0  0  0  0  0  0  0  0
    3.5097    2.9928    0.0000 H   0  0  0  0  0  0  0  0  0  0  0  0
    1.9772    3.7026    0.0000 H   0  0  0  0  0  0  0  0  0  0  0  0
    2.0606    2.9099    0.0000 H   0  0  0  0  0  0  0  0  0  0  0  0
    4.0155   -3.1069    0.0000 H   0  0  0  0  0  0  0  0  0  0  0  0
    4.4140   -3.7972    0.0000 H   0  0  0  0  0  0  0  0  0  0  0  0
    6.1027   -3.8222    0.0000 H   0  0  0  0  0  0  0  0  0  0  0  0
    5.7042   -3.1319    0.0000 H   0  0  0  0  0  0  0  0  0  0  0  0
    1.7962    5.4251    0.0000 H   0  0  0  0  0  0  0  0  0  0  0  0
    1.8795    4.6325    0.0000 H   0  0  0  0  0  0  0  0  0  0  0  0
    3.8492    3.7555    0.0000 H   0  0  0  0  0  0  0  0  0  0  0  0
    4.4941    4.2240    0.0000 H   0  0  0  0  0  0  0  0  0  0  0  0
    4.8815   -4.6069    0.0000 H   0  0  0  0  0  0  0  0  0  0  0  0
    5.2801   -5.2972    0.0000 H   0  0  0  0  0  0  0  0  0  0  0  0
    3.2309    5.6453    0.0000 H   0  0  0  0  0  0  0  0  0  0  0  0
    3.1476    6.4380    0.0000 H   0  0  0  0  0  0  0  0  0  0  0  0
    4.3425    5.9060    0.0000 H   0  0  0  0  0  0  0  0  0  0  0  0
    3.6976    5.4375    0.0000 H   0  0  0  0  0  0  0  0  0  0  0  0
    6.9687   -5.3222    0.0000 H   0  0  0  0  0  0  0  0  0  0  0  0
    6.5702   -4.6319    0.0000 H   0  0  0  0  0  0  0  0  0  0  0  0
    5.7476   -6.1069    0.0000 H   0  0  0  0  0  0  0  0  0  0  0  0
    6.1461   -6.7972    0.0000 H   0  0  0  0  0  0  0  0  0  0  0  0
    1.6151    7.1477    0.0000 H   0  0  0  0  0  0  0  0  0  0  0  0
    1.6984    6.3550    0.0000 H   0  0  0  0  0  0  0  0  0  0  0  0
    5.2505    4.7735    0.0000 H   0  0  0  0  0  0  0  0  0  0  0  0
    5.8953    5.2420    0.0000 H   0  0  0  0  0  0  0  0  0  0  0  0
    7.8348   -6.8222    0.0000 H   0  0  0  0  0  0  0  0  0  0  0  0
    7.4362   -6.1319    0.0000 H   0  0  0  0  0  0  0  0  0  0  0  0
    3.1023    7.4624    0.0000 H   0  0  0  0  0  0  0  0  0  0  0  0
    2.7881    8.2809    0.0000 H   0  0  0  0  0  0  0  0  0  0  0  0
    1.9695    7.9667    0.0000 H   0  0  0  0  0  0  0  0  0  0  0  0
    6.2669    6.0534    0.0000 H   0  0  0  0  0  0  0  0  0  0  0  0
    5.9527    6.8720    0.0000 H   0  0  0  0  0  0  0  0  0  0  0  0
    5.1341    6.5578    0.0000 H   0  0  0  0  0  0  0  0  0  0  0  0
    6.6042   -7.7146    0.0000 H   0  0  0  0  0  0  0  0  0  0  0  0
    7.2242   -8.3346    0.0000 H   0  0  0  0  0  0  0  0  0  0  0  0
    7.8442   -7.7146    0.0000 H   0  0  0  0  0  0  0  0  0  0  0  0
  1  9  2  0  0  0  0
  2 13  2  0  0  0  0
  3  8  1  0  0  0  0
  3  9  1  0  0  0  0
  3 13  1  0  0  0  0
  4  6  1  0  0  0  0
  4 11  1  0  0  0  0
  4 34  1  0  0  0  0
  5 12  1  0  0  0  0
  5 16  1  0  0  0  0
  5 17  1  0  0  0  0
  6  7  1  0  0  0  0
  6  9  1  0  0  0  0
  6 29  1  0  0  0  0
  7 13  1  0  0  0  0
  7 30  1  0  0  0  0
  7 31  1  0  0  0  0
  8 10  1  0  0  0  0
  8 32  1  0  0  0  0
  8 33  1  0  0  0  0
 10 14  1  0  0  0  0
 10 35  1  0  0  0  0
 10 36  1  0  0  0  0
 11 12  1  0  0  0  0
 11 37  1  0  0  0  0
 11 38  1  0  0  0  0
 12 39  1  0  0  0  0
 12 40  1  0  0  0  0
 14 15  1  0  0  0  0
 14 41  1  0  0  0  0
 14 42  1  0  0  0  0
 15 18  1  0  0  0  0
 15 43  1  0  0  0  0
 15 44  1  0  0  0  0
 16 19  1  0  0  0  0
 16 45  1  0  0  0  0
 16 46  1  0  0  0  0
 17 20  1  0  0  0  0
 17 47  1  0  0  0  0
 17 48  1  0  0  0  0
 18 21  1  0  0  0  0
 18 49  1  0  0  0  0
 18 50  1  0  0  0  0
 19 23  1  0  0  0  0
 19 51  1  0  0  0  0
 19 52  1  0  0  0  0
 20 24  1  0  0  0  0
 20 53  1  0  0  0  0
 20 54  1  0  0  0  0
 21 22  1  0  0  0  0
 21 55  1  0  0  0  0
 21 56  1  0  0  0  0
 22 25  1  0  0  0  0
 22 57  1  0  0  0  0
 22 58  1  0  0  0  0
 23 26  1  0  0  0  0
 23 59  1  0  0  0  0
 23 60  1  0  0  0  0
 24 27  1  0  0  0  0
 24 61  1  0  0  0  0
 24 62  1  0  0  0  0
 25 28  1  0  0  0  0
 25 63  1  0  0  0  0
 25 64  1  0  0  0  0
 26 65  1  0  0  0  0
 26 66  1  0  0  0  0
 26 67  1  0  0  0  0
 27 68  1  0  0  0  0
 27 69  1  0  0  0  0
 27 70  1  0  0  0  0
 28 71  1  0  0  0  0
 28 72  1  0  0  0  0
 28 73  1  0  0  0  0
M  END
> <PUBCHEM_COMPOUND_CID>
512857
> <PUBCHEM_COMPOUND_CANONICALIZED>
1
> <PUBCHEM_CACTVS_COMPLEXITY>
420
> <PUBCHEM_CACTVS_HBOND_ACCEPTOR>
4
> <PUBCHEM_CACTVS_HBOND_DONOR>
1
> <PUBCHEM_CACTVS_ROTATABLE_BOND>
18
> <PUBCHEM_CACTVS_SUBSKEYS>
AAADcfB7MAAAAAAAAAAAAAAAAAAAAWAAAAAAAAAAAAAAAAAAAAAAHgAQAAAACCjBgAQCAAPAAAAIAAEQEAAAAAAAAAAAAIGIAAAAQBoAwCAUAAAAFiCAAAEVgIAAAAAAAAAAAAAAAAAAAAAAAAAAAAAAAA==
> <PUBCHEM_IUPAC_OPENEYE_NAME>
3-[2-(dibutylamino)ethylamino]-1-nonyl-pyrrolidine-2,5-dione
> <PUBCHEM_IUPAC_CAS_NAME>
3-[2-(dibutylamino)ethylamino]-1-nonylpyrrolidine-2,5-dione
> <PUBCHEM_IUPAC_NAME_MARKUP>
3-[2-(dibutylamino)ethylamino]-1-nonylpyrrolidine-2,5-dione
> <PUBCHEM_IUPAC_NAME>
3-[2-(dibutylamino)ethylamino]-1-nonylpyrrolidine-2,5-dione
> <PUBCHEM_IUPAC_SYSTEMATIC_NAME>
3-[2-(dibutylamino)ethylamino]-1-nonyl-pyrrolidine-2,5-dione
> <PUBCHEM_IUPAC_TRADITIONAL_NAME>
3-[2-(dibutylamino)ethylamino]-1-nonyl-pyrrolidine-2,5-quinone
> <PUBCHEM_IUPAC_INCHI>
InChI=1S/C23H45N3O2/c1-4-7-10-11-12-13-14-18-26-22(27)20-21(23(26)28)24-15-19-25(16-8-5-2)17-9-6-3/h21,24H,4-20H2,1-3H3
> <PUBCHEM_IUPAC_INCHIKEY>
GJMMWORXESVRKW-UHFFFAOYSA-N
> <PUBCHEM_XLOGP3_AA>
5.3
> <PUBCHEM_EXACT_MASS>
395.35117769
> <PUBCHEM_MOLECULAR_FORMULA>
C23H45N3O2
> <PUBCHEM_MOLECULAR_WEIGHT>
395.6
> <PUBCHEM_OPENEYE_CAN_SMILES>
CCCCCCCCCN1C(=O)CC(C1=O)NCCN(CCCC)CCCC
> <PUBCHEM_OPENEYE_ISO_SMILES>
CCCCCCCCCN1C(=O)CC(C1=O)NCCN(CCCC)CCCC
> <PUBCHEM_CACTVS_TPSA>
52.6
> <PUBCHEM_MONOISOTOPIC_WEIGHT>
395.35117769
> <PUBCHEM_TOTAL_CHARGE>
0
> <PUBCHEM_HEAVY_ATOM_COUNT>
28
> <PUBCHEM_ATOM_DEF_STEREO_COUNT>
0
> <PUBCHEM_ATOM_UDEF_STEREO_COUNT>
1
> <PUBCHEM_BOND_DEF_STEREO_COUNT>
0
> <PUBCHEM_BOND_UDEF_STEREO_COUNT>
0
> <PUBCHEM_ISOTOPIC_ATOM_COUNT>
0
> <PUBCHEM_COMPONENT_COUNT>
1
> <PUBCHEM_CACTVS_TAUTO_COUNT>
-1
> <PUBCHEM_COORDINATE_TYPE>
1
5
255
> <PUBCHEM_BONDANNOTATIONS>
6  4  3
$$$$
