512856
  -OEChem-10302200282D
 62 63  0     1  0  0  0  0  0999 V2000
    4.5981    0.4059    0.0000 S   0  0  0  0  0  0  0  0  0  0  0  0
    4.8255    2.5695    0.0000 O   0  0  0  0  0  0  0  0  0  0  0  0
    8.0413    1.1377    0.0000 O   0  0  0  0  0  0  0  0  0  0  0  0
    2.0000   -2.0941    0.0000 O   0  0  0  0  0  0  0  0  0  0  0  0
    2.0000   -7.0941    0.0000 O   0  5  0  0  0  0  0  0  0  0  0  0
    3.7320   -7.0941    0.0000 O   0  0  0  0  0  0  0  0  0  0  0  0
    6.5468    2.1083    0.0000 N   0  0  0  0  0  0  0  0  0  0  0  0
    3.7320   -2.0941    0.0000 N   0  0  0  0  0  0  0  0  0  0  0  0
    2.8660   -6.5941    0.0000 N   0  3  0  0  0  0  0  0  0  0  0  0
    7.9480    3.1264    0.0000 C   0  0  0  0  0  0  0  0  0  0  0  0
    6.9535    3.0218    0.0000 C   0  0  0  0  0  0  0  0  0  0  0  0
    8.3548    4.0399    0.0000 C   0  0  0  0  0  0  0  0  0  0  0  0
    9.3493    4.1444    0.0000 C   0  0  0  0  0  0  0  0  0  0  0  0
    5.4641    0.9059    0.0000 C   0  0  3  0  0  0  0  0  0  0  0  0
    6.3776    0.4991    0.0000 C   0  0  0  0  0  0  0  0  0  0  0  0
    9.7560    5.0580    0.0000 C   0  0  0  0  0  0  0  0  0  0  0  0
    5.5686    1.9004    0.0000 C   0  0  0  0  0  0  0  0  0  0  0  0
    7.0468    1.2423    0.0000 C   0  0  0  0  0  0  0  0  0  0  0  0
   10.7506    5.1625    0.0000 C   0  0  0  0  0  0  0  0  0  0  0  0
   11.1573    6.0761    0.0000 C   0  0  0  0  0  0  0  0  0  0  0  0
   12.1518    6.1806    0.0000 C   0  0  0  0  0  0  0  0  0  0  0  0
    4.5981   -0.5941    0.0000 C   0  0  0  0  0  0  0  0  0  0  0  0
    3.7320   -1.0941    0.0000 C   0  0  0  0  0  0  0  0  0  0  0  0
   12.5585    7.0941    0.0000 C   0  0  0  0  0  0  0  0  0  0  0  0
    2.8660   -2.5941    0.0000 C   0  0  0  0  0  0  0  0  0  0  0  0
    2.8660   -3.5941    0.0000 C   0  0  0  0  0  0  0  0  0  0  0  0
    3.7320   -4.0941    0.0000 C   0  0  0  0  0  0  0  0  0  0  0  0
    2.0000   -4.0941    0.0000 C   0  0  0  0  0  0  0  0  0  0  0  0
    3.7320   -5.0941    0.0000 C   0  0  0  0  0  0  0  0  0  0  0  0
    2.0000   -5.0941    0.0000 C   0  0  0  0  0  0  0  0  0  0  0  0
    2.8660   -5.5941    0.0000 C   0  0  0  0  0  0  0  0  0  0  0  0
    7.9048    2.5079    0.0000 H   0  0  0  0  0  0  0  0  0  0  0  0
    8.5496    2.9764    0.0000 H   0  0  0  0  0  0  0  0  0  0  0  0
    6.9968    3.6403    0.0000 H   0  0  0  0  0  0  0  0  0  0  0  0
    6.3519    3.1718    0.0000 H   0  0  0  0  0  0  0  0  0  0  0  0
    8.3980    4.6584    0.0000 H   0  0  0  0  0  0  0  0  0  0  0  0
    7.7532    4.1899    0.0000 H   0  0  0  0  0  0  0  0  0  0  0  0
    4.9441    1.2435    0.0000 H   0  0  0  0  0  0  0  0  0  0  0  0
    9.3061    3.5260    0.0000 H   0  0  0  0  0  0  0  0  0  0  0  0
    9.9509    3.9944    0.0000 H   0  0  0  0  0  0  0  0  0  0  0  0
    6.0677   -0.0378    0.0000 H   0  0  0  0  0  0  0  0  0  0  0  0
    6.8792    0.1347    0.0000 H   0  0  0  0  0  0  0  0  0  0  0  0
    9.7993    5.6765    0.0000 H   0  0  0  0  0  0  0  0  0  0  0  0
    9.1544    5.2080    0.0000 H   0  0  0  0  0  0  0  0  0  0  0  0
   10.7073    4.5440    0.0000 H   0  0  0  0  0  0  0  0  0  0  0  0
   11.3521    5.0125    0.0000 H   0  0  0  0  0  0  0  0  0  0  0  0
   11.2005    6.6946    0.0000 H   0  0  0  0  0  0  0  0  0  0  0  0
   10.5557    6.2261    0.0000 H   0  0  0  0  0  0  0  0  0  0  0  0
   12.1086    5.5621    0.0000 H   0  0  0  0  0  0  0  0  0  0  0  0
   12.7534    6.0306    0.0000 H   0  0  0  0  0  0  0  0  0  0  0  0
    4.8101   -1.1768    0.0000 H   0  0  0  0  0  0  0  0  0  0  0  0
    5.2087   -0.4865    0.0000 H   0  0  0  0  0  0  0  0  0  0  0  0
    3.5200   -0.5115    0.0000 H   0  0  0  0  0  0  0  0  0  0  0  0
    3.1215   -1.2018    0.0000 H   0  0  0  0  0  0  0  0  0  0  0  0
   13.1249    6.8420    0.0000 H   0  0  0  0  0  0  0  0  0  0  0  0
   12.8107    7.6605    0.0000 H   0  0  0  0  0  0  0  0  0  0  0  0
   11.9922    7.3463    0.0000 H   0  0  0  0  0  0  0  0  0  0  0  0
    4.2690   -2.4041    0.0000 H   0  0  0  0  0  0  0  0  0  0  0  0
    4.2690   -3.7841    0.0000 H   0  0  0  0  0  0  0  0  0  0  0  0
    1.4631   -3.7841    0.0000 H   0  0  0  0  0  0  0  0  0  0  0  0
    4.2690   -5.4041    0.0000 H   0  0  0  0  0  0  0  0  0  0  0  0
    1.4631   -5.4041    0.0000 H   0  0  0  0  0  0  0  0  0  0  0  0
  1 14  1  0  0  0  0
  1 22  1  0  0  0  0
  2 17  2  0  0  0  0
  3 18  2  0  0  0  0
  4 25  2  0  0  0  0
  5  9  1  0  0  0  0
  6  9  2  0  0  0  0
  7 11  1  0  0  0  0
  7 17  1  0  0  0  0
  7 18  1  0  0  0  0
  8 23  1  0  0  0  0
  8 25  1  0  0  0  0
  8 58  1  0  0  0  0
  9 31  1  0  0  0  0
 10 11  1  0  0  0  0
 10 12  1  0  0  0  0
 10 32  1  0  0  0  0
 10 33  1  0  0  0  0
 11 34  1  0  0  0  0
 11 35  1  0  0  0  0
 12 13  1  0  0  0  0
 12 36  1  0  0  0  0
 12 37  1  0  0  0  0
 13 16  1  0  0  0  0
 13 39  1  0  0  0  0
 13 40  1  0  0  0  0
 14 15  1  0  0  0  0
 14 17  1  0  0  0  0
 14 38  1  0  0  0  0
 15 18  1  0  0  0  0
 15 41  1  0  0  0  0
 15 42  1  0  0  0  0
 16 19  1  0  0  0  0
 16 43  1  0  0  0  0
 16 44  1  0  0  0  0
 19 20  1  0  0  0  0
 19 45  1  0  0  0  0
 19 46  1  0  0  0  0
 20 21  1  0  0  0  0
 20 47  1  0  0  0  0
 20 48  1  0  0  0  0
 21 24  1  0  0  0  0
 21 49  1  0  0  0  0
 21 50  1  0  0  0  0
 22 23  1  0  0  0  0
 22 51  1  0  0  0  0
 22 52  1  0  0  0  0
 23 53  1  0  0  0  0
 23 54  1  0  0  0  0
 24 55  1  0  0  0  0
 24 56  1  0  0  0  0
 24 57  1  0  0  0  0
 25 26  1  0  0  0  0
 26 27  2  0  0  0  0
 26 28  1  0  0  0  0
 27 29  1  0  0  0  0
 27 59  1  0  0  0  0
 28 30  2  0  0  0  0
 28 60  1  0  0  0  0
 29 31  2  0  0  0  0
 29 61  1  0  0  0  0
 30 31  1  0  0  0  0
 30 62  1  0  0  0  0
M  CHG  2   5  -1   9   1
M  END
> <PUBCHEM_COMPOUND_CID>
512856
> <PUBCHEM_COMPOUND_CANONICALIZED>
1
> <PUBCHEM_CACTVS_COMPLEXITY>
617
> <PUBCHEM_CACTVS_HBOND_ACCEPTOR>
6
> <PUBCHEM_CACTVS_HBOND_DONOR>
1
> <PUBCHEM_CACTVS_ROTATABLE_BOND>
13
> <PUBCHEM_CACTVS_SUBSKEYS>
AAADceB7OABAAAAAAAAAAAAAAAAAAWAAAAAwAAAAAAAAAAABAAAAHgQUAAAADAjF2ASywIPQQAiJAiVSUwCCAAAkAhAoiIEIZMoIIDKglZGEIQhgliCoyYcdiYCeCAAAAAAAAAAQAAAAAAAAAAAAAAAAAA==
> <PUBCHEM_IUPAC_OPENEYE_NAME>
4-nitro-N-[2-(1-nonyl-2,5-dioxo-pyrrolidin-3-yl)sulfanylethyl]benzamide
> <PUBCHEM_IUPAC_CAS_NAME>
4-nitro-N-[2-[(1-nonyl-2,5-dioxo-3-pyrrolidinyl)thio]ethyl]benzamide
> <PUBCHEM_IUPAC_NAME_MARKUP>
4-nitro-<I>N</I>-[2-(1-nonyl-2,5-dioxopyrrolidin-3-yl)sulfanylethyl]benzamide
> <PUBCHEM_IUPAC_NAME>
4-nitro-N-[2-(1-nonyl-2,5-dioxopyrrolidin-3-yl)sulfanylethyl]benzamide
> <PUBCHEM_IUPAC_SYSTEMATIC_NAME>
4-nitro-N-[2-[1-nonyl-2,5-bis(oxidanylidene)pyrrolidin-3-yl]sulfanylethyl]benzamide
> <PUBCHEM_IUPAC_TRADITIONAL_NAME>
N-[2-[(2,5-diketo-1-nonyl-pyrrolidin-3-yl)thio]ethyl]-4-nitro-benzamide
> <PUBCHEM_IUPAC_INCHI>
InChI=1S/C22H31N3O5S/c1-2-3-4-5-6-7-8-14-24-20(26)16-19(22(24)28)31-15-13-23-21(27)17-9-11-18(12-10-17)25(29)30/h9-12,19H,2-8,13-16H2,1H3,(H,23,27)
> <PUBCHEM_IUPAC_INCHIKEY>
ZAHJYOXJMURVAI-UHFFFAOYSA-N
> <PUBCHEM_XLOGP3_AA>
4.7
> <PUBCHEM_EXACT_MASS>
449.19844227
> <PUBCHEM_MOLECULAR_FORMULA>
C22H31N3O5S
> <PUBCHEM_MOLECULAR_WEIGHT>
449.6
> <PUBCHEM_OPENEYE_CAN_SMILES>
CCCCCCCCCN1C(=O)CC(C1=O)SCCNC(=O)C2=CC=C(C=C2)[N+](=O)[O-]
> <PUBCHEM_OPENEYE_ISO_SMILES>
CCCCCCCCCN1C(=O)CC(C1=O)SCCNC(=O)C2=CC=C(C=C2)[N+](=O)[O-]
> <PUBCHEM_CACTVS_TPSA>
138
> <PUBCHEM_MONOISOTOPIC_WEIGHT>
449.19844227
> <PUBCHEM_TOTAL_CHARGE>
0
> <PUBCHEM_HEAVY_ATOM_COUNT>
31
> <PUBCHEM_ATOM_DEF_STEREO_COUNT>
0
> <PUBCHEM_ATOM_UDEF_STEREO_COUNT>
1
> <PUBCHEM_BOND_DEF_STEREO_COUNT>
0
> <PUBCHEM_BOND_UDEF_STEREO_COUNT>
0
> <PUBCHEM_ISOTOPIC_ATOM_COUNT>
0
> <PUBCHEM_COMPONENT_COUNT>
1
> <PUBCHEM_CACTVS_TAUTO_COUNT>
-1
> <PUBCHEM_COORDINATE_TYPE>
1
5
255
> <PUBCHEM_BONDANNOTATIONS>
14  1  3
26  27  8
26  28  8
27  29  8
28  30  8
29  31  8
30  31  8
$$$$
