512892
  -OEChem-10302200282D
 76 79  0     1  0  0  0  0  0999 V2000
    2.0000   -3.1445    0.0000 F   0  0  0  0  0  0  0  0  0  0  0  0
    4.0000   -3.1445    0.0000 F   0  0  0  0  0  0  0  0  0  0  0  0
    3.7661    7.1445    0.0000 F   0  0  0  0  0  0  0  0  0  0  0  0
    3.0000   -7.1445    0.0000 F   0  0  0  0  0  0  0  0  0  0  0  0
    9.4793    4.6008    0.0000 O   0  0  0  0  0  0  0  0  0  0  0  0
    8.0781    5.6189    0.0000 O   0  0  0  0  0  0  0  0  0  0  0  0
    6.3147    3.1919    0.0000 N   0  0  3  0  0  0  0  0  0  0  0  0
    3.8660    1.3555    0.0000 N   0  0  0  0  0  0  0  0  0  0  0  0
    4.7320    2.8555    0.0000 C   0  0  2  0  0  0  0  0  0  0  0  0
    4.8366    3.8500    0.0000 C   0  0  2  0  0  0  0  0  0  0  0  0
    5.6456    2.4487    0.0000 C   0  0  0  0  0  0  0  0  0  0  0  0
    3.8660    2.3555    0.0000 C   0  0  0  0  0  0  0  0  0  0  0  0
    5.8147    4.0579    0.0000 C   0  0  0  0  0  0  0  0  0  0  0  0
    3.8660   -0.6445    0.0000 C   0  0  0  0  0  0  0  0  0  0  0  0
    3.0000    0.8555    0.0000 C   0  0  0  0  0  0  0  0  0  0  0  0
    4.7320    0.8555    0.0000 C   0  0  0  0  0  0  0  0  0  0  0  0
    7.3092    3.0873    0.0000 C   0  0  0  0  0  0  0  0  0  0  0  0
    3.0000   -0.1445    0.0000 C   0  0  0  0  0  0  0  0  0  0  0  0
    4.7320   -0.1445    0.0000 C   0  0  0  0  0  0  0  0  0  0  0  0
    4.0934    4.5191    0.0000 C   0  0  0  0  0  0  0  0  0  0  0  0
    7.8970    3.8964    0.0000 C   0  0  0  0  0  0  0  0  0  0  0  0
    3.8660   -1.6445    0.0000 C   0  0  0  0  0  0  0  0  0  0  0  0
    3.0000   -2.1445    0.0000 C   0  0  0  0  0  0  0  0  0  0  0  0
    4.3014    5.4973    0.0000 C   0  0  0  0  0  0  0  0  0  0  0  0
    3.1424    4.2101    0.0000 C   0  0  0  0  0  0  0  0  0  0  0  0
    8.7060    3.3086    0.0000 C   0  0  0  0  0  0  0  0  0  0  0  0
    7.0880    4.4841    0.0000 C   0  0  0  0  0  0  0  0  0  0  0  0
    8.4848    4.7054    0.0000 C   0  0  0  0  0  0  0  0  0  0  0  0
    3.0000   -3.1445    0.0000 C   0  0  0  0  0  0  0  0  0  0  0  0
    3.5582    6.1664    0.0000 C   0  0  0  0  0  0  0  0  0  0  0  0
    2.3992    4.8792    0.0000 C   0  0  0  0  0  0  0  0  0  0  0  0
    2.6071    5.8574    0.0000 C   0  0  0  0  0  0  0  0  0  0  0  0
    3.0000   -4.1445    0.0000 C   0  0  0  0  0  0  0  0  0  0  0  0
    3.8660   -4.6445    0.0000 C   0  0  0  0  0  0  0  0  0  0  0  0
    2.1340   -4.6445    0.0000 C   0  0  0  0  0  0  0  0  0  0  0  0
    3.8660   -5.6445    0.0000 C   0  0  0  0  0  0  0  0  0  0  0  0
    2.1340   -5.6445    0.0000 C   0  0  0  0  0  0  0  0  0  0  0  0
    3.0000   -6.1445    0.0000 C   0  0  0  0  0  0  0  0  0  0  0  0
    4.2121    3.1931    0.0000 H   0  0  0  0  0  0  0  0  0  0  0  0
    4.9970    4.4489    0.0000 H   0  0  0  0  0  0  0  0  0  0  0  0
    5.3356    1.9118    0.0000 H   0  0  0  0  0  0  0  0  0  0  0  0
    6.1472    2.0843    0.0000 H   0  0  0  0  0  0  0  0  0  0  0  0
    3.6540    2.9381    0.0000 H   0  0  0  0  0  0  0  0  0  0  0  0
    3.2554    2.2478    0.0000 H   0  0  0  0  0  0  0  0  0  0  0  0
    6.3811    4.3101    0.0000 H   0  0  0  0  0  0  0  0  0  0  0  0
    5.6231    4.6476    0.0000 H   0  0  0  0  0  0  0  0  0  0  0  0
    4.4030   -0.9545    0.0000 H   0  0  0  0  0  0  0  0  0  0  0  0
    2.7880    1.4381    0.0000 H   0  0  0  0  0  0  0  0  0  0  0  0
    2.3894    0.7478    0.0000 H   0  0  0  0  0  0  0  0  0  0  0  0
    5.3426    0.7478    0.0000 H   0  0  0  0  0  0  0  0  0  0  0  0
    4.9441    1.4381    0.0000 H   0  0  0  0  0  0  0  0  0  0  0  0
    7.1384    2.4914    0.0000 H   0  0  0  0  0  0  0  0  0  0  0  0
    7.8665    2.8156    0.0000 H   0  0  0  0  0  0  0  0  0  0  0  0
    2.3894   -0.0369    0.0000 H   0  0  0  0  0  0  0  0  0  0  0  0
    2.7880   -0.7271    0.0000 H   0  0  0  0  0  0  0  0  0  0  0  0
    4.9441   -0.7271    0.0000 H   0  0  0  0  0  0  0  0  0  0  0  0
    5.3426   -0.0369    0.0000 H   0  0  0  0  0  0  0  0  0  0  0  0
    4.0781   -2.2272    0.0000 H   0  0  0  0  0  0  0  0  0  0  0  0
    4.4766   -1.5369    0.0000 H   0  0  0  0  0  0  0  0  0  0  0  0
    2.7880   -1.5619    0.0000 H   0  0  0  0  0  0  0  0  0  0  0  0
    2.3894   -2.2522    0.0000 H   0  0  0  0  0  0  0  0  0  0  0  0
    4.8910    5.6889    0.0000 H   0  0  0  0  0  0  0  0  0  0  0  0
    3.0135    3.6036    0.0000 H   0  0  0  0  0  0  0  0  0  0  0  0
    8.3416    2.8070    0.0000 H   0  0  0  0  0  0  0  0  0  0  0  0
    9.2076    2.9442    0.0000 H   0  0  0  0  0  0  0  0  0  0  0  0
    9.0705    3.8102    0.0000 H   0  0  0  0  0  0  0  0  0  0  0  0
    7.4524    4.9857    0.0000 H   0  0  0  0  0  0  0  0  0  0  0  0
    6.5864    4.8486    0.0000 H   0  0  0  0  0  0  0  0  0  0  0  0
    6.7236    3.9826    0.0000 H   0  0  0  0  0  0  0  0  0  0  0  0
    1.8096    4.6876    0.0000 H   0  0  0  0  0  0  0  0  0  0  0  0
    2.1464    6.2722    0.0000 H   0  0  0  0  0  0  0  0  0  0  0  0
    9.8438    5.1024    0.0000 H   0  0  0  0  0  0  0  0  0  0  0  0
    4.4030   -4.3345    0.0000 H   0  0  0  0  0  0  0  0  0  0  0  0
    1.5970   -4.3345    0.0000 H   0  0  0  0  0  0  0  0  0  0  0  0
    4.4030   -5.9545    0.0000 H   0  0  0  0  0  0  0  0  0  0  0  0
    1.5970   -5.9545    0.0000 H   0  0  0  0  0  0  0  0  0  0  0  0
  1 29  1  0  0  0  0
  2 29  1  0  0  0  0
  3 30  1  0  0  0  0
  4 38  1  0  0  0  0
  5 28  1  0  0  0  0
  5 72  1  0  0  0  0
  6 28  2  0  0  0  0
  7 11  1  0  0  0  0
  7 13  1  0  0  0  0
  7 17  1  0  0  0  0
  8 12  1  0  0  0  0
  8 15  1  0  0  0  0
  8 16  1  0  0  0  0
  9 10  1  0  0  0  0
  9 11  1  0  0  0  0
  9 12  1  6  0  0  0
  9 39  1  0  0  0  0
 10 13  1  0  0  0  0
 10 20  1  1  0  0  0
 10 40  1  0  0  0  0
 11 41  1  0  0  0  0
 11 42  1  0  0  0  0
 12 43  1  0  0  0  0
 12 44  1  0  0  0  0
 13 45  1  0  0  0  0
 13 46  1  0  0  0  0
 14 18  1  0  0  0  0
 14 19  1  0  0  0  0
 14 22  1  0  0  0  0
 14 47  1  0  0  0  0
 15 18  1  0  0  0  0
 15 48  1  0  0  0  0
 15 49  1  0  0  0  0
 16 19  1  0  0  0  0
 16 50  1  0  0  0  0
 16 51  1  0  0  0  0
 17 21  1  0  0  0  0
 17 52  1  0  0  0  0
 17 53  1  0  0  0  0
 18 54  1  0  0  0  0
 18 55  1  0  0  0  0
 19 56  1  0  0  0  0
 19 57  1  0  0  0  0
 20 24  2  0  0  0  0
 20 25  1  0  0  0  0
 21 26  1  0  0  0  0
 21 27  1  0  0  0  0
 21 28  1  0  0  0  0
 22 23  1  0  0  0  0
 22 58  1  0  0  0  0
 22 59  1  0  0  0  0
 23 29  1  0  0  0  0
 23 60  1  0  0  0  0
 23 61  1  0  0  0  0
 24 30  1  0  0  0  0
 24 62  1  0  0  0  0
 25 31  2  0  0  0  0
 25 63  1  0  0  0  0
 26 64  1  0  0  0  0
 26 65  1  0  0  0  0
 26 66  1  0  0  0  0
 27 67  1  0  0  0  0
 27 68  1  0  0  0  0
 27 69  1  0  0  0  0
 29 33  1  0  0  0  0
 30 32  2  0  0  0  0
 31 32  1  0  0  0  0
 31 70  1  0  0  0  0
 32 71  1  0  0  0  0
 33 34  2  0  0  0  0
 33 35  1  0  0  0  0
 34 36  1  0  0  0  0
 34 73  1  0  0  0  0
 35 37  2  0  0  0  0
 35 74  1  0  0  0  0
 36 38  2  0  0  0  0
 36 75  1  0  0  0  0
 37 38  1  0  0  0  0
 37 76  1  0  0  0  0
M  END
> <PUBCHEM_COMPOUND_CID>
512892
> <PUBCHEM_COMPOUND_CANONICALIZED>
1
> <PUBCHEM_CACTVS_COMPLEXITY>
765
> <PUBCHEM_CACTVS_HBOND_ACCEPTOR>
8
> <PUBCHEM_CACTVS_HBOND_DONOR>
1
> <PUBCHEM_CACTVS_ROTATABLE_BOND>
10
> <PUBCHEM_CACTVS_SUBSKEYS>
AAADcfB7McAAAAAAAAAAAAAAAAAAAWAAAAA8YIAAAAAAAAABQAAAHwAACAAADwDBmBwyCIMAAgCIAiDSCAACAAAgAAAIiAEIAIgIICqA0RGEYAAigACIiAcQgMAOgAAAAAAAAAAAAAAAAAAAAAAAAAAAAA==
> <PUBCHEM_IUPAC_OPENEYE_NAME>
3-[(3S,4S)-3-[[4-[3,3-difluoro-3-(4-fluorophenyl)propyl]-1-piperidyl]methyl]-4-(3-fluorophenyl)pyrrolidin-1-yl]-2,2-dimethyl-propanoic acid
> <PUBCHEM_IUPAC_CAS_NAME>
3-[(3S,4S)-3-[[4-[3,3-difluoro-3-(4-fluorophenyl)propyl]-1-piperidinyl]methyl]-4-(3-fluorophenyl)-1-pyrrolidinyl]-2,2-dimethylpropanoic acid
> <PUBCHEM_IUPAC_NAME_MARKUP>
3-[(3<I>S</I>,4<I>S</I>)-3-[[4-[3,3-difluoro-3-(4-fluorophenyl)propyl]piperidin-1-yl]methyl]-4-(3-fluorophenyl)pyrrolidin-1-yl]-2,2-dimethylpropanoic acid
> <PUBCHEM_IUPAC_NAME>
3-[(3S,4S)-3-[[4-[3,3-difluoro-3-(4-fluorophenyl)propyl]piperidin-1-yl]methyl]-4-(3-fluorophenyl)pyrrolidin-1-yl]-2,2-dimethylpropanoic acid
> <PUBCHEM_IUPAC_SYSTEMATIC_NAME>
3-[(3S,4S)-3-[[4-[3,3-bis(fluoranyl)-3-(4-fluorophenyl)propyl]piperidin-1-yl]methyl]-4-(3-fluorophenyl)pyrrolidin-1-yl]-2,2-dimethyl-propanoic acid
> <PUBCHEM_IUPAC_TRADITIONAL_NAME>
3-[(3S,4S)-3-[[4-[3,3-difluoro-3-(4-fluorophenyl)propyl]piperidino]methyl]-4-(3-fluorophenyl)pyrrolidino]-2,2-dimethyl-propionic acid
> <PUBCHEM_IUPAC_INCHI>
InChI=1S/C30H38F4N2O2/c1-29(2,28(37)38)20-36-18-23(27(19-36)22-4-3-5-26(32)16-22)17-35-14-11-21(12-15-35)10-13-30(33,34)24-6-8-25(31)9-7-24/h3-9,16,21,23,27H,10-15,17-20H2,1-2H3,(H,37,38)/t23-,27+/m0/s1
> <PUBCHEM_IUPAC_INCHIKEY>
XGSGISINPURWEC-WNCULLNHSA-N
> <PUBCHEM_XLOGP3_AA>
4
> <PUBCHEM_EXACT_MASS>
534.28694111
> <PUBCHEM_MOLECULAR_FORMULA>
C30H38F4N2O2
> <PUBCHEM_MOLECULAR_WEIGHT>
534.6
> <PUBCHEM_OPENEYE_CAN_SMILES>
CC(C)(CN1CC(C(C1)C2=CC(=CC=C2)F)CN3CCC(CC3)CCC(C4=CC=C(C=C4)F)(F)F)C(=O)O
> <PUBCHEM_OPENEYE_ISO_SMILES>
CC(C)(CN1C[C@@H]([C@H](C1)C2=CC(=CC=C2)F)CN3CCC(CC3)CCC(C4=CC=C(C=C4)F)(F)F)C(=O)O
> <PUBCHEM_CACTVS_TPSA>
43.8
> <PUBCHEM_MONOISOTOPIC_WEIGHT>
534.28694111
> <PUBCHEM_TOTAL_CHARGE>
0
> <PUBCHEM_HEAVY_ATOM_COUNT>
38
> <PUBCHEM_ATOM_DEF_STEREO_COUNT>
2
> <PUBCHEM_ATOM_UDEF_STEREO_COUNT>
0
> <PUBCHEM_BOND_DEF_STEREO_COUNT>
0
> <PUBCHEM_BOND_UDEF_STEREO_COUNT>
0
> <PUBCHEM_ISOTOPIC_ATOM_COUNT>
0
> <PUBCHEM_COMPONENT_COUNT>
1
> <PUBCHEM_CACTVS_TAUTO_COUNT>
-1
> <PUBCHEM_COORDINATE_TYPE>
1
5
255
> <PUBCHEM_BONDANNOTATIONS>
10  20  5
20  24  8
20  25  8
24  30  8
25  31  8
30  32  8
31  32  8
33  34  8
33  35  8
34  36  8
35  37  8
36  38  8
37  38  8
9  12  6
$$$$
