512870
  -OEChem-10302200282D
 72 74  0     1  0  0  0  0  0999 V2000
    5.5000    1.2010    0.0000 O   0  0  0  0  0  0  0  0  0  0  0  0
    7.2320   -1.7990    0.0000 O   0  0  0  0  0  0  0  0  0  0  0  0
    5.5000   -0.7990    0.0000 O   0  0  0  0  0  0  0  0  0  0  0  0
    5.5000    2.9330    0.0000 O   0  0  0  0  0  0  0  0  0  0  0  0
    5.5000   -1.7990    0.0000 O   0  0  0  0  0  0  0  0  0  0  0  0
    3.5000    1.2010    0.0000 O   0  0  0  0  0  0  0  0  0  0  0  0
    4.0000    4.7990    0.0000 O   0  0  0  0  0  0  0  0  0  0  0  0
    5.5000   -4.7990    0.0000 O   0  0  0  0  0  0  0  0  0  0  0  0
    3.7680   -3.7990    0.0000 O   0  0  0  0  0  0  0  0  0  0  0  0
    7.7320    2.0670    0.0000 N   0  0  0  0  0  0  0  0  0  0  0  0
    8.9641   -0.7990    0.0000 N   0  0  0  0  0  0  0  0  0  0  0  0
    2.5000    2.9330    0.0000 N   0  0  0  0  0  0  0  0  0  0  0  0
    7.2320   -3.7990    0.0000 N   0  0  0  0  0  0  0  0  0  0  0  0
    2.9019   -2.2990    0.0000 N   0  0  0  0  0  0  0  0  0  0  0  0
    6.3660    0.7010    0.0000 C   0  0  2  0  0  0  0  0  0  0  0  0
    7.2320   -0.7990    0.0000 C   0  0  1  0  0  0  0  0  0  0  0  0
    6.3660   -0.2990    0.0000 C   0  0  2  0  0  0  0  0  0  0  0  0
    7.2320    1.2010    0.0000 C   0  0  1  0  0  0  0  0  0  0  0  0
    8.0981   -0.2990    0.0000 C   0  0  2  0  0  0  0  0  0  0  0  0
    8.0981    0.7010    0.0000 C   0  0  0  0  0  0  0  0  0  0  0  0
    5.0000    2.0670    0.0000 C   0  0  1  0  0  0  0  0  0  0  0  0
    3.5000    2.9330    0.0000 C   0  0  2  0  0  0  0  0  0  0  0  0
    6.3660   -2.2990    0.0000 C   0  0  1  0  0  0  0  0  0  0  0  0
    4.0000    2.0670    0.0000 C   0  0  1  0  0  0  0  0  0  0  0  0
    4.0000    3.7990    0.0000 C   0  0  2  0  0  0  0  0  0  0  0  0
    6.3660   -3.2990    0.0000 C   0  0  1  0  0  0  0  0  0  0  0  0
    5.5000   -3.7990    0.0000 C   0  0  2  0  0  0  0  0  0  0  0  0
    4.6340   -3.2990    0.0000 C   0  0  1  0  0  0  0  0  0  0  0  0
    5.0000    3.7990    0.0000 C   0  0  0  0  0  0  0  0  0  0  0  0
    4.6340   -2.2990    0.0000 C   0  0  1  0  0  0  0  0  0  0  0  0
    3.1340    4.2990    0.0000 C   0  0  0  0  0  0  0  0  0  0  0  0
    3.7680   -1.7990    0.0000 C   0  0  0  0  0  0  0  0  0  0  0  0
    2.0000    2.0670    0.0000 C   0  0  0  0  0  0  0  0  0  0  0  0
    5.8291    0.3910    0.0000 H   0  0  0  0  0  0  0  0  0  0  0  0
    7.7690   -1.1090    0.0000 H   0  0  0  0  0  0  0  0  0  0  0  0
    6.3660   -0.9190    0.0000 H   0  0  0  0  0  0  0  0  0  0  0  0
    6.7936    1.6394    0.0000 H   0  0  0  0  0  0  0  0  0  0  0  0
    8.6350    0.0110    0.0000 H   0  0  0  0  0  0  0  0  0  0  0  0
    8.7087    0.5933    0.0000 H   0  0  0  0  0  0  0  0  0  0  0  0
    8.3101    1.2836    0.0000 H   0  0  0  0  0  0  0  0  0  0  0  0
    4.6900    1.5300    0.0000 H   0  0  0  0  0  0  0  0  0  0  0  0
    3.1900    3.4700    0.0000 H   0  0  0  0  0  0  0  0  0  0  0  0
    6.9030   -2.6090    0.0000 H   0  0  0  0  0  0  0  0  0  0  0  0
    3.3800    2.0670    0.0000 H   0  0  0  0  0  0  0  0  0  0  0  0
    6.9030   -2.9890    0.0000 H   0  0  0  0  0  0  0  0  0  0  0  0
    6.0369   -4.1090    0.0000 H   0  0  0  0  0  0  0  0  0  0  0  0
    4.6340   -3.9190    0.0000 H   0  0  0  0  0  0  0  0  0  0  0  0
    5.5826    4.0111    0.0000 H   0  0  0  0  0  0  0  0  0  0  0  0
    4.8923    4.4096    0.0000 H   0  0  0  0  0  0  0  0  0  0  0  0
    4.6340   -1.6790    0.0000 H   0  0  0  0  0  0  0  0  0  0  0  0
    8.3520    2.0670    0.0000 H   0  0  0  0  0  0  0  0  0  0  0  0
    7.4220    2.6039    0.0000 H   0  0  0  0  0  0  0  0  0  0  0  0
    9.5010   -0.4890    0.0000 H   0  0  0  0  0  0  0  0  0  0  0  0
    8.9641   -1.4190    0.0000 H   0  0  0  0  0  0  0  0  0  0  0  0
    4.9631   -0.4890    0.0000 H   0  0  0  0  0  0  0  0  0  0  0  0
    3.4440    4.8360    0.0000 H   0  0  0  0  0  0  0  0  0  0  0  0
    2.5970    4.6090    0.0000 H   0  0  0  0  0  0  0  0  0  0  0  0
    2.8240    3.7621    0.0000 H   0  0  0  0  0  0  0  0  0  0  0  0
    2.1900    3.4700    0.0000 H   0  0  0  0  0  0  0  0  0  0  0  0
    4.1665   -1.3241    0.0000 H   0  0  0  0  0  0  0  0  0  0  0  0
    3.3694   -1.3241    0.0000 H   0  0  0  0  0  0  0  0  0  0  0  0
    7.2320   -4.4190    0.0000 H   0  0  0  0  0  0  0  0  0  0  0  0
    7.7690   -3.4890    0.0000 H   0  0  0  0  0  0  0  0  0  0  0  0
    3.8100    0.6640    0.0000 H   0  0  0  0  0  0  0  0  0  0  0  0
    4.5369    5.1090    0.0000 H   0  0  0  0  0  0  0  0  0  0  0  0
    4.9631   -5.1090    0.0000 H   0  0  0  0  0  0  0  0  0  0  0  0
    3.7680   -4.4190    0.0000 H   0  0  0  0  0  0  0  0  0  0  0  0
    1.4631    2.3770    0.0000 H   0  0  0  0  0  0  0  0  0  0  0  0
    1.6900    1.5300    0.0000 H   0  0  0  0  0  0  0  0  0  0  0  0
    2.5369    1.7570    0.0000 H   0  0  0  0  0  0  0  0  0  0  0  0
    2.3650   -1.9890    0.0000 H   0  0  0  0  0  0  0  0  0  0  0  0
    2.9019   -2.9190    0.0000 H   0  0  0  0  0  0  0  0  0  0  0  0
 15  1  1  1  0  0  0
 21  1  1  6  0  0  0
 16  2  1  1  0  0  0
 23  2  1  6  0  0  0
 17  3  1  6  0  0  0
  3 55  1  0  0  0  0
  4 21  1  0  0  0  0
  4 29  1  0  0  0  0
  5 23  1  0  0  0  0
  5 30  1  0  0  0  0
 24  6  1  6  0  0  0
  6 64  1  0  0  0  0
 25  7  1  1  0  0  0
  7 65  1  0  0  0  0
 27  8  1  1  0  0  0
  8 66  1  0  0  0  0
 28  9  1  6  0  0  0
  9 67  1  0  0  0  0
 18 10  1  6  0  0  0
 10 51  1  0  0  0  0
 10 52  1  0  0  0  0
 19 11  1  6  0  0  0
 11 53  1  0  0  0  0
 11 54  1  0  0  0  0
 22 12  1  1  0  0  0
 12 33  1  0  0  0  0
 12 59  1  0  0  0  0
 26 13  1  6  0  0  0
 13 62  1  0  0  0  0
 13 63  1  0  0  0  0
 14 32  1  0  0  0  0
 14 71  1  0  0  0  0
 14 72  1  0  0  0  0
 15 17  1  0  0  0  0
 15 18  1  0  0  0  0
 15 34  1  0  0  0  0
 16 17  1  0  0  0  0
 16 19  1  0  0  0  0
 16 35  1  0  0  0  0
 17 36  1  0  0  0  0
 18 20  1  0  0  0  0
 18 37  1  0  0  0  0
 19 20  1  0  0  0  0
 19 38  1  0  0  0  0
 20 39  1  0  0  0  0
 20 40  1  0  0  0  0
 21 24  1  0  0  0  0
 21 41  1  0  0  0  0
 22 24  1  0  0  0  0
 22 25  1  0  0  0  0
 22 42  1  0  0  0  0
 23 26  1  0  0  0  0
 23 43  1  0  0  0  0
 24 44  1  0  0  0  0
 25 29  1  0  0  0  0
 25 31  1  0  0  0  0
 26 27  1  0  0  0  0
 26 45  1  0  0  0  0
 27 28  1  0  0  0  0
 27 46  1  0  0  0  0
 28 30  1  0  0  0  0
 28 47  1  0  0  0  0
 29 48  1  0  0  0  0
 29 49  1  0  0  0  0
 30 32  1  1  0  0  0
 30 50  1  0  0  0  0
 31 56  1  0  0  0  0
 31 57  1  0  0  0  0
 31 58  1  0  0  0  0
 32 60  1  0  0  0  0
 32 61  1  0  0  0  0
 33 68  1  0  0  0  0
 33 69  1  0  0  0  0
 33 70  1  0  0  0  0
M  END
> <PUBCHEM_COMPOUND_CID>
512870
> <PUBCHEM_COMPOUND_CANONICALIZED>
1
> <PUBCHEM_CACTVS_COMPLEXITY>
653
> <PUBCHEM_CACTVS_HBOND_ACCEPTOR>
14
> <PUBCHEM_CACTVS_HBOND_DONOR>
10
> <PUBCHEM_CACTVS_ROTATABLE_BOND>
6
> <PUBCHEM_CACTVS_SUBSKEYS>
AAADcfB7vAAAAAAAAAAAAAAAAAAAAAAAAAA0SIAAAAAAAAAAAAAAHgAQCAAADHzxgAcCCALABgAAAAAAAAAAAAAAAAAAAIAIAAATEAIAwAAnQAAHEAAXAAHwcA0MAAAAAAAAAAAAgAAUCACgAAAAAAAAAA==
> <PUBCHEM_IUPAC_OPENEYE_NAME>
(2R,3R,4R,5R)-2-[(1S,2S,3R,4S,6R)-4,6-diamino-3-[(2R,3R,4R,5S,6R)-3-amino-6-(aminomethyl)-4,5-dihydroxy-tetrahydropyran-2-yl]oxy-2-hydroxy-cyclohexoxy]-5-methyl-4-(methylamino)tetrahydropyran-3,5-diol
> <PUBCHEM_IUPAC_CAS_NAME>
(2R,3R,4R,5R)-2-[(1S,2S,3R,4S,6R)-4,6-diamino-3-[[(2R,3R,4R,5S,6R)-3-amino-6-(aminomethyl)-4,5-dihydroxy-2-oxanyl]oxy]-2-hydroxycyclohexyl]oxy-5-methyl-4-(methylamino)oxane-3,5-diol
> <PUBCHEM_IUPAC_NAME_MARKUP>
(2<I>R</I>,3<I>R</I>,4<I>R</I>,5<I>R</I>)-2-[(1<I>S</I>,2<I>S</I>,3<I>R</I>,4<I>S</I>,6<I>R</I>)-4,6-diamino-3-[(2<I>R</I>,3<I>R</I>,4<I>R</I>,5<I>S</I>,6<I>R</I>)-3-amino-6-(aminomethyl)-4,5-dihydroxyoxan-2-yl]oxy-2-hydroxycyclohexyl]oxy-5-methyl-4-(methylamino)oxane-3,5-diol
> <PUBCHEM_IUPAC_NAME>
(2R,3R,4R,5R)-2-[(1S,2S,3R,4S,6R)-4,6-diamino-3-[(2R,3R,4R,5S,6R)-3-amino-6-(aminomethyl)-4,5-dihydroxyoxan-2-yl]oxy-2-hydroxycyclohexyl]oxy-5-methyl-4-(methylamino)oxane-3,5-diol
> <PUBCHEM_IUPAC_SYSTEMATIC_NAME>
(2R,3R,4R,5R)-2-[(1S,2S,3R,4S,6R)-3-[(2R,3R,4R,5S,6R)-6-(aminomethyl)-3-azanyl-4,5-bis(oxidanyl)oxan-2-yl]oxy-4,6-bis(azanyl)-2-oxidanyl-cyclohexyl]oxy-5-methyl-4-(methylamino)oxane-3,5-diol
> <PUBCHEM_IUPAC_TRADITIONAL_NAME>
(2R,3R,4R,5R)-2-[(1S,2S,3R,4S,6R)-4,6-diamino-3-[(2R,3R,4R,5S,6R)-3-amino-6-(aminomethyl)-4,5-dihydroxy-tetrahydropyran-2-yl]oxy-2-hydroxy-cyclohexoxy]-5-methyl-4-(methylamino)tetrahydropyran-3,5-diol
> <PUBCHEM_IUPAC_INCHI>
InChI=1S/C19H39N5O9/c1-19(29)5-30-18(13(28)16(19)24-2)33-15-7(22)3-6(21)14(12(15)27)32-17-9(23)11(26)10(25)8(4-20)31-17/h6-18,24-29H,3-5,20-23H2,1-2H3/t6-,7+,8+,9+,10+,11+,12-,13+,14+,15-,16+,17+,18+,19-/m0/s1
> <PUBCHEM_IUPAC_INCHIKEY>
YQGZDAPJXRYYLX-ZFAMMYHGSA-N
> <PUBCHEM_XLOGP3_AA>
-6.4
> <PUBCHEM_EXACT_MASS>
481.27477784
> <PUBCHEM_MOLECULAR_FORMULA>
C19H39N5O9
> <PUBCHEM_MOLECULAR_WEIGHT>
481.5
> <PUBCHEM_OPENEYE_CAN_SMILES>
CC1(COC(C(C1NC)O)OC2C(CC(C(C2O)OC3C(C(C(C(O3)CN)O)O)N)N)N)O
> <PUBCHEM_OPENEYE_ISO_SMILES>
C[C@@]1(CO[C@@H]([C@@H]([C@H]1NC)O)O[C@H]2[C@@H](C[C@@H]([C@H]([C@@H]2O)O[C@@H]3[C@@H]([C@H]([C@@H]([C@H](O3)CN)O)O)N)N)N)O
> <PUBCHEM_CACTVS_TPSA>
254
> <PUBCHEM_MONOISOTOPIC_WEIGHT>
481.27477784
> <PUBCHEM_TOTAL_CHARGE>
0
> <PUBCHEM_HEAVY_ATOM_COUNT>
33
> <PUBCHEM_ATOM_DEF_STEREO_COUNT>
14
> <PUBCHEM_ATOM_UDEF_STEREO_COUNT>
0
> <PUBCHEM_BOND_DEF_STEREO_COUNT>
0
> <PUBCHEM_BOND_UDEF_STEREO_COUNT>
0
> <PUBCHEM_ISOTOPIC_ATOM_COUNT>
0
> <PUBCHEM_COMPONENT_COUNT>
1
> <PUBCHEM_CACTVS_TAUTO_COUNT>
1
> <PUBCHEM_COORDINATE_TYPE>
1
5
255
> <PUBCHEM_BONDANNOTATIONS>
15  1  5
21  1  6
18  10  6
19  11  6
22  12  5
26  13  6
16  2  5
23  2  6
17  3  6
30  32  5
24  6  6
25  7  5
27  8  5
28  9  6
$$$$
