512869
  -OEChem-10302200282D
 30 31  0     1  0  0  0  0  0999 V2000
    5.0298   -1.1307    0.0000 O   0  0  0  0  0  0  0  0  0  0  0  0
    2.4608   -0.8216    0.0000 O   0  0  0  0  0  0  0  0  0  0  0  0
    3.1330   -2.8907    0.0000 O   0  0  0  0  0  0  0  0  0  0  0  0
    6.3031   -2.7862    0.0000 O   0  0  0  0  0  0  0  0  0  0  0  0
    2.4888    0.4571    0.0000 O   0  0  0  0  0  0  0  0  0  0  0  0
    5.9529    0.4571    0.0000 O   0  0  0  0  0  0  0  0  0  0  0  0
    4.2208    3.4571    0.0000 O   0  0  0  0  0  0  0  0  0  0  0  0
    4.2208    0.4571    0.0000 N   0  0  0  0  0  0  0  0  0  0  0  0
    5.0868    1.9571    0.0000 N   0  0  0  0  0  0  0  0  0  0  0  0
    3.4118   -1.1307    0.0000 C   0  0  1  0  0  0  0  0  0  0  0  0
    4.2208   -0.5429    0.0000 C   0  0  1  0  0  0  0  0  0  0  0  0
    3.7208   -2.0817    0.0000 C   0  0  1  0  0  0  0  0  0  0  0  0
    4.7208   -2.0817    0.0000 C   0  0  1  0  0  0  0  0  0  0  0  0
    5.3086   -2.8907    0.0000 C   0  0  0  0  0  0  0  0  0  0  0  0
    3.3548    0.9571    0.0000 C   0  0  0  0  0  0  0  0  0  0  0  0
    5.0868    0.9571    0.0000 C   0  0  0  0  0  0  0  0  0  0  0  0
    3.3548    1.9571    0.0000 C   0  0  0  0  0  0  0  0  0  0  0  0
    4.2208    2.4571    0.0000 C   0  0  0  0  0  0  0  0  0  0  0  0
    2.9734   -1.5691    0.0000 H   0  0  0  0  0  0  0  0  0  0  0  0
    3.6684   -0.2614    0.0000 H   0  0  0  0  0  0  0  0  0  0  0  0
    3.1085   -1.9847    0.0000 H   0  0  0  0  0  0  0  0  0  0  0  0
    5.3332   -1.9847    0.0000 H   0  0  0  0  0  0  0  0  0  0  0  0
    4.7514   -3.1625    0.0000 H   0  0  0  0  0  0  0  0  0  0  0  0
    5.4795   -3.4867    0.0000 H   0  0  0  0  0  0  0  0  0  0  0  0
    2.0000   -1.2365    0.0000 H   0  0  0  0  0  0  0  0  0  0  0  0
    3.3852   -3.4571    0.0000 H   0  0  0  0  0  0  0  0  0  0  0  0
    3.1428    2.5397    0.0000 H   0  0  0  0  0  0  0  0  0  0  0  0
    2.7442    1.8495    0.0000 H   0  0  0  0  0  0  0  0  0  0  0  0
    5.6238    2.2671    0.0000 H   0  0  0  0  0  0  0  0  0  0  0  0
    6.6676   -3.2878    0.0000 H   0  0  0  0  0  0  0  0  0  0  0  0
  1 11  1  0  0  0  0
  1 13  1  0  0  0  0
 10  2  1  1  0  0  0
  2 25  1  0  0  0  0
 12  3  1  1  0  0  0
  3 26  1  0  0  0  0
  4 14  1  0  0  0  0
  4 30  1  0  0  0  0
  5 15  2  0  0  0  0
  6 16  2  0  0  0  0
  7 18  2  0  0  0  0
 11  8  1  6  0  0  0
  8 15  1  0  0  0  0
  8 16  1  0  0  0  0
  9 16  1  0  0  0  0
  9 18  1  0  0  0  0
  9 29  1  0  0  0  0
 10 11  1  0  0  0  0
 10 12  1  0  0  0  0
 10 19  1  0  0  0  0
 11 20  1  0  0  0  0
 12 13  1  0  0  0  0
 12 21  1  0  0  0  0
 13 14  1  6  0  0  0
 13 22  1  0  0  0  0
 14 23  1  0  0  0  0
 14 24  1  0  0  0  0
 15 17  1  0  0  0  0
 17 18  1  0  0  0  0
 17 27  1  0  0  0  0
 17 28  1  0  0  0  0
M  END
> <PUBCHEM_COMPOUND_CID>
512869
> <PUBCHEM_COMPOUND_CANONICALIZED>
1
> <PUBCHEM_CACTVS_COMPLEXITY>
398
> <PUBCHEM_CACTVS_HBOND_ACCEPTOR>
7
> <PUBCHEM_CACTVS_HBOND_DONOR>
4
> <PUBCHEM_CACTVS_ROTATABLE_BOND>
2
> <PUBCHEM_CACTVS_SUBSKEYS>
AAADccBzOAAAAAAAAAAAAAAAAAAAASAAAAAsAAAAAAAAAAAAAAAAHgAQCAAACBThgAYBAAPABgAIAAEQEAAAAAAAAAAAAAEIAACDEAoIwAAOQAAPFyKTAADwMAIAAAAAAAAAAAAAAAAAAAAAAAAAAAAAAA==
> <PUBCHEM_IUPAC_OPENEYE_NAME>
1-[(2R,3R,4S,5R)-3,4-dihydroxy-5-(hydroxymethyl)tetrahydrofuran-2-yl]hexahydropyrimidine-2,4,6-trione
> <PUBCHEM_IUPAC_CAS_NAME>
1-[(2R,3R,4S,5R)-3,4-dihydroxy-5-(hydroxymethyl)-2-oxolanyl]-1,3-diazinane-2,4,6-trione
> <PUBCHEM_IUPAC_NAME_MARKUP>
1-[(2<I>R</I>,3<I>R</I>,4<I>S</I>,5<I>R</I>)-3,4-dihydroxy-5-(hydroxymethyl)oxolan-2-yl]-1,3-diazinane-2,4,6-trione
> <PUBCHEM_IUPAC_NAME>
1-[(2R,3R,4S,5R)-3,4-dihydroxy-5-(hydroxymethyl)oxolan-2-yl]-1,3-diazinane-2,4,6-trione
> <PUBCHEM_IUPAC_SYSTEMATIC_NAME>
1-[(2R,3R,4S,5R)-5-(hydroxymethyl)-3,4-bis(oxidanyl)oxolan-2-yl]-1,3-diazinane-2,4,6-trione
> <PUBCHEM_IUPAC_TRADITIONAL_NAME>
1-[(2R,3R,4S,5R)-3,4-dihydroxy-5-methylol-tetrahydrofuran-2-yl]barbituric acid
> <PUBCHEM_IUPAC_INCHI>
InChI=1S/C9H12N2O7/c12-2-3-6(15)7(16)8(18-3)11-5(14)1-4(13)10-9(11)17/h3,6-8,12,15-16H,1-2H2,(H,10,13,17)/t3-,6-,7-,8-/m1/s1
> <PUBCHEM_IUPAC_INCHIKEY>
ORKMJGCPXNATJL-YXZULKJRSA-N
> <PUBCHEM_XLOGP3>
-2.2
> <PUBCHEM_EXACT_MASS>
260.06445073
> <PUBCHEM_MOLECULAR_FORMULA>
C9H12N2O7
> <PUBCHEM_MOLECULAR_WEIGHT>
260.20
> <PUBCHEM_OPENEYE_CAN_SMILES>
C1C(=O)NC(=O)N(C1=O)C2C(C(C(O2)CO)O)O
> <PUBCHEM_OPENEYE_ISO_SMILES>
C1C(=O)NC(=O)N(C1=O)[C@H]2[C@@H]([C@@H]([C@H](O2)CO)O)O
> <PUBCHEM_CACTVS_TPSA>
136
> <PUBCHEM_MONOISOTOPIC_WEIGHT>
260.06445073
> <PUBCHEM_TOTAL_CHARGE>
0
> <PUBCHEM_HEAVY_ATOM_COUNT>
18
> <PUBCHEM_ATOM_DEF_STEREO_COUNT>
4
> <PUBCHEM_ATOM_UDEF_STEREO_COUNT>
0
> <PUBCHEM_BOND_DEF_STEREO_COUNT>
0
> <PUBCHEM_BOND_UDEF_STEREO_COUNT>
0
> <PUBCHEM_ISOTOPIC_ATOM_COUNT>
0
> <PUBCHEM_COMPONENT_COUNT>
1
> <PUBCHEM_CACTVS_TAUTO_COUNT>
8
> <PUBCHEM_COORDINATE_TYPE>
1
5
255
> <PUBCHEM_BONDANNOTATIONS>
13  14  6
10  2  5
12  3  5
11  8  6
$$$$
