512841
  -OEChem-10302200282D
 48 48  0     1  0  0  0  0  0999 V2000
    3.5400    2.1682    0.0000 S   0  0  0  0  0  0  0  0  0  0  0  0
    2.8677    0.0991    0.0000 O   0  0  0  0  0  0  0  0  0  0  0  0
    6.3879    0.0991    0.0000 O   0  0  0  0  0  0  0  0  0  0  0  0
    3.1779    5.6133    0.0000 O   0  0  0  0  0  0  0  0  0  0  0  0
    4.7602    4.9088    0.0000 O   0  0  0  0  0  0  0  0  0  0  0  0
    4.6278   -0.1797    0.0000 N   0  0  0  0  0  0  0  0  0  0  0  0
    2.3644    3.7862    0.0000 N   0  0  0  0  0  0  0  0  0  0  0  0
    4.6278   -1.1797    0.0000 C   0  0  0  0  0  0  0  0  0  0  0  0
    5.4938   -1.6797    0.0000 C   0  0  0  0  0  0  0  0  0  0  0  0
    4.1278    1.3592    0.0000 C   0  0  3  0  0  0  0  0  0  0  0  0
    5.4938   -2.6797    0.0000 C   0  0  0  0  0  0  0  0  0  0  0  0
    5.1278    1.3592    0.0000 C   0  0  0  0  0  0  0  0  0  0  0  0
    6.3598   -3.1797    0.0000 C   0  0  0  0  0  0  0  0  0  0  0  0
    3.8188    0.4081    0.0000 C   0  0  0  0  0  0  0  0  0  0  0  0
    5.4368    0.4081    0.0000 C   0  0  0  0  0  0  0  0  0  0  0  0
    6.3598   -4.1797    0.0000 C   0  0  0  0  0  0  0  0  0  0  0  0
    7.2259   -4.6797    0.0000 C   0  0  0  0  0  0  0  0  0  0  0  0
    7.2259   -5.6797    0.0000 C   0  0  0  0  0  0  0  0  0  0  0  0
    3.9467    3.0817    0.0000 C   0  0  0  0  0  0  0  0  0  0  0  0
    3.3590    3.8907    0.0000 C   0  0  3  0  0  0  0  0  0  0  0  0
    8.0919   -6.1797    0.0000 C   0  0  0  0  0  0  0  0  0  0  0  0
    3.7657    4.8043    0.0000 C   0  0  0  0  0  0  0  0  0  0  0  0
    4.0172   -1.0720    0.0000 H   0  0  0  0  0  0  0  0  0  0  0  0
    4.4157   -1.7623    0.0000 H   0  0  0  0  0  0  0  0  0  0  0  0
    6.1044   -1.7874    0.0000 H   0  0  0  0  0  0  0  0  0  0  0  0
    5.7059   -1.0971    0.0000 H   0  0  0  0  0  0  0  0  0  0  0  0
    4.4093    1.9116    0.0000 H   0  0  0  0  0  0  0  0  0  0  0  0
    4.8832   -2.5720    0.0000 H   0  0  0  0  0  0  0  0  0  0  0  0
    5.2818   -3.2623    0.0000 H   0  0  0  0  0  0  0  0  0  0  0  0
    5.7342    1.4881    0.0000 H   0  0  0  0  0  0  0  0  0  0  0  0
    5.0630    1.9758    0.0000 H   0  0  0  0  0  0  0  0  0  0  0  0
    6.9704   -3.2874    0.0000 H   0  0  0  0  0  0  0  0  0  0  0  0
    6.5719   -2.5971    0.0000 H   0  0  0  0  0  0  0  0  0  0  0  0
    5.7492   -4.0720    0.0000 H   0  0  0  0  0  0  0  0  0  0  0  0
    6.1478   -4.7623    0.0000 H   0  0  0  0  0  0  0  0  0  0  0  0
    7.8364   -4.7874    0.0000 H   0  0  0  0  0  0  0  0  0  0  0  0
    7.4379   -4.0971    0.0000 H   0  0  0  0  0  0  0  0  0  0  0  0
    6.6153   -5.5720    0.0000 H   0  0  0  0  0  0  0  0  0  0  0  0
    7.0138   -6.2623    0.0000 H   0  0  0  0  0  0  0  0  0  0  0  0
    4.4607    2.7350    0.0000 H   0  0  0  0  0  0  0  0  0  0  0  0
    4.3774    3.5277    0.0000 H   0  0  0  0  0  0  0  0  0  0  0  0
    2.9945    4.3923    0.0000 H   0  0  0  0  0  0  0  0  0  0  0  0
    7.7819   -6.7166    0.0000 H   0  0  0  0  0  0  0  0  0  0  0  0
    8.6288   -6.4897    0.0000 H   0  0  0  0  0  0  0  0  0  0  0  0
    8.4019   -5.6428    0.0000 H   0  0  0  0  0  0  0  0  0  0  0  0
    2.0000    4.2878    0.0000 H   0  0  0  0  0  0  0  0  0  0  0  0
    2.1122    3.2198    0.0000 H   0  0  0  0  0  0  0  0  0  0  0  0
    3.4301    6.1797    0.0000 H   0  0  0  0  0  0  0  0  0  0  0  0
  1 10  1  0  0  0  0
  1 19  1  0  0  0  0
  2 14  2  0  0  0  0
  3 15  2  0  0  0  0
  4 22  1  0  0  0  0
  4 48  1  0  0  0  0
  5 22  2  0  0  0  0
  6  8  1  0  0  0  0
  6 14  1  0  0  0  0
  6 15  1  0  0  0  0
  7 20  1  0  0  0  0
  7 46  1  0  0  0  0
  7 47  1  0  0  0  0
  8  9  1  0  0  0  0
  8 23  1  0  0  0  0
  8 24  1  0  0  0  0
  9 11  1  0  0  0  0
  9 25  1  0  0  0  0
  9 26  1  0  0  0  0
 10 12  1  0  0  0  0
 10 14  1  0  0  0  0
 10 27  1  0  0  0  0
 11 13  1  0  0  0  0
 11 28  1  0  0  0  0
 11 29  1  0  0  0  0
 12 15  1  0  0  0  0
 12 30  1  0  0  0  0
 12 31  1  0  0  0  0
 13 16  1  0  0  0  0
 13 32  1  0  0  0  0
 13 33  1  0  0  0  0
 16 17  1  0  0  0  0
 16 34  1  0  0  0  0
 16 35  1  0  0  0  0
 17 18  1  0  0  0  0
 17 36  1  0  0  0  0
 17 37  1  0  0  0  0
 18 21  1  0  0  0  0
 18 38  1  0  0  0  0
 18 39  1  0  0  0  0
 19 20  1  0  0  0  0
 19 40  1  0  0  0  0
 19 41  1  0  0  0  0
 20 22  1  0  0  0  0
 20 42  1  0  0  0  0
 21 43  1  0  0  0  0
 21 44  1  0  0  0  0
 21 45  1  0  0  0  0
M  END
> <PUBCHEM_COMPOUND_CID>
512841
> <PUBCHEM_COMPOUND_CANONICALIZED>
1
> <PUBCHEM_CACTVS_COMPLEXITY>
403
> <PUBCHEM_CACTVS_HBOND_ACCEPTOR>
6
> <PUBCHEM_CACTVS_HBOND_DONOR>
2
> <PUBCHEM_CACTVS_ROTATABLE_BOND>
11
> <PUBCHEM_CACTVS_SUBSKEYS>
AAADceBzOABAAAAAAAAAAAAAAAAAAWAAAAAAAAAAAAAAAAAAAAAAHgQQCAAACCjFwASCCANAAggIAAGQGAAAAAAAABAAAIGIAAACABIggAAEQAAAFiCgAAEVgIAAAAAAAAAAAAAAAAAAAAAAAAAAAAAAAA==
> <PUBCHEM_IUPAC_OPENEYE_NAME>
2-amino-3-(1-octyl-2,5-dioxo-pyrrolidin-3-yl)sulfanyl-propanoic acid
> <PUBCHEM_IUPAC_CAS_NAME>
2-amino-3-[(1-octyl-2,5-dioxo-3-pyrrolidinyl)thio]propanoic acid
> <PUBCHEM_IUPAC_NAME_MARKUP>
2-amino-3-(1-octyl-2,5-dioxopyrrolidin-3-yl)sulfanylpropanoic acid
> <PUBCHEM_IUPAC_NAME>
2-amino-3-(1-octyl-2,5-dioxopyrrolidin-3-yl)sulfanylpropanoic acid
> <PUBCHEM_IUPAC_SYSTEMATIC_NAME>
2-azanyl-3-[1-octyl-2,5-bis(oxidanylidene)pyrrolidin-3-yl]sulfanyl-propanoic acid
> <PUBCHEM_IUPAC_TRADITIONAL_NAME>
2-amino-3-[(2,5-diketo-1-octyl-pyrrolidin-3-yl)thio]propionic acid
> <PUBCHEM_IUPAC_INCHI>
InChI=1S/C15H26N2O4S/c1-2-3-4-5-6-7-8-17-13(18)9-12(14(17)19)22-10-11(16)15(20)21/h11-12H,2-10,16H2,1H3,(H,20,21)
> <PUBCHEM_IUPAC_INCHIKEY>
CUZBSYJIOSXPFB-UHFFFAOYSA-N
> <PUBCHEM_XLOGP3_AA>
-0.2
> <PUBCHEM_EXACT_MASS>
330.16132849
> <PUBCHEM_MOLECULAR_FORMULA>
C15H26N2O4S
> <PUBCHEM_MOLECULAR_WEIGHT>
330.4
> <PUBCHEM_OPENEYE_CAN_SMILES>
CCCCCCCCN1C(=O)CC(C1=O)SCC(C(=O)O)N
> <PUBCHEM_OPENEYE_ISO_SMILES>
CCCCCCCCN1C(=O)CC(C1=O)SCC(C(=O)O)N
> <PUBCHEM_CACTVS_TPSA>
126
> <PUBCHEM_MONOISOTOPIC_WEIGHT>
330.16132849
> <PUBCHEM_TOTAL_CHARGE>
0
> <PUBCHEM_HEAVY_ATOM_COUNT>
22
> <PUBCHEM_ATOM_DEF_STEREO_COUNT>
0
> <PUBCHEM_ATOM_UDEF_STEREO_COUNT>
2
> <PUBCHEM_BOND_DEF_STEREO_COUNT>
0
> <PUBCHEM_BOND_UDEF_STEREO_COUNT>
0
> <PUBCHEM_ISOTOPIC_ATOM_COUNT>
0
> <PUBCHEM_COMPONENT_COUNT>
1
> <PUBCHEM_CACTVS_TAUTO_COUNT>
-1
> <PUBCHEM_COORDINATE_TYPE>
1
5
255
> <PUBCHEM_BONDANNOTATIONS>
10  1  3
20  7  3
$$$$
