512836
  -OEChem-10302200282D
 62 62  0     1  0  0  0  0  0999 V2000
    2.0000   -0.4358    0.0000 O   0  0  0  0  0  0  0  0  0  0  0  0
    5.5202   -0.4358    0.0000 O   0  0  0  0  0  0  0  0  0  0  0  0
    3.7601   -0.7145    0.0000 N   0  0  0  0  0  0  0  0  0  0  0  0
    2.6723    1.6333    0.0000 N   0  0  0  0  0  0  0  0  0  0  0  0
    3.2601    0.8243    0.0000 C   0  0  3  0  0  0  0  0  0  0  0  0
    4.2601    0.8243    0.0000 C   0  0  0  0  0  0  0  0  0  0  0  0
    3.7601   -1.7146    0.0000 C   0  0  0  0  0  0  0  0  0  0  0  0
    2.9511   -0.1268    0.0000 C   0  0  0  0  0  0  0  0  0  0  0  0
    4.6261   -2.2146    0.0000 C   0  0  0  0  0  0  0  0  0  0  0  0
    4.5691   -0.1268    0.0000 C   0  0  0  0  0  0  0  0  0  0  0  0
    4.6261   -3.2146    0.0000 C   0  0  0  0  0  0  0  0  0  0  0  0
    5.4921   -3.7146    0.0000 C   0  0  0  0  0  0  0  0  0  0  0  0
    3.0790    2.5469    0.0000 C   0  0  0  0  0  0  0  0  0  0  0  0
    2.4912    3.3559    0.0000 C   0  0  0  0  0  0  0  0  0  0  0  0
    5.4921   -4.7146    0.0000 C   0  0  0  0  0  0  0  0  0  0  0  0
    2.8980    4.2694    0.0000 C   0  0  0  0  0  0  0  0  0  0  0  0
    6.3582   -5.2146    0.0000 C   0  0  0  0  0  0  0  0  0  0  0  0
    2.3102    5.0784    0.0000 C   0  0  0  0  0  0  0  0  0  0  0  0
    6.3582   -6.2146    0.0000 C   0  0  0  0  0  0  0  0  0  0  0  0
    2.7169    5.9920    0.0000 C   0  0  0  0  0  0  0  0  0  0  0  0
    7.2242   -6.7146    0.0000 C   0  0  0  0  0  0  0  0  0  0  0  0
    2.1291    6.8010    0.0000 C   0  0  0  0  0  0  0  0  0  0  0  0
    7.2242   -7.7146    0.0000 C   0  0  0  0  0  0  0  0  0  0  0  0
    2.5359    7.7146    0.0000 C   0  0  0  0  0  0  0  0  0  0  0  0
    2.6477    0.7273    0.0000 H   0  0  0  0  0  0  0  0  0  0  0  0
    4.8665    0.9532    0.0000 H   0  0  0  0  0  0  0  0  0  0  0  0
    4.1953    1.4409    0.0000 H   0  0  0  0  0  0  0  0  0  0  0  0
    3.1495   -1.6069    0.0000 H   0  0  0  0  0  0  0  0  0  0  0  0
    3.5480   -2.2972    0.0000 H   0  0  0  0  0  0  0  0  0  0  0  0
    5.2367   -2.3222    0.0000 H   0  0  0  0  0  0  0  0  0  0  0  0
    4.8382   -1.6319    0.0000 H   0  0  0  0  0  0  0  0  0  0  0  0
    4.0155   -3.1069    0.0000 H   0  0  0  0  0  0  0  0  0  0  0  0
    4.4140   -3.7972    0.0000 H   0  0  0  0  0  0  0  0  0  0  0  0
    2.0557    1.5685    0.0000 H   0  0  0  0  0  0  0  0  0  0  0  0
    6.1027   -3.8222    0.0000 H   0  0  0  0  0  0  0  0  0  0  0  0
    5.7042   -3.1319    0.0000 H   0  0  0  0  0  0  0  0  0  0  0  0
    3.5930    2.2002    0.0000 H   0  0  0  0  0  0  0  0  0  0  0  0
    3.5097    2.9928    0.0000 H   0  0  0  0  0  0  0  0  0  0  0  0
    1.9772    3.7026    0.0000 H   0  0  0  0  0  0  0  0  0  0  0  0
    2.0606    2.9099    0.0000 H   0  0  0  0  0  0  0  0  0  0  0  0
    4.8815   -4.6069    0.0000 H   0  0  0  0  0  0  0  0  0  0  0  0
    5.2801   -5.2972    0.0000 H   0  0  0  0  0  0  0  0  0  0  0  0
    3.4120    3.9227    0.0000 H   0  0  0  0  0  0  0  0  0  0  0  0
    3.3287    4.7154    0.0000 H   0  0  0  0  0  0  0  0  0  0  0  0
    6.9687   -5.3222    0.0000 H   0  0  0  0  0  0  0  0  0  0  0  0
    6.5702   -4.6319    0.0000 H   0  0  0  0  0  0  0  0  0  0  0  0
    1.7962    5.4251    0.0000 H   0  0  0  0  0  0  0  0  0  0  0  0
    1.8795    4.6325    0.0000 H   0  0  0  0  0  0  0  0  0  0  0  0
    5.7476   -6.1069    0.0000 H   0  0  0  0  0  0  0  0  0  0  0  0
    6.1461   -6.7972    0.0000 H   0  0  0  0  0  0  0  0  0  0  0  0
    3.2309    5.6453    0.0000 H   0  0  0  0  0  0  0  0  0  0  0  0
    3.1476    6.4380    0.0000 H   0  0  0  0  0  0  0  0  0  0  0  0
    7.8348   -6.8222    0.0000 H   0  0  0  0  0  0  0  0  0  0  0  0
    7.4362   -6.1319    0.0000 H   0  0  0  0  0  0  0  0  0  0  0  0
    1.6151    7.1477    0.0000 H   0  0  0  0  0  0  0  0  0  0  0  0
    1.6984    6.3550    0.0000 H   0  0  0  0  0  0  0  0  0  0  0  0
    6.6042   -7.7146    0.0000 H   0  0  0  0  0  0  0  0  0  0  0  0
    7.2242   -8.3346    0.0000 H   0  0  0  0  0  0  0  0  0  0  0  0
    7.8442   -7.7146    0.0000 H   0  0  0  0  0  0  0  0  0  0  0  0
    3.1023    7.4624    0.0000 H   0  0  0  0  0  0  0  0  0  0  0  0
    2.7881    8.2809    0.0000 H   0  0  0  0  0  0  0  0  0  0  0  0
    1.9695    7.9667    0.0000 H   0  0  0  0  0  0  0  0  0  0  0  0
  1  8  2  0  0  0  0
  2 10  2  0  0  0  0
  3  7  1  0  0  0  0
  3  8  1  0  0  0  0
  3 10  1  0  0  0  0
  4  5  1  0  0  0  0
  4 13  1  0  0  0  0
  4 34  1  0  0  0  0
  5  6  1  0  0  0  0
  5  8  1  0  0  0  0
  5 25  1  0  0  0  0
  6 10  1  0  0  0  0
  6 26  1  0  0  0  0
  6 27  1  0  0  0  0
  7  9  1  0  0  0  0
  7 28  1  0  0  0  0
  7 29  1  0  0  0  0
  9 11  1  0  0  0  0
  9 30  1  0  0  0  0
  9 31  1  0  0  0  0
 11 12  1  0  0  0  0
 11 32  1  0  0  0  0
 11 33  1  0  0  0  0
 12 15  1  0  0  0  0
 12 35  1  0  0  0  0
 12 36  1  0  0  0  0
 13 14  1  0  0  0  0
 13 37  1  0  0  0  0
 13 38  1  0  0  0  0
 14 16  1  0  0  0  0
 14 39  1  0  0  0  0
 14 40  1  0  0  0  0
 15 17  1  0  0  0  0
 15 41  1  0  0  0  0
 15 42  1  0  0  0  0
 16 18  1  0  0  0  0
 16 43  1  0  0  0  0
 16 44  1  0  0  0  0
 17 19  1  0  0  0  0
 17 45  1  0  0  0  0
 17 46  1  0  0  0  0
 18 20  1  0  0  0  0
 18 47  1  0  0  0  0
 18 48  1  0  0  0  0
 19 21  1  0  0  0  0
 19 49  1  0  0  0  0
 19 50  1  0  0  0  0
 20 22  1  0  0  0  0
 20 51  1  0  0  0  0
 20 52  1  0  0  0  0
 21 23  1  0  0  0  0
 21 53  1  0  0  0  0
 21 54  1  0  0  0  0
 22 24  1  0  0  0  0
 22 55  1  0  0  0  0
 22 56  1  0  0  0  0
 23 57  1  0  0  0  0
 23 58  1  0  0  0  0
 23 59  1  0  0  0  0
 24 60  1  0  0  0  0
 24 61  1  0  0  0  0
 24 62  1  0  0  0  0
M  END
> <PUBCHEM_COMPOUND_CID>
512836
> <PUBCHEM_COMPOUND_CANONICALIZED>
1
> <PUBCHEM_CACTVS_COMPLEXITY>
358
> <PUBCHEM_CACTVS_HBOND_ACCEPTOR>
3
> <PUBCHEM_CACTVS_HBOND_DONOR>
1
> <PUBCHEM_CACTVS_ROTATABLE_BOND>
15
> <PUBCHEM_CACTVS_SUBSKEYS>
AAADcfB7MAAAAAAAAAAAAAAAAAAAAWAAAAAAAAAAAAAAAAAAAAAAHgAQAAAACCjBgAQCAAPAAAAIAAEQEAAAAAAAAAAAAIGIAAAAQBoAwCAUAAAAFiCAAAEVgIAAAAAAAAAAAAAAAAAAAAAAAAAAAAAAAA==
> <PUBCHEM_IUPAC_OPENEYE_NAME>
3-(heptylamino)-1-nonyl-pyrrolidine-2,5-dione
> <PUBCHEM_IUPAC_CAS_NAME>
3-(heptylamino)-1-nonylpyrrolidine-2,5-dione
> <PUBCHEM_IUPAC_NAME_MARKUP>
3-(heptylamino)-1-nonylpyrrolidine-2,5-dione
> <PUBCHEM_IUPAC_NAME>
3-(heptylamino)-1-nonylpyrrolidine-2,5-dione
> <PUBCHEM_IUPAC_SYSTEMATIC_NAME>
3-(heptylamino)-1-nonyl-pyrrolidine-2,5-dione
> <PUBCHEM_IUPAC_TRADITIONAL_NAME>
3-(heptylamino)-1-nonyl-pyrrolidine-2,5-quinone
> <PUBCHEM_IUPAC_INCHI>
InChI=1S/C20H38N2O2/c1-3-5-7-9-10-12-14-16-22-19(23)17-18(20(22)24)21-15-13-11-8-6-4-2/h18,21H,3-17H2,1-2H3
> <PUBCHEM_IUPAC_INCHIKEY>
OPWZCBAPSWUWNT-UHFFFAOYSA-N
> <PUBCHEM_XLOGP3_AA>
5.7
> <PUBCHEM_EXACT_MASS>
338.293328459
> <PUBCHEM_MOLECULAR_FORMULA>
C20H38N2O2
> <PUBCHEM_MOLECULAR_WEIGHT>
338.5
> <PUBCHEM_OPENEYE_CAN_SMILES>
CCCCCCCCCN1C(=O)CC(C1=O)NCCCCCCC
> <PUBCHEM_OPENEYE_ISO_SMILES>
CCCCCCCCCN1C(=O)CC(C1=O)NCCCCCCC
> <PUBCHEM_CACTVS_TPSA>
49.4
> <PUBCHEM_MONOISOTOPIC_WEIGHT>
338.293328459
> <PUBCHEM_TOTAL_CHARGE>
0
> <PUBCHEM_HEAVY_ATOM_COUNT>
24
> <PUBCHEM_ATOM_DEF_STEREO_COUNT>
0
> <PUBCHEM_ATOM_UDEF_STEREO_COUNT>
1
> <PUBCHEM_BOND_DEF_STEREO_COUNT>
0
> <PUBCHEM_BOND_UDEF_STEREO_COUNT>
0
> <PUBCHEM_ISOTOPIC_ATOM_COUNT>
0
> <PUBCHEM_COMPONENT_COUNT>
1
> <PUBCHEM_CACTVS_TAUTO_COUNT>
-1
> <PUBCHEM_COORDINATE_TYPE>
1
5
255
> <PUBCHEM_BONDANNOTATIONS>
5  4  3
$$$$
