512833
  -OEChem-10302200282D
 62 62  0     1  0  0  0  0  0999 V2000
    2.0519   -1.3403    0.0000 O   0  0  0  0  0  0  0  0  0  0  0  0
    5.5720   -1.3403    0.0000 O   0  0  0  0  0  0  0  0  0  0  0  0
    3.8120   -1.6191    0.0000 N   0  0  0  0  0  0  0  0  0  0  0  0
    2.7242    0.7288    0.0000 N   0  0  0  0  0  0  0  0  0  0  0  0
    3.3120   -0.0802    0.0000 C   0  0  3  0  0  0  0  0  0  0  0  0
    4.3120   -0.0802    0.0000 C   0  0  0  0  0  0  0  0  0  0  0  0
    3.8120   -2.6190    0.0000 C   0  0  0  0  0  0  0  0  0  0  0  0
    3.0030   -1.0313    0.0000 C   0  0  0  0  0  0  0  0  0  0  0  0
    4.6780   -3.1190    0.0000 C   0  0  0  0  0  0  0  0  0  0  0  0
    4.6210   -1.0313    0.0000 C   0  0  0  0  0  0  0  0  0  0  0  0
    3.1309    1.6424    0.0000 C   0  0  0  0  0  0  0  0  0  0  0  0
    4.6780   -4.1190    0.0000 C   0  0  0  0  0  0  0  0  0  0  0  0
    2.5431    2.4514    0.0000 C   0  0  0  0  0  0  0  0  0  0  0  0
    2.9499    3.3649    0.0000 C   0  0  0  0  0  0  0  0  0  0  0  0
    5.5440   -4.6190    0.0000 C   0  0  0  0  0  0  0  0  0  0  0  0
    2.3621    4.1739    0.0000 C   0  0  0  0  0  0  0  0  0  0  0  0
    5.5440   -5.6190    0.0000 C   0  0  0  0  0  0  0  0  0  0  0  0
    2.7688    5.0875    0.0000 C   0  0  0  0  0  0  0  0  0  0  0  0
    6.4101   -6.1190    0.0000 C   0  0  0  0  0  0  0  0  0  0  0  0
    2.1810    5.8965    0.0000 C   0  0  0  0  0  0  0  0  0  0  0  0
    6.4101   -7.1190    0.0000 C   0  0  0  0  0  0  0  0  0  0  0  0
    2.5878    6.8100    0.0000 C   0  0  0  0  0  0  0  0  0  0  0  0
    7.2761   -7.6190    0.0000 C   0  0  0  0  0  0  0  0  0  0  0  0
    2.0000    7.6190    0.0000 C   0  0  0  0  0  0  0  0  0  0  0  0
    3.5934    0.4722    0.0000 H   0  0  0  0  0  0  0  0  0  0  0  0
    4.9184    0.0487    0.0000 H   0  0  0  0  0  0  0  0  0  0  0  0
    4.2472    0.5364    0.0000 H   0  0  0  0  0  0  0  0  0  0  0  0
    3.2014   -2.5114    0.0000 H   0  0  0  0  0  0  0  0  0  0  0  0
    3.5999   -3.2017    0.0000 H   0  0  0  0  0  0  0  0  0  0  0  0
    5.2886   -3.2267    0.0000 H   0  0  0  0  0  0  0  0  0  0  0  0
    4.8901   -2.5364    0.0000 H   0  0  0  0  0  0  0  0  0  0  0  0
    2.1076    0.6640    0.0000 H   0  0  0  0  0  0  0  0  0  0  0  0
    3.6449    1.2956    0.0000 H   0  0  0  0  0  0  0  0  0  0  0  0
    3.5616    2.0883    0.0000 H   0  0  0  0  0  0  0  0  0  0  0  0
    4.0674   -4.0114    0.0000 H   0  0  0  0  0  0  0  0  0  0  0  0
    4.4660   -4.7017    0.0000 H   0  0  0  0  0  0  0  0  0  0  0  0
    2.0291    2.7981    0.0000 H   0  0  0  0  0  0  0  0  0  0  0  0
    2.1125    2.0054    0.0000 H   0  0  0  0  0  0  0  0  0  0  0  0
    3.4639    3.0182    0.0000 H   0  0  0  0  0  0  0  0  0  0  0  0
    3.3806    3.8109    0.0000 H   0  0  0  0  0  0  0  0  0  0  0  0
    6.1546   -4.7267    0.0000 H   0  0  0  0  0  0  0  0  0  0  0  0
    5.7561   -4.0364    0.0000 H   0  0  0  0  0  0  0  0  0  0  0  0
    1.8481    4.5206    0.0000 H   0  0  0  0  0  0  0  0  0  0  0  0
    1.9314    3.7279    0.0000 H   0  0  0  0  0  0  0  0  0  0  0  0
    4.9334   -5.5114    0.0000 H   0  0  0  0  0  0  0  0  0  0  0  0
    5.3320   -6.2017    0.0000 H   0  0  0  0  0  0  0  0  0  0  0  0
    3.2828    4.7408    0.0000 H   0  0  0  0  0  0  0  0  0  0  0  0
    3.1995    5.5335    0.0000 H   0  0  0  0  0  0  0  0  0  0  0  0
    7.0206   -6.2267    0.0000 H   0  0  0  0  0  0  0  0  0  0  0  0
    6.6221   -5.5364    0.0000 H   0  0  0  0  0  0  0  0  0  0  0  0
    1.6670    6.2432    0.0000 H   0  0  0  0  0  0  0  0  0  0  0  0
    1.7504    5.4505    0.0000 H   0  0  0  0  0  0  0  0  0  0  0  0
    5.7995   -7.0114    0.0000 H   0  0  0  0  0  0  0  0  0  0  0  0
    6.1980   -7.7017    0.0000 H   0  0  0  0  0  0  0  0  0  0  0  0
    3.1018    6.4633    0.0000 H   0  0  0  0  0  0  0  0  0  0  0  0
    3.0185    7.2560    0.0000 H   0  0  0  0  0  0  0  0  0  0  0  0
    6.9661   -8.1560    0.0000 H   0  0  0  0  0  0  0  0  0  0  0  0
    7.8130   -7.9290    0.0000 H   0  0  0  0  0  0  0  0  0  0  0  0
    7.5861   -7.0821    0.0000 H   0  0  0  0  0  0  0  0  0  0  0  0
    2.5016    7.9835    0.0000 H   0  0  0  0  0  0  0  0  0  0  0  0
    1.6356    8.1206    0.0000 H   0  0  0  0  0  0  0  0  0  0  0  0
    1.4984    7.2546    0.0000 H   0  0  0  0  0  0  0  0  0  0  0  0
  1  8  2  0  0  0  0
  2 10  2  0  0  0  0
  3  7  1  0  0  0  0
  3  8  1  0  0  0  0
  3 10  1  0  0  0  0
  4  5  1  0  0  0  0
  4 11  1  0  0  0  0
  4 32  1  0  0  0  0
  5  6  1  0  0  0  0
  5  8  1  0  0  0  0
  5 25  1  0  0  0  0
  6 10  1  0  0  0  0
  6 26  1  0  0  0  0
  6 27  1  0  0  0  0
  7  9  1  0  0  0  0
  7 28  1  0  0  0  0
  7 29  1  0  0  0  0
  9 12  1  0  0  0  0
  9 30  1  0  0  0  0
  9 31  1  0  0  0  0
 11 13  1  0  0  0  0
 11 33  1  0  0  0  0
 11 34  1  0  0  0  0
 12 15  1  0  0  0  0
 12 35  1  0  0  0  0
 12 36  1  0  0  0  0
 13 14  1  0  0  0  0
 13 37  1  0  0  0  0
 13 38  1  0  0  0  0
 14 16  1  0  0  0  0
 14 39  1  0  0  0  0
 14 40  1  0  0  0  0
 15 17  1  0  0  0  0
 15 41  1  0  0  0  0
 15 42  1  0  0  0  0
 16 18  1  0  0  0  0
 16 43  1  0  0  0  0
 16 44  1  0  0  0  0
 17 19  1  0  0  0  0
 17 45  1  0  0  0  0
 17 46  1  0  0  0  0
 18 20  1  0  0  0  0
 18 47  1  0  0  0  0
 18 48  1  0  0  0  0
 19 21  1  0  0  0  0
 19 49  1  0  0  0  0
 19 50  1  0  0  0  0
 20 22  1  0  0  0  0
 20 51  1  0  0  0  0
 20 52  1  0  0  0  0
 21 23  1  0  0  0  0
 21 53  1  0  0  0  0
 21 54  1  0  0  0  0
 22 24  1  0  0  0  0
 22 55  1  0  0  0  0
 22 56  1  0  0  0  0
 23 57  1  0  0  0  0
 23 58  1  0  0  0  0
 23 59  1  0  0  0  0
 24 60  1  0  0  0  0
 24 61  1  0  0  0  0
 24 62  1  0  0  0  0
M  END
> <PUBCHEM_COMPOUND_CID>
512833
> <PUBCHEM_COMPOUND_CANONICALIZED>
1
> <PUBCHEM_CACTVS_COMPLEXITY>
358
> <PUBCHEM_CACTVS_HBOND_ACCEPTOR>
3
> <PUBCHEM_CACTVS_HBOND_DONOR>
1
> <PUBCHEM_CACTVS_ROTATABLE_BOND>
15
> <PUBCHEM_CACTVS_SUBSKEYS>
AAADcfB7MAAAAAAAAAAAAAAAAAAAAWAAAAAAAAAAAAAAAAAAAAAAHgAQAAAACCjBgAQCAAPAAAAIAAEQEAAAAAAAAAAAAIGIAAAAQBoAwCAUAAAAFiCAAAEVgIAAAAAAAAAAAAAAAAAAAAAAAAAAAAAAAA==
> <PUBCHEM_IUPAC_OPENEYE_NAME>
1-octyl-3-(octylamino)pyrrolidine-2,5-dione
> <PUBCHEM_IUPAC_CAS_NAME>
1-octyl-3-(octylamino)pyrrolidine-2,5-dione
> <PUBCHEM_IUPAC_NAME_MARKUP>
1-octyl-3-(octylamino)pyrrolidine-2,5-dione
> <PUBCHEM_IUPAC_NAME>
1-octyl-3-(octylamino)pyrrolidine-2,5-dione
> <PUBCHEM_IUPAC_SYSTEMATIC_NAME>
1-octyl-3-(octylamino)pyrrolidine-2,5-dione
> <PUBCHEM_IUPAC_TRADITIONAL_NAME>
1-octyl-3-(octylamino)pyrrolidine-2,5-quinone
> <PUBCHEM_IUPAC_INCHI>
InChI=1S/C20H38N2O2/c1-3-5-7-9-11-13-15-21-18-17-19(23)22(20(18)24)16-14-12-10-8-6-4-2/h18,21H,3-17H2,1-2H3
> <PUBCHEM_IUPAC_INCHIKEY>
RNWRCCIBTZHOFV-UHFFFAOYSA-N
> <PUBCHEM_XLOGP3_AA>
5.7
> <PUBCHEM_EXACT_MASS>
338.293328459
> <PUBCHEM_MOLECULAR_FORMULA>
C20H38N2O2
> <PUBCHEM_MOLECULAR_WEIGHT>
338.5
> <PUBCHEM_OPENEYE_CAN_SMILES>
CCCCCCCCNC1CC(=O)N(C1=O)CCCCCCCC
> <PUBCHEM_OPENEYE_ISO_SMILES>
CCCCCCCCNC1CC(=O)N(C1=O)CCCCCCCC
> <PUBCHEM_CACTVS_TPSA>
49.4
> <PUBCHEM_MONOISOTOPIC_WEIGHT>
338.293328459
> <PUBCHEM_TOTAL_CHARGE>
0
> <PUBCHEM_HEAVY_ATOM_COUNT>
24
> <PUBCHEM_ATOM_DEF_STEREO_COUNT>
0
> <PUBCHEM_ATOM_UDEF_STEREO_COUNT>
1
> <PUBCHEM_BOND_DEF_STEREO_COUNT>
0
> <PUBCHEM_BOND_UDEF_STEREO_COUNT>
0
> <PUBCHEM_ISOTOPIC_ATOM_COUNT>
0
> <PUBCHEM_COMPONENT_COUNT>
1
> <PUBCHEM_CACTVS_TAUTO_COUNT>
-1
> <PUBCHEM_COORDINATE_TYPE>
1
5
255
> <PUBCHEM_BONDANNOTATIONS>
5  4  3
$$$$
