512822
  -OEChem-10302200282D
 42 45  0     1  0  0  0  0  0999 V2000
    4.9889   -1.2035    0.0000 O   0  0  0  0  0  0  0  0  0  0  0  0
    4.9889    2.3070    0.0000 O   0  0  0  0  0  0  0  0  0  0  0  0
    5.2619    0.5518    0.0000 N   0  0  0  0  0  0  0  0  0  0  0  0
    8.2561   -0.4014    0.0000 C   0  0  3  0  0  0  0  0  0  0  0  0
    9.4471    0.3325    0.0000 C   0  0  0  0  0  0  0  0  0  0  0  0
    8.9875   -1.0834    0.0000 C   0  0  3  0  0  0  0  0  0  0  0  0
    8.8835   -2.3070    0.0000 C   0  0  0  0  0  0  0  0  0  0  0  0
    6.7619   -0.3143    0.0000 C   0  0  3  0  0  0  0  0  0  0  0  0
    7.0983   -1.8970    0.0000 C   0  0  0  0  0  0  0  0  0  0  0  0
    6.3551   -1.2278    0.0000 C   0  0  0  0  0  0  0  0  0  0  0  0
   10.4465    0.3674    0.0000 C   0  0  0  0  0  0  0  0  0  0  0  0
    9.4122    1.3319    0.0000 C   0  0  0  0  0  0  0  0  0  0  0  0
    6.2619    0.5518    0.0000 C   0  0  0  0  0  0  0  0  0  0  0  0
    4.6783   -0.2530    0.0000 C   0  0  0  0  0  0  0  0  0  0  0  0
    4.6783    1.3565    0.0000 C   0  0  0  0  0  0  0  0  0  0  0  0
    3.7320    0.0518    0.0000 C   0  0  0  0  0  0  0  0  0  0  0  0
    3.7320    1.0518    0.0000 C   0  0  0  0  0  0  0  0  0  0  0  0
    2.8660   -0.4482    0.0000 C   0  0  0  0  0  0  0  0  0  0  0  0
    2.8660    1.5518    0.0000 C   0  0  0  0  0  0  0  0  0  0  0  0
    2.0000    0.0518    0.0000 C   0  0  0  0  0  0  0  0  0  0  0  0
    2.0000    1.0518    0.0000 C   0  0  0  0  0  0  0  0  0  0  0  0
    8.1045    0.1998    0.0000 H   0  0  0  0  0  0  0  0  0  0  0  0
    9.5952   -1.2061    0.0000 H   0  0  0  0  0  0  0  0  0  0  0  0
    8.4122   -2.7099    0.0000 H   0  0  0  0  0  0  0  0  0  0  0  0
    9.4351   -2.5901    0.0000 H   0  0  0  0  0  0  0  0  0  0  0  0
    6.1427   -0.3467    0.0000 H   0  0  0  0  0  0  0  0  0  0  0  0
    6.6217   -2.2935    0.0000 H   0  0  0  0  0  0  0  0  0  0  0  0
    7.4225   -2.4254    0.0000 H   0  0  0  0  0  0  0  0  0  0  0  0
    5.8182   -0.9178    0.0000 H   0  0  0  0  0  0  0  0  0  0  0  0
    5.9907   -1.7294    0.0000 H   0  0  0  0  0  0  0  0  0  0  0  0
   10.4682   -0.2522    0.0000 H   0  0  0  0  0  0  0  0  0  0  0  0
   11.0662    0.3890    0.0000 H   0  0  0  0  0  0  0  0  0  0  0  0
   10.4249    0.9870    0.0000 H   0  0  0  0  0  0  0  0  0  0  0  0
   10.0319    1.3535    0.0000 H   0  0  0  0  0  0  0  0  0  0  0  0
    9.3906    1.9515    0.0000 H   0  0  0  0  0  0  0  0  0  0  0  0
    8.7926    1.3102    0.0000 H   0  0  0  0  0  0  0  0  0  0  0  0
    6.8445    0.7638    0.0000 H   0  0  0  0  0  0  0  0  0  0  0  0
    6.1542    1.1623    0.0000 H   0  0  0  0  0  0  0  0  0  0  0  0
    2.8660   -1.0682    0.0000 H   0  0  0  0  0  0  0  0  0  0  0  0
    2.8660    2.1718    0.0000 H   0  0  0  0  0  0  0  0  0  0  0  0
    1.4631   -0.2582    0.0000 H   0  0  0  0  0  0  0  0  0  0  0  0
    1.4631    1.3618    0.0000 H   0  0  0  0  0  0  0  0  0  0  0  0
  1 14  2  0  0  0  0
  2 15  2  0  0  0  0
  3 13  1  0  0  0  0
  3 14  1  0  0  0  0
  3 15  1  0  0  0  0
  4  5  1  0  0  0  0
  4  7  1  0  0  0  0
  4  8  1  0  0  0  0
  4 22  1  0  0  0  0
  5  6  1  0  0  0  0
  5 11  1  0  0  0  0
  5 12  1  0  0  0  0
  6  7  1  0  0  0  0
  6  9  1  0  0  0  0
  6 23  1  0  0  0  0
  7 24  1  0  0  0  0
  7 25  1  0  0  0  0
  8 10  1  0  0  0  0
  8 13  1  0  0  0  0
  8 26  1  0  0  0  0
  9 10  1  0  0  0  0
  9 27  1  0  0  0  0
  9 28  1  0  0  0  0
 10 29  1  0  0  0  0
 10 30  1  0  0  0  0
 11 31  1  0  0  0  0
 11 32  1  0  0  0  0
 11 33  1  0  0  0  0
 12 34  1  0  0  0  0
 12 35  1  0  0  0  0
 12 36  1  0  0  0  0
 13 37  1  0  0  0  0
 13 38  1  0  0  0  0
 14 16  1  0  0  0  0
 15 17  1  0  0  0  0
 16 17  1  0  0  0  0
 16 18  2  0  0  0  0
 17 19  2  0  0  0  0
 18 20  1  0  0  0  0
 18 39  1  0  0  0  0
 19 21  1  0  0  0  0
 19 40  1  0  0  0  0
 20 21  2  0  0  0  0
 20 41  1  0  0  0  0
 21 42  1  0  0  0  0
M  END
> <PUBCHEM_COMPOUND_CID>
512822
> <PUBCHEM_COMPOUND_CANONICALIZED>
1
> <PUBCHEM_CACTVS_COMPLEXITY>
460
> <PUBCHEM_CACTVS_HBOND_ACCEPTOR>
2
> <PUBCHEM_CACTVS_HBOND_DONOR>
0
> <PUBCHEM_CACTVS_ROTATABLE_BOND>
2
> <PUBCHEM_CACTVS_SUBSKEYS>
AAADceB6MAAAAAAAAAAAAAAAAABgAWAAAAAwYMAAAAAAAFgBAAAAHgAAAAAADwDBmAQyAIMAAACIAiFSEACCAAAkAAAIiAEIBMgIIDKAlRGEIQhghiCIiYcdiMCPgAAAAAAQAACAAAQAACAAAAAAAAAAAA==
> <PUBCHEM_IUPAC_OPENEYE_NAME>
2-[(6,6-dimethylnorpinan-2-yl)methyl]isoindoline-1,3-dione
> <PUBCHEM_IUPAC_CAS_NAME>
2-[(6,6-dimethyl-2-bicyclo[3.1.1]heptanyl)methyl]isoindole-1,3-dione
> <PUBCHEM_IUPAC_NAME_MARKUP>
2-[(6,6-dimethyl-2-bicyclo[3.1.1]heptanyl)methyl]isoindole-1,3-dione
> <PUBCHEM_IUPAC_NAME>
2-[(6,6-dimethyl-2-bicyclo[3.1.1]heptanyl)methyl]isoindole-1,3-dione
> <PUBCHEM_IUPAC_SYSTEMATIC_NAME>
2-[(6,6-dimethyl-2-bicyclo[3.1.1]heptanyl)methyl]isoindole-1,3-dione
> <PUBCHEM_IUPAC_TRADITIONAL_NAME>
2-[(6,6-dimethylnorpinan-2-yl)methyl]isoindoline-1,3-quinone
> <PUBCHEM_IUPAC_INCHI>
InChI=1S/C18H21NO2/c1-18(2)12-8-7-11(15(18)9-12)10-19-16(20)13-5-3-4-6-14(13)17(19)21/h3-6,11-12,15H,7-10H2,1-2H3
> <PUBCHEM_IUPAC_INCHIKEY>
YJSIKTMEIOSLGX-UHFFFAOYSA-N
> <PUBCHEM_XLOGP3_AA>
3.8
> <PUBCHEM_EXACT_MASS>
283.157228913
> <PUBCHEM_MOLECULAR_FORMULA>
C18H21NO2
> <PUBCHEM_MOLECULAR_WEIGHT>
283.4
> <PUBCHEM_OPENEYE_CAN_SMILES>
CC1(C2CCC(C1C2)CN3C(=O)C4=CC=CC=C4C3=O)C
> <PUBCHEM_OPENEYE_ISO_SMILES>
CC1(C2CCC(C1C2)CN3C(=O)C4=CC=CC=C4C3=O)C
> <PUBCHEM_CACTVS_TPSA>
37.4
> <PUBCHEM_MONOISOTOPIC_WEIGHT>
283.157228913
> <PUBCHEM_TOTAL_CHARGE>
0
> <PUBCHEM_HEAVY_ATOM_COUNT>
21
> <PUBCHEM_ATOM_DEF_STEREO_COUNT>
0
> <PUBCHEM_ATOM_UDEF_STEREO_COUNT>
3
> <PUBCHEM_BOND_DEF_STEREO_COUNT>
0
> <PUBCHEM_BOND_UDEF_STEREO_COUNT>
0
> <PUBCHEM_ISOTOPIC_ATOM_COUNT>
0
> <PUBCHEM_COMPONENT_COUNT>
1
> <PUBCHEM_CACTVS_TAUTO_COUNT>
-1
> <PUBCHEM_COORDINATE_TYPE>
1
5
255
> <PUBCHEM_BONDANNOTATIONS>
16  17  8
16  18  8
17  19  8
18  20  8
19  21  8
20  21  8
4  7  3
6  9  3
8  13  3
$$$$
