512851
  -OEChem-10302200282D
 79 80  0     1  0  0  0  0  0999 V2000
    6.3301    2.4059    0.0000 S   0  0  0  0  0  0  0  0  0  0  0  0
    6.5575    4.5695    0.0000 O   0  0  0  0  0  0  0  0  0  0  0  0
    9.7734    3.1377    0.0000 O   0  0  0  0  0  0  0  0  0  0  0  0
    4.5981   -4.5941    0.0000 O   0  0  0  0  0  0  0  0  0  0  0  0
    3.7320   -0.0941    0.0000 O   0  0  0  0  0  0  0  0  0  0  0  0
    8.2788    4.1083    0.0000 N   0  0  0  0  0  0  0  0  0  0  0  0
    5.4641   -0.0941    0.0000 N   0  0  0  0  0  0  0  0  0  0  0  0
    9.6801    5.1264    0.0000 C   0  0  0  0  0  0  0  0  0  0  0  0
    8.6856    5.0218    0.0000 C   0  0  0  0  0  0  0  0  0  0  0  0
   10.0868    6.0399    0.0000 C   0  0  0  0  0  0  0  0  0  0  0  0
   11.0813    6.1444    0.0000 C   0  0  0  0  0  0  0  0  0  0  0  0
    7.1962    2.9059    0.0000 C   0  0  3  0  0  0  0  0  0  0  0  0
    8.1097    2.4991    0.0000 C   0  0  0  0  0  0  0  0  0  0  0  0
   11.4881    7.0580    0.0000 C   0  0  0  0  0  0  0  0  0  0  0  0
    7.3007    3.9004    0.0000 C   0  0  0  0  0  0  0  0  0  0  0  0
    8.7788    3.2423    0.0000 C   0  0  0  0  0  0  0  0  0  0  0  0
   12.4826    7.1625    0.0000 C   0  0  0  0  0  0  0  0  0  0  0  0
   12.8893    8.0761    0.0000 C   0  0  0  0  0  0  0  0  0  0  0  0
   13.8839    8.1806    0.0000 C   0  0  0  0  0  0  0  0  0  0  0  0
    6.3301    1.4059    0.0000 C   0  0  0  0  0  0  0  0  0  0  0  0
    5.4641    0.9059    0.0000 C   0  0  0  0  0  0  0  0  0  0  0  0
   14.2906    9.0941    0.0000 C   0  0  0  0  0  0  0  0  0  0  0  0
    2.8660   -6.5941    0.0000 C   0  0  0  0  0  0  0  0  0  0  0  0
    2.8660   -7.5941    0.0000 C   0  0  0  0  0  0  0  0  0  0  0  0
    3.7320   -6.0941    0.0000 C   0  0  0  0  0  0  0  0  0  0  0  0
    2.0000   -8.0941    0.0000 C   0  0  0  0  0  0  0  0  0  0  0  0
    3.7320   -5.0941    0.0000 C   0  0  0  0  0  0  0  0  0  0  0  0
    4.5981   -0.5941    0.0000 C   0  0  0  0  0  0  0  0  0  0  0  0
    2.0000   -9.0941    0.0000 C   0  0  0  0  0  0  0  0  0  0  0  0
    4.5981   -1.5941    0.0000 C   0  0  0  0  0  0  0  0  0  0  0  0
    4.5981   -3.5941    0.0000 C   0  0  0  0  0  0  0  0  0  0  0  0
    5.4641   -2.0941    0.0000 C   0  0  0  0  0  0  0  0  0  0  0  0
    3.7320   -2.0941    0.0000 C   0  0  0  0  0  0  0  0  0  0  0  0
    5.4641   -3.0941    0.0000 C   0  0  0  0  0  0  0  0  0  0  0  0
    3.7320   -3.0941    0.0000 C   0  0  0  0  0  0  0  0  0  0  0  0
    9.6368    4.5079    0.0000 H   0  0  0  0  0  0  0  0  0  0  0  0
   10.2817    4.9764    0.0000 H   0  0  0  0  0  0  0  0  0  0  0  0
    8.7288    5.6403    0.0000 H   0  0  0  0  0  0  0  0  0  0  0  0
    8.0840    5.1718    0.0000 H   0  0  0  0  0  0  0  0  0  0  0  0
   10.1301    6.6584    0.0000 H   0  0  0  0  0  0  0  0  0  0  0  0
    9.4852    6.1899    0.0000 H   0  0  0  0  0  0  0  0  0  0  0  0
   11.0381    5.5260    0.0000 H   0  0  0  0  0  0  0  0  0  0  0  0
   11.6829    5.9944    0.0000 H   0  0  0  0  0  0  0  0  0  0  0  0
    6.6762    3.2435    0.0000 H   0  0  0  0  0  0  0  0  0  0  0  0
    7.7997    1.9622    0.0000 H   0  0  0  0  0  0  0  0  0  0  0  0
    8.6113    2.1347    0.0000 H   0  0  0  0  0  0  0  0  0  0  0  0
   11.5313    7.6765    0.0000 H   0  0  0  0  0  0  0  0  0  0  0  0
   10.8865    7.2080    0.0000 H   0  0  0  0  0  0  0  0  0  0  0  0
   12.4394    6.5440    0.0000 H   0  0  0  0  0  0  0  0  0  0  0  0
   13.0842    7.0125    0.0000 H   0  0  0  0  0  0  0  0  0  0  0  0
   12.9326    8.6946    0.0000 H   0  0  0  0  0  0  0  0  0  0  0  0
   12.2878    8.2261    0.0000 H   0  0  0  0  0  0  0  0  0  0  0  0
   13.8406    7.5621    0.0000 H   0  0  0  0  0  0  0  0  0  0  0  0
   14.4854    8.0306    0.0000 H   0  0  0  0  0  0  0  0  0  0  0  0
    6.5422    0.8233    0.0000 H   0  0  0  0  0  0  0  0  0  0  0  0
    6.9407    1.5135    0.0000 H   0  0  0  0  0  0  0  0  0  0  0  0
    5.2520    1.4885    0.0000 H   0  0  0  0  0  0  0  0  0  0  0  0
    4.8535    0.7982    0.0000 H   0  0  0  0  0  0  0  0  0  0  0  0
   14.8570    8.8420    0.0000 H   0  0  0  0  0  0  0  0  0  0  0  0
   14.5428    9.6605    0.0000 H   0  0  0  0  0  0  0  0  0  0  0  0
   13.7242    9.3463    0.0000 H   0  0  0  0  0  0  0  0  0  0  0  0
    2.6540   -6.0115    0.0000 H   0  0  0  0  0  0  0  0  0  0  0  0
    2.2554   -6.7018    0.0000 H   0  0  0  0  0  0  0  0  0  0  0  0
    3.0781   -8.1768    0.0000 H   0  0  0  0  0  0  0  0  0  0  0  0
    3.4766   -7.4865    0.0000 H   0  0  0  0  0  0  0  0  0  0  0  0
    3.9441   -6.6768    0.0000 H   0  0  0  0  0  0  0  0  0  0  0  0
    4.3426   -5.9865    0.0000 H   0  0  0  0  0  0  0  0  0  0  0  0
    6.0010   -0.4041    0.0000 H   0  0  0  0  0  0  0  0  0  0  0  0
    1.7880   -7.5115    0.0000 H   0  0  0  0  0  0  0  0  0  0  0  0
    1.3894   -8.2018    0.0000 H   0  0  0  0  0  0  0  0  0  0  0  0
    3.5200   -4.5115    0.0000 H   0  0  0  0  0  0  0  0  0  0  0  0
    3.1215   -5.2018    0.0000 H   0  0  0  0  0  0  0  0  0  0  0  0
    1.3800   -9.0941    0.0000 H   0  0  0  0  0  0  0  0  0  0  0  0
    2.0000   -9.7141    0.0000 H   0  0  0  0  0  0  0  0  0  0  0  0
    2.6200   -9.0941    0.0000 H   0  0  0  0  0  0  0  0  0  0  0  0
    6.0010   -1.7841    0.0000 H   0  0  0  0  0  0  0  0  0  0  0  0
    3.1951   -1.7841    0.0000 H   0  0  0  0  0  0  0  0  0  0  0  0
    6.0010   -3.4041    0.0000 H   0  0  0  0  0  0  0  0  0  0  0  0
    3.1951   -3.4041    0.0000 H   0  0  0  0  0  0  0  0  0  0  0  0
  1 12  1  0  0  0  0
  1 20  1  0  0  0  0
  2 15  2  0  0  0  0
  3 16  2  0  0  0  0
  4 27  1  0  0  0  0
  4 31  1  0  0  0  0
  5 28  2  0  0  0  0
  6  9  1  0  0  0  0
  6 15  1  0  0  0  0
  6 16  1  0  0  0  0
  7 21  1  0  0  0  0
  7 28  1  0  0  0  0
  7 68  1  0  0  0  0
  8  9  1  0  0  0  0
  8 10  1  0  0  0  0
  8 36  1  0  0  0  0
  8 37  1  0  0  0  0
  9 38  1  0  0  0  0
  9 39  1  0  0  0  0
 10 11  1  0  0  0  0
 10 40  1  0  0  0  0
 10 41  1  0  0  0  0
 11 14  1  0  0  0  0
 11 42  1  0  0  0  0
 11 43  1  0  0  0  0
 12 13  1  0  0  0  0
 12 15  1  0  0  0  0
 12 44  1  0  0  0  0
 13 16  1  0  0  0  0
 13 45  1  0  0  0  0
 13 46  1  0  0  0  0
 14 17  1  0  0  0  0
 14 47  1  0  0  0  0
 14 48  1  0  0  0  0
 17 18  1  0  0  0  0
 17 49  1  0  0  0  0
 17 50  1  0  0  0  0
 18 19  1  0  0  0  0
 18 51  1  0  0  0  0
 18 52  1  0  0  0  0
 19 22  1  0  0  0  0
 19 53  1  0  0  0  0
 19 54  1  0  0  0  0
 20 21  1  0  0  0  0
 20 55  1  0  0  0  0
 20 56  1  0  0  0  0
 21 57  1  0  0  0  0
 21 58  1  0  0  0  0
 22 59  1  0  0  0  0
 22 60  1  0  0  0  0
 22 61  1  0  0  0  0
 23 24  1  0  0  0  0
 23 25  1  0  0  0  0
 23 62  1  0  0  0  0
 23 63  1  0  0  0  0
 24 26  1  0  0  0  0
 24 64  1  0  0  0  0
 24 65  1  0  0  0  0
 25 27  1  0  0  0  0
 25 66  1  0  0  0  0
 25 67  1  0  0  0  0
 26 29  1  0  0  0  0
 26 69  1  0  0  0  0
 26 70  1  0  0  0  0
 27 71  1  0  0  0  0
 27 72  1  0  0  0  0
 28 30  1  0  0  0  0
 29 73  1  0  0  0  0
 29 74  1  0  0  0  0
 29 75  1  0  0  0  0
 30 32  2  0  0  0  0
 30 33  1  0  0  0  0
 31 34  2  0  0  0  0
 31 35  1  0  0  0  0
 32 34  1  0  0  0  0
 32 76  1  0  0  0  0
 33 35  2  0  0  0  0
 33 77  1  0  0  0  0
 34 78  1  0  0  0  0
 35 79  1  0  0  0  0
M  END
> <PUBCHEM_COMPOUND_CID>
512851
> <PUBCHEM_COMPOUND_CANONICALIZED>
1
> <PUBCHEM_CACTVS_COMPLEXITY>
622
> <PUBCHEM_CACTVS_HBOND_ACCEPTOR>
5
> <PUBCHEM_CACTVS_HBOND_DONOR>
1
> <PUBCHEM_CACTVS_ROTATABLE_BOND>
19
> <PUBCHEM_CACTVS_SUBSKEYS>
AAADcfB7OABAAAAAAAAAAAAAAAAAAWAAAAAwAAAAAAAAAAABAAAAHgQQAAAADATl2AayBoPABAiIAiFSEACCCAAkIBAIiIEODMgMJjKktRuGOSjk1jGoqYed3ILOIAAAAAAAAABAAAAAAAAAAAAAAAAAAA==
> <PUBCHEM_IUPAC_OPENEYE_NAME>
4-hexoxy-N-[2-(1-nonyl-2,5-dioxo-pyrrolidin-3-yl)sulfanylethyl]benzamide
> <PUBCHEM_IUPAC_CAS_NAME>
4-hexoxy-N-[2-[(1-nonyl-2,5-dioxo-3-pyrrolidinyl)thio]ethyl]benzamide
> <PUBCHEM_IUPAC_NAME_MARKUP>
4-hexoxy-<I>N</I>-[2-(1-nonyl-2,5-dioxopyrrolidin-3-yl)sulfanylethyl]benzamide
> <PUBCHEM_IUPAC_NAME>
4-hexoxy-N-[2-(1-nonyl-2,5-dioxopyrrolidin-3-yl)sulfanylethyl]benzamide
> <PUBCHEM_IUPAC_SYSTEMATIC_NAME>
4-hexoxy-N-[2-[1-nonyl-2,5-bis(oxidanylidene)pyrrolidin-3-yl]sulfanylethyl]benzamide
> <PUBCHEM_IUPAC_TRADITIONAL_NAME>
N-[2-[(2,5-diketo-1-nonyl-pyrrolidin-3-yl)thio]ethyl]-4-hexoxy-benzamide
> <PUBCHEM_IUPAC_INCHI>
InChI=1S/C28H44N2O4S/c1-3-5-7-9-10-11-12-19-30-26(31)22-25(28(30)33)35-21-18-29-27(32)23-14-16-24(17-15-23)34-20-13-8-6-4-2/h14-17,25H,3-13,18-22H2,1-2H3,(H,29,32)
> <PUBCHEM_IUPAC_INCHIKEY>
RHHNKUJJXTZFJC-UHFFFAOYSA-N
> <PUBCHEM_XLOGP3_AA>
7.2
> <PUBCHEM_EXACT_MASS>
504.30217906
> <PUBCHEM_MOLECULAR_FORMULA>
C28H44N2O4S
> <PUBCHEM_MOLECULAR_WEIGHT>
504.7
> <PUBCHEM_OPENEYE_CAN_SMILES>
CCCCCCCCCN1C(=O)CC(C1=O)SCCNC(=O)C2=CC=C(C=C2)OCCCCCC
> <PUBCHEM_OPENEYE_ISO_SMILES>
CCCCCCCCCN1C(=O)CC(C1=O)SCCNC(=O)C2=CC=C(C=C2)OCCCCCC
> <PUBCHEM_CACTVS_TPSA>
101
> <PUBCHEM_MONOISOTOPIC_WEIGHT>
504.30217906
> <PUBCHEM_TOTAL_CHARGE>
0
> <PUBCHEM_HEAVY_ATOM_COUNT>
35
> <PUBCHEM_ATOM_DEF_STEREO_COUNT>
0
> <PUBCHEM_ATOM_UDEF_STEREO_COUNT>
1
> <PUBCHEM_BOND_DEF_STEREO_COUNT>
0
> <PUBCHEM_BOND_UDEF_STEREO_COUNT>
0
> <PUBCHEM_ISOTOPIC_ATOM_COUNT>
0
> <PUBCHEM_COMPONENT_COUNT>
1
> <PUBCHEM_CACTVS_TAUTO_COUNT>
-1
> <PUBCHEM_COORDINATE_TYPE>
1
5
255
> <PUBCHEM_BONDANNOTATIONS>
12  1  3
30  32  8
30  33  8
31  34  8
31  35  8
32  34  8
33  35  8
$$$$
