512858
  -OEChem-10302200282D
 67 67  0     1  0  0  0  0  0999 V2000
    3.2721    0.0210    0.0000 O   0  0  0  0  0  0  0  0  0  0  0  0
    6.7923    0.0210    0.0000 O   0  0  0  0  0  0  0  0  0  0  0  0
    5.0322   -0.2578    0.0000 N   0  0  0  0  0  0  0  0  0  0  0  0
    3.9444    2.0901    0.0000 N   0  0  0  0  0  0  0  0  0  0  0  0
    3.5823    5.5352    0.0000 N   0  0  0  0  0  0  0  0  0  0  0  0
    4.5322    1.2811    0.0000 C   0  0  3  0  0  0  0  0  0  0  0  0
    4.3511    3.0036    0.0000 C   0  0  3  0  0  0  0  0  0  0  0  0
    5.5322    1.2811    0.0000 C   0  0  0  0  0  0  0  0  0  0  0  0
    4.2232    0.3300    0.0000 C   0  0  0  0  0  0  0  0  0  0  0  0
    3.7634    3.8126    0.0000 C   0  0  0  0  0  0  0  0  0  0  0  0
    5.0322   -1.2578    0.0000 C   0  0  0  0  0  0  0  0  0  0  0  0
    5.8412    0.3300    0.0000 C   0  0  0  0  0  0  0  0  0  0  0  0
    5.8982   -1.7578    0.0000 C   0  0  0  0  0  0  0  0  0  0  0  0
    4.1701    4.7262    0.0000 C   0  0  0  0  0  0  0  0  0  0  0  0
    5.8982   -2.7578    0.0000 C   0  0  0  0  0  0  0  0  0  0  0  0
    6.7642   -3.2578    0.0000 C   0  0  0  0  0  0  0  0  0  0  0  0
    5.3457    3.1082    0.0000 C   0  0  0  0  0  0  0  0  0  0  0  0
    6.7642   -4.2578    0.0000 C   0  0  0  0  0  0  0  0  0  0  0  0
    7.6303   -4.7578    0.0000 C   0  0  0  0  0  0  0  0  0  0  0  0
    3.9890    6.4488    0.0000 C   0  0  0  0  0  0  0  0  0  0  0  0
    2.5878    5.4307    0.0000 C   0  0  0  0  0  0  0  0  0  0  0  0
    7.6303   -5.7578    0.0000 C   0  0  0  0  0  0  0  0  0  0  0  0
    8.4963   -6.2578    0.0000 C   0  0  0  0  0  0  0  0  0  0  0  0
    3.4013    7.2578    0.0000 C   0  0  0  0  0  0  0  0  0  0  0  0
    2.0000    6.2397    0.0000 C   0  0  0  0  0  0  0  0  0  0  0  0
    8.4963   -7.2578    0.0000 C   0  0  0  0  0  0  0  0  0  0  0  0
    4.8137    1.8335    0.0000 H   0  0  0  0  0  0  0  0  0  0  0  0
    3.7345    2.9388    0.0000 H   0  0  0  0  0  0  0  0  0  0  0  0
    6.1386    1.4100    0.0000 H   0  0  0  0  0  0  0  0  0  0  0  0
    5.4674    1.8977    0.0000 H   0  0  0  0  0  0  0  0  0  0  0  0
    3.3278    2.0253    0.0000 H   0  0  0  0  0  0  0  0  0  0  0  0
    3.2494    4.1594    0.0000 H   0  0  0  0  0  0  0  0  0  0  0  0
    3.3327    3.3667    0.0000 H   0  0  0  0  0  0  0  0  0  0  0  0
    4.4216   -1.1501    0.0000 H   0  0  0  0  0  0  0  0  0  0  0  0
    4.8201   -1.8404    0.0000 H   0  0  0  0  0  0  0  0  0  0  0  0
    6.5088   -1.8654    0.0000 H   0  0  0  0  0  0  0  0  0  0  0  0
    6.1103   -1.1752    0.0000 H   0  0  0  0  0  0  0  0  0  0  0  0
    4.6841    4.3795    0.0000 H   0  0  0  0  0  0  0  0  0  0  0  0
    4.6008    5.1722    0.0000 H   0  0  0  0  0  0  0  0  0  0  0  0
    5.2876   -2.6501    0.0000 H   0  0  0  0  0  0  0  0  0  0  0  0
    5.6862   -3.3404    0.0000 H   0  0  0  0  0  0  0  0  0  0  0  0
    7.3748   -3.3654    0.0000 H   0  0  0  0  0  0  0  0  0  0  0  0
    6.9763   -2.6752    0.0000 H   0  0  0  0  0  0  0  0  0  0  0  0
    5.4105    2.4916    0.0000 H   0  0  0  0  0  0  0  0  0  0  0  0
    5.9623    3.1730    0.0000 H   0  0  0  0  0  0  0  0  0  0  0  0
    5.2809    3.7248    0.0000 H   0  0  0  0  0  0  0  0  0  0  0  0
    6.1537   -4.1501    0.0000 H   0  0  0  0  0  0  0  0  0  0  0  0
    6.5522   -4.8404    0.0000 H   0  0  0  0  0  0  0  0  0  0  0  0
    8.2408   -4.8654    0.0000 H   0  0  0  0  0  0  0  0  0  0  0  0
    7.8423   -4.1752    0.0000 H   0  0  0  0  0  0  0  0  0  0  0  0
    4.5030    6.1021    0.0000 H   0  0  0  0  0  0  0  0  0  0  0  0
    4.4197    6.8948    0.0000 H   0  0  0  0  0  0  0  0  0  0  0  0
    2.0305    5.1589    0.0000 H   0  0  0  0  0  0  0  0  0  0  0  0
    2.7587    4.8347    0.0000 H   0  0  0  0  0  0  0  0  0  0  0  0
    7.0197   -5.6501    0.0000 H   0  0  0  0  0  0  0  0  0  0  0  0
    7.4182   -6.3404    0.0000 H   0  0  0  0  0  0  0  0  0  0  0  0
    9.1069   -6.3654    0.0000 H   0  0  0  0  0  0  0  0  0  0  0  0
    8.7083   -5.6752    0.0000 H   0  0  0  0  0  0  0  0  0  0  0  0
    3.9028    7.6222    0.0000 H   0  0  0  0  0  0  0  0  0  0  0  0
    3.0368    7.7594    0.0000 H   0  0  0  0  0  0  0  0  0  0  0  0
    2.8997    6.8934    0.0000 H   0  0  0  0  0  0  0  0  0  0  0  0
    2.5016    6.6041    0.0000 H   0  0  0  0  0  0  0  0  0  0  0  0
    1.6356    6.7413    0.0000 H   0  0  0  0  0  0  0  0  0  0  0  0
    1.4984    5.8753    0.0000 H   0  0  0  0  0  0  0  0  0  0  0  0
    7.8763   -7.2578    0.0000 H   0  0  0  0  0  0  0  0  0  0  0  0
    8.4963   -7.8778    0.0000 H   0  0  0  0  0  0  0  0  0  0  0  0
    9.1163   -7.2578    0.0000 H   0  0  0  0  0  0  0  0  0  0  0  0
  1  9  2  0  0  0  0
  2 12  2  0  0  0  0
  3  9  1  0  0  0  0
  3 11  1  0  0  0  0
  3 12  1  0  0  0  0
  4  6  1  0  0  0  0
  4  7  1  0  0  0  0
  4 31  1  0  0  0  0
  5 14  1  0  0  0  0
  5 20  1  0  0  0  0
  5 21  1  0  0  0  0
  6  8  1  0  0  0  0
  6  9  1  0  0  0  0
  6 27  1  0  0  0  0
  7 10  1  0  0  0  0
  7 17  1  0  0  0  0
  7 28  1  0  0  0  0
  8 12  1  0  0  0  0
  8 29  1  0  0  0  0
  8 30  1  0  0  0  0
 10 14  1  0  0  0  0
 10 32  1  0  0  0  0
 10 33  1  0  0  0  0
 11 13  1  0  0  0  0
 11 34  1  0  0  0  0
 11 35  1  0  0  0  0
 13 15  1  0  0  0  0
 13 36  1  0  0  0  0
 13 37  1  0  0  0  0
 14 38  1  0  0  0  0
 14 39  1  0  0  0  0
 15 16  1  0  0  0  0
 15 40  1  0  0  0  0
 15 41  1  0  0  0  0
 16 18  1  0  0  0  0
 16 42  1  0  0  0  0
 16 43  1  0  0  0  0
 17 44  1  0  0  0  0
 17 45  1  0  0  0  0
 17 46  1  0  0  0  0
 18 19  1  0  0  0  0
 18 47  1  0  0  0  0
 18 48  1  0  0  0  0
 19 22  1  0  0  0  0
 19 49  1  0  0  0  0
 19 50  1  0  0  0  0
 20 24  1  0  0  0  0
 20 51  1  0  0  0  0
 20 52  1  0  0  0  0
 21 25  1  0  0  0  0
 21 53  1  0  0  0  0
 21 54  1  0  0  0  0
 22 23  1  0  0  0  0
 22 55  1  0  0  0  0
 22 56  1  0  0  0  0
 23 26  1  0  0  0  0
 23 57  1  0  0  0  0
 23 58  1  0  0  0  0
 24 59  1  0  0  0  0
 24 60  1  0  0  0  0
 24 61  1  0  0  0  0
 25 62  1  0  0  0  0
 25 63  1  0  0  0  0
 25 64  1  0  0  0  0
 26 65  1  0  0  0  0
 26 66  1  0  0  0  0
 26 67  1  0  0  0  0
M  END
> <PUBCHEM_COMPOUND_CID>
512858
> <PUBCHEM_COMPOUND_CANONICALIZED>
1
> <PUBCHEM_CACTVS_COMPLEXITY>
410
> <PUBCHEM_CACTVS_HBOND_ACCEPTOR>
4
> <PUBCHEM_CACTVS_HBOND_DONOR>
1
> <PUBCHEM_CACTVS_ROTATABLE_BOND>
15
> <PUBCHEM_CACTVS_SUBSKEYS>
AAADcfB7MAAAAAAAAAAAAAAAAAAAAWAAAAAAAAAAAAAAAAAAAAAAHgAQAAAACCjBgAQCAAPAAAAIAAEQEAAAAAAAAAAAAIGIAAAAQBoAwCAUAAAAFiCAAAEVgIAAAAAAAAAAAAAAAAAAAAAAAAAAAAAAAA==
> <PUBCHEM_IUPAC_OPENEYE_NAME>
3-[[3-(diethylamino)-1-methyl-propyl]amino]-1-nonyl-pyrrolidine-2,5-dione
> <PUBCHEM_IUPAC_CAS_NAME>
3-[4-(diethylamino)butan-2-ylamino]-1-nonylpyrrolidine-2,5-dione
> <PUBCHEM_IUPAC_NAME_MARKUP>
3-[4-(diethylamino)butan-2-ylamino]-1-nonylpyrrolidine-2,5-dione
> <PUBCHEM_IUPAC_NAME>
3-[4-(diethylamino)butan-2-ylamino]-1-nonylpyrrolidine-2,5-dione
> <PUBCHEM_IUPAC_SYSTEMATIC_NAME>
3-[4-(diethylamino)butan-2-ylamino]-1-nonyl-pyrrolidine-2,5-dione
> <PUBCHEM_IUPAC_TRADITIONAL_NAME>
3-[[3-(diethylamino)-1-methyl-propyl]amino]-1-nonyl-pyrrolidine-2,5-quinone
> <PUBCHEM_IUPAC_INCHI>
InChI=1S/C21H41N3O2/c1-5-8-9-10-11-12-13-15-24-20(25)17-19(21(24)26)22-18(4)14-16-23(6-2)7-3/h18-19,22H,5-17H2,1-4H3
> <PUBCHEM_IUPAC_INCHIKEY>
FDIBINPNPXYVFJ-UHFFFAOYSA-N
> <PUBCHEM_XLOGP3_AA>
4.4
> <PUBCHEM_EXACT_MASS>
367.31987756
> <PUBCHEM_MOLECULAR_FORMULA>
C21H41N3O2
> <PUBCHEM_MOLECULAR_WEIGHT>
367.6
> <PUBCHEM_OPENEYE_CAN_SMILES>
CCCCCCCCCN1C(=O)CC(C1=O)NC(C)CCN(CC)CC
> <PUBCHEM_OPENEYE_ISO_SMILES>
CCCCCCCCCN1C(=O)CC(C1=O)NC(C)CCN(CC)CC
> <PUBCHEM_CACTVS_TPSA>
52.6
> <PUBCHEM_MONOISOTOPIC_WEIGHT>
367.31987756
> <PUBCHEM_TOTAL_CHARGE>
0
> <PUBCHEM_HEAVY_ATOM_COUNT>
26
> <PUBCHEM_ATOM_DEF_STEREO_COUNT>
0
> <PUBCHEM_ATOM_UDEF_STEREO_COUNT>
2
> <PUBCHEM_BOND_DEF_STEREO_COUNT>
0
> <PUBCHEM_BOND_UDEF_STEREO_COUNT>
0
> <PUBCHEM_ISOTOPIC_ATOM_COUNT>
0
> <PUBCHEM_COMPONENT_COUNT>
1
> <PUBCHEM_CACTVS_TAUTO_COUNT>
-1
> <PUBCHEM_COORDINATE_TYPE>
1
5
255
> <PUBCHEM_BONDANNOTATIONS>
6  4  3
7  17  3
$$$$
