512809
  -OEChem-10302200282D
 44 46  0     1  0  0  0  0  0999 V2000
    4.3020    0.0000    0.0000 Cl  0  0  0  0  0  0  0  0  0  0  0  0
    4.8834    6.5532    0.0000 F   0  0  0  0  0  0  0  0  0  0  0  0
    6.6651    3.4944    0.0000 F   0  0  0  0  0  0  0  0  0  0  0  0
    3.1350    2.5186    0.0000 O   0  0  0  0  0  0  0  0  0  0  0  0
    0.5369    4.0186    0.0000 O   0  0  0  0  0  0  0  0  0  0  0  0
    1.4030    2.5186    0.0000 O   0  0  0  0  0  0  0  0  0  0  0  0
    6.6651    5.5427    0.0000 N   0  0  3  0  0  0  0  0  0  0  0  0
    4.0010    4.0186    0.0000 N   0  0  0  0  0  0  0  0  0  0  0  0
    9.2414    5.7846    0.0000 N   0  0  0  0  0  0  0  0  0  0  0  0
    3.1350    6.5186    0.0000 C   0  0  0  0  0  0  0  0  0  0  0  0
    3.6350    7.3846    0.0000 C   0  0  0  0  0  0  0  0  0  0  0  0
    2.6350    7.3846    0.0000 C   0  0  0  0  0  0  0  0  0  0  0  0
    3.1350    5.5186    0.0000 C   0  0  0  0  0  0  0  0  0  0  0  0
    4.0010    5.0186    0.0000 C   0  0  0  0  0  0  0  0  0  0  0  0
    8.2465    5.8852    0.0000 C   0  0  3  0  0  0  0  0  0  0  0  0
    7.5802    5.1395    0.0000 C   0  0  0  0  0  0  0  0  0  0  0  0
    7.7432    6.7493    0.0000 C   0  0  0  0  0  0  0  0  0  0  0  0
    6.7658    6.5376    0.0000 C   0  0  0  0  0  0  0  0  0  0  0  0
    5.8010    5.0394    0.0000 C   0  0  0  0  0  0  0  0  0  0  0  0
    2.2690    5.0186    0.0000 C   0  0  0  0  0  0  0  0  0  0  0  0
    4.8950    5.5532    0.0000 C   0  0  0  0  0  0  0  0  0  0  0  0
    2.2690    4.0186    0.0000 C   0  0  0  0  0  0  0  0  0  0  0  0
    5.8010    3.9978    0.0000 C   0  0  0  0  0  0  0  0  0  0  0  0
    3.1350    3.5186    0.0000 C   0  0  0  0  0  0  0  0  0  0  0  0
    4.8950    3.4839    0.0000 C   0  0  0  0  0  0  0  0  0  0  0  0
    1.4030    3.5186    0.0000 C   0  0  0  0  0  0  0  0  0  0  0  0
    2.5361    6.3581    0.0000 H   0  0  0  0  0  0  0  0  0  0  0  0
    4.2176    7.1726    0.0000 H   0  0  0  0  0  0  0  0  0  0  0  0
    3.7427    7.9952    0.0000 H   0  0  0  0  0  0  0  0  0  0  0  0
    2.5274    7.9952    0.0000 H   0  0  0  0  0  0  0  0  0  0  0  0
    2.0524    7.1726    0.0000 H   0  0  0  0  0  0  0  0  0  0  0  0
    8.5822    6.4065    0.0000 H   0  0  0  0  0  0  0  0  0  0  0  0
    7.2723    4.6014    0.0000 H   0  0  0  0  0  0  0  0  0  0  0  0
    8.0832    4.7770    0.0000 H   0  0  0  0  0  0  0  0  0  0  0  0
    8.3086    7.0037    0.0000 H   0  0  0  0  0  0  0  0  0  0  0  0
    7.5493    7.3382    0.0000 H   0  0  0  0  0  0  0  0  0  0  0  0
    6.6986    7.1540    0.0000 H   0  0  0  0  0  0  0  0  0  0  0  0
    6.1458    6.5353    0.0000 H   0  0  0  0  0  0  0  0  0  0  0  0
    1.7320    5.3286    0.0000 H   0  0  0  0  0  0  0  0  0  0  0  0
    4.8878    2.8640    0.0000 H   0  0  0  0  0  0  0  0  0  0  0  0
    9.6039    6.2875    0.0000 H   0  0  0  0  0  0  0  0  0  0  0  0
    9.4958    5.2191    0.0000 H   0  0  0  0  0  0  0  0  0  0  0  0
    0.0000    3.7086    0.0000 H   0  0  0  0  0  0  0  0  0  0  0  0
    5.3020    0.0000    0.0000 H   0  0  0  0  0  0  0  0  0  0  0  0
  1 44  1  0  0  0  0
  2 21  1  0  0  0  0
  3 23  1  0  0  0  0
  4 24  2  0  0  0  0
  5 26  1  0  0  0  0
  5 43  1  0  0  0  0
  6 26  2  0  0  0  0
  7 16  1  0  0  0  0
  7 18  1  0  0  0  0
  7 19  1  0  0  0  0
  8 14  1  0  0  0  0
  8 24  1  0  0  0  0
  8 25  1  0  0  0  0
  9 15  1  0  0  0  0
  9 41  1  0  0  0  0
  9 42  1  0  0  0  0
 10 11  1  0  0  0  0
 10 12  1  0  0  0  0
 10 13  1  0  0  0  0
 10 27  1  0  0  0  0
 11 12  1  0  0  0  0
 11 28  1  0  0  0  0
 11 29  1  0  0  0  0
 12 30  1  0  0  0  0
 12 31  1  0  0  0  0
 13 14  2  0  0  0  0
 13 20  1  0  0  0  0
 14 21  1  0  0  0  0
 15 16  1  0  0  0  0
 15 17  1  0  0  0  0
 15 32  1  0  0  0  0
 16 33  1  0  0  0  0
 16 34  1  0  0  0  0
 17 18  1  0  0  0  0
 17 35  1  0  0  0  0
 17 36  1  0  0  0  0
 18 37  1  0  0  0  0
 18 38  1  0  0  0  0
 19 21  2  0  0  0  0
 19 23  1  0  0  0  0
 20 22  2  0  0  0  0
 20 39  1  0  0  0  0
 22 24  1  0  0  0  0
 22 26  1  0  0  0  0
 23 25  2  0  0  0  0
 25 40  1  0  0  0  0
M  END
> <PUBCHEM_COMPOUND_CID>
512809
> <PUBCHEM_COMPOUND_CANONICALIZED>
1
> <PUBCHEM_CACTVS_COMPLEXITY>
808
> <PUBCHEM_CACTVS_HBOND_ACCEPTOR>
7
> <PUBCHEM_CACTVS_HBOND_DONOR>
3
> <PUBCHEM_CACTVS_ROTATABLE_BOND>
3
> <PUBCHEM_CACTVS_SUBSKEYS>
AAADceB7MYAEAAAAAAAAAAAAGAAAAWAAAAAgQAAAAAAAAACAAAAAHwAQCAAADSjBgAQACANAAgCIAiXWWACAAAAgAAAACIEIAEgIRA4IwAAUUAACtgCIkYIAAAAIAAAAAAAAAAAAAAAAAAAAAAAAAAAAAA==
> <PUBCHEM_IUPAC_OPENEYE_NAME>
8-(3-aminopyrrolidin-1-yl)-1-cyclopropyl-7,9-difluoro-4-oxo-quinolizine-3-carboxylic acid;hydrochloride
> <PUBCHEM_IUPAC_CAS_NAME>
8-(3-amino-1-pyrrolidinyl)-1-cyclopropyl-7,9-difluoro-4-oxo-3-quinolizinecarboxylic acid;hydrochloride
> <PUBCHEM_IUPAC_NAME_MARKUP>
8-(3-aminopyrrolidin-1-yl)-1-cyclopropyl-7,9-difluoro-4-oxoquinolizine-3-carboxylic acid;hydrochloride
> <PUBCHEM_IUPAC_NAME>
8-(3-aminopyrrolidin-1-yl)-1-cyclopropyl-7,9-difluoro-4-oxoquinolizine-3-carboxylic acid;hydrochloride
> <PUBCHEM_IUPAC_SYSTEMATIC_NAME>
8-(3-azanylpyrrolidin-1-yl)-1-cyclopropyl-7,9-bis(fluoranyl)-4-oxidanylidene-quinolizine-3-carboxylic acid;hydrochloride
> <PUBCHEM_IUPAC_TRADITIONAL_NAME>
8-(3-aminopyrrolidino)-1-cyclopropyl-7,9-difluoro-4-keto-quinolizine-3-carboxylic acid;hydrochloride
> <PUBCHEM_IUPAC_INCHI>
InChI=1S/C17H17F2N3O3.ClH/c18-12-7-22-14(13(19)15(12)21-4-3-9(20)6-21)10(8-1-2-8)5-11(16(22)23)17(24)25;/h5,7-9H,1-4,6,20H2,(H,24,25);1H
> <PUBCHEM_IUPAC_INCHIKEY>
DLSDPSIVNIPURM-UHFFFAOYSA-N
> <PUBCHEM_EXACT_MASS>
385.1004755
> <PUBCHEM_MOLECULAR_FORMULA>
C17H18ClF2N3O3
> <PUBCHEM_MOLECULAR_WEIGHT>
385.8
> <PUBCHEM_OPENEYE_CAN_SMILES>
C1CC1C2=C3C(=C(C(=CN3C(=O)C(=C2)C(=O)O)F)N4CCC(C4)N)F.Cl
> <PUBCHEM_OPENEYE_ISO_SMILES>
C1CC1C2=C3C(=C(C(=CN3C(=O)C(=C2)C(=O)O)F)N4CCC(C4)N)F.Cl
> <PUBCHEM_CACTVS_TPSA>
86.9
> <PUBCHEM_MONOISOTOPIC_WEIGHT>
385.1004755
> <PUBCHEM_TOTAL_CHARGE>
0
> <PUBCHEM_HEAVY_ATOM_COUNT>
26
> <PUBCHEM_ATOM_DEF_STEREO_COUNT>
0
> <PUBCHEM_ATOM_UDEF_STEREO_COUNT>
1
> <PUBCHEM_BOND_DEF_STEREO_COUNT>
0
> <PUBCHEM_BOND_UDEF_STEREO_COUNT>
0
> <PUBCHEM_ISOTOPIC_ATOM_COUNT>
0
> <PUBCHEM_COMPONENT_COUNT>
2
> <PUBCHEM_CACTVS_TAUTO_COUNT>
-1
> <PUBCHEM_COORDINATE_TYPE>
1
5
255
> <PUBCHEM_BONDANNOTATIONS>
13  14  8
13  20  8
14  21  8
19  21  8
19  23  8
20  22  8
22  24  8
23  25  8
8  14  8
8  24  8
8  25  8
15  9  3
$$$$
