512802
  -OEChem-10302200282D
 51 54  0     1  0  0  0  0  0999 V2000
    8.6651   -1.4572    0.0000 F   0  0  0  0  0  0  0  0  0  0  0  0
    5.1350   -2.4330    0.0000 O   0  0  0  0  0  0  0  0  0  0  0  0
    2.5369   -0.9330    0.0000 O   0  0  0  0  0  0  0  0  0  0  0  0
    3.4030   -2.4330    0.0000 O   0  0  0  0  0  0  0  0  0  0  0  0
    8.6651    0.5911    0.0000 N   0  0  3  0  0  0  0  0  0  0  0  0
    6.0010   -0.9330    0.0000 N   0  0  0  0  0  0  0  0  0  0  0  0
   11.2414    0.8329    0.0000 N   0  0  0  0  0  0  0  0  0  0  0  0
    5.1350    1.5670    0.0000 C   0  0  0  0  0  0  0  0  0  0  0  0
    5.6350    2.4330    0.0000 C   0  0  0  0  0  0  0  0  0  0  0  0
    4.6350    2.4330    0.0000 C   0  0  0  0  0  0  0  0  0  0  0  0
    5.1350    0.5670    0.0000 C   0  0  0  0  0  0  0  0  0  0  0  0
   10.2465    0.9336    0.0000 C   0  0  3  0  0  0  0  0  0  0  0  0
    6.0010    0.0670    0.0000 C   0  0  0  0  0  0  0  0  0  0  0  0
    9.5802    0.1879    0.0000 C   0  0  0  0  0  0  0  0  0  0  0  0
    9.7432    1.7977    0.0000 C   0  0  0  0  0  0  0  0  0  0  0  0
    8.7658    1.5860    0.0000 C   0  0  0  0  0  0  0  0  0  0  0  0
    7.8010    0.0878    0.0000 C   0  0  0  0  0  0  0  0  0  0  0  0
    6.8950    0.6016    0.0000 C   0  0  0  0  0  0  0  0  0  0  0  0
    4.2690    0.0670    0.0000 C   0  0  0  0  0  0  0  0  0  0  0  0
    7.8010   -0.9538    0.0000 C   0  0  0  0  0  0  0  0  0  0  0  0
    4.2690   -0.9330    0.0000 C   0  0  0  0  0  0  0  0  0  0  0  0
    6.8950   -1.4677    0.0000 C   0  0  0  0  0  0  0  0  0  0  0  0
    5.1350   -1.4330    0.0000 C   0  0  0  0  0  0  0  0  0  0  0  0
    6.8834    1.6016    0.0000 C   0  0  0  0  0  0  0  0  0  0  0  0
   11.8261    1.6442    0.0000 C   0  0  0  0  0  0  0  0  0  0  0  0
    3.4030   -1.4330    0.0000 C   0  0  0  0  0  0  0  0  0  0  0  0
   12.8210    1.5435    0.0000 C   0  0  0  0  0  0  0  0  0  0  0  0
    5.7339    1.4065    0.0000 H   0  0  0  0  0  0  0  0  0  0  0  0
    6.2176    2.2210    0.0000 H   0  0  0  0  0  0  0  0  0  0  0  0
    5.7427    3.0436    0.0000 H   0  0  0  0  0  0  0  0  0  0  0  0
    4.5274    3.0436    0.0000 H   0  0  0  0  0  0  0  0  0  0  0  0
    4.0524    2.2210    0.0000 H   0  0  0  0  0  0  0  0  0  0  0  0
   10.5822    1.4549    0.0000 H   0  0  0  0  0  0  0  0  0  0  0  0
    9.2723   -0.3502    0.0000 H   0  0  0  0  0  0  0  0  0  0  0  0
   10.0832   -0.1746    0.0000 H   0  0  0  0  0  0  0  0  0  0  0  0
   10.3086    2.0521    0.0000 H   0  0  0  0  0  0  0  0  0  0  0  0
    9.5493    2.3866    0.0000 H   0  0  0  0  0  0  0  0  0  0  0  0
    8.6986    2.2024    0.0000 H   0  0  0  0  0  0  0  0  0  0  0  0
    8.1458    1.5837    0.0000 H   0  0  0  0  0  0  0  0  0  0  0  0
    3.7320    0.3770    0.0000 H   0  0  0  0  0  0  0  0  0  0  0  0
   11.4958    0.2675    0.0000 H   0  0  0  0  0  0  0  0  0  0  0  0
    6.8878   -2.0876    0.0000 H   0  0  0  0  0  0  0  0  0  0  0  0
    7.5034    1.6087    0.0000 H   0  0  0  0  0  0  0  0  0  0  0  0
    6.8762    2.2215    0.0000 H   0  0  0  0  0  0  0  0  0  0  0  0
    6.2635    1.5944    0.0000 H   0  0  0  0  0  0  0  0  0  0  0  0
   11.9947    2.2409    0.0000 H   0  0  0  0  0  0  0  0  0  0  0  0
   11.2678    1.9139    0.0000 H   0  0  0  0  0  0  0  0  0  0  0  0
   12.7586    0.9267    0.0000 H   0  0  0  0  0  0  0  0  0  0  0  0
   13.4379    1.4811    0.0000 H   0  0  0  0  0  0  0  0  0  0  0  0
   12.8834    2.1604    0.0000 H   0  0  0  0  0  0  0  0  0  0  0  0
    2.0000   -1.2430    0.0000 H   0  0  0  0  0  0  0  0  0  0  0  0
  1 20  1  0  0  0  0
  2 23  2  0  0  0  0
  3 26  1  0  0  0  0
  3 51  1  0  0  0  0
  4 26  2  0  0  0  0
  5 14  1  0  0  0  0
  5 16  1  0  0  0  0
  5 17  1  0  0  0  0
  6 13  1  0  0  0  0
  6 22  1  0  0  0  0
  6 23  1  0  0  0  0
  7 12  1  0  0  0  0
  7 25  1  0  0  0  0
  7 41  1  0  0  0  0
  8  9  1  0  0  0  0
  8 10  1  0  0  0  0
  8 11  1  0  0  0  0
  8 28  1  0  0  0  0
  9 10  1  0  0  0  0
  9 29  1  0  0  0  0
  9 30  1  0  0  0  0
 10 31  1  0  0  0  0
 10 32  1  0  0  0  0
 11 13  2  0  0  0  0
 11 19  1  0  0  0  0
 12 14  1  0  0  0  0
 12 15  1  0  0  0  0
 12 33  1  0  0  0  0
 13 18  1  0  0  0  0
 14 34  1  0  0  0  0
 14 35  1  0  0  0  0
 15 16  1  0  0  0  0
 15 36  1  0  0  0  0
 15 37  1  0  0  0  0
 16 38  1  0  0  0  0
 16 39  1  0  0  0  0
 17 18  2  0  0  0  0
 17 20  1  0  0  0  0
 18 24  1  0  0  0  0
 19 21  2  0  0  0  0
 19 40  1  0  0  0  0
 20 22  2  0  0  0  0
 21 23  1  0  0  0  0
 21 26  1  0  0  0  0
 22 42  1  0  0  0  0
 24 43  1  0  0  0  0
 24 44  1  0  0  0  0
 24 45  1  0  0  0  0
 25 27  1  0  0  0  0
 25 46  1  0  0  0  0
 25 47  1  0  0  0  0
 27 48  1  0  0  0  0
 27 49  1  0  0  0  0
 27 50  1  0  0  0  0
M  END
> <PUBCHEM_COMPOUND_CID>
512802
> <PUBCHEM_COMPOUND_CANONICALIZED>
1
> <PUBCHEM_CACTVS_COMPLEXITY>
835
> <PUBCHEM_CACTVS_HBOND_ACCEPTOR>
6
> <PUBCHEM_CACTVS_HBOND_DONOR>
2
> <PUBCHEM_CACTVS_ROTATABLE_BOND>
5
> <PUBCHEM_CACTVS_SUBSKEYS>
AAADceB7MQAAAAAAAAAAAAAAGAAAAWAAAAAgQAAAAAAAAACAAAAAHwAQCAAADSjBgAQCCAPAAgCIAiXWWACAAAAgAAAACIEIAEgIRA4IwAAUUAACtgCIkYIAAAAIAAAAAAAAAAAAAAAAAAAAAAAAAAAAAA==
> <PUBCHEM_IUPAC_OPENEYE_NAME>
1-cyclopropyl-8-[3-(ethylamino)pyrrolidin-1-yl]-7-fluoro-9-methyl-4-oxo-quinolizine-3-carboxylic acid
> <PUBCHEM_IUPAC_CAS_NAME>
1-cyclopropyl-8-[3-(ethylamino)-1-pyrrolidinyl]-7-fluoro-9-methyl-4-oxo-3-quinolizinecarboxylic acid
> <PUBCHEM_IUPAC_NAME_MARKUP>
1-cyclopropyl-8-[3-(ethylamino)pyrrolidin-1-yl]-7-fluoro-9-methyl-4-oxoquinolizine-3-carboxylic acid
> <PUBCHEM_IUPAC_NAME>
1-cyclopropyl-8-[3-(ethylamino)pyrrolidin-1-yl]-7-fluoro-9-methyl-4-oxoquinolizine-3-carboxylic acid
> <PUBCHEM_IUPAC_SYSTEMATIC_NAME>
1-cyclopropyl-8-[3-(ethylamino)pyrrolidin-1-yl]-7-fluoranyl-9-methyl-4-oxidanylidene-quinolizine-3-carboxylic acid
> <PUBCHEM_IUPAC_TRADITIONAL_NAME>
1-cyclopropyl-8-[3-(ethylamino)pyrrolidino]-7-fluoro-4-keto-9-methyl-quinolizine-3-carboxylic acid
> <PUBCHEM_IUPAC_INCHI>
InChI=1S/C20H24FN3O3/c1-3-22-13-6-7-23(9-13)18-11(2)17-14(12-4-5-12)8-15(20(26)27)19(25)24(17)10-16(18)21/h8,10,12-13,22H,3-7,9H2,1-2H3,(H,26,27)
> <PUBCHEM_IUPAC_INCHIKEY>
ICEFTLYIAANHCD-UHFFFAOYSA-N
> <PUBCHEM_XLOGP3_AA>
-0.5
> <PUBCHEM_EXACT_MASS>
373.18016980
> <PUBCHEM_MOLECULAR_FORMULA>
C20H24FN3O3
> <PUBCHEM_MOLECULAR_WEIGHT>
373.4
> <PUBCHEM_OPENEYE_CAN_SMILES>
CCNC1CCN(C1)C2=C(C3=C(C=C(C(=O)N3C=C2F)C(=O)O)C4CC4)C
> <PUBCHEM_OPENEYE_ISO_SMILES>
CCNC1CCN(C1)C2=C(C3=C(C=C(C(=O)N3C=C2F)C(=O)O)C4CC4)C
> <PUBCHEM_CACTVS_TPSA>
72.9
> <PUBCHEM_MONOISOTOPIC_WEIGHT>
373.18016980
> <PUBCHEM_TOTAL_CHARGE>
0
> <PUBCHEM_HEAVY_ATOM_COUNT>
27
> <PUBCHEM_ATOM_DEF_STEREO_COUNT>
0
> <PUBCHEM_ATOM_UDEF_STEREO_COUNT>
1
> <PUBCHEM_BOND_DEF_STEREO_COUNT>
0
> <PUBCHEM_BOND_UDEF_STEREO_COUNT>
0
> <PUBCHEM_ISOTOPIC_ATOM_COUNT>
0
> <PUBCHEM_COMPONENT_COUNT>
1
> <PUBCHEM_CACTVS_TAUTO_COUNT>
-1
> <PUBCHEM_COORDINATE_TYPE>
1
5
255
> <PUBCHEM_BONDANNOTATIONS>
11  13  8
11  19  8
13  18  8
17  18  8
17  20  8
19  21  8
20  22  8
21  23  8
6  13  8
6  22  8
6  23  8
12  7  3
$$$$
