512834
  -OEChem-10302200282D
 74 74  0     1  0  0  0  0  0999 V2000
    2.2330   -1.4516    0.0000 O   0  0  0  0  0  0  0  0  0  0  0  0
    5.7531   -1.4516    0.0000 O   0  0  0  0  0  0  0  0  0  0  0  0
    3.9930   -1.7303    0.0000 N   0  0  0  0  0  0  0  0  0  0  0  0
    2.9052    0.6175    0.0000 N   0  0  0  0  0  0  0  0  0  0  0  0
    3.4930   -0.1915    0.0000 C   0  0  3  0  0  0  0  0  0  0  0  0
    4.4930   -0.1915    0.0000 C   0  0  0  0  0  0  0  0  0  0  0  0
    3.9930   -2.7303    0.0000 C   0  0  0  0  0  0  0  0  0  0  0  0
    3.1840   -1.1426    0.0000 C   0  0  0  0  0  0  0  0  0  0  0  0
    4.8590   -3.2303    0.0000 C   0  0  0  0  0  0  0  0  0  0  0  0
    4.8590   -4.2303    0.0000 C   0  0  0  0  0  0  0  0  0  0  0  0
    4.8021   -1.1426    0.0000 C   0  0  0  0  0  0  0  0  0  0  0  0
    3.3120    1.5311    0.0000 C   0  0  0  0  0  0  0  0  0  0  0  0
    2.7242    2.3401    0.0000 C   0  0  0  0  0  0  0  0  0  0  0  0
    5.7251   -4.7303    0.0000 C   0  0  0  0  0  0  0  0  0  0  0  0
    3.1309    3.2536    0.0000 C   0  0  0  0  0  0  0  0  0  0  0  0
    2.5431    4.0626    0.0000 C   0  0  0  0  0  0  0  0  0  0  0  0
    5.7251   -5.7303    0.0000 C   0  0  0  0  0  0  0  0  0  0  0  0
    2.9499    4.9762    0.0000 C   0  0  0  0  0  0  0  0  0  0  0  0
    6.5911   -6.2303    0.0000 C   0  0  0  0  0  0  0  0  0  0  0  0
    2.3621    5.7852    0.0000 C   0  0  0  0  0  0  0  0  0  0  0  0
    6.5911   -7.2303    0.0000 C   0  0  0  0  0  0  0  0  0  0  0  0
    2.7688    6.6988    0.0000 C   0  0  0  0  0  0  0  0  0  0  0  0
    7.4571   -7.7303    0.0000 C   0  0  0  0  0  0  0  0  0  0  0  0
    2.1810    7.5078    0.0000 C   0  0  0  0  0  0  0  0  0  0  0  0
    7.4571   -8.7303    0.0000 C   0  0  0  0  0  0  0  0  0  0  0  0
    2.5878    8.4213    0.0000 C   0  0  0  0  0  0  0  0  0  0  0  0
    8.3232   -9.2303    0.0000 C   0  0  0  0  0  0  0  0  0  0  0  0
    2.0000    9.2303    0.0000 C   0  0  0  0  0  0  0  0  0  0  0  0
    3.7745    0.3609    0.0000 H   0  0  0  0  0  0  0  0  0  0  0  0
    5.0995   -0.0626    0.0000 H   0  0  0  0  0  0  0  0  0  0  0  0
    4.4282    0.4251    0.0000 H   0  0  0  0  0  0  0  0  0  0  0  0
    3.3824   -2.6227    0.0000 H   0  0  0  0  0  0  0  0  0  0  0  0
    3.7810   -3.3129    0.0000 H   0  0  0  0  0  0  0  0  0  0  0  0
    5.4696   -3.3380    0.0000 H   0  0  0  0  0  0  0  0  0  0  0  0
    5.0711   -2.6477    0.0000 H   0  0  0  0  0  0  0  0  0  0  0  0
    4.2485   -4.1227    0.0000 H   0  0  0  0  0  0  0  0  0  0  0  0
    4.6470   -4.8130    0.0000 H   0  0  0  0  0  0  0  0  0  0  0  0
    2.2886    0.5527    0.0000 H   0  0  0  0  0  0  0  0  0  0  0  0
    3.8260    1.1844    0.0000 H   0  0  0  0  0  0  0  0  0  0  0  0
    3.7427    1.9771    0.0000 H   0  0  0  0  0  0  0  0  0  0  0  0
    2.2102    2.6868    0.0000 H   0  0  0  0  0  0  0  0  0  0  0  0
    2.2935    1.8941    0.0000 H   0  0  0  0  0  0  0  0  0  0  0  0
    6.3357   -4.8380    0.0000 H   0  0  0  0  0  0  0  0  0  0  0  0
    5.9371   -4.1477    0.0000 H   0  0  0  0  0  0  0  0  0  0  0  0
    3.6449    2.9069    0.0000 H   0  0  0  0  0  0  0  0  0  0  0  0
    3.5616    3.6996    0.0000 H   0  0  0  0  0  0  0  0  0  0  0  0
    2.0291    4.4094    0.0000 H   0  0  0  0  0  0  0  0  0  0  0  0
    2.1125    3.6167    0.0000 H   0  0  0  0  0  0  0  0  0  0  0  0
    5.1145   -5.6227    0.0000 H   0  0  0  0  0  0  0  0  0  0  0  0
    5.5130   -6.3130    0.0000 H   0  0  0  0  0  0  0  0  0  0  0  0
    3.4639    4.6295    0.0000 H   0  0  0  0  0  0  0  0  0  0  0  0
    3.3806    5.4222    0.0000 H   0  0  0  0  0  0  0  0  0  0  0  0
    7.2017   -6.3380    0.0000 H   0  0  0  0  0  0  0  0  0  0  0  0
    6.8032   -5.6477    0.0000 H   0  0  0  0  0  0  0  0  0  0  0  0
    1.8481    6.1319    0.0000 H   0  0  0  0  0  0  0  0  0  0  0  0
    1.9314    5.3392    0.0000 H   0  0  0  0  0  0  0  0  0  0  0  0
    5.9805   -7.1227    0.0000 H   0  0  0  0  0  0  0  0  0  0  0  0
    6.3790   -7.8130    0.0000 H   0  0  0  0  0  0  0  0  0  0  0  0
    3.2828    6.3521    0.0000 H   0  0  0  0  0  0  0  0  0  0  0  0
    3.1995    7.1448    0.0000 H   0  0  0  0  0  0  0  0  0  0  0  0
    8.0677   -7.8380    0.0000 H   0  0  0  0  0  0  0  0  0  0  0  0
    7.6692   -7.1477    0.0000 H   0  0  0  0  0  0  0  0  0  0  0  0
    1.6670    7.8545    0.0000 H   0  0  0  0  0  0  0  0  0  0  0  0
    1.7504    7.0618    0.0000 H   0  0  0  0  0  0  0  0  0  0  0  0
    6.8466   -8.6227    0.0000 H   0  0  0  0  0  0  0  0  0  0  0  0
    7.2451   -9.3129    0.0000 H   0  0  0  0  0  0  0  0  0  0  0  0
    3.1018    8.0746    0.0000 H   0  0  0  0  0  0  0  0  0  0  0  0
    3.0185    8.8673    0.0000 H   0  0  0  0  0  0  0  0  0  0  0  0
    8.0132   -9.7673    0.0000 H   0  0  0  0  0  0  0  0  0  0  0  0
    8.8601   -9.5403    0.0000 H   0  0  0  0  0  0  0  0  0  0  0  0
    8.6332   -8.6934    0.0000 H   0  0  0  0  0  0  0  0  0  0  0  0
    2.5016    9.5948    0.0000 H   0  0  0  0  0  0  0  0  0  0  0  0
    1.6356    9.7319    0.0000 H   0  0  0  0  0  0  0  0  0  0  0  0
    1.4984    8.8659    0.0000 H   0  0  0  0  0  0  0  0  0  0  0  0
  1  8  2  0  0  0  0
  2 11  2  0  0  0  0
  3  7  1  0  0  0  0
  3  8  1  0  0  0  0
  3 11  1  0  0  0  0
  4  5  1  0  0  0  0
  4 12  1  0  0  0  0
  4 38  1  0  0  0  0
  5  6  1  0  0  0  0
  5  8  1  0  0  0  0
  5 29  1  0  0  0  0
  6 11  1  0  0  0  0
  6 30  1  0  0  0  0
  6 31  1  0  0  0  0
  7  9  1  0  0  0  0
  7 32  1  0  0  0  0
  7 33  1  0  0  0  0
  9 10  1  0  0  0  0
  9 34  1  0  0  0  0
  9 35  1  0  0  0  0
 10 14  1  0  0  0  0
 10 36  1  0  0  0  0
 10 37  1  0  0  0  0
 12 13  1  0  0  0  0
 12 39  1  0  0  0  0
 12 40  1  0  0  0  0
 13 15  1  0  0  0  0
 13 41  1  0  0  0  0
 13 42  1  0  0  0  0
 14 17  1  0  0  0  0
 14 43  1  0  0  0  0
 14 44  1  0  0  0  0
 15 16  1  0  0  0  0
 15 45  1  0  0  0  0
 15 46  1  0  0  0  0
 16 18  1  0  0  0  0
 16 47  1  0  0  0  0
 16 48  1  0  0  0  0
 17 19  1  0  0  0  0
 17 49  1  0  0  0  0
 17 50  1  0  0  0  0
 18 20  1  0  0  0  0
 18 51  1  0  0  0  0
 18 52  1  0  0  0  0
 19 21  1  0  0  0  0
 19 53  1  0  0  0  0
 19 54  1  0  0  0  0
 20 22  1  0  0  0  0
 20 55  1  0  0  0  0
 20 56  1  0  0  0  0
 21 23  1  0  0  0  0
 21 57  1  0  0  0  0
 21 58  1  0  0  0  0
 22 24  1  0  0  0  0
 22 59  1  0  0  0  0
 22 60  1  0  0  0  0
 23 25  1  0  0  0  0
 23 61  1  0  0  0  0
 23 62  1  0  0  0  0
 24 26  1  0  0  0  0
 24 63  1  0  0  0  0
 24 64  1  0  0  0  0
 25 27  1  0  0  0  0
 25 65  1  0  0  0  0
 25 66  1  0  0  0  0
 26 28  1  0  0  0  0
 26 67  1  0  0  0  0
 26 68  1  0  0  0  0
 27 69  1  0  0  0  0
 27 70  1  0  0  0  0
 27 71  1  0  0  0  0
 28 72  1  0  0  0  0
 28 73  1  0  0  0  0
 28 74  1  0  0  0  0
M  END
> <PUBCHEM_COMPOUND_CID>
512834
> <PUBCHEM_COMPOUND_CANONICALIZED>
1
> <PUBCHEM_CACTVS_COMPLEXITY>
411
> <PUBCHEM_CACTVS_HBOND_ACCEPTOR>
3
> <PUBCHEM_CACTVS_HBOND_DONOR>
1
> <PUBCHEM_CACTVS_ROTATABLE_BOND>
19
> <PUBCHEM_CACTVS_SUBSKEYS>
AAADcfB7MAAAAAAAAAAAAAAAAAAAAWAAAAAAAAAAAAAAAAAAAAAAHgAQAAAACCjBgAQCAAPAAAAIAAEQEAAAAAAAAAAAAIGIAAAAQBoAwCAUAAAAFiCAAAEVgIAAAAAAAAAAAAAAAAAAAAAAAAAAAAAAAA==
> <PUBCHEM_IUPAC_OPENEYE_NAME>
1-decyl-3-(decylamino)pyrrolidine-2,5-dione
> <PUBCHEM_IUPAC_CAS_NAME>
1-decyl-3-(decylamino)pyrrolidine-2,5-dione
> <PUBCHEM_IUPAC_NAME_MARKUP>
1-decyl-3-(decylamino)pyrrolidine-2,5-dione
> <PUBCHEM_IUPAC_NAME>
1-decyl-3-(decylamino)pyrrolidine-2,5-dione
> <PUBCHEM_IUPAC_SYSTEMATIC_NAME>
1-decyl-3-(decylamino)pyrrolidine-2,5-dione
> <PUBCHEM_IUPAC_TRADITIONAL_NAME>
1-decyl-3-(decylamino)pyrrolidine-2,5-quinone
> <PUBCHEM_IUPAC_INCHI>
InChI=1S/C24H46N2O2/c1-3-5-7-9-11-13-15-17-19-25-22-21-23(27)26(24(22)28)20-18-16-14-12-10-8-6-4-2/h22,25H,3-21H2,1-2H3
> <PUBCHEM_IUPAC_INCHIKEY>
VEAFEROEDUKTLW-UHFFFAOYSA-N
> <PUBCHEM_XLOGP3_AA>
7.8
> <PUBCHEM_EXACT_MASS>
394.35592871
> <PUBCHEM_MOLECULAR_FORMULA>
C24H46N2O2
> <PUBCHEM_MOLECULAR_WEIGHT>
394.6
> <PUBCHEM_OPENEYE_CAN_SMILES>
CCCCCCCCCCNC1CC(=O)N(C1=O)CCCCCCCCCC
> <PUBCHEM_OPENEYE_ISO_SMILES>
CCCCCCCCCCNC1CC(=O)N(C1=O)CCCCCCCCCC
> <PUBCHEM_CACTVS_TPSA>
49.4
> <PUBCHEM_MONOISOTOPIC_WEIGHT>
394.35592871
> <PUBCHEM_TOTAL_CHARGE>
0
> <PUBCHEM_HEAVY_ATOM_COUNT>
28
> <PUBCHEM_ATOM_DEF_STEREO_COUNT>
0
> <PUBCHEM_ATOM_UDEF_STEREO_COUNT>
1
> <PUBCHEM_BOND_DEF_STEREO_COUNT>
0
> <PUBCHEM_BOND_UDEF_STEREO_COUNT>
0
> <PUBCHEM_ISOTOPIC_ATOM_COUNT>
0
> <PUBCHEM_COMPONENT_COUNT>
1
> <PUBCHEM_CACTVS_TAUTO_COUNT>
-1
> <PUBCHEM_COORDINATE_TYPE>
1
5
255
> <PUBCHEM_BONDANNOTATIONS>
5  4  3
$$$$
