512884
  -OEChem-10302200282D
 83 87  0     1  0  0  0  0  0999 V2000
    8.0776   -6.9388    0.0000 F   0  0  0  0  0  0  0  0  0  0  0  0
    2.3644   -4.3951    0.0000 O   0  0  0  0  0  0  0  0  0  0  0  0
    3.7657   -5.4132    0.0000 O   0  0  0  0  0  0  0  0  0  0  0  0
    5.5290   -2.9861    0.0000 N   0  0  3  0  0  0  0  0  0  0  0  0
    7.9777   -1.1497    0.0000 N   0  0  0  0  0  0  0  0  0  0  0  0
    7.1687    2.4381    0.0000 N   0  0  0  0  0  0  0  0  0  0  0  0
    7.4777    3.3891    0.0000 N   0  0  0  0  0  0  0  0  0  0  0  0
    7.1117   -2.6497    0.0000 C   0  0  2  0  0  0  0  0  0  0  0  0
    7.0072   -3.6442    0.0000 C   0  0  2  0  0  0  0  0  0  0  0  0
    6.1982   -2.2430    0.0000 C   0  0  0  0  0  0  0  0  0  0  0  0
    6.0290   -3.8521    0.0000 C   0  0  0  0  0  0  0  0  0  0  0  0
    7.9777   -2.1497    0.0000 C   0  0  0  0  0  0  0  0  0  0  0  0
    4.5345   -2.8816    0.0000 C   0  0  0  0  0  0  0  0  0  0  0  0
    7.1117   -0.6497    0.0000 C   0  0  0  0  0  0  0  0  0  0  0  0
    8.8438   -0.6497    0.0000 C   0  0  0  0  0  0  0  0  0  0  0  0
    7.9777    0.8503    0.0000 C   0  0  0  0  0  0  0  0  0  0  0  0
    7.7503   -4.3134    0.0000 C   0  0  0  0  0  0  0  0  0  0  0  0
    7.1117    0.3503    0.0000 C   0  0  0  0  0  0  0  0  0  0  0  0
    8.8438    0.3503    0.0000 C   0  0  0  0  0  0  0  0  0  0  0  0
    3.9467   -3.6906    0.0000 C   0  0  0  0  0  0  0  0  0  0  0  0
    7.9777    1.8503    0.0000 C   0  0  0  0  0  0  0  0  0  0  0  0
    7.5424   -5.2915    0.0000 C   0  0  0  0  0  0  0  0  0  0  0  0
    8.7014   -4.0043    0.0000 C   0  0  0  0  0  0  0  0  0  0  0  0
    3.1377   -3.1028    0.0000 C   0  0  0  0  0  0  0  0  0  0  0  0
    4.7558   -4.2784    0.0000 C   0  0  0  0  0  0  0  0  0  0  0  0
    3.3590   -4.4996    0.0000 C   0  0  0  0  0  0  0  0  0  0  0  0
    8.7868    2.4381    0.0000 C   0  0  0  0  0  0  0  0  0  0  0  0
    8.2856   -5.9606    0.0000 C   0  0  0  0  0  0  0  0  0  0  0  0
    9.4445   -4.6735    0.0000 C   0  0  0  0  0  0  0  0  0  0  0  0
    8.4777    3.3891    0.0000 C   0  0  0  0  0  0  0  0  0  0  0  0
    9.2366   -5.6516    0.0000 C   0  0  0  0  0  0  0  0  0  0  0  0
    6.2177    2.1291    0.0000 C   0  0  0  0  0  0  0  0  0  0  0  0
    9.0655    4.1982    0.0000 C   0  0  0  0  0  0  0  0  0  0  0  0
    5.4745    2.7982    0.0000 C   0  0  0  0  0  0  0  0  0  0  0  0
    8.6588    5.1117    0.0000 C   0  0  0  0  0  0  0  0  0  0  0  0
    9.2466    5.9207    0.0000 C   0  0  0  0  0  0  0  0  0  0  0  0
    7.6643    5.2162    0.0000 C   0  0  0  0  0  0  0  0  0  0  0  0
    8.8398    6.8343    0.0000 C   0  0  0  0  0  0  0  0  0  0  0  0
    7.2575    6.1298    0.0000 C   0  0  0  0  0  0  0  0  0  0  0  0
    7.8453    6.9388    0.0000 C   0  0  0  0  0  0  0  0  0  0  0  0
    7.6317   -2.9874    0.0000 H   0  0  0  0  0  0  0  0  0  0  0  0
    6.8467   -4.2431    0.0000 H   0  0  0  0  0  0  0  0  0  0  0  0
    6.5082   -1.7060    0.0000 H   0  0  0  0  0  0  0  0  0  0  0  0
    5.6966   -1.8785    0.0000 H   0  0  0  0  0  0  0  0  0  0  0  0
    5.4626   -4.1043    0.0000 H   0  0  0  0  0  0  0  0  0  0  0  0
    6.2206   -4.4418    0.0000 H   0  0  0  0  0  0  0  0  0  0  0  0
    8.1898   -2.7323    0.0000 H   0  0  0  0  0  0  0  0  0  0  0  0
    8.5883   -2.0420    0.0000 H   0  0  0  0  0  0  0  0  0  0  0  0
    4.7054   -2.2856    0.0000 H   0  0  0  0  0  0  0  0  0  0  0  0
    3.9773   -2.6098    0.0000 H   0  0  0  0  0  0  0  0  0  0  0  0
    6.5011   -0.5420    0.0000 H   0  0  0  0  0  0  0  0  0  0  0  0
    6.8997   -1.2323    0.0000 H   0  0  0  0  0  0  0  0  0  0  0  0
    9.0558   -1.2323    0.0000 H   0  0  0  0  0  0  0  0  0  0  0  0
    9.4544   -0.5420    0.0000 H   0  0  0  0  0  0  0  0  0  0  0  0
    8.5147    1.1603    0.0000 H   0  0  0  0  0  0  0  0  0  0  0  0
    6.8997    0.9329    0.0000 H   0  0  0  0  0  0  0  0  0  0  0  0
    6.5011    0.2426    0.0000 H   0  0  0  0  0  0  0  0  0  0  0  0
    9.4544    0.2426    0.0000 H   0  0  0  0  0  0  0  0  0  0  0  0
    9.0558    0.9329    0.0000 H   0  0  0  0  0  0  0  0  0  0  0  0
    6.9528   -5.4831    0.0000 H   0  0  0  0  0  0  0  0  0  0  0  0
    8.8303   -3.3979    0.0000 H   0  0  0  0  0  0  0  0  0  0  0  0
    3.5021   -2.6012    0.0000 H   0  0  0  0  0  0  0  0  0  0  0  0
    2.6361   -2.7384    0.0000 H   0  0  0  0  0  0  0  0  0  0  0  0
    2.7733   -3.6044    0.0000 H   0  0  0  0  0  0  0  0  0  0  0  0
    4.3913   -4.7800    0.0000 H   0  0  0  0  0  0  0  0  0  0  0  0
    5.2573   -4.6428    0.0000 H   0  0  0  0  0  0  0  0  0  0  0  0
    5.1202   -3.7768    0.0000 H   0  0  0  0  0  0  0  0  0  0  0  0
    9.3764    2.2465    0.0000 H   0  0  0  0  0  0  0  0  0  0  0  0
   10.0342   -4.4819    0.0000 H   0  0  0  0  0  0  0  0  0  0  0  0
    5.7291    1.7474    0.0000 H   0  0  0  0  0  0  0  0  0  0  0  0
    6.5087    1.5816    0.0000 H   0  0  0  0  0  0  0  0  0  0  0  0
    9.6974   -6.0665    0.0000 H   0  0  0  0  0  0  0  0  0  0  0  0
    9.4962    3.7522    0.0000 H   0  0  0  0  0  0  0  0  0  0  0  0
    9.5795    4.5448    0.0000 H   0  0  0  0  0  0  0  0  0  0  0  0
    2.0000   -4.8967    0.0000 H   0  0  0  0  0  0  0  0  0  0  0  0
    5.8894    3.2589    0.0000 H   0  0  0  0  0  0  0  0  0  0  0  0
    5.0138    3.2130    0.0000 H   0  0  0  0  0  0  0  0  0  0  0  0
    5.0597    2.3374    0.0000 H   0  0  0  0  0  0  0  0  0  0  0  0
    9.8632    5.8559    0.0000 H   0  0  0  0  0  0  0  0  0  0  0  0
    7.2998    4.7146    0.0000 H   0  0  0  0  0  0  0  0  0  0  0  0
    9.2043    7.3358    0.0000 H   0  0  0  0  0  0  0  0  0  0  0  0
    6.6409    6.1946    0.0000 H   0  0  0  0  0  0  0  0  0  0  0  0
    7.5931    7.5052    0.0000 H   0  0  0  0  0  0  0  0  0  0  0  0
  1 28  1  0  0  0  0
  2 26  1  0  0  0  0
  2 75  1  0  0  0  0
  3 26  2  0  0  0  0
  4 10  1  0  0  0  0
  4 11  1  0  0  0  0
  4 13  1  0  0  0  0
  5 12  1  0  0  0  0
  5 14  1  0  0  0  0
  5 15  1  0  0  0  0
  6  7  1  0  0  0  0
  6 21  1  0  0  0  0
  6 32  1  0  0  0  0
  7 30  2  0  0  0  0
  8  9  1  0  0  0  0
  8 10  1  0  0  0  0
  8 12  1  6  0  0  0
  8 41  1  0  0  0  0
  9 11  1  0  0  0  0
  9 17  1  1  0  0  0
  9 42  1  0  0  0  0
 10 43  1  0  0  0  0
 10 44  1  0  0  0  0
 11 45  1  0  0  0  0
 11 46  1  0  0  0  0
 12 47  1  0  0  0  0
 12 48  1  0  0  0  0
 13 20  1  0  0  0  0
 13 49  1  0  0  0  0
 13 50  1  0  0  0  0
 14 18  1  0  0  0  0
 14 51  1  0  0  0  0
 14 52  1  0  0  0  0
 15 19  1  0  0  0  0
 15 53  1  0  0  0  0
 15 54  1  0  0  0  0
 16 18  1  0  0  0  0
 16 19  1  0  0  0  0
 16 21  1  0  0  0  0
 16 55  1  0  0  0  0
 17 22  2  0  0  0  0
 17 23  1  0  0  0  0
 18 56  1  0  0  0  0
 18 57  1  0  0  0  0
 19 58  1  0  0  0  0
 19 59  1  0  0  0  0
 20 24  1  0  0  0  0
 20 25  1  0  0  0  0
 20 26  1  0  0  0  0
 21 27  2  0  0  0  0
 22 28  1  0  0  0  0
 22 60  1  0  0  0  0
 23 29  2  0  0  0  0
 23 61  1  0  0  0  0
 24 62  1  0  0  0  0
 24 63  1  0  0  0  0
 24 64  1  0  0  0  0
 25 65  1  0  0  0  0
 25 66  1  0  0  0  0
 25 67  1  0  0  0  0
 27 30  1  0  0  0  0
 27 68  1  0  0  0  0
 28 31  2  0  0  0  0
 29 31  1  0  0  0  0
 29 69  1  0  0  0  0
 30 33  1  0  0  0  0
 31 72  1  0  0  0  0
 32 34  1  0  0  0  0
 32 70  1  0  0  0  0
 32 71  1  0  0  0  0
 33 35  1  0  0  0  0
 33 73  1  0  0  0  0
 33 74  1  0  0  0  0
 34 76  1  0  0  0  0
 34 77  1  0  0  0  0
 34 78  1  0  0  0  0
 35 36  2  0  0  0  0
 35 37  1  0  0  0  0
 36 38  1  0  0  0  0
 36 79  1  0  0  0  0
 37 39  2  0  0  0  0
 37 80  1  0  0  0  0
 38 40  2  0  0  0  0
 38 81  1  0  0  0  0
 39 40  1  0  0  0  0
 39 82  1  0  0  0  0
 40 83  1  0  0  0  0
M  END
> <PUBCHEM_COMPOUND_CID>
512884
> <PUBCHEM_COMPOUND_CANONICALIZED>
1
> <PUBCHEM_CACTVS_COMPLEXITY>
812
> <PUBCHEM_CACTVS_HBOND_ACCEPTOR>
6
> <PUBCHEM_CACTVS_HBOND_DONOR>
1
> <PUBCHEM_CACTVS_ROTATABLE_BOND>
10
> <PUBCHEM_CACTVS_SUBSKEYS>
AAADcfB/sQAAAAAAAAAAAAAAAAAAAWLAAAA8YIAAAAAAAAAB0AAAHwAICAAADwjBngwyiJMIAgCqAyTyTACSBAAhggAY2CE4ZJgIICrA0dGE5AhiiADIyAcQgMAOgAAAAAAAAAAAAAAAAAAAAAAAAAAAAA==
> <PUBCHEM_IUPAC_OPENEYE_NAME>
3-[(3S,4S)-3-[[4-(5-benzyl-2-ethyl-pyrazol-3-yl)-1-piperidyl]methyl]-4-(3-fluorophenyl)pyrrolidin-1-yl]-2,2-dimethyl-propanoic acid
> <PUBCHEM_IUPAC_CAS_NAME>
3-[(3S,4S)-3-[[4-[2-ethyl-5-(phenylmethyl)-3-pyrazolyl]-1-piperidinyl]methyl]-4-(3-fluorophenyl)-1-pyrrolidinyl]-2,2-dimethylpropanoic acid
> <PUBCHEM_IUPAC_NAME_MARKUP>
3-[(3<I>S</I>,4<I>S</I>)-3-[[4-(5-benzyl-2-ethylpyrazol-3-yl)piperidin-1-yl]methyl]-4-(3-fluorophenyl)pyrrolidin-1-yl]-2,2-dimethylpropanoic acid
> <PUBCHEM_IUPAC_NAME>
3-[(3S,4S)-3-[[4-(5-benzyl-2-ethylpyrazol-3-yl)piperidin-1-yl]methyl]-4-(3-fluorophenyl)pyrrolidin-1-yl]-2,2-dimethylpropanoic acid
> <PUBCHEM_IUPAC_SYSTEMATIC_NAME>
3-[(3S,4S)-3-[[4-[2-ethyl-5-(phenylmethyl)pyrazol-3-yl]piperidin-1-yl]methyl]-4-(3-fluorophenyl)pyrrolidin-1-yl]-2,2-dimethyl-propanoic acid
> <PUBCHEM_IUPAC_TRADITIONAL_NAME>
3-[(3S,4S)-3-[[4-(5-benzyl-2-ethyl-pyrazol-3-yl)piperidino]methyl]-4-(3-fluorophenyl)pyrrolidino]-2,2-dimethyl-propionic acid
> <PUBCHEM_IUPAC_INCHI>
InChI=1S/C33H43FN4O2/c1-4-38-31(19-29(35-38)17-24-9-6-5-7-10-24)25-13-15-36(16-14-25)20-27-21-37(23-33(2,3)32(39)40)22-30(27)26-11-8-12-28(34)18-26/h5-12,18-19,25,27,30H,4,13-17,20-23H2,1-3H3,(H,39,40)/t27-,30+/m0/s1
> <PUBCHEM_IUPAC_INCHIKEY>
GCBOVTAXWQVIAZ-BHBYDHKZSA-N
> <PUBCHEM_XLOGP3_AA>
3.2
> <PUBCHEM_EXACT_MASS>
546.33700479
> <PUBCHEM_MOLECULAR_FORMULA>
C33H43FN4O2
> <PUBCHEM_MOLECULAR_WEIGHT>
546.7
> <PUBCHEM_OPENEYE_CAN_SMILES>
CCN1C(=CC(=N1)CC2=CC=CC=C2)C3CCN(CC3)CC4CN(CC4C5=CC(=CC=C5)F)CC(C)(C)C(=O)O
> <PUBCHEM_OPENEYE_ISO_SMILES>
CCN1C(=CC(=N1)CC2=CC=CC=C2)C3CCN(CC3)C[C@H]4CN(C[C@@H]4C5=CC(=CC=C5)F)CC(C)(C)C(=O)O
> <PUBCHEM_CACTVS_TPSA>
61.6
> <PUBCHEM_MONOISOTOPIC_WEIGHT>
546.33700479
> <PUBCHEM_TOTAL_CHARGE>
0
> <PUBCHEM_HEAVY_ATOM_COUNT>
40
> <PUBCHEM_ATOM_DEF_STEREO_COUNT>
2
> <PUBCHEM_ATOM_UDEF_STEREO_COUNT>
0
> <PUBCHEM_BOND_DEF_STEREO_COUNT>
0
> <PUBCHEM_BOND_UDEF_STEREO_COUNT>
0
> <PUBCHEM_ISOTOPIC_ATOM_COUNT>
0
> <PUBCHEM_COMPONENT_COUNT>
1
> <PUBCHEM_CACTVS_TAUTO_COUNT>
-1
> <PUBCHEM_COORDINATE_TYPE>
1
5
255
> <PUBCHEM_BONDANNOTATIONS>
17  22  8
17  23  8
21  27  8
22  28  8
23  29  8
27  30  8
28  31  8
29  31  8
35  36  8
35  37  8
36  38  8
37  39  8
38  40  8
39  40  8
6  21  8
6  7  8
7  30  8
8  12  6
9  17  5
$$$$
