512855
  -OEChem-10302200282D
 66 67  0     1  0  0  0  0  0999 V2000
    4.5981   -0.3441    0.0000 S   0  0  0  0  0  0  0  0  0  0  0  0
    2.0000   -2.8441    0.0000 O   0  0  0  0  0  0  0  0  0  0  0  0
    4.8255    1.8195    0.0000 O   0  0  0  0  0  0  0  0  0  0  0  0
    8.0413    0.3877    0.0000 O   0  0  0  0  0  0  0  0  0  0  0  0
    6.5468    1.3583    0.0000 N   0  0  0  0  0  0  0  0  0  0  0  0
    3.7320   -2.8441    0.0000 N   0  0  0  0  0  0  0  0  0  0  0  0
    2.8660   -4.3441    0.0000 C   0  0  0  0  0  0  0  0  0  0  0  0
    2.0000   -4.8441    0.0000 C   0  0  0  0  0  0  0  0  0  0  0  0
    3.7320   -4.8441    0.0000 C   0  0  0  0  0  0  0  0  0  0  0  0
    2.0000   -5.8441    0.0000 C   0  0  0  0  0  0  0  0  0  0  0  0
    3.7320   -5.8441    0.0000 C   0  0  0  0  0  0  0  0  0  0  0  0
    2.8660   -6.3441    0.0000 C   0  0  0  0  0  0  0  0  0  0  0  0
    2.8660   -3.3441    0.0000 C   0  0  0  0  0  0  0  0  0  0  0  0
    5.4641    0.1559    0.0000 C   0  0  3  0  0  0  0  0  0  0  0  0
    6.9535    2.2718    0.0000 C   0  0  0  0  0  0  0  0  0  0  0  0
    7.9480    2.3764    0.0000 C   0  0  0  0  0  0  0  0  0  0  0  0
    8.3548    3.2899    0.0000 C   0  0  0  0  0  0  0  0  0  0  0  0
    6.3776   -0.2509    0.0000 C   0  0  0  0  0  0  0  0  0  0  0  0
    9.3493    3.3944    0.0000 C   0  0  0  0  0  0  0  0  0  0  0  0
    5.5686    1.1504    0.0000 C   0  0  0  0  0  0  0  0  0  0  0  0
    3.7320   -1.8441    0.0000 C   0  0  0  0  0  0  0  0  0  0  0  0
    7.0468    0.4923    0.0000 C   0  0  0  0  0  0  0  0  0  0  0  0
    9.7560    4.3080    0.0000 C   0  0  0  0  0  0  0  0  0  0  0  0
    4.5981   -1.3441    0.0000 C   0  0  0  0  0  0  0  0  0  0  0  0
   10.7506    4.4125    0.0000 C   0  0  0  0  0  0  0  0  0  0  0  0
   11.1573    5.3261    0.0000 C   0  0  0  0  0  0  0  0  0  0  0  0
   12.1518    5.4306    0.0000 C   0  0  0  0  0  0  0  0  0  0  0  0
   12.5585    6.3441    0.0000 C   0  0  0  0  0  0  0  0  0  0  0  0
    3.4030   -4.0341    0.0000 H   0  0  0  0  0  0  0  0  0  0  0  0
    1.7880   -4.2615    0.0000 H   0  0  0  0  0  0  0  0  0  0  0  0
    1.3894   -4.9518    0.0000 H   0  0  0  0  0  0  0  0  0  0  0  0
    4.3426   -4.9518    0.0000 H   0  0  0  0  0  0  0  0  0  0  0  0
    3.9441   -4.2615    0.0000 H   0  0  0  0  0  0  0  0  0  0  0  0
    1.3894   -5.7365    0.0000 H   0  0  0  0  0  0  0  0  0  0  0  0
    1.7880   -6.4268    0.0000 H   0  0  0  0  0  0  0  0  0  0  0  0
    3.9441   -6.4268    0.0000 H   0  0  0  0  0  0  0  0  0  0  0  0
    4.3426   -5.7365    0.0000 H   0  0  0  0  0  0  0  0  0  0  0  0
    2.4675   -6.8191    0.0000 H   0  0  0  0  0  0  0  0  0  0  0  0
    3.2646   -6.8191    0.0000 H   0  0  0  0  0  0  0  0  0  0  0  0
    4.9441    0.4935    0.0000 H   0  0  0  0  0  0  0  0  0  0  0  0
    6.9968    2.8903    0.0000 H   0  0  0  0  0  0  0  0  0  0  0  0
    6.3519    2.4218    0.0000 H   0  0  0  0  0  0  0  0  0  0  0  0
    7.9048    1.7579    0.0000 H   0  0  0  0  0  0  0  0  0  0  0  0
    8.5496    2.2264    0.0000 H   0  0  0  0  0  0  0  0  0  0  0  0
    4.2690   -3.1541    0.0000 H   0  0  0  0  0  0  0  0  0  0  0  0
    8.3980    3.9084    0.0000 H   0  0  0  0  0  0  0  0  0  0  0  0
    7.7532    3.4399    0.0000 H   0  0  0  0  0  0  0  0  0  0  0  0
    6.0677   -0.7878    0.0000 H   0  0  0  0  0  0  0  0  0  0  0  0
    6.8792   -0.6153    0.0000 H   0  0  0  0  0  0  0  0  0  0  0  0
    9.3061    2.7760    0.0000 H   0  0  0  0  0  0  0  0  0  0  0  0
    9.9509    3.2444    0.0000 H   0  0  0  0  0  0  0  0  0  0  0  0
    3.5200   -1.2615    0.0000 H   0  0  0  0  0  0  0  0  0  0  0  0
    3.1215   -1.9518    0.0000 H   0  0  0  0  0  0  0  0  0  0  0  0
    9.7993    4.9265    0.0000 H   0  0  0  0  0  0  0  0  0  0  0  0
    9.1544    4.4580    0.0000 H   0  0  0  0  0  0  0  0  0  0  0  0
    4.8101   -1.9268    0.0000 H   0  0  0  0  0  0  0  0  0  0  0  0
    5.2087   -1.2365    0.0000 H   0  0  0  0  0  0  0  0  0  0  0  0
   10.7073    3.7940    0.0000 H   0  0  0  0  0  0  0  0  0  0  0  0
   11.3521    4.2625    0.0000 H   0  0  0  0  0  0  0  0  0  0  0  0
   11.2005    5.9445    0.0000 H   0  0  0  0  0  0  0  0  0  0  0  0
   10.5557    5.4761    0.0000 H   0  0  0  0  0  0  0  0  0  0  0  0
   12.1086    4.8121    0.0000 H   0  0  0  0  0  0  0  0  0  0  0  0
   12.7534    5.2806    0.0000 H   0  0  0  0  0  0  0  0  0  0  0  0
   13.1249    6.0920    0.0000 H   0  0  0  0  0  0  0  0  0  0  0  0
   12.8107    6.9105    0.0000 H   0  0  0  0  0  0  0  0  0  0  0  0
   11.9922    6.5963    0.0000 H   0  0  0  0  0  0  0  0  0  0  0  0
  1 14  1  0  0  0  0
  1 24  1  0  0  0  0
  2 13  2  0  0  0  0
  3 20  2  0  0  0  0
  4 22  2  0  0  0  0
  5 15  1  0  0  0  0
  5 20  1  0  0  0  0
  5 22  1  0  0  0  0
  6 13  1  0  0  0  0
  6 21  1  0  0  0  0
  6 45  1  0  0  0  0
  7  8  1  0  0  0  0
  7  9  1  0  0  0  0
  7 13  1  0  0  0  0
  7 29  1  0  0  0  0
  8 10  1  0  0  0  0
  8 30  1  0  0  0  0
  8 31  1  0  0  0  0
  9 11  1  0  0  0  0
  9 32  1  0  0  0  0
  9 33  1  0  0  0  0
 10 12  1  0  0  0  0
 10 34  1  0  0  0  0
 10 35  1  0  0  0  0
 11 12  1  0  0  0  0
 11 36  1  0  0  0  0
 11 37  1  0  0  0  0
 12 38  1  0  0  0  0
 12 39  1  0  0  0  0
 14 18  1  0  0  0  0
 14 20  1  0  0  0  0
 14 40  1  0  0  0  0
 15 16  1  0  0  0  0
 15 41  1  0  0  0  0
 15 42  1  0  0  0  0
 16 17  1  0  0  0  0
 16 43  1  0  0  0  0
 16 44  1  0  0  0  0
 17 19  1  0  0  0  0
 17 46  1  0  0  0  0
 17 47  1  0  0  0  0
 18 22  1  0  0  0  0
 18 48  1  0  0  0  0
 18 49  1  0  0  0  0
 19 23  1  0  0  0  0
 19 50  1  0  0  0  0
 19 51  1  0  0  0  0
 21 24  1  0  0  0  0
 21 52  1  0  0  0  0
 21 53  1  0  0  0  0
 23 25  1  0  0  0  0
 23 54  1  0  0  0  0
 23 55  1  0  0  0  0
 24 56  1  0  0  0  0
 24 57  1  0  0  0  0
 25 26  1  0  0  0  0
 25 58  1  0  0  0  0
 25 59  1  0  0  0  0
 26 27  1  0  0  0  0
 26 60  1  0  0  0  0
 26 61  1  0  0  0  0
 27 28  1  0  0  0  0
 27 62  1  0  0  0  0
 27 63  1  0  0  0  0
 28 64  1  0  0  0  0
 28 65  1  0  0  0  0
 28 66  1  0  0  0  0
M  END
> <PUBCHEM_COMPOUND_CID>
512855
> <PUBCHEM_COMPOUND_CANONICALIZED>
1
> <PUBCHEM_CACTVS_COMPLEXITY>
506
> <PUBCHEM_CACTVS_HBOND_ACCEPTOR>
4
> <PUBCHEM_CACTVS_HBOND_DONOR>
1
> <PUBCHEM_CACTVS_ROTATABLE_BOND>
13
> <PUBCHEM_CACTVS_SUBSKEYS>
AAADcfB7MABAAAAAAAAAAAAAAAAAAWAAAAAwAAAAAAAAAAAAAAAAHgQQAAAADQDFwASCAAPAAAgIAAEQEAAAAAAAABAAAIEIAAAAABIggAAEAAAAFiCgAAEdiICOAAAAAAAAAAAAAAAAAAAAAAAAAAAAAA==
> <PUBCHEM_IUPAC_OPENEYE_NAME>
N-[2-(1-nonyl-2,5-dioxo-pyrrolidin-3-yl)sulfanylethyl]cyclohexanecarboxamide
> <PUBCHEM_IUPAC_CAS_NAME>
N-[2-[(1-nonyl-2,5-dioxo-3-pyrrolidinyl)thio]ethyl]cyclohexanecarboxamide
> <PUBCHEM_IUPAC_NAME_MARKUP>
<I>N</I>-[2-(1-nonyl-2,5-dioxopyrrolidin-3-yl)sulfanylethyl]cyclohexanecarboxamide
> <PUBCHEM_IUPAC_NAME>
N-[2-(1-nonyl-2,5-dioxopyrrolidin-3-yl)sulfanylethyl]cyclohexanecarboxamide
> <PUBCHEM_IUPAC_SYSTEMATIC_NAME>
N-[2-[1-nonyl-2,5-bis(oxidanylidene)pyrrolidin-3-yl]sulfanylethyl]cyclohexanecarboxamide
> <PUBCHEM_IUPAC_TRADITIONAL_NAME>
N-[2-[(2,5-diketo-1-nonyl-pyrrolidin-3-yl)thio]ethyl]cyclohexanecarboxamide
> <PUBCHEM_IUPAC_INCHI>
InChI=1S/C22H38N2O3S/c1-2-3-4-5-6-7-11-15-24-20(25)17-19(22(24)27)28-16-14-23-21(26)18-12-9-8-10-13-18/h18-19H,2-17H2,1H3,(H,23,26)
> <PUBCHEM_IUPAC_INCHIKEY>
IWDOZHJZVTUCED-UHFFFAOYSA-N
> <PUBCHEM_XLOGP3_AA>
5.3
> <PUBCHEM_EXACT_MASS>
410.26031425
> <PUBCHEM_MOLECULAR_FORMULA>
C22H38N2O3S
> <PUBCHEM_MOLECULAR_WEIGHT>
410.6
> <PUBCHEM_OPENEYE_CAN_SMILES>
CCCCCCCCCN1C(=O)CC(C1=O)SCCNC(=O)C2CCCCC2
> <PUBCHEM_OPENEYE_ISO_SMILES>
CCCCCCCCCN1C(=O)CC(C1=O)SCCNC(=O)C2CCCCC2
> <PUBCHEM_CACTVS_TPSA>
91.8
> <PUBCHEM_MONOISOTOPIC_WEIGHT>
410.26031425
> <PUBCHEM_TOTAL_CHARGE>
0
> <PUBCHEM_HEAVY_ATOM_COUNT>
28
> <PUBCHEM_ATOM_DEF_STEREO_COUNT>
0
> <PUBCHEM_ATOM_UDEF_STEREO_COUNT>
1
> <PUBCHEM_BOND_DEF_STEREO_COUNT>
0
> <PUBCHEM_BOND_UDEF_STEREO_COUNT>
0
> <PUBCHEM_ISOTOPIC_ATOM_COUNT>
0
> <PUBCHEM_COMPONENT_COUNT>
1
> <PUBCHEM_CACTVS_TAUTO_COUNT>
-1
> <PUBCHEM_COORDINATE_TYPE>
1
5
255
> <PUBCHEM_BONDANNOTATIONS>
14  1  3
$$$$
