512988
  -OEChem-10302200282D
100101  0     1  0  0  0  0  0999 V2000
    2.5140    1.0435    0.0000 O   0  0  0  0  0  0  0  0  0  0  0  0
    3.4826    2.4794    0.0000 O   0  0  0  0  0  0  0  0  0  0  0  0
    3.8611    3.1676    0.0000 O   0  0  0  0  0  0  0  0  0  0  0  0
    5.6431   -0.0954    0.0000 O   0  0  0  0  0  0  0  0  0  0  0  0
    9.2144    0.4000    0.0000 O   0  0  0  0  0  0  0  0  0  0  0  0
    6.0498   -1.0089    0.0000 O   0  0  0  0  0  0  0  0  0  0  0  0
    6.2784    5.8428    0.0000 O   0  0  0  0  0  0  0  0  0  0  0  0
    7.2470    4.4068    0.0000 O   0  0  0  0  0  0  0  0  0  0  0  0
    8.2646   -3.8541    0.0000 O   0  0  0  0  0  0  0  0  0  0  0  0
    5.8241    1.6272    0.0000 N   0  0  0  0  0  0  0  0  0  0  0  0
    5.5889    3.2885    0.0000 N   0  0  0  0  0  0  0  0  0  0  0  0
    9.3955    2.1226    0.0000 N   0  0  0  0  0  0  0  0  0  0  0  0
    7.6321   -0.3044    0.0000 N   0  0  0  0  0  0  0  0  0  0  0  0
    6.8633   -2.8360    0.0000 N   0  0  0  0  0  0  0  0  0  0  0  0
    4.2418    0.9227    0.0000 C   0  0  0  0  0  0  0  0  0  0  0  0
    4.8296    1.7317    0.0000 C   0  0  1  0  0  0  0  0  0  0  0  0
    3.4328    0.3349    0.0000 C   0  0  0  0  0  0  0  0  0  0  0  0
    5.0508    0.3349    0.0000 C   0  0  0  0  0  0  0  0  0  0  0  0
    3.7418   -0.6162    0.0000 C   0  0  0  0  0  0  0  0  0  0  0  0
    4.7418   -0.6162    0.0000 C   0  0  0  0  0  0  0  0  0  0  0  0
    3.4128    1.4819    0.0000 C   0  0  0  0  0  0  0  0  0  0  0  0
    4.7599    2.7293    0.0000 C   0  0  0  0  0  0  0  0  0  0  0  0
    7.2254    0.6091    0.0000 C   0  0  2  0  0  0  0  0  0  0  0  0
    6.2309    0.7136    0.0000 C   0  0  0  0  0  0  0  0  0  0  0  0
    7.8132    1.4181    0.0000 C   0  0  0  0  0  0  0  0  0  0  0  0
    5.5192    4.2860    0.0000 C   0  0  1  0  0  0  0  0  0  0  0  0
    9.0865    3.0737    0.0000 C   0  0  0  0  0  0  0  0  0  0  0  0
   10.3955    2.1226    0.0000 C   0  0  0  0  0  0  0  0  0  0  0  0
    9.8955    3.6614    0.0000 C   0  0  0  0  0  0  0  0  0  0  0  0
   10.7045    3.0737    0.0000 C   0  0  0  0  0  0  0  0  0  0  0  0
    8.8077    1.3136    0.0000 C   0  0  0  0  0  0  0  0  0  0  0  0
    4.6204    4.7244    0.0000 C   0  0  0  0  0  0  0  0  0  0  0  0
    7.4511   -2.0270    0.0000 C   0  0  2  0  0  0  0  0  0  0  0  0
    4.5506    5.7220    0.0000 C   0  0  0  0  0  0  0  0  0  0  0  0
    7.0444   -1.1135    0.0000 C   0  0  0  0  0  0  0  0  0  0  0  0
    8.4456   -2.1315    0.0000 C   0  0  0  0  0  0  0  0  0  0  0  0
    6.3482    4.8452    0.0000 C   0  0  0  0  0  0  0  0  0  0  0  0
    3.6518    6.1603    0.0000 C   0  0  0  0  0  0  0  0  0  0  0  0
    5.3796    6.2812    0.0000 C   0  0  0  0  0  0  0  0  0  0  0  0
    6.6822   -4.5586    0.0000 C   0  0  0  0  0  0  0  0  0  0  0  0
    8.8524   -3.0451    0.0000 C   0  0  0  0  0  0  0  0  0  0  0  0
    9.0334   -1.3225    0.0000 C   0  0  0  0  0  0  0  0  0  0  0  0
    7.2700   -3.7496    0.0000 C   0  0  0  0  0  0  0  0  0  0  0  0
    7.0890   -5.4721    0.0000 C   0  0  0  0  0  0  0  0  0  0  0  0
    5.6877   -4.4541    0.0000 C   0  0  0  0  0  0  0  0  0  0  0  0
    6.5012   -6.2812    0.0000 C   0  0  0  0  0  0  0  0  0  0  0  0
    5.1000   -5.2631    0.0000 C   0  0  0  0  0  0  0  0  0  0  0  0
    5.0818    1.1653    0.0000 H   0  0  0  0  0  0  0  0  0  0  0  0
    3.1228    0.8718    0.0000 H   0  0  0  0  0  0  0  0  0  0  0  0
    2.8664    0.0827    0.0000 H   0  0  0  0  0  0  0  0  0  0  0  0
    5.6172    0.0827    0.0000 H   0  0  0  0  0  0  0  0  0  0  0  0
    5.3608    0.8718    0.0000 H   0  0  0  0  0  0  0  0  0  0  0  0
    3.3774   -1.1178    0.0000 H   0  0  0  0  0  0  0  0  0  0  0  0
    5.1063   -1.1178    0.0000 H   0  0  0  0  0  0  0  0  0  0  0  0
    6.1886    2.1288    0.0000 H   0  0  0  0  0  0  0  0  0  0  0  0
    6.8610    0.1075    0.0000 H   0  0  0  0  0  0  0  0  0  0  0  0
    6.1461    3.0167    0.0000 H   0  0  0  0  0  0  0  0  0  0  0  0
    7.9841    2.0141    0.0000 H   0  0  0  0  0  0  0  0  0  0  0  0
    7.2559    1.6899    0.0000 H   0  0  0  0  0  0  0  0  0  0  0  0
    6.0764    4.0142    0.0000 H   0  0  0  0  0  0  0  0  0  0  0  0
    8.7765    3.6106    0.0000 H   0  0  0  0  0  0  0  0  0  0  0  0
    8.5201    2.8215    0.0000 H   0  0  0  0  0  0  0  0  0  0  0  0
   10.3307    1.5060    0.0000 H   0  0  0  0  0  0  0  0  0  0  0  0
   11.0019    1.9937    0.0000 H   0  0  0  0  0  0  0  0  0  0  0  0
   10.3104    4.1222    0.0000 H   0  0  0  0  0  0  0  0  0  0  0  0
    9.4806    4.1222    0.0000 H   0  0  0  0  0  0  0  0  0  0  0  0
   11.2709    2.8215    0.0000 H   0  0  0  0  0  0  0  0  0  0  0  0
   11.0145    3.6106    0.0000 H   0  0  0  0  0  0  0  0  0  0  0  0
    4.0038    4.7892    0.0000 H   0  0  0  0  0  0  0  0  0  0  0  0
    4.4495    4.1284    0.0000 H   0  0  0  0  0  0  0  0  0  0  0  0
    8.2487   -0.3693    0.0000 H   0  0  0  0  0  0  0  0  0  0  0  0
    2.0000    1.3902    0.0000 H   0  0  0  0  0  0  0  0  0  0  0  0
    6.8345   -1.9622    0.0000 H   0  0  0  0  0  0  0  0  0  0  0  0
    5.1078    5.4502    0.0000 H   0  0  0  0  0  0  0  0  0  0  0  0
    9.0622   -2.1963    0.0000 H   0  0  0  0  0  0  0  0  0  0  0  0
    6.2467   -2.7712    0.0000 H   0  0  0  0  0  0  0  0  0  0  0  0
    3.9236    6.7176    0.0000 H   0  0  0  0  0  0  0  0  0  0  0  0
    3.0946    6.4321    0.0000 H   0  0  0  0  0  0  0  0  0  0  0  0
    3.3800    5.6031    0.0000 H   0  0  0  0  0  0  0  0  0  0  0  0
    5.7263    5.7672    0.0000 H   0  0  0  0  0  0  0  0  0  0  0  0
    5.8936    6.6278    0.0000 H   0  0  0  0  0  0  0  0  0  0  0  0
    5.0329    6.7952    0.0000 H   0  0  0  0  0  0  0  0  0  0  0  0
    6.4301   -3.9922    0.0000 H   0  0  0  0  0  0  0  0  0  0  0  0
    8.2860   -3.2973    0.0000 H   0  0  0  0  0  0  0  0  0  0  0  0
    9.1045   -3.6115    0.0000 H   0  0  0  0  0  0  0  0  0  0  0  0
    9.4188   -2.7929    0.0000 H   0  0  0  0  0  0  0  0  0  0  0  0
    9.5350   -1.6870    0.0000 H   0  0  0  0  0  0  0  0  0  0  0  0
    9.3978   -0.8209    0.0000 H   0  0  0  0  0  0  0  0  0  0  0  0
    8.5318   -0.9581    0.0000 H   0  0  0  0  0  0  0  0  0  0  0  0
    7.5197   -5.9181    0.0000 H   0  0  0  0  0  0  0  0  0  0  0  0
    7.6030   -5.1254    0.0000 H   0  0  0  0  0  0  0  0  0  0  0  0
    5.8586   -3.8581    0.0000 H   0  0  0  0  0  0  0  0  0  0  0  0
    5.1305   -4.1823    0.0000 H   0  0  0  0  0  0  0  0  0  0  0  0
    6.7924    6.1895    0.0000 H   0  0  0  0  0  0  0  0  0  0  0  0
    5.9996   -5.9167    0.0000 H   0  0  0  0  0  0  0  0  0  0  0  0
    6.1368   -6.7827    0.0000 H   0  0  0  0  0  0  0  0  0  0  0  0
    7.0028   -6.6456    0.0000 H   0  0  0  0  0  0  0  0  0  0  0  0
    4.5984   -4.8986    0.0000 H   0  0  0  0  0  0  0  0  0  0  0  0
    4.7355   -5.7647    0.0000 H   0  0  0  0  0  0  0  0  0  0  0  0
    5.6015   -5.6275    0.0000 H   0  0  0  0  0  0  0  0  0  0  0  0
  1 21  1  0  0  0  0
  1 72  1  0  0  0  0
  2 21  2  0  0  0  0
  3 22  2  0  0  0  0
  4 24  2  0  0  0  0
  5 31  2  0  0  0  0
  6 35  2  0  0  0  0
  7 37  1  0  0  0  0
  7 94  1  0  0  0  0
  8 37  2  0  0  0  0
  9 43  2  0  0  0  0
 16 10  1  1  0  0  0
 10 24  1  0  0  0  0
 10 55  1  0  0  0  0
 11 22  1  0  0  0  0
 26 11  1  1  0  0  0
 11 57  1  0  0  0  0
 12 27  1  0  0  0  0
 12 28  1  0  0  0  0
 12 31  1  0  0  0  0
 23 13  1  6  0  0  0
 13 35  1  0  0  0  0
 13 71  1  0  0  0  0
 33 14  1  6  0  0  0
 14 43  1  0  0  0  0
 14 76  1  0  0  0  0
 15 16  1  0  0  0  0
 15 17  1  0  0  0  0
 15 18  1  0  0  0  0
 15 21  1  0  0  0  0
 16 22  1  0  0  0  0
 16 48  1  0  0  0  0
 17 19  1  0  0  0  0
 17 49  1  0  0  0  0
 17 50  1  0  0  0  0
 18 20  1  0  0  0  0
 18 51  1  0  0  0  0
 18 52  1  0  0  0  0
 19 20  2  0  0  0  0
 19 53  1  0  0  0  0
 20 54  1  0  0  0  0
 23 24  1  0  0  0  0
 23 25  1  0  0  0  0
 23 56  1  0  0  0  0
 25 31  1  0  0  0  0
 25 58  1  0  0  0  0
 25 59  1  0  0  0  0
 26 32  1  0  0  0  0
 26 37  1  0  0  0  0
 26 60  1  0  0  0  0
 27 29  1  0  0  0  0
 27 61  1  0  0  0  0
 27 62  1  0  0  0  0
 28 30  1  0  0  0  0
 28 63  1  0  0  0  0
 28 64  1  0  0  0  0
 29 30  1  0  0  0  0
 29 65  1  0  0  0  0
 29 66  1  0  0  0  0
 30 67  1  0  0  0  0
 30 68  1  0  0  0  0
 32 34  1  0  0  0  0
 32 69  1  0  0  0  0
 32 70  1  0  0  0  0
 33 35  1  0  0  0  0
 33 36  1  0  0  0  0
 33 73  1  0  0  0  0
 34 38  1  0  0  0  0
 34 39  1  0  0  0  0
 34 74  1  0  0  0  0
 36 41  1  0  0  0  0
 36 42  1  0  0  0  0
 36 75  1  0  0  0  0
 38 77  1  0  0  0  0
 38 78  1  0  0  0  0
 38 79  1  0  0  0  0
 39 80  1  0  0  0  0
 39 81  1  0  0  0  0
 39 82  1  0  0  0  0
 40 43  1  0  0  0  0
 40 44  1  0  0  0  0
 40 45  1  0  0  0  0
 40 83  1  0  0  0  0
 41 84  1  0  0  0  0
 41 85  1  0  0  0  0
 41 86  1  0  0  0  0
 42 87  1  0  0  0  0
 42 88  1  0  0  0  0
 42 89  1  0  0  0  0
 44 46  1  0  0  0  0
 44 90  1  0  0  0  0
 44 91  1  0  0  0  0
 45 47  1  0  0  0  0
 45 92  1  0  0  0  0
 45 93  1  0  0  0  0
 46 95  1  0  0  0  0
 46 96  1  0  0  0  0
 46 97  1  0  0  0  0
 47 98  1  0  0  0  0
 47 99  1  0  0  0  0
 47100  1  0  0  0  0
M  END
> <PUBCHEM_COMPOUND_CID>
512988
> <PUBCHEM_COMPOUND_CANONICALIZED>
1
> <PUBCHEM_CACTVS_COMPLEXITY>
1180
> <PUBCHEM_CACTVS_HBOND_ACCEPTOR>
9
> <PUBCHEM_CACTVS_HBOND_DONOR>
6
> <PUBCHEM_CACTVS_ROTATABLE_BOND>
18
> <PUBCHEM_CACTVS_SUBSKEYS>
AAADcfB/vAAAAAAAAAAAAAAAAAAAAWIAAAAAAAAAAAAAAAAAAAAAHgAQCAAADyjBgAQCCAPAAgCIACHSGAAAAAAgAAAICIGIAAgCQBoAwSAUQAAGlgCYAAK/AAAPAAAAAAAAAAAAAAAAAAAAAAAAAAAAAA==
> <PUBCHEM_IUPAC_OPENEYE_NAME>
1-[(1S)-2-[[(1S)-1-carboxy-3-methyl-butyl]amino]-1-[[(2S)-2-[[(2S)-2-(2-ethylbutanoylamino)-3-methyl-butanoyl]amino]-4-oxo-4-pyrrolidin-1-yl-butanoyl]amino]-2-oxo-ethyl]cyclopent-3-ene-1-carboxylic acid
> <PUBCHEM_IUPAC_CAS_NAME>
1-[(1S)-2-[[(1S)-1-carboxy-3-methylbutyl]amino]-1-[[(2S)-2-[[(2S)-2-[(2-ethyl-1-oxobutyl)amino]-3-methyl-1-oxobutyl]amino]-1,4-dioxo-4-(1-pyrrolidinyl)butyl]amino]-2-oxoethyl]-1-cyclopent-3-enecarboxylic acid
> <PUBCHEM_IUPAC_NAME_MARKUP>
1-[(1<I>S</I>)-2-[[(1<I>S</I>)-1-carboxy-3-methylbutyl]amino]-1-[[(2<I>S</I>)-2-[[(2<I>S</I>)-2-(2-ethylbutanoylamino)-3-methylbutanoyl]amino]-4-oxo-4-pyrrolidin-1-ylbutanoyl]amino]-2-oxoethyl]cyclopent-3-ene-1-carboxylic acid
> <PUBCHEM_IUPAC_NAME>
1-[(1S)-2-[[(1S)-1-carboxy-3-methylbutyl]amino]-1-[[(2S)-2-[[(2S)-2-(2-ethylbutanoylamino)-3-methylbutanoyl]amino]-4-oxo-4-pyrrolidin-1-ylbutanoyl]amino]-2-oxoethyl]cyclopent-3-ene-1-carboxylic acid
> <PUBCHEM_IUPAC_SYSTEMATIC_NAME>
1-[(1S)-1-[[(2S)-2-[[(2S)-2-(2-ethylbutanoylamino)-3-methyl-butanoyl]amino]-4-oxidanylidene-4-pyrrolidin-1-yl-butanoyl]amino]-2-[[(2S)-4-methyl-1-oxidanyl-1-oxidanylidene-pentan-2-yl]amino]-2-oxidanylidene-ethyl]cyclopent-3-ene-1-carboxylic acid
> <PUBCHEM_IUPAC_TRADITIONAL_NAME>
1-[(1S)-2-[[(1S)-1-carboxy-3-methyl-butyl]amino]-1-[[(2S)-2-[[(2S)-2-(2-ethylbutanoylamino)-3-methyl-butanoyl]amino]-4-keto-4-pyrrolidino-butanoyl]amino]-2-keto-ethyl]cyclopent-3-ene-1-carboxylic acid
> <PUBCHEM_IUPAC_INCHI>
InChI=1S/C33H53N5O9/c1-7-21(8-2)27(40)36-25(20(5)6)29(42)34-22(18-24(39)38-15-11-12-16-38)28(41)37-26(33(32(46)47)13-9-10-14-33)30(43)35-23(31(44)45)17-19(3)4/h9-10,19-23,25-26H,7-8,11-18H2,1-6H3,(H,34,42)(H,35,43)(H,36,40)(H,37,41)(H,44,45)(H,46,47)/t22-,23-,25-,26+/m0/s1
> <PUBCHEM_IUPAC_INCHIKEY>
BIXZVWQGRIDICA-NLJWQWLVSA-N
> <PUBCHEM_XLOGP3_AA>
2.5
> <PUBCHEM_EXACT_MASS>
663.38432829
> <PUBCHEM_MOLECULAR_FORMULA>
C33H53N5O9
> <PUBCHEM_MOLECULAR_WEIGHT>
663.8
> <PUBCHEM_OPENEYE_CAN_SMILES>
CCC(CC)C(=O)NC(C(C)C)C(=O)NC(CC(=O)N1CCCC1)C(=O)NC(C(=O)NC(CC(C)C)C(=O)O)C2(CC=CC2)C(=O)O
> <PUBCHEM_OPENEYE_ISO_SMILES>
CCC(CC)C(=O)N[C@@H](C(C)C)C(=O)N[C@@H](CC(=O)N1CCCC1)C(=O)N[C@H](C(=O)N[C@@H](CC(C)C)C(=O)O)C2(CC=CC2)C(=O)O
> <PUBCHEM_CACTVS_TPSA>
211
> <PUBCHEM_MONOISOTOPIC_WEIGHT>
663.38432829
> <PUBCHEM_TOTAL_CHARGE>
0
> <PUBCHEM_HEAVY_ATOM_COUNT>
47
> <PUBCHEM_ATOM_DEF_STEREO_COUNT>
4
> <PUBCHEM_ATOM_UDEF_STEREO_COUNT>
0
> <PUBCHEM_BOND_DEF_STEREO_COUNT>
0
> <PUBCHEM_BOND_UDEF_STEREO_COUNT>
0
> <PUBCHEM_ISOTOPIC_ATOM_COUNT>
0
> <PUBCHEM_COMPONENT_COUNT>
1
> <PUBCHEM_CACTVS_TAUTO_COUNT>
-1
> <PUBCHEM_COORDINATE_TYPE>
1
5
255
> <PUBCHEM_BONDANNOTATIONS>
16  10  5
26  11  5
23  13  6
33  14  6
$$$$
