512952
  -OEChem-10302200282D
 40 41  0     1  0  0  0  0  0999 V2000
    4.2690    0.2500    0.0000 Br  0  0  0  0  0  0  0  0  0  0  0  0
    2.5369   -1.7500    0.0000 O   0  0  0  0  0  0  0  0  0  0  0  0
    5.1350    0.7500    0.0000 O   0  0  0  0  0  0  0  0  0  0  0  0
    6.8671   -2.2500    0.0000 O   0  0  0  0  0  0  0  0  0  0  0  0
    6.8671    1.7500    0.0000 O   0  0  0  0  0  0  0  0  0  0  0  0
    6.0010    2.2500    0.0000 O   0  0  0  0  0  0  0  0  0  0  0  0
    3.4030   -1.2500    0.0000 C   0  0  0  0  0  0  0  0  0  0  0  0
    4.2690   -0.7500    0.0000 C   0  0  3  0  0  0  0  0  0  0  0  0
    5.1350   -1.2500    0.0000 C   0  0  0  0  0  0  0  0  0  0  0  0
    6.0010   -0.7500    0.0000 C   0  0  0  0  0  0  0  0  0  0  0  0
    2.9030   -0.3840    0.0000 C   0  0  0  0  0  0  0  0  0  0  0  0
    3.9030   -2.1160    0.0000 C   0  0  0  0  0  0  0  0  0  0  0  0
    6.8671   -1.2500    0.0000 C   0  0  0  0  0  0  0  0  0  0  0  0
    6.0010    0.2500    0.0000 C   0  0  0  0  0  0  0  0  0  0  0  0
    7.7331   -0.7500    0.0000 C   0  0  0  0  0  0  0  0  0  0  0  0
    7.7331    0.2500    0.0000 C   0  0  0  0  0  0  0  0  0  0  0  0
    6.8671    0.7500    0.0000 C   0  0  0  0  0  0  0  0  0  0  0  0
    8.6270   -1.2847    0.0000 C   0  0  0  0  0  0  0  0  0  0  0  0
    8.6270    0.7847    0.0000 C   0  0  0  0  0  0  0  0  0  0  0  0
    9.5331   -0.7708    0.0000 C   0  0  0  0  0  0  0  0  0  0  0  0
    9.5331    0.2708    0.0000 C   0  0  0  0  0  0  0  0  0  0  0  0
    5.1350    1.7500    0.0000 C   0  0  0  0  0  0  0  0  0  0  0  0
    4.2690    2.2500    0.0000 C   0  0  0  0  0  0  0  0  0  0  0  0
    4.8059   -0.4400    0.0000 H   0  0  0  0  0  0  0  0  0  0  0  0
    4.7365   -1.7250    0.0000 H   0  0  0  0  0  0  0  0  0  0  0  0
    5.5335   -1.7250    0.0000 H   0  0  0  0  0  0  0  0  0  0  0  0
    3.4399   -0.0740    0.0000 H   0  0  0  0  0  0  0  0  0  0  0  0
    2.5930    0.1530    0.0000 H   0  0  0  0  0  0  0  0  0  0  0  0
    2.3660   -0.6940    0.0000 H   0  0  0  0  0  0  0  0  0  0  0  0
    3.3660   -2.4260    0.0000 H   0  0  0  0  0  0  0  0  0  0  0  0
    4.2130   -2.6530    0.0000 H   0  0  0  0  0  0  0  0  0  0  0  0
    4.4399   -1.8060    0.0000 H   0  0  0  0  0  0  0  0  0  0  0  0
    2.0000   -1.4400    0.0000 H   0  0  0  0  0  0  0  0  0  0  0  0
    8.6199   -1.9046    0.0000 H   0  0  0  0  0  0  0  0  0  0  0  0
    8.6199    1.4046    0.0000 H   0  0  0  0  0  0  0  0  0  0  0  0
   10.0688   -1.0829    0.0000 H   0  0  0  0  0  0  0  0  0  0  0  0
   10.0688    0.5829    0.0000 H   0  0  0  0  0  0  0  0  0  0  0  0
    4.5790    2.7869    0.0000 H   0  0  0  0  0  0  0  0  0  0  0  0
    3.7320    2.5600    0.0000 H   0  0  0  0  0  0  0  0  0  0  0  0
    3.9590    1.7131    0.0000 H   0  0  0  0  0  0  0  0  0  0  0  0
  1  8  1  0  0  0  0
  2  7  1  0  0  0  0
  2 33  1  0  0  0  0
  3 14  1  0  0  0  0
  3 22  1  0  0  0  0
  4 13  2  0  0  0  0
  5 17  2  0  0  0  0
  6 22  2  0  0  0  0
  7  8  1  0  0  0  0
  7 11  1  0  0  0  0
  7 12  1  0  0  0  0
  8  9  1  0  0  0  0
  8 24  1  0  0  0  0
  9 10  1  0  0  0  0
  9 25  1  0  0  0  0
  9 26  1  0  0  0  0
 10 13  1  0  0  0  0
 10 14  2  0  0  0  0
 11 27  1  0  0  0  0
 11 28  1  0  0  0  0
 11 29  1  0  0  0  0
 12 30  1  0  0  0  0
 12 31  1  0  0  0  0
 12 32  1  0  0  0  0
 13 15  1  0  0  0  0
 14 17  1  0  0  0  0
 15 16  1  0  0  0  0
 15 18  2  0  0  0  0
 16 17  1  0  0  0  0
 16 19  2  0  0  0  0
 18 20  1  0  0  0  0
 18 34  1  0  0  0  0
 19 21  1  0  0  0  0
 19 35  1  0  0  0  0
 20 21  2  0  0  0  0
 20 36  1  0  0  0  0
 21 37  1  0  0  0  0
 22 23  1  0  0  0  0
 23 38  1  0  0  0  0
 23 39  1  0  0  0  0
 23 40  1  0  0  0  0
M  END
> <PUBCHEM_COMPOUND_CID>
512952
> <PUBCHEM_COMPOUND_CANONICALIZED>
1
> <PUBCHEM_CACTVS_COMPLEXITY>
563
> <PUBCHEM_CACTVS_HBOND_ACCEPTOR>
5
> <PUBCHEM_CACTVS_HBOND_DONOR>
1
> <PUBCHEM_CACTVS_ROTATABLE_BOND>
5
> <PUBCHEM_CACTVS_SUBSKEYS>
AAADceB4OAAAEAAAAAAAAAAAAAAAAAAAAAAwQAAAAAAAAACBAAAAGgBACAABzESAmAAyCIAABgCIAqDSCAICCAAkIAAIiAFAAOgIIDKAFRSCYQAkwAEIiYeJzODOgAAAAAAQAAAAAAAAACAAAAAAAAAAAA==
> <PUBCHEM_IUPAC_OPENEYE_NAME>
[3-(2-bromo-3-hydroxy-3-methyl-butyl)-1,4-dioxo-2-naphthyl] acetate
> <PUBCHEM_IUPAC_CAS_NAME>
acetic acid [3-(2-bromo-3-hydroxy-3-methylbutyl)-1,4-dioxo-2-naphthalenyl] ester
> <PUBCHEM_IUPAC_NAME_MARKUP>
[3-(2-bromo-3-hydroxy-3-methylbutyl)-1,4-dioxonaphthalen-2-yl] acetate
> <PUBCHEM_IUPAC_NAME>
[3-(2-bromo-3-hydroxy-3-methylbutyl)-1,4-dioxonaphthalen-2-yl] acetate
> <PUBCHEM_IUPAC_SYSTEMATIC_NAME>
[3-(2-bromanyl-3-methyl-3-oxidanyl-butyl)-1,4-bis(oxidanylidene)naphthalen-2-yl] ethanoate
> <PUBCHEM_IUPAC_TRADITIONAL_NAME>
acetic acid [3-(2-bromo-3-hydroxy-3-methyl-butyl)-1,4-diketo-2-naphthyl] ester
> <PUBCHEM_IUPAC_INCHI>
InChI=1S/C17H17BrO5/c1-9(19)23-16-12(8-13(18)17(2,3)22)14(20)10-6-4-5-7-11(10)15(16)21/h4-7,13,22H,8H2,1-3H3
> <PUBCHEM_IUPAC_INCHIKEY>
CYGNKKPVRRKGOD-UHFFFAOYSA-N
> <PUBCHEM_XLOGP3_AA>
2.4
> <PUBCHEM_EXACT_MASS>
380.02594
> <PUBCHEM_MOLECULAR_FORMULA>
C17H17BrO5
> <PUBCHEM_MOLECULAR_WEIGHT>
381.2
> <PUBCHEM_OPENEYE_CAN_SMILES>
CC(=O)OC1=C(C(=O)C2=CC=CC=C2C1=O)CC(C(C)(C)O)Br
> <PUBCHEM_OPENEYE_ISO_SMILES>
CC(=O)OC1=C(C(=O)C2=CC=CC=C2C1=O)CC(C(C)(C)O)Br
> <PUBCHEM_CACTVS_TPSA>
80.7
> <PUBCHEM_MONOISOTOPIC_WEIGHT>
380.02594
> <PUBCHEM_TOTAL_CHARGE>
0
> <PUBCHEM_HEAVY_ATOM_COUNT>
23
> <PUBCHEM_ATOM_DEF_STEREO_COUNT>
0
> <PUBCHEM_ATOM_UDEF_STEREO_COUNT>
1
> <PUBCHEM_BOND_DEF_STEREO_COUNT>
0
> <PUBCHEM_BOND_UDEF_STEREO_COUNT>
0
> <PUBCHEM_ISOTOPIC_ATOM_COUNT>
0
> <PUBCHEM_COMPONENT_COUNT>
1
> <PUBCHEM_CACTVS_TAUTO_COUNT>
-1
> <PUBCHEM_COORDINATE_TYPE>
1
5
255
> <PUBCHEM_BONDANNOTATIONS>
8  1  3
15  16  8
15  18  8
16  19  8
18  20  8
19  21  8
20  21  8
$$$$
