512989
  -OEChem-10302200282D
 92 92  0     1  0  0  0  0  0999 V2000
   10.6603    2.2306    0.0000 O   0  0  0  0  0  0  0  0  0  0  0  0
    7.1962    2.2306    0.0000 O   0  0  0  0  0  0  0  0  0  0  0  0
   10.6603    1.2306    0.0000 O   0  0  0  0  0  0  0  0  0  0  0  0
    4.5981   -0.2694    0.0000 O   0  0  0  0  0  0  0  0  0  0  0  0
   11.5263   -2.2694    0.0000 O   0  0  0  0  0  0  0  0  0  0  0  0
    8.9282   -4.7694    0.0000 O   0  0  0  0  0  0  0  0  0  0  0  0
    8.0622   -3.2694    0.0000 O   0  0  0  0  0  0  0  0  0  0  0  0
   13.2583   -0.2694    0.0000 O   0  0  0  0  0  0  0  0  0  0  0  0
   12.3923   -1.7694    0.0000 O   0  0  0  0  0  0  0  0  0  0  0  0
    9.7942    3.7306    0.0000 N   0  0  0  0  0  0  0  0  0  0  0  0
    8.0622    0.7306    0.0000 N   0  0  0  0  0  0  0  0  0  0  0  0
    5.4641    1.2306    0.0000 N   0  0  0  0  0  0  0  0  0  0  0  0
    9.7942   -0.2694    0.0000 N   0  0  0  0  0  0  0  0  0  0  0  0
    9.7942   -2.2694    0.0000 N   0  0  0  0  0  0  0  0  0  0  0  0
   10.6032    4.3184    0.0000 C   0  0  0  0  0  0  0  0  0  0  0  0
    8.9852    4.3184    0.0000 C   0  0  0  0  0  0  0  0  0  0  0  0
   10.2942    5.2694    0.0000 C   0  0  0  0  0  0  0  0  0  0  0  0
    9.2942    5.2694    0.0000 C   0  0  0  0  0  0  0  0  0  0  0  0
    8.9282    1.2306    0.0000 C   0  0  1  0  0  0  0  0  0  0  0  0
    8.9282    2.2306    0.0000 C   0  0  0  0  0  0  0  0  0  0  0  0
    9.7942    2.7306    0.0000 C   0  0  0  0  0  0  0  0  0  0  0  0
    6.3301    0.7306    0.0000 C   0  0  1  0  0  0  0  0  0  0  0  0
    6.3301   -0.2694    0.0000 C   0  0  0  0  0  0  0  0  0  0  0  0
    7.1962    1.2306    0.0000 C   0  0  0  0  0  0  0  0  0  0  0  0
    9.7942    0.7306    0.0000 C   0  0  0  0  0  0  0  0  0  0  0  0
    3.7320    1.2306    0.0000 C   0  0  0  0  0  0  0  0  0  0  0  0
   10.6603   -0.7694    0.0000 C   0  0  2  0  0  0  0  0  0  0  0  0
    4.5981    0.7306    0.0000 C   0  0  0  0  0  0  0  0  0  0  0  0
    5.4641   -0.7694    0.0000 C   0  0  0  0  0  0  0  0  0  0  0  0
    7.1962   -0.7694    0.0000 C   0  0  0  0  0  0  0  0  0  0  0  0
    2.8660    0.7306    0.0000 C   0  0  0  0  0  0  0  0  0  0  0  0
    3.7320    2.2306    0.0000 C   0  0  0  0  0  0  0  0  0  0  0  0
   10.6603   -3.7694    0.0000 C   0  0  0  0  0  0  0  0  0  0  0  0
    9.7942   -3.2694    0.0000 C   0  0  1  0  0  0  0  0  0  0  0  0
   10.6603   -4.7694    0.0000 C   0  0  0  0  0  0  0  0  0  0  0  0
   10.6603   -1.7694    0.0000 C   0  0  0  0  0  0  0  0  0  0  0  0
   11.5263   -0.2694    0.0000 C   0  0  0  0  0  0  0  0  0  0  0  0
    2.0000    1.2306    0.0000 C   0  0  0  0  0  0  0  0  0  0  0  0
    2.8660    2.7306    0.0000 C   0  0  0  0  0  0  0  0  0  0  0  0
   11.5263   -5.2694    0.0000 C   0  0  0  0  0  0  0  0  0  0  0  0
    9.7942   -5.2694    0.0000 C   0  0  0  0  0  0  0  0  0  0  0  0
    8.9282   -3.7694    0.0000 C   0  0  0  0  0  0  0  0  0  0  0  0
   12.3923   -0.7694    0.0000 C   0  0  0  0  0  0  0  0  0  0  0  0
   10.9132    3.7814    0.0000 H   0  0  0  0  0  0  0  0  0  0  0  0
   11.1696    4.5705    0.0000 H   0  0  0  0  0  0  0  0  0  0  0  0
    8.4188    4.5705    0.0000 H   0  0  0  0  0  0  0  0  0  0  0  0
    8.6752    3.7814    0.0000 H   0  0  0  0  0  0  0  0  0  0  0  0
   10.9007    5.3983    0.0000 H   0  0  0  0  0  0  0  0  0  0  0  0
   10.2294    5.8860    0.0000 H   0  0  0  0  0  0  0  0  0  0  0  0
    9.3590    5.8860    0.0000 H   0  0  0  0  0  0  0  0  0  0  0  0
    8.6878    5.3983    0.0000 H   0  0  0  0  0  0  0  0  0  0  0  0
    8.9282    0.6106    0.0000 H   0  0  0  0  0  0  0  0  0  0  0  0
    8.7162    2.8132    0.0000 H   0  0  0  0  0  0  0  0  0  0  0  0
    8.3176    2.1229    0.0000 H   0  0  0  0  0  0  0  0  0  0  0  0
    5.7932    0.4206    0.0000 H   0  0  0  0  0  0  0  0  0  0  0  0
    6.8671    0.0406    0.0000 H   0  0  0  0  0  0  0  0  0  0  0  0
    8.0622    0.1106    0.0000 H   0  0  0  0  0  0  0  0  0  0  0  0
    3.7320    0.6106    0.0000 H   0  0  0  0  0  0  0  0  0  0  0  0
    5.4641    1.8506    0.0000 H   0  0  0  0  0  0  0  0  0  0  0  0
   10.6603   -0.1494    0.0000 H   0  0  0  0  0  0  0  0  0  0  0  0
    5.1541   -0.2325    0.0000 H   0  0  0  0  0  0  0  0  0  0  0  0
    4.9272   -1.0794    0.0000 H   0  0  0  0  0  0  0  0  0  0  0  0
    5.7741   -1.3064    0.0000 H   0  0  0  0  0  0  0  0  0  0  0  0
    6.8862   -1.3064    0.0000 H   0  0  0  0  0  0  0  0  0  0  0  0
    7.7331   -1.0794    0.0000 H   0  0  0  0  0  0  0  0  0  0  0  0
    7.5062   -0.2325    0.0000 H   0  0  0  0  0  0  0  0  0  0  0  0
    9.2573   -0.5794    0.0000 H   0  0  0  0  0  0  0  0  0  0  0  0
   11.2708   -3.8771    0.0000 H   0  0  0  0  0  0  0  0  0  0  0  0
   10.8723   -3.1868    0.0000 H   0  0  0  0  0  0  0  0  0  0  0  0
    9.2573   -2.9594    0.0000 H   0  0  0  0  0  0  0  0  0  0  0  0
    2.4675    0.2556    0.0000 H   0  0  0  0  0  0  0  0  0  0  0  0
    3.2646    0.2556    0.0000 H   0  0  0  0  0  0  0  0  0  0  0  0
    4.3426    2.1229    0.0000 H   0  0  0  0  0  0  0  0  0  0  0  0
    3.9441    2.8132    0.0000 H   0  0  0  0  0  0  0  0  0  0  0  0
   11.1972   -4.4594    0.0000 H   0  0  0  0  0  0  0  0  0  0  0  0
   11.9248    0.2055    0.0000 H   0  0  0  0  0  0  0  0  0  0  0  0
   11.1278    0.2055    0.0000 H   0  0  0  0  0  0  0  0  0  0  0  0
    9.2573   -1.9594    0.0000 H   0  0  0  0  0  0  0  0  0  0  0  0
    2.3100    1.7675    0.0000 H   0  0  0  0  0  0  0  0  0  0  0  0
    1.4631    1.5406    0.0000 H   0  0  0  0  0  0  0  0  0  0  0  0
    1.6900    0.6936    0.0000 H   0  0  0  0  0  0  0  0  0  0  0  0
    3.1760    3.2675    0.0000 H   0  0  0  0  0  0  0  0  0  0  0  0
    2.3291    3.0406    0.0000 H   0  0  0  0  0  0  0  0  0  0  0  0
    2.5560    2.1936    0.0000 H   0  0  0  0  0  0  0  0  0  0  0  0
   11.2163   -5.8064    0.0000 H   0  0  0  0  0  0  0  0  0  0  0  0
   12.0632   -5.5794    0.0000 H   0  0  0  0  0  0  0  0  0  0  0  0
   11.8363   -4.7325    0.0000 H   0  0  0  0  0  0  0  0  0  0  0  0
    9.4842   -4.7325    0.0000 H   0  0  0  0  0  0  0  0  0  0  0  0
    9.2573   -5.5794    0.0000 H   0  0  0  0  0  0  0  0  0  0  0  0
   10.1042   -5.8064    0.0000 H   0  0  0  0  0  0  0  0  0  0  0  0
    8.3913   -5.0794    0.0000 H   0  0  0  0  0  0  0  0  0  0  0  0
   13.7953   -0.5794    0.0000 H   0  0  0  0  0  0  0  0  0  0  0  0
  1 21  2  0  0  0  0
  2 24  2  0  0  0  0
  3 25  2  0  0  0  0
  4 28  2  0  0  0  0
  5 36  2  0  0  0  0
  6 42  1  0  0  0  0
  6 91  1  0  0  0  0
  7 42  2  0  0  0  0
  8 43  1  0  0  0  0
  8 92  1  0  0  0  0
  9 43  2  0  0  0  0
 10 15  1  0  0  0  0
 10 16  1  0  0  0  0
 10 21  1  0  0  0  0
 19 11  1  1  0  0  0
 11 24  1  0  0  0  0
 11 57  1  0  0  0  0
 22 12  1  6  0  0  0
 12 28  1  0  0  0  0
 12 59  1  0  0  0  0
 13 25  1  0  0  0  0
 27 13  1  1  0  0  0
 13 67  1  0  0  0  0
 34 14  1  1  0  0  0
 14 36  1  0  0  0  0
 14 78  1  0  0  0  0
 15 17  1  0  0  0  0
 15 44  1  0  0  0  0
 15 45  1  0  0  0  0
 16 18  1  0  0  0  0
 16 46  1  0  0  0  0
 16 47  1  0  0  0  0
 17 18  1  0  0  0  0
 17 48  1  0  0  0  0
 17 49  1  0  0  0  0
 18 50  1  0  0  0  0
 18 51  1  0  0  0  0
 19 20  1  0  0  0  0
 19 25  1  0  0  0  0
 19 52  1  0  0  0  0
 20 21  1  0  0  0  0
 20 53  1  0  0  0  0
 20 54  1  0  0  0  0
 22 23  1  0  0  0  0
 22 24  1  0  0  0  0
 22 55  1  0  0  0  0
 23 29  1  0  0  0  0
 23 30  1  0  0  0  0
 23 56  1  0  0  0  0
 26 28  1  0  0  0  0
 26 31  1  0  0  0  0
 26 32  1  0  0  0  0
 26 58  1  0  0  0  0
 27 36  1  0  0  0  0
 27 37  1  0  0  0  0
 27 60  1  0  0  0  0
 29 61  1  0  0  0  0
 29 62  1  0  0  0  0
 29 63  1  0  0  0  0
 30 64  1  0  0  0  0
 30 65  1  0  0  0  0
 30 66  1  0  0  0  0
 31 38  1  0  0  0  0
 31 71  1  0  0  0  0
 31 72  1  0  0  0  0
 32 39  1  0  0  0  0
 32 73  1  0  0  0  0
 32 74  1  0  0  0  0
 33 34  1  0  0  0  0
 33 35  1  0  0  0  0
 33 68  1  0  0  0  0
 33 69  1  0  0  0  0
 34 42  1  0  0  0  0
 34 70  1  0  0  0  0
 35 40  1  0  0  0  0
 35 41  1  0  0  0  0
 35 75  1  0  0  0  0
 37 43  1  0  0  0  0
 37 76  1  0  0  0  0
 37 77  1  0  0  0  0
 38 79  1  0  0  0  0
 38 80  1  0  0  0  0
 38 81  1  0  0  0  0
 39 82  1  0  0  0  0
 39 83  1  0  0  0  0
 39 84  1  0  0  0  0
 40 85  1  0  0  0  0
 40 86  1  0  0  0  0
 40 87  1  0  0  0  0
 41 88  1  0  0  0  0
 41 89  1  0  0  0  0
 41 90  1  0  0  0  0
M  END
> <PUBCHEM_COMPOUND_CID>
512989
> <PUBCHEM_COMPOUND_CANONICALIZED>
1
> <PUBCHEM_CACTVS_COMPLEXITY>
1010
> <PUBCHEM_CACTVS_HBOND_ACCEPTOR>
9
> <PUBCHEM_CACTVS_HBOND_DONOR>
6
> <PUBCHEM_CACTVS_ROTATABLE_BOND>
18
> <PUBCHEM_CACTVS_SUBSKEYS>
AAADcfB7vAAAAAAAAAAAAAAAAAAAAWAAAAAAAAAAAAAAAAAAAAAAHgAQCAAADSjBgAQCCAPAAgAIAAGQGAAAAAAAAAAAAIGIAAACQBoAwCAUQAAGFgCQAACvAAAOAAAAAAAAAAAAAAAAAAAAAAAAAAAAAA==
> <PUBCHEM_IUPAC_OPENEYE_NAME>
(2S)-2-[[(2S)-3-carboxy-2-[[(2S)-2-[[(2S)-2-(2-ethylbutanoylamino)-3-methyl-butanoyl]amino]-4-oxo-4-pyrrolidin-1-yl-butanoyl]amino]propanoyl]amino]-4-methyl-pentanoic acid
> <PUBCHEM_IUPAC_CAS_NAME>
(2S)-2-[[(2S)-3-carboxy-2-[[(2S)-2-[[(2S)-2-[(2-ethyl-1-oxobutyl)amino]-3-methyl-1-oxobutyl]amino]-1,4-dioxo-4-(1-pyrrolidinyl)butyl]amino]-1-oxopropyl]amino]-4-methylpentanoic acid
> <PUBCHEM_IUPAC_NAME_MARKUP>
(2<I>S</I>)-2-[[(2<I>S</I>)-3-carboxy-2-[[(2<I>S</I>)-2-[[(2<I>S</I>)-2-(2-ethylbutanoylamino)-3-methylbutanoyl]amino]-4-oxo-4-pyrrolidin-1-ylbutanoyl]amino]propanoyl]amino]-4-methylpentanoic acid
> <PUBCHEM_IUPAC_NAME>
(2S)-2-[[(2S)-3-carboxy-2-[[(2S)-2-[[(2S)-2-(2-ethylbutanoylamino)-3-methylbutanoyl]amino]-4-oxo-4-pyrrolidin-1-ylbutanoyl]amino]propanoyl]amino]-4-methylpentanoic acid
> <PUBCHEM_IUPAC_SYSTEMATIC_NAME>
(2S)-2-[[(2S)-2-[[(2S)-2-[[(2S)-2-(2-ethylbutanoylamino)-3-methyl-butanoyl]amino]-4-oxidanylidene-4-pyrrolidin-1-yl-butanoyl]amino]-4-oxidanyl-4-oxidanylidene-butanoyl]amino]-4-methyl-pentanoic acid
> <PUBCHEM_IUPAC_TRADITIONAL_NAME>
(2S)-2-[[(2S)-3-carboxy-2-[[(2S)-2-[[(2S)-2-(2-ethylbutanoylamino)-3-methyl-butanoyl]amino]-4-keto-4-pyrrolidino-butanoyl]amino]propanoyl]amino]-4-methyl-valeric acid
> <PUBCHEM_IUPAC_INCHI>
InChI=1S/C29H49N5O9/c1-7-18(8-2)25(38)33-24(17(5)6)28(41)31-19(14-22(35)34-11-9-10-12-34)26(39)30-20(15-23(36)37)27(40)32-21(29(42)43)13-16(3)4/h16-21,24H,7-15H2,1-6H3,(H,30,39)(H,31,41)(H,32,40)(H,33,38)(H,36,37)(H,42,43)/t19-,20-,21-,24-/m0/s1
> <PUBCHEM_IUPAC_INCHIKEY>
FCTDFLWGJPMSQB-CIEVZJJWSA-N
> <PUBCHEM_XLOGP3_AA>
1.5
> <PUBCHEM_EXACT_MASS>
611.35302816
> <PUBCHEM_MOLECULAR_FORMULA>
C29H49N5O9
> <PUBCHEM_MOLECULAR_WEIGHT>
611.7
> <PUBCHEM_OPENEYE_CAN_SMILES>
CCC(CC)C(=O)NC(C(C)C)C(=O)NC(CC(=O)N1CCCC1)C(=O)NC(CC(=O)O)C(=O)NC(CC(C)C)C(=O)O
> <PUBCHEM_OPENEYE_ISO_SMILES>
CCC(CC)C(=O)N[C@@H](C(C)C)C(=O)N[C@@H](CC(=O)N1CCCC1)C(=O)N[C@@H](CC(=O)O)C(=O)N[C@@H](CC(C)C)C(=O)O
> <PUBCHEM_CACTVS_TPSA>
211
> <PUBCHEM_MONOISOTOPIC_WEIGHT>
611.35302816
> <PUBCHEM_TOTAL_CHARGE>
0
> <PUBCHEM_HEAVY_ATOM_COUNT>
43
> <PUBCHEM_ATOM_DEF_STEREO_COUNT>
4
> <PUBCHEM_ATOM_UDEF_STEREO_COUNT>
0
> <PUBCHEM_BOND_DEF_STEREO_COUNT>
0
> <PUBCHEM_BOND_UDEF_STEREO_COUNT>
0
> <PUBCHEM_ISOTOPIC_ATOM_COUNT>
0
> <PUBCHEM_COMPONENT_COUNT>
1
> <PUBCHEM_CACTVS_TAUTO_COUNT>
-1
> <PUBCHEM_COORDINATE_TYPE>
1
5
255
> <PUBCHEM_BONDANNOTATIONS>
19  11  5
22  12  6
27  13  5
34  14  5
$$$$
