512919
  -OEChem-10302200282D
 31 33  0     1  0  0  0  0  0999 V2000
    7.1279   -1.6624    0.0000 Br  0  0  0  0  0  0  0  0  0  0  0  0
    2.0000   -0.6624    0.0000 Cl  0  0  0  0  0  0  0  0  0  0  0  0
    2.0000   -2.6624    0.0000 Cl  0  0  0  0  0  0  0  0  0  0  0  0
    5.2686    0.9028    0.0000 O   0  0  0  0  0  0  0  0  0  0  0  0
    7.6146   -0.1890    0.0000 O   0  0  0  0  0  0  0  0  0  0  0  0
    7.6183    1.9866    0.0000 O   0  0  0  0  0  0  0  0  0  0  0  0
    5.5443   -0.8577    0.0000 N   0  0  0  0  0  0  0  0  0  0  0  0
    5.5443   -2.4672    0.0000 N   0  0  0  0  0  0  0  0  0  0  0  0
    5.8550    0.0928    0.0000 C   0  0  1  0  0  0  0  0  0  0  0  0
    6.8066    0.4002    0.0000 C   0  0  1  0  0  0  0  0  0  0  0  0
    6.8083    1.4002    0.0000 C   0  0  1  0  0  0  0  0  0  0  0  0
    5.8578    1.7108    0.0000 C   0  0  1  0  0  0  0  0  0  0  0  0
    5.5504    2.6624    0.0000 C   0  0  0  0  0  0  0  0  0  0  0  0
    4.5981   -1.1624    0.0000 C   0  0  0  0  0  0  0  0  0  0  0  0
    6.1279   -1.6624    0.0000 C   0  0  0  0  0  0  0  0  0  0  0  0
    4.5981   -2.1624    0.0000 C   0  0  0  0  0  0  0  0  0  0  0  0
    3.7320   -0.6624    0.0000 C   0  0  0  0  0  0  0  0  0  0  0  0
    3.7320   -2.6624    0.0000 C   0  0  0  0  0  0  0  0  0  0  0  0
    2.8660   -1.1624    0.0000 C   0  0  0  0  0  0  0  0  0  0  0  0
    2.8660   -2.1624    0.0000 C   0  0  0  0  0  0  0  0  0  0  0  0
    6.2926   -0.3463    0.0000 H   0  0  0  0  0  0  0  0  0  0  0  0
    7.3595    0.6807    0.0000 H   0  0  0  0  0  0  0  0  0  0  0  0
    7.3602    1.1178    0.0000 H   0  0  0  0  0  0  0  0  0  0  0  0
    5.2456    1.8089    0.0000 H   0  0  0  0  0  0  0  0  0  0  0  0
    6.1404    2.8530    0.0000 H   0  0  0  0  0  0  0  0  0  0  0  0
    5.3598    3.2524    0.0000 H   0  0  0  0  0  0  0  0  0  0  0  0
    4.9604    2.4719    0.0000 H   0  0  0  0  0  0  0  0  0  0  0  0
    8.1814    0.0622    0.0000 H   0  0  0  0  0  0  0  0  0  0  0  0
    7.5546    2.6033    0.0000 H   0  0  0  0  0  0  0  0  0  0  0  0
    3.7320   -0.0424    0.0000 H   0  0  0  0  0  0  0  0  0  0  0  0
    3.7320   -3.2824    0.0000 H   0  0  0  0  0  0  0  0  0  0  0  0
  1 15  1  0  0  0  0
  2 19  1  0  0  0  0
  3 20  1  0  0  0  0
  4  9  1  0  0  0  0
  4 12  1  0  0  0  0
 10  5  1  1  0  0  0
  5 28  1  0  0  0  0
 11  6  1  1  0  0  0
  6 29  1  0  0  0  0
  9  7  1  6  0  0  0
  7 14  1  0  0  0  0
  7 15  1  0  0  0  0
  8 15  2  0  0  0  0
  8 16  1  0  0  0  0
  9 10  1  0  0  0  0
  9 21  1  0  0  0  0
 10 11  1  0  0  0  0
 10 22  1  0  0  0  0
 11 12  1  0  0  0  0
 11 23  1  0  0  0  0
 12 13  1  6  0  0  0
 12 24  1  0  0  0  0
 13 25  1  0  0  0  0
 13 26  1  0  0  0  0
 13 27  1  0  0  0  0
 14 16  1  0  0  0  0
 14 17  2  0  0  0  0
 16 18  2  0  0  0  0
 17 19  1  0  0  0  0
 17 30  1  0  0  0  0
 18 20  1  0  0  0  0
 18 31  1  0  0  0  0
 19 20  2  0  0  0  0
M  END
> <PUBCHEM_COMPOUND_CID>
512919
> <PUBCHEM_COMPOUND_CANONICALIZED>
1
> <PUBCHEM_CACTVS_COMPLEXITY>
381
> <PUBCHEM_CACTVS_HBOND_ACCEPTOR>
4
> <PUBCHEM_CACTVS_HBOND_DONOR>
2
> <PUBCHEM_CACTVS_ROTATABLE_BOND>
1
> <PUBCHEM_CACTVS_SUBSKEYS>
AAADccBzMAAGEAAAAAAAAAAAAAAAAWJAAAAwAAAAAAAAAFgB8AAAHgJACAAAGB7hliYz0LcMFgCgASRiZACCgC0hF6AB2mA4dpiLeKLBmpGeYAhvgALbyCewAAAAAABAAAIAACQAAIAABAAASAAAAAAAAA==
> <PUBCHEM_IUPAC_OPENEYE_NAME>
(2R,3R,4S,5R)-2-(2-bromo-5,6-dichloro-benzimidazol-1-yl)-5-methyl-tetrahydrofuran-3,4-diol
> <PUBCHEM_IUPAC_CAS_NAME>
(2R,3R,4S,5R)-2-(2-bromo-5,6-dichloro-1-benzimidazolyl)-5-methyloxolane-3,4-diol
> <PUBCHEM_IUPAC_NAME_MARKUP>
(2<I>R</I>,3<I>R</I>,4<I>S</I>,5<I>R</I>)-2-(2-bromo-5,6-dichlorobenzimidazol-1-yl)-5-methyloxolane-3,4-diol
> <PUBCHEM_IUPAC_NAME>
(2R,3R,4S,5R)-2-(2-bromo-5,6-dichlorobenzimidazol-1-yl)-5-methyloxolane-3,4-diol
> <PUBCHEM_IUPAC_SYSTEMATIC_NAME>
(2R,3R,4S,5R)-2-[2-bromanyl-5,6-bis(chloranyl)benzimidazol-1-yl]-5-methyl-oxolane-3,4-diol
> <PUBCHEM_IUPAC_TRADITIONAL_NAME>
(2R,3R,4S,5R)-2-(2-bromo-5,6-dichloro-benzimidazol-1-yl)-5-methyl-tetrahydrofuran-3,4-diol
> <PUBCHEM_IUPAC_INCHI>
InChI=1S/C12H11BrCl2N2O3/c1-4-9(18)10(19)11(20-4)17-8-3-6(15)5(14)2-7(8)16-12(17)13/h2-4,9-11,18-19H,1H3/t4-,9-,10-,11-/m1/s1
> <PUBCHEM_IUPAC_INCHIKEY>
YIAOPCDGOMEIQS-JDQYVNJOSA-N
> <PUBCHEM_XLOGP3_AA>
2.6
> <PUBCHEM_EXACT_MASS>
379.93301
> <PUBCHEM_MOLECULAR_FORMULA>
C12H11BrCl2N2O3
> <PUBCHEM_MOLECULAR_WEIGHT>
382.03
> <PUBCHEM_OPENEYE_CAN_SMILES>
CC1C(C(C(O1)N2C3=CC(=C(C=C3N=C2Br)Cl)Cl)O)O
> <PUBCHEM_OPENEYE_ISO_SMILES>
C[C@@H]1[C@H]([C@H]([C@@H](O1)N2C3=CC(=C(C=C3N=C2Br)Cl)Cl)O)O
> <PUBCHEM_CACTVS_TPSA>
67.5
> <PUBCHEM_MONOISOTOPIC_WEIGHT>
379.93301
> <PUBCHEM_TOTAL_CHARGE>
0
> <PUBCHEM_HEAVY_ATOM_COUNT>
20
> <PUBCHEM_ATOM_DEF_STEREO_COUNT>
4
> <PUBCHEM_ATOM_UDEF_STEREO_COUNT>
0
> <PUBCHEM_BOND_DEF_STEREO_COUNT>
0
> <PUBCHEM_BOND_UDEF_STEREO_COUNT>
0
> <PUBCHEM_ISOTOPIC_ATOM_COUNT>
0
> <PUBCHEM_COMPONENT_COUNT>
1
> <PUBCHEM_CACTVS_TAUTO_COUNT>
-1
> <PUBCHEM_COORDINATE_TYPE>
1
5
255
> <PUBCHEM_BONDANNOTATIONS>
12  13  6
14  16  8
14  17  8
16  18  8
17  19  8
18  20  8
19  20  8
10  5  5
11  6  5
7  14  8
7  15  8
9  7  6
8  15  8
8  16  8
$$$$
