512986
  -OEChem-10302200282D
 91 90  0     1  0  0  0  0  0999 V2000
    6.8671    0.3450    0.0000 O   0  0  0  0  0  0  0  0  0  0  0  0
    9.4651    2.8450    0.0000 O   0  0  0  0  0  0  0  0  0  0  0  0
   12.9292    1.8450    0.0000 O   0  0  0  0  0  0  0  0  0  0  0  0
   13.7953   -1.6550    0.0000 O   0  0  0  0  0  0  0  0  0  0  0  0
    4.2690    2.8450    0.0000 O   0  0  0  0  0  0  0  0  0  0  0  0
   11.1972   -4.1550    0.0000 O   0  0  0  0  0  0  0  0  0  0  0  0
   10.3312   -2.6550    0.0000 O   0  0  0  0  0  0  0  0  0  0  0  0
   12.9292    2.8450    0.0000 O   0  0  0  0  0  0  0  0  0  0  0  0
   15.5273    0.3450    0.0000 O   0  0  0  0  0  0  0  0  0  0  0  0
   14.6613   -1.1550    0.0000 O   0  0  0  0  0  0  0  0  0  0  0  0
    7.7331    1.8450    0.0000 N   0  0  0  0  0  0  0  0  0  0  0  0
   10.3312    1.3450    0.0000 N   0  0  0  0  0  0  0  0  0  0  0  0
    5.1350    1.3450    0.0000 N   0  0  0  0  0  0  0  0  0  0  0  0
   12.0632    0.3450    0.0000 N   0  0  0  0  0  0  0  0  0  0  0  0
   12.0632   -1.6550    0.0000 N   0  0  0  0  0  0  0  0  0  0  0  0
    2.5369    1.8450    0.0000 N   0  0  0  0  0  0  0  0  0  0  0  0
   12.0632    4.3450    0.0000 N   0  0  0  0  0  0  0  0  0  0  0  0
    8.5991    1.3450    0.0000 C   0  0  1  0  0  0  0  0  0  0  0  0
    8.5991    0.3450    0.0000 C   0  0  0  0  0  0  0  0  0  0  0  0
    6.0010    1.8450    0.0000 C   0  0  1  0  0  0  0  0  0  0  0  0
    6.0010    2.8450    0.0000 C   0  0  0  0  0  0  0  0  0  0  0  0
    6.8671    1.3450    0.0000 C   0  0  0  0  0  0  0  0  0  0  0  0
    9.4651    1.8450    0.0000 C   0  0  0  0  0  0  0  0  0  0  0  0
   11.1972    1.8450    0.0000 C   0  0  1  0  0  0  0  0  0  0  0  0
    7.7331   -0.1550    0.0000 C   0  0  0  0  0  0  0  0  0  0  0  0
    9.4651   -0.1550    0.0000 C   0  0  0  0  0  0  0  0  0  0  0  0
   12.9292   -3.1550    0.0000 C   0  0  0  0  0  0  0  0  0  0  0  0
   12.9292   -4.1550    0.0000 C   0  0  0  0  0  0  0  0  0  0  0  0
   12.0632   -2.6550    0.0000 C   0  0  1  0  0  0  0  0  0  0  0  0
    5.1350    3.3450    0.0000 C   0  0  0  0  0  0  0  0  0  0  0  0
    6.8671    3.3450    0.0000 C   0  0  0  0  0  0  0  0  0  0  0  0
   12.9292   -0.1550    0.0000 C   0  0  2  0  0  0  0  0  0  0  0  0
   11.1972    2.8450    0.0000 C   0  0  0  0  0  0  0  0  0  0  0  0
   12.0632    1.3450    0.0000 C   0  0  0  0  0  0  0  0  0  0  0  0
   12.9292   -1.1550    0.0000 C   0  0  0  0  0  0  0  0  0  0  0  0
    4.2690    1.8450    0.0000 C   0  0  0  0  0  0  0  0  0  0  0  0
   13.7953    0.3450    0.0000 C   0  0  0  0  0  0  0  0  0  0  0  0
   13.7953   -4.6550    0.0000 C   0  0  0  0  0  0  0  0  0  0  0  0
   12.0632   -4.6550    0.0000 C   0  0  0  0  0  0  0  0  0  0  0  0
    3.4030    1.3450    0.0000 C   0  0  2  0  0  0  0  0  0  0  0  0
   11.1972   -3.1550    0.0000 C   0  0  0  0  0  0  0  0  0  0  0  0
   12.0632    3.3450    0.0000 C   0  0  0  0  0  0  0  0  0  0  0  0
    3.4030    0.3450    0.0000 C   0  0  0  0  0  0  0  0  0  0  0  0
   14.6613   -0.1550    0.0000 C   0  0  0  0  0  0  0  0  0  0  0  0
    8.5991    1.9650    0.0000 H   0  0  0  0  0  0  0  0  0  0  0  0
    8.5991   -0.2750    0.0000 H   0  0  0  0  0  0  0  0  0  0  0  0
    5.4641    2.1550    0.0000 H   0  0  0  0  0  0  0  0  0  0  0  0
    6.5380    2.5350    0.0000 H   0  0  0  0  0  0  0  0  0  0  0  0
    7.7331    2.4650    0.0000 H   0  0  0  0  0  0  0  0  0  0  0  0
   10.6603    2.1550    0.0000 H   0  0  0  0  0  0  0  0  0  0  0  0
    7.4231    0.3819    0.0000 H   0  0  0  0  0  0  0  0  0  0  0  0
    7.1962   -0.4650    0.0000 H   0  0  0  0  0  0  0  0  0  0  0  0
    8.0431   -0.6919    0.0000 H   0  0  0  0  0  0  0  0  0  0  0  0
    9.1551   -0.6919    0.0000 H   0  0  0  0  0  0  0  0  0  0  0  0
   10.0021   -0.4650    0.0000 H   0  0  0  0  0  0  0  0  0  0  0  0
    9.7751    0.3819    0.0000 H   0  0  0  0  0  0  0  0  0  0  0  0
   13.5398   -3.2627    0.0000 H   0  0  0  0  0  0  0  0  0  0  0  0
   13.1413   -2.5724    0.0000 H   0  0  0  0  0  0  0  0  0  0  0  0
   10.3312    0.7250    0.0000 H   0  0  0  0  0  0  0  0  0  0  0  0
   12.3923   -3.8450    0.0000 H   0  0  0  0  0  0  0  0  0  0  0  0
   12.6002   -2.3450    0.0000 H   0  0  0  0  0  0  0  0  0  0  0  0
    5.1350    0.7250    0.0000 H   0  0  0  0  0  0  0  0  0  0  0  0
    5.4450    3.8819    0.0000 H   0  0  0  0  0  0  0  0  0  0  0  0
    4.5981    3.6550    0.0000 H   0  0  0  0  0  0  0  0  0  0  0  0
    4.8250    2.8081    0.0000 H   0  0  0  0  0  0  0  0  0  0  0  0
    7.1771    2.8081    0.0000 H   0  0  0  0  0  0  0  0  0  0  0  0
    7.4040    3.6550    0.0000 H   0  0  0  0  0  0  0  0  0  0  0  0
    6.5571    3.8819    0.0000 H   0  0  0  0  0  0  0  0  0  0  0  0
   12.3923   -0.4650    0.0000 H   0  0  0  0  0  0  0  0  0  0  0  0
   10.9851    3.4276    0.0000 H   0  0  0  0  0  0  0  0  0  0  0  0
   10.5866    2.7373    0.0000 H   0  0  0  0  0  0  0  0  0  0  0  0
   11.5263    0.0350    0.0000 H   0  0  0  0  0  0  0  0  0  0  0  0
   11.5263   -1.3450    0.0000 H   0  0  0  0  0  0  0  0  0  0  0  0
   14.1938    0.8199    0.0000 H   0  0  0  0  0  0  0  0  0  0  0  0
   13.3967    0.8199    0.0000 H   0  0  0  0  0  0  0  0  0  0  0  0
   13.4853   -5.1919    0.0000 H   0  0  0  0  0  0  0  0  0  0  0  0
   14.3322   -4.9650    0.0000 H   0  0  0  0  0  0  0  0  0  0  0  0
   14.1053   -4.1181    0.0000 H   0  0  0  0  0  0  0  0  0  0  0  0
   11.7532   -4.1181    0.0000 H   0  0  0  0  0  0  0  0  0  0  0  0
   11.5263   -4.9650    0.0000 H   0  0  0  0  0  0  0  0  0  0  0  0
   12.3732   -5.1919    0.0000 H   0  0  0  0  0  0  0  0  0  0  0  0
    3.4030    1.9650    0.0000 H   0  0  0  0  0  0  0  0  0  0  0  0
    2.7830    0.3450    0.0000 H   0  0  0  0  0  0  0  0  0  0  0  0
    3.4030   -0.2750    0.0000 H   0  0  0  0  0  0  0  0  0  0  0  0
    4.0230    0.3450    0.0000 H   0  0  0  0  0  0  0  0  0  0  0  0
    2.0000    1.5350    0.0000 H   0  0  0  0  0  0  0  0  0  0  0  0
    2.5369    2.4650    0.0000 H   0  0  0  0  0  0  0  0  0  0  0  0
   12.6002    4.6550    0.0000 H   0  0  0  0  0  0  0  0  0  0  0  0
   11.5263    4.6550    0.0000 H   0  0  0  0  0  0  0  0  0  0  0  0
   10.6603   -4.4650    0.0000 H   0  0  0  0  0  0  0  0  0  0  0  0
   16.0643    0.0350    0.0000 H   0  0  0  0  0  0  0  0  0  0  0  0
  1 22  2  0  0  0  0
  2 23  2  0  0  0  0
  3 34  2  0  0  0  0
  4 35  2  0  0  0  0
  5 36  2  0  0  0  0
  6 41  1  0  0  0  0
  6 90  1  0  0  0  0
  7 41  2  0  0  0  0
  8 42  2  0  0  0  0
  9 44  1  0  0  0  0
  9 91  1  0  0  0  0
 10 44  2  0  0  0  0
 18 11  1  6  0  0  0
 11 22  1  0  0  0  0
 11 49  1  0  0  0  0
 12 23  1  0  0  0  0
 24 12  1  1  0  0  0
 12 59  1  0  0  0  0
 20 13  1  1  0  0  0
 13 36  1  0  0  0  0
 13 62  1  0  0  0  0
 32 14  1  1  0  0  0
 14 34  1  0  0  0  0
 14 72  1  0  0  0  0
 29 15  1  1  0  0  0
 15 35  1  0  0  0  0
 15 73  1  0  0  0  0
 40 16  1  6  0  0  0
 16 86  1  0  0  0  0
 16 87  1  0  0  0  0
 17 42  1  0  0  0  0
 17 88  1  0  0  0  0
 17 89  1  0  0  0  0
 18 19  1  0  0  0  0
 18 23  1  0  0  0  0
 18 45  1  0  0  0  0
 19 25  1  0  0  0  0
 19 26  1  0  0  0  0
 19 46  1  0  0  0  0
 20 21  1  0  0  0  0
 20 22  1  0  0  0  0
 20 47  1  0  0  0  0
 21 30  1  0  0  0  0
 21 31  1  0  0  0  0
 21 48  1  0  0  0  0
 24 33  1  0  0  0  0
 24 34  1  0  0  0  0
 24 50  1  0  0  0  0
 25 51  1  0  0  0  0
 25 52  1  0  0  0  0
 25 53  1  0  0  0  0
 26 54  1  0  0  0  0
 26 55  1  0  0  0  0
 26 56  1  0  0  0  0
 27 28  1  0  0  0  0
 27 29  1  0  0  0  0
 27 57  1  0  0  0  0
 27 58  1  0  0  0  0
 28 38  1  0  0  0  0
 28 39  1  0  0  0  0
 28 60  1  0  0  0  0
 29 41  1  0  0  0  0
 29 61  1  0  0  0  0
 30 63  1  0  0  0  0
 30 64  1  0  0  0  0
 30 65  1  0  0  0  0
 31 66  1  0  0  0  0
 31 67  1  0  0  0  0
 31 68  1  0  0  0  0
 32 35  1  0  0  0  0
 32 37  1  0  0  0  0
 32 69  1  0  0  0  0
 33 42  1  0  0  0  0
 33 70  1  0  0  0  0
 33 71  1  0  0  0  0
 36 40  1  0  0  0  0
 37 44  1  0  0  0  0
 37 74  1  0  0  0  0
 37 75  1  0  0  0  0
 38 76  1  0  0  0  0
 38 77  1  0  0  0  0
 38 78  1  0  0  0  0
 39 79  1  0  0  0  0
 39 80  1  0  0  0  0
 39 81  1  0  0  0  0
 40 43  1  0  0  0  0
 40 82  1  0  0  0  0
 43 83  1  0  0  0  0
 43 84  1  0  0  0  0
 43 85  1  0  0  0  0
M  END
> <PUBCHEM_COMPOUND_CID>
512986
> <PUBCHEM_COMPOUND_CANONICALIZED>
1
> <PUBCHEM_CACTVS_COMPLEXITY>
1080
> <PUBCHEM_CACTVS_HBOND_ACCEPTOR>
11
> <PUBCHEM_CACTVS_HBOND_DONOR>
9
> <PUBCHEM_CACTVS_ROTATABLE_BOND>
19
> <PUBCHEM_CACTVS_SUBSKEYS>
AAADcfB7vAAAAAAAAAAAAAAAAAAAAAAAAAAAAAAAAAAAAAAAAAAAHgAQCAAADSjBgAQCCALAAgAIAAGQGAAAAAAAAAAAAIGIAAACQBoAwCAUQAAGFgCQAACvAAAMAAAAAAAAAAAAAAAAAAAAAAAAAAAAAA==
> <PUBCHEM_IUPAC_OPENEYE_NAME>
(2S)-2-[[(2S)-2-[[(2S)-4-amino-2-[[(2S)-2-[[(2S)-2-[[(2S)-2-aminopropanoyl]amino]-3-methyl-butanoyl]amino]-3-methyl-butanoyl]amino]-4-oxo-butanoyl]amino]-3-carboxy-propanoyl]amino]-4-methyl-pentanoic acid
> <PUBCHEM_IUPAC_CAS_NAME>
(2S)-2-[[(2S)-2-[[(2S)-4-amino-2-[[(2S)-2-[[(2S)-2-[[(2S)-2-amino-1-oxopropyl]amino]-3-methyl-1-oxobutyl]amino]-3-methyl-1-oxobutyl]amino]-1,4-dioxobutyl]amino]-3-carboxy-1-oxopropyl]amino]-4-methylpentanoic acid
> <PUBCHEM_IUPAC_NAME_MARKUP>
(2<I>S</I>)-2-[[(2<I>S</I>)-2-[[(2<I>S</I>)-4-amino-2-[[(2<I>S</I>)-2-[[(2<I>S</I>)-2-[[(2<I>S</I>)-2-aminopropanoyl]amino]-3-methylbutanoyl]amino]-3-methylbutanoyl]amino]-4-oxobutanoyl]amino]-3-carboxypropanoyl]amino]-4-methylpentanoic acid
> <PUBCHEM_IUPAC_NAME>
(2S)-2-[[(2S)-2-[[(2S)-4-amino-2-[[(2S)-2-[[(2S)-2-[[(2S)-2-aminopropanoyl]amino]-3-methylbutanoyl]amino]-3-methylbutanoyl]amino]-4-oxobutanoyl]amino]-3-carboxypropanoyl]amino]-4-methylpentanoic acid
> <PUBCHEM_IUPAC_SYSTEMATIC_NAME>
(2S)-2-[[(2S)-2-[[(2S)-4-azanyl-2-[[(2S)-2-[[(2S)-2-[[(2S)-2-azanylpropanoyl]amino]-3-methyl-butanoyl]amino]-3-methyl-butanoyl]amino]-4-oxidanylidene-butanoyl]amino]-4-oxidanyl-4-oxidanylidene-butanoyl]amino]-4-methyl-pentanoic acid
> <PUBCHEM_IUPAC_TRADITIONAL_NAME>
(2S)-2-[[(2S)-2-[[(2S)-4-amino-2-[[(2S)-2-[[(2S)-2-[[(2S)-2-aminopropanoyl]amino]-3-methyl-butanoyl]amino]-3-methyl-butanoyl]amino]-4-keto-butanoyl]amino]-3-carboxy-propanoyl]amino]-4-methyl-valeric acid
> <PUBCHEM_IUPAC_INCHI>
InChI=1S/C27H47N7O10/c1-11(2)8-17(27(43)44)32-24(40)16(10-19(36)37)30-23(39)15(9-18(29)35)31-25(41)20(12(3)4)34-26(42)21(13(5)6)33-22(38)14(7)28/h11-17,20-21H,8-10,28H2,1-7H3,(H2,29,35)(H,30,39)(H,31,41)(H,32,40)(H,33,38)(H,34,42)(H,36,37)(H,43,44)/t14-,15-,16-,17-,20-,21-/m0/s1
> <PUBCHEM_IUPAC_INCHIKEY>
NCQHKVZIYZMHRJ-KZVLABISSA-N
> <PUBCHEM_XLOGP3>
-5
> <PUBCHEM_EXACT_MASS>
629.33844072
> <PUBCHEM_MOLECULAR_FORMULA>
C27H47N7O10
> <PUBCHEM_MOLECULAR_WEIGHT>
629.7
> <PUBCHEM_OPENEYE_CAN_SMILES>
CC(C)CC(C(=O)O)NC(=O)C(CC(=O)O)NC(=O)C(CC(=O)N)NC(=O)C(C(C)C)NC(=O)C(C(C)C)NC(=O)C(C)N
> <PUBCHEM_OPENEYE_ISO_SMILES>
C[C@@H](C(=O)N[C@@H](C(C)C)C(=O)N[C@@H](C(C)C)C(=O)N[C@@H](CC(=O)N)C(=O)N[C@@H](CC(=O)O)C(=O)N[C@@H](CC(C)C)C(=O)O)N
> <PUBCHEM_CACTVS_TPSA>
289
> <PUBCHEM_MONOISOTOPIC_WEIGHT>
629.33844072
> <PUBCHEM_TOTAL_CHARGE>
0
> <PUBCHEM_HEAVY_ATOM_COUNT>
44
> <PUBCHEM_ATOM_DEF_STEREO_COUNT>
6
> <PUBCHEM_ATOM_UDEF_STEREO_COUNT>
0
> <PUBCHEM_BOND_DEF_STEREO_COUNT>
0
> <PUBCHEM_BOND_UDEF_STEREO_COUNT>
0
> <PUBCHEM_ISOTOPIC_ATOM_COUNT>
0
> <PUBCHEM_COMPONENT_COUNT>
1
> <PUBCHEM_CACTVS_TAUTO_COUNT>
-1
> <PUBCHEM_COORDINATE_TYPE>
1
5
255
> <PUBCHEM_BONDANNOTATIONS>
18  11  6
24  12  5
20  13  5
32  14  5
29  15  5
40  16  6
$$$$
