512958
  -OEChem-10302200282D
 33 35  0     1  0  0  0  0  0999 V2000
    6.4783    0.8047    0.0000 O   0  0  0  0  0  0  0  0  0  0  0  0
    9.0619   -0.0000    0.0000 O   0  0  0  0  0  0  0  0  0  0  0  0
    4.6660   -2.0000    0.0000 O   0  0  0  0  0  0  0  0  0  0  0  0
    4.6660    2.0000    0.0000 O   0  0  0  0  0  0  0  0  0  0  0  0
    7.0619   -0.0000    0.0000 C   0  0  3  0  0  0  0  0  0  0  0  0
    8.0619   -0.0000    0.0000 C   0  0  0  0  0  0  0  0  0  0  0  0
    6.4783   -0.8047    0.0000 C   0  0  0  0  0  0  0  0  0  0  0  0
    5.5321   -0.5000    0.0000 C   0  0  0  0  0  0  0  0  0  0  0  0
    5.5321    0.5000    0.0000 C   0  0  0  0  0  0  0  0  0  0  0  0
    8.0619   -1.0000    0.0000 C   0  0  0  0  0  0  0  0  0  0  0  0
    8.0619    1.0000    0.0000 C   0  0  0  0  0  0  0  0  0  0  0  0
    4.6660   -1.0000    0.0000 C   0  0  0  0  0  0  0  0  0  0  0  0
    4.6660    1.0000    0.0000 C   0  0  0  0  0  0  0  0  0  0  0  0
    3.8000   -0.5000    0.0000 C   0  0  0  0  0  0  0  0  0  0  0  0
    3.8000    0.5000    0.0000 C   0  0  0  0  0  0  0  0  0  0  0  0
    2.9061   -1.0347    0.0000 C   0  0  0  0  0  0  0  0  0  0  0  0
    2.9061    1.0347    0.0000 C   0  0  0  0  0  0  0  0  0  0  0  0
    2.0000   -0.5208    0.0000 C   0  0  0  0  0  0  0  0  0  0  0  0
    2.0000    0.5208    0.0000 C   0  0  0  0  0  0  0  0  0  0  0  0
    7.3436    0.5523    0.0000 H   0  0  0  0  0  0  0  0  0  0  0  0
    6.2272   -1.3716    0.0000 H   0  0  0  0  0  0  0  0  0  0  0  0
    7.0157   -1.1140    0.0000 H   0  0  0  0  0  0  0  0  0  0  0  0
    7.4419   -1.0000    0.0000 H   0  0  0  0  0  0  0  0  0  0  0  0
    8.0619   -1.6200    0.0000 H   0  0  0  0  0  0  0  0  0  0  0  0
    8.6819   -1.0000    0.0000 H   0  0  0  0  0  0  0  0  0  0  0  0
    8.6819    1.0000    0.0000 H   0  0  0  0  0  0  0  0  0  0  0  0
    8.0619    1.6200    0.0000 H   0  0  0  0  0  0  0  0  0  0  0  0
    7.4419    1.0000    0.0000 H   0  0  0  0  0  0  0  0  0  0  0  0
    9.3719   -0.5369    0.0000 H   0  0  0  0  0  0  0  0  0  0  0  0
    2.9132   -1.6546    0.0000 H   0  0  0  0  0  0  0  0  0  0  0  0
    2.9132    1.6546    0.0000 H   0  0  0  0  0  0  0  0  0  0  0  0
    1.4643   -0.8329    0.0000 H   0  0  0  0  0  0  0  0  0  0  0  0
    1.4643    0.8329    0.0000 H   0  0  0  0  0  0  0  0  0  0  0  0
  1  5  1  0  0  0  0
  1  9  1  0  0  0  0
  2  6  1  0  0  0  0
  2 29  1  0  0  0  0
  3 12  2  0  0  0  0
  4 13  2  0  0  0  0
  5  6  1  0  0  0  0
  5  7  1  0  0  0  0
  5 20  1  0  0  0  0
  6 10  1  0  0  0  0
  6 11  1  0  0  0  0
  7  8  1  0  0  0  0
  7 21  1  0  0  0  0
  7 22  1  0  0  0  0
  8  9  2  0  0  0  0
  8 12  1  0  0  0  0
  9 13  1  0  0  0  0
 10 23  1  0  0  0  0
 10 24  1  0  0  0  0
 10 25  1  0  0  0  0
 11 26  1  0  0  0  0
 11 27  1  0  0  0  0
 11 28  1  0  0  0  0
 12 14  1  0  0  0  0
 13 15  1  0  0  0  0
 14 15  1  0  0  0  0
 14 16  2  0  0  0  0
 15 17  2  0  0  0  0
 16 18  1  0  0  0  0
 16 30  1  0  0  0  0
 17 19  1  0  0  0  0
 17 31  1  0  0  0  0
 18 19  2  0  0  0  0
 18 32  1  0  0  0  0
 19 33  1  0  0  0  0
M  END
> <PUBCHEM_COMPOUND_CID>
512958
> <PUBCHEM_COMPOUND_CANONICALIZED>
1
> <PUBCHEM_CACTVS_COMPLEXITY>
475
> <PUBCHEM_CACTVS_HBOND_ACCEPTOR>
4
> <PUBCHEM_CACTVS_HBOND_DONOR>
1
> <PUBCHEM_CACTVS_ROTATABLE_BOND>
1
> <PUBCHEM_CACTVS_SUBSKEYS>
AAADccBwOAAAAAAAAAAAAAAAAAAAAQAAAAAwQAAAAAAAAEiBAAAAGgAACAAADFSgmAIyAIAABgCIAqBSAAICCAAkIAAIiAFAAMgJIDKAFRSCYQAkwAELiYeLzPDOgAAAAAAQAAAAAAAAACAAAAAAAAAAAA==
> <PUBCHEM_IUPAC_OPENEYE_NAME>
2-(1-hydroxy-1-methyl-ethyl)-2,3-dihydrobenzo[f]benzofuran-4,9-dione
> <PUBCHEM_IUPAC_CAS_NAME>
2-(2-hydroxypropan-2-yl)-2,3-dihydrobenzo[f]benzofuran-4,9-dione
> <PUBCHEM_IUPAC_NAME_MARKUP>
2-(2-hydroxypropan-2-yl)-2,3-dihydrobenzo[f][1]benzofuran-4,9-dione
> <PUBCHEM_IUPAC_NAME>
2-(2-hydroxypropan-2-yl)-2,3-dihydrobenzo[f][1]benzofuran-4,9-dione
> <PUBCHEM_IUPAC_SYSTEMATIC_NAME>
2-(2-oxidanylpropan-2-yl)-2,3-dihydrobenzo[f][1]benzofuran-4,9-dione
> <PUBCHEM_IUPAC_TRADITIONAL_NAME>
2-(1-hydroxy-1-methyl-ethyl)-2,3-dihydrobenzo[f]benzofuran-4,9-quinone
> <PUBCHEM_IUPAC_INCHI>
InChI=1S/C15H14O4/c1-15(2,18)11-7-10-12(16)8-5-3-4-6-9(8)13(17)14(10)19-11/h3-6,11,18H,7H2,1-2H3
> <PUBCHEM_IUPAC_INCHIKEY>
JEXUSWQCJDSVMY-UHFFFAOYSA-N
> <PUBCHEM_XLOGP3_AA>
1.7
> <PUBCHEM_EXACT_MASS>
258.08920892
> <PUBCHEM_MOLECULAR_FORMULA>
C15H14O4
> <PUBCHEM_MOLECULAR_WEIGHT>
258.27
> <PUBCHEM_OPENEYE_CAN_SMILES>
CC(C)(C1CC2=C(O1)C(=O)C3=CC=CC=C3C2=O)O
> <PUBCHEM_OPENEYE_ISO_SMILES>
CC(C)(C1CC2=C(O1)C(=O)C3=CC=CC=C3C2=O)O
> <PUBCHEM_CACTVS_TPSA>
63.6
> <PUBCHEM_MONOISOTOPIC_WEIGHT>
258.08920892
> <PUBCHEM_TOTAL_CHARGE>
0
> <PUBCHEM_HEAVY_ATOM_COUNT>
19
> <PUBCHEM_ATOM_DEF_STEREO_COUNT>
0
> <PUBCHEM_ATOM_UDEF_STEREO_COUNT>
1
> <PUBCHEM_BOND_DEF_STEREO_COUNT>
0
> <PUBCHEM_BOND_UDEF_STEREO_COUNT>
0
> <PUBCHEM_ISOTOPIC_ATOM_COUNT>
0
> <PUBCHEM_COMPONENT_COUNT>
1
> <PUBCHEM_CACTVS_TAUTO_COUNT>
3
> <PUBCHEM_COORDINATE_TYPE>
1
5
255
> <PUBCHEM_BONDANNOTATIONS>
14  15  8
14  16  8
15  17  8
16  18  8
17  19  8
18  19  8
5  6  3
$$$$
