513007
  -OEChem-10302200282D
132134  0     1  0  0  0  0  0999 V2000
   10.3312    2.5950    0.0000 O   0  0  0  0  0  0  0  0  0  0  0  0
    9.4651   -0.9050    0.0000 O   0  0  0  0  0  0  0  0  0  0  0  0
    8.5991    5.5950    0.0000 O   0  0  0  0  0  0  0  0  0  0  0  0
   12.9292   -1.9050    0.0000 O   0  0  0  0  0  0  0  0  0  0  0  0
    2.5369    2.0950    0.0000 O   0  0  0  0  0  0  0  0  0  0  0  0
    7.7331    5.0950    0.0000 O   0  0  0  0  0  0  0  0  0  0  0  0
    4.2690    4.0950    0.0000 O   0  0  0  0  0  0  0  0  0  0  0  0
    5.1350    6.5950    0.0000 O   0  0  0  0  0  0  0  0  0  0  0  0
    4.2690    5.0950    0.0000 O   0  0  0  0  0  0  0  0  0  0  0  0
   10.3312    0.5950    0.0000 N   0  0  0  0  0  0  0  0  0  0  0  0
   10.3312    5.5950    0.0000 N   0  0  0  0  0  0  0  0  0  0  0  0
   11.1972   -1.9050    0.0000 N   0  0  0  0  0  0  0  0  0  0  0  0
    8.5991    2.5950    0.0000 N   0  0  0  0  0  0  0  0  0  0  0  0
    5.1350    2.5950    0.0000 N   0  0  0  0  0  0  0  0  0  0  0  0
    6.8671    3.5950    0.0000 N   0  0  0  0  0  0  0  0  0  0  0  0
    8.5991    0.5950    0.0000 C   0  0  0  0  0  0  0  0  0  0  0  0
    9.4651    1.0950    0.0000 C   0  0  1  0  0  0  0  0  0  0  0  0
   11.1972   -0.9050    0.0000 C   0  0  1  0  0  0  0  0  0  0  0  0
    3.4030    0.5950    0.0000 C   0  0  0  0  0  0  0  0  0  0  0  0
   12.0632   -0.4050    0.0000 C   0  0  0  0  0  0  0  0  0  0  0  0
    7.7331    0.0950    0.0000 C   0  0  0  0  0  0  0  0  0  0  0  0
    8.0991    1.4610    0.0000 C   0  0  0  0  0  0  0  0  0  0  0  0
    9.0991   -0.2710    0.0000 C   0  0  0  0  0  0  0  0  0  0  0  0
    9.4651    2.0950    0.0000 C   0  0  0  0  0  0  0  0  0  0  0  0
    4.2690    1.0950    0.0000 C   0  0  0  0  0  0  0  0  0  0  0  0
    8.5991    3.5950    0.0000 C   0  0  1  0  0  0  0  0  0  0  0  0
   10.3312   -0.4050    0.0000 C   0  0  0  0  0  0  0  0  0  0  0  0
   11.2447    5.1883    0.0000 C   0  0  0  0  0  0  0  0  0  0  0  0
   10.4357    6.5895    0.0000 C   0  0  0  0  0  0  0  0  0  0  0  0
    4.2690    2.0950    0.0000 C   0  0  1  0  0  0  0  0  0  0  0  0
   11.9138    5.9314    0.0000 C   0  0  0  0  0  0  0  0  0  0  0  0
   11.4138    6.7974    0.0000 C   0  0  0  0  0  0  0  0  0  0  0  0
    9.4651    4.0950    0.0000 C   0  0  0  0  0  0  0  0  0  0  0  0
    9.4651    5.0950    0.0000 C   0  0  0  0  0  0  0  0  0  0  0  0
   12.0632   -3.4050    0.0000 C   0  0  0  0  0  0  0  0  0  0  0  0
   12.0632   -2.4050    0.0000 C   0  0  0  0  0  0  0  0  0  0  0  0
    2.5369    0.0950    0.0000 C   0  0  0  0  0  0  0  0  0  0  0  0
    3.9030   -0.2710    0.0000 C   0  0  0  0  0  0  0  0  0  0  0  0
    2.9030    1.4610    0.0000 C   0  0  0  0  0  0  0  0  0  0  0  0
   12.0632    0.5950    0.0000 C   0  0  0  0  0  0  0  0  0  0  0  0
   12.9292   -0.9050    0.0000 C   0  0  0  0  0  0  0  0  0  0  0  0
    7.7331    4.0950    0.0000 C   0  0  0  0  0  0  0  0  0  0  0  0
    6.0010    4.0950    0.0000 C   0  0  2  0  0  0  0  0  0  0  0  0
    3.4030    2.5950    0.0000 C   0  0  0  0  0  0  0  0  0  0  0  0
   10.3312   -2.4050    0.0000 C   0  0  0  0  0  0  0  0  0  0  0  0
   11.1972   -3.9050    0.0000 C   0  0  0  0  0  0  0  0  0  0  0  0
   12.9292   -3.9050    0.0000 C   0  0  0  0  0  0  0  0  0  0  0  0
    5.1350    3.5950    0.0000 C   0  0  0  0  0  0  0  0  0  0  0  0
    6.0010    5.0950    0.0000 C   0  0  0  0  0  0  0  0  0  0  0  0
   11.1972   -4.9050    0.0000 C   0  0  0  0  0  0  0  0  0  0  0  0
   13.7953   -3.4050    0.0000 C   0  0  0  0  0  0  0  0  0  0  0  0
    5.1350    5.5950    0.0000 C   0  0  0  0  0  0  0  0  0  0  0  0
   12.0632   -5.4050    0.0000 C   0  0  0  0  0  0  0  0  0  0  0  0
   13.7953   -2.4050    0.0000 C   0  0  0  0  0  0  0  0  0  0  0  0
   10.3312   -5.4050    0.0000 C   0  0  0  0  0  0  0  0  0  0  0  0
   14.6613   -3.9050    0.0000 C   0  0  0  0  0  0  0  0  0  0  0  0
   12.0632   -6.4050    0.0000 C   0  0  0  0  0  0  0  0  0  0  0  0
   14.6613   -1.9050    0.0000 C   0  0  0  0  0  0  0  0  0  0  0  0
   10.3312   -6.4050    0.0000 C   0  0  0  0  0  0  0  0  0  0  0  0
   15.5273   -3.4050    0.0000 C   0  0  0  0  0  0  0  0  0  0  0  0
   11.1972   -6.9050    0.0000 C   0  0  0  0  0  0  0  0  0  0  0  0
   15.5273   -2.4050    0.0000 C   0  0  0  0  0  0  0  0  0  0  0  0
   10.0021    1.4050    0.0000 H   0  0  0  0  0  0  0  0  0  0  0  0
   10.6603   -1.2150    0.0000 H   0  0  0  0  0  0  0  0  0  0  0  0
   10.8681    0.9050    0.0000 H   0  0  0  0  0  0  0  0  0  0  0  0
   12.6002   -0.0950    0.0000 H   0  0  0  0  0  0  0  0  0  0  0  0
    7.4231    0.6319    0.0000 H   0  0  0  0  0  0  0  0  0  0  0  0
    7.1962   -0.2150    0.0000 H   0  0  0  0  0  0  0  0  0  0  0  0
    8.0431   -0.4419    0.0000 H   0  0  0  0  0  0  0  0  0  0  0  0
    8.6360    1.7710    0.0000 H   0  0  0  0  0  0  0  0  0  0  0  0
    7.7891    1.9980    0.0000 H   0  0  0  0  0  0  0  0  0  0  0  0
    7.5622    1.1510    0.0000 H   0  0  0  0  0  0  0  0  0  0  0  0
    8.5622   -0.5810    0.0000 H   0  0  0  0  0  0  0  0  0  0  0  0
    9.4091   -0.8080    0.0000 H   0  0  0  0  0  0  0  0  0  0  0  0
    9.6360    0.0390    0.0000 H   0  0  0  0  0  0  0  0  0  0  0  0
    4.4810    0.5124    0.0000 H   0  0  0  0  0  0  0  0  0  0  0  0
    4.8796    1.2027    0.0000 H   0  0  0  0  0  0  0  0  0  0  0  0
    8.0622    3.2850    0.0000 H   0  0  0  0  0  0  0  0  0  0  0  0
   10.9347    4.6513    0.0000 H   0  0  0  0  0  0  0  0  0  0  0  0
   11.7463    4.8238    0.0000 H   0  0  0  0  0  0  0  0  0  0  0  0
   10.3709    7.2061    0.0000 H   0  0  0  0  0  0  0  0  0  0  0  0
    9.8157    6.5895    0.0000 H   0  0  0  0  0  0  0  0  0  0  0  0
    4.2690    2.7150    0.0000 H   0  0  0  0  0  0  0  0  0  0  0  0
   12.3287    5.4707    0.0000 H   0  0  0  0  0  0  0  0  0  0  0  0
   12.4154    6.2958    0.0000 H   0  0  0  0  0  0  0  0  0  0  0  0
   11.9802    7.0496    0.0000 H   0  0  0  0  0  0  0  0  0  0  0  0
   11.2222    7.3871    0.0000 H   0  0  0  0  0  0  0  0  0  0  0  0
    9.6772    3.5124    0.0000 H   0  0  0  0  0  0  0  0  0  0  0  0
   10.0757    4.2027    0.0000 H   0  0  0  0  0  0  0  0  0  0  0  0
    8.0622    2.2850    0.0000 H   0  0  0  0  0  0  0  0  0  0  0  0
   12.6002   -3.0950    0.0000 H   0  0  0  0  0  0  0  0  0  0  0  0
    2.2269    0.6319    0.0000 H   0  0  0  0  0  0  0  0  0  0  0  0
    2.0000   -0.2150    0.0000 H   0  0  0  0  0  0  0  0  0  0  0  0
    2.8469   -0.4419    0.0000 H   0  0  0  0  0  0  0  0  0  0  0  0
    3.3660   -0.5810    0.0000 H   0  0  0  0  0  0  0  0  0  0  0  0
    4.2130   -0.8080    0.0000 H   0  0  0  0  0  0  0  0  0  0  0  0
    4.4399    0.0390    0.0000 H   0  0  0  0  0  0  0  0  0  0  0  0
    3.4399    1.7710    0.0000 H   0  0  0  0  0  0  0  0  0  0  0  0
    2.5930    1.9980    0.0000 H   0  0  0  0  0  0  0  0  0  0  0  0
    2.3660    1.1510    0.0000 H   0  0  0  0  0  0  0  0  0  0  0  0
   12.6832    0.5950    0.0000 H   0  0  0  0  0  0  0  0  0  0  0  0
   12.0632    1.2150    0.0000 H   0  0  0  0  0  0  0  0  0  0  0  0
   11.4432    0.5950    0.0000 H   0  0  0  0  0  0  0  0  0  0  0  0
   12.6192   -1.4419    0.0000 H   0  0  0  0  0  0  0  0  0  0  0  0
   13.4662   -1.2150    0.0000 H   0  0  0  0  0  0  0  0  0  0  0  0
   13.2392   -0.3681    0.0000 H   0  0  0  0  0  0  0  0  0  0  0  0
    5.6720    2.2850    0.0000 H   0  0  0  0  0  0  0  0  0  0  0  0
    6.0010    3.4750    0.0000 H   0  0  0  0  0  0  0  0  0  0  0  0
    3.8015    3.0700    0.0000 H   0  0  0  0  0  0  0  0  0  0  0  0
    3.0044    3.0700    0.0000 H   0  0  0  0  0  0  0  0  0  0  0  0
   10.0212   -1.8681    0.0000 H   0  0  0  0  0  0  0  0  0  0  0  0
    9.7942   -2.7150    0.0000 H   0  0  0  0  0  0  0  0  0  0  0  0
   10.6412   -2.9419    0.0000 H   0  0  0  0  0  0  0  0  0  0  0  0
   10.9851   -3.3224    0.0000 H   0  0  0  0  0  0  0  0  0  0  0  0
   10.5866   -4.0127    0.0000 H   0  0  0  0  0  0  0  0  0  0  0  0
   12.5307   -4.3800    0.0000 H   0  0  0  0  0  0  0  0  0  0  0  0
   13.3278   -4.3800    0.0000 H   0  0  0  0  0  0  0  0  0  0  0  0
    6.8671    2.9750    0.0000 H   0  0  0  0  0  0  0  0  0  0  0  0
    6.6116    4.9873    0.0000 H   0  0  0  0  0  0  0  0  0  0  0  0
    6.2131    5.6776    0.0000 H   0  0  0  0  0  0  0  0  0  0  0  0
    2.0000    2.4050    0.0000 H   0  0  0  0  0  0  0  0  0  0  0  0
   12.6002   -5.0950    0.0000 H   0  0  0  0  0  0  0  0  0  0  0  0
   13.2583   -2.0950    0.0000 H   0  0  0  0  0  0  0  0  0  0  0  0
    9.7942   -5.0950    0.0000 H   0  0  0  0  0  0  0  0  0  0  0  0
   14.6613   -4.5250    0.0000 H   0  0  0  0  0  0  0  0  0  0  0  0
   12.6002   -6.7150    0.0000 H   0  0  0  0  0  0  0  0  0  0  0  0
   14.6613   -1.2850    0.0000 H   0  0  0  0  0  0  0  0  0  0  0  0
    9.7942   -6.7150    0.0000 H   0  0  0  0  0  0  0  0  0  0  0  0
   16.0643   -3.7150    0.0000 H   0  0  0  0  0  0  0  0  0  0  0  0
   11.1972   -7.5250    0.0000 H   0  0  0  0  0  0  0  0  0  0  0  0
   16.0643   -2.0950    0.0000 H   0  0  0  0  0  0  0  0  0  0  0  0
    4.5981    6.9050    0.0000 H   0  0  0  0  0  0  0  0  0  0  0  0
  1 24  2  0  0  0  0
  2 27  2  0  0  0  0
  3 34  2  0  0  0  0
  4 36  2  0  0  0  0
  5 44  1  0  0  0  0
  5121  1  0  0  0  0
  6 42  2  0  0  0  0
  7 48  2  0  0  0  0
  8 52  1  0  0  0  0
  8132  1  0  0  0  0
  9 52  2  0  0  0  0
 17 10  1  1  0  0  0
 10 27  1  0  0  0  0
 10 65  1  0  0  0  0
 11 28  1  0  0  0  0
 11 29  1  0  0  0  0
 11 34  1  0  0  0  0
 18 12  1  6  0  0  0
 12 36  1  0  0  0  0
 12 45  1  0  0  0  0
 13 24  1  0  0  0  0
 26 13  1  6  0  0  0
 13 90  1  0  0  0  0
 30 14  1  1  0  0  0
 14 48  1  0  0  0  0
 14107  1  0  0  0  0
 15 42  1  0  0  0  0
 43 15  1  6  0  0  0
 15118  1  0  0  0  0
 16 17  1  0  0  0  0
 16 21  1  0  0  0  0
 16 22  1  0  0  0  0
 16 23  1  0  0  0  0
 17 24  1  0  0  0  0
 17 63  1  0  0  0  0
 18 20  1  0  0  0  0
 18 27  1  0  0  0  0
 18 64  1  0  0  0  0
 19 25  1  0  0  0  0
 19 37  1  0  0  0  0
 19 38  1  0  0  0  0
 19 39  1  0  0  0  0
 20 40  1  0  0  0  0
 20 41  1  0  0  0  0
 20 66  1  0  0  0  0
 21 67  1  0  0  0  0
 21 68  1  0  0  0  0
 21 69  1  0  0  0  0
 22 70  1  0  0  0  0
 22 71  1  0  0  0  0
 22 72  1  0  0  0  0
 23 73  1  0  0  0  0
 23 74  1  0  0  0  0
 23 75  1  0  0  0  0
 25 30  1  0  0  0  0
 25 76  1  0  0  0  0
 25 77  1  0  0  0  0
 26 33  1  0  0  0  0
 26 42  1  0  0  0  0
 26 78  1  0  0  0  0
 28 31  1  0  0  0  0
 28 79  1  0  0  0  0
 28 80  1  0  0  0  0
 29 32  1  0  0  0  0
 29 81  1  0  0  0  0
 29 82  1  0  0  0  0
 30 44  1  0  0  0  0
 30 83  1  0  0  0  0
 31 32  1  0  0  0  0
 31 84  1  0  0  0  0
 31 85  1  0  0  0  0
 32 86  1  0  0  0  0
 32 87  1  0  0  0  0
 33 34  1  0  0  0  0
 33 88  1  0  0  0  0
 33 89  1  0  0  0  0
 35 36  1  0  0  0  0
 35 46  1  0  0  0  0
 35 47  1  0  0  0  0
 35 91  1  0  0  0  0
 37 92  1  0  0  0  0
 37 93  1  0  0  0  0
 37 94  1  0  0  0  0
 38 95  1  0  0  0  0
 38 96  1  0  0  0  0
 38 97  1  0  0  0  0
 39 98  1  0  0  0  0
 39 99  1  0  0  0  0
 39100  1  0  0  0  0
 40101  1  0  0  0  0
 40102  1  0  0  0  0
 40103  1  0  0  0  0
 41104  1  0  0  0  0
 41105  1  0  0  0  0
 41106  1  0  0  0  0
 43 48  1  0  0  0  0
 43 49  1  0  0  0  0
 43108  1  0  0  0  0
 44109  1  0  0  0  0
 44110  1  0  0  0  0
 45111  1  0  0  0  0
 45112  1  0  0  0  0
 45113  1  0  0  0  0
 46 50  1  0  0  0  0
 46114  1  0  0  0  0
 46115  1  0  0  0  0
 47 51  1  0  0  0  0
 47116  1  0  0  0  0
 47117  1  0  0  0  0
 49 52  1  0  0  0  0
 49119  1  0  0  0  0
 49120  1  0  0  0  0
 50 53  2  0  0  0  0
 50 55  1  0  0  0  0
 51 54  2  0  0  0  0
 51 56  1  0  0  0  0
 53 57  1  0  0  0  0
 53122  1  0  0  0  0
 54 58  1  0  0  0  0
 54123  1  0  0  0  0
 55 59  2  0  0  0  0
 55124  1  0  0  0  0
 56 60  2  0  0  0  0
 56125  1  0  0  0  0
 57 61  2  0  0  0  0
 57126  1  0  0  0  0
 58 62  2  0  0  0  0
 58127  1  0  0  0  0
 59 61  1  0  0  0  0
 59128  1  0  0  0  0
 60 62  1  0  0  0  0
 60129  1  0  0  0  0
 61130  1  0  0  0  0
 62131  1  0  0  0  0
M  END
> <PUBCHEM_COMPOUND_CID>
513007
> <PUBCHEM_COMPOUND_CANONICALIZED>
1
> <PUBCHEM_CACTVS_COMPLEXITY>
1490
> <PUBCHEM_CACTVS_HBOND_ACCEPTOR>
9
> <PUBCHEM_CACTVS_HBOND_DONOR>
6
> <PUBCHEM_CACTVS_ROTATABLE_BOND>
23
> <PUBCHEM_CACTVS_SUBSKEYS>
AAADcfB/vAAAAAAAAAAAAAAAAAAAAWAAAAAwYAAAAAAAAAABQAAAHgAQCAAADyjhmAYyCIPAAgCIAiHSGAACAAAgAAAIiIGIAIgKcDqA0TCUYAAmlgCYiAe/iMCPAAAAAAAAAAAAAAAAAAAAAAAAAAAAAA==
> <PUBCHEM_IUPAC_OPENEYE_NAME>
(3S)-3-[[(2S)-2-[[(2S)-2-[[(2S)-2-[(2-benzyl-3-phenyl-propanoyl)-methyl-amino]-3-methyl-butanoyl]amino]-3,3-dimethyl-butanoyl]amino]-4-oxo-4-pyrrolidin-1-yl-butanoyl]amino]-4-[[(1S)-1-(hydroxymethyl)-3,3-dimethyl-butyl]amino]-4-oxo-butanoic acid
> <PUBCHEM_IUPAC_CAS_NAME>
(3S)-3-[[(2S)-2-[[(2S)-3,3-dimethyl-2-[[(2S)-3-methyl-2-[methyl-[1-oxo-3-phenyl-2-(phenylmethyl)propyl]amino]-1-oxobutyl]amino]-1-oxobutyl]amino]-1,4-dioxo-4-(1-pyrrolidinyl)butyl]amino]-4-[[(2S)-1-hydroxy-4,4-dimethylpentan-2-yl]amino]-4-oxobutanoic acid
> <PUBCHEM_IUPAC_NAME_MARKUP>
(3<I>S</I>)-3-[[(2<I>S</I>)-2-[[(2<I>S</I>)-2-[[(2<I>S</I>)-2-[(2-benzyl-3-phenylpropanoyl)-methylamino]-3-methylbutanoyl]amino]-3,3-dimethylbutanoyl]amino]-4-oxo-4-pyrrolidin-1-ylbutanoyl]amino]-4-[[(2<I>S</I>)-1-hydroxy-4,4-dimethylpentan-2-yl]amino]-4-oxobutanoic acid
> <PUBCHEM_IUPAC_NAME>
(3S)-3-[[(2S)-2-[[(2S)-2-[[(2S)-2-[(2-benzyl-3-phenylpropanoyl)-methylamino]-3-methylbutanoyl]amino]-3,3-dimethylbutanoyl]amino]-4-oxo-4-pyrrolidin-1-ylbutanoyl]amino]-4-[[(2S)-1-hydroxy-4,4-dimethylpentan-2-yl]amino]-4-oxobutanoic acid
> <PUBCHEM_IUPAC_SYSTEMATIC_NAME>
(3S)-3-[[(2S)-2-[[(2S)-3,3-dimethyl-2-[[(2S)-3-methyl-2-[methyl-[3-phenyl-2-(phenylmethyl)propanoyl]amino]butanoyl]amino]butanoyl]amino]-4-oxidanylidene-4-pyrrolidin-1-yl-butanoyl]amino]-4-[[(2S)-4,4-dimethyl-1-oxidanyl-pentan-2-yl]amino]-4-oxidanylidene-butanoic acid
> <PUBCHEM_IUPAC_TRADITIONAL_NAME>
(3S)-3-[[(2S)-2-[[(2S)-2-[[(2S)-2-[(2-benzyl-3-phenyl-propanoyl)-methyl-amino]-3-methyl-butanoyl]amino]-3,3-dimethyl-butanoyl]amino]-4-keto-4-pyrrolidino-butanoyl]amino]-4-[[(1S)-3,3-dimethyl-1-methylol-butyl]amino]-4-keto-butyric acid
> <PUBCHEM_IUPAC_INCHI>
InChI=1S/C47H70N6O9/c1-30(2)39(52(9)45(62)33(24-31-18-12-10-13-19-31)25-32-20-14-11-15-21-32)43(60)51-40(47(6,7)8)44(61)50-35(26-37(55)53-22-16-17-23-53)42(59)49-36(27-38(56)57)41(58)48-34(29-54)28-46(3,4)5/h10-15,18-21,30,33-36,39-40,54H,16-17,22-29H2,1-9H3,(H,48,58)(H,49,59)(H,50,61)(H,51,60)(H,56,57)/t34-,35-,36-,39-,40+/m0/s1
> <PUBCHEM_IUPAC_INCHIKEY>
UCIMDOSRCVIHNC-CFUBTRTNSA-N
> <PUBCHEM_XLOGP3_AA>
5.1
> <PUBCHEM_EXACT_MASS>
862.52042783
> <PUBCHEM_MOLECULAR_FORMULA>
C47H70N6O9
> <PUBCHEM_MOLECULAR_WEIGHT>
863.1
> <PUBCHEM_OPENEYE_CAN_SMILES>
CC(C)C(C(=O)NC(C(=O)NC(CC(=O)N1CCCC1)C(=O)NC(CC(=O)O)C(=O)NC(CC(C)(C)C)CO)C(C)(C)C)N(C)C(=O)C(CC2=CC=CC=C2)CC3=CC=CC=C3
> <PUBCHEM_OPENEYE_ISO_SMILES>
CC(C)[C@@H](C(=O)N[C@H](C(=O)N[C@@H](CC(=O)N1CCCC1)C(=O)N[C@@H](CC(=O)O)C(=O)N[C@@H](CC(C)(C)C)CO)C(C)(C)C)N(C)C(=O)C(CC2=CC=CC=C2)CC3=CC=CC=C3
> <PUBCHEM_CACTVS_TPSA>
215
> <PUBCHEM_MONOISOTOPIC_WEIGHT>
862.52042783
> <PUBCHEM_TOTAL_CHARGE>
0
> <PUBCHEM_HEAVY_ATOM_COUNT>
62
> <PUBCHEM_ATOM_DEF_STEREO_COUNT>
5
> <PUBCHEM_ATOM_UDEF_STEREO_COUNT>
0
> <PUBCHEM_BOND_DEF_STEREO_COUNT>
0
> <PUBCHEM_BOND_UDEF_STEREO_COUNT>
0
> <PUBCHEM_ISOTOPIC_ATOM_COUNT>
0
> <PUBCHEM_COMPONENT_COUNT>
1
> <PUBCHEM_CACTVS_TAUTO_COUNT>
-1
> <PUBCHEM_COORDINATE_TYPE>
1
5
255
> <PUBCHEM_BONDANNOTATIONS>
17  10  5
18  12  6
26  13  6
30  14  5
43  15  6
50  53  8
50  55  8
51  54  8
51  56  8
53  57  8
54  58  8
55  59  8
56  60  8
57  61  8
58  62  8
59  61  8
60  62  8
$$$$
