513062
  -OEChem-10302200282D
 37 38  0     1  0  0  0  0  0999 V2000
    3.5398   -3.0781    0.0000 P   0  0  0  0  0  0  0  0  0  0  0  0
    2.4888    3.1833    0.0000 F   0  0  0  0  0  0  0  0  0  0  0  0
    5.0298   -0.4045    0.0000 O   0  0  0  0  0  0  0  0  0  0  0  0
    3.1330   -2.1646    0.0000 O   0  0  0  0  0  0  0  0  0  0  0  0
    2.4608   -0.0955    0.0000 O   0  0  0  0  0  0  0  0  0  0  0  0
    6.3031   -2.0601    0.0000 O   0  0  0  0  0  0  0  0  0  0  0  0
    3.9465   -3.9917    0.0000 O   0  0  0  0  0  0  0  0  0  0  0  0
    2.6262   -3.4849    0.0000 O   0  0  0  0  0  0  0  0  0  0  0  0
    4.4533   -2.6714    0.0000 O   0  0  0  0  0  0  0  0  0  0  0  0
    4.2208    1.1833    0.0000 N   0  3  0  0  0  0  0  0  0  0  0  0
    5.0868    2.6833    0.0000 N   0  0  0  0  0  0  0  0  0  0  0  0
    5.9529    1.1833    0.0000 N   0  0  0  0  0  0  0  0  0  0  0  0
    4.2208    4.1833    0.0000 N   0  0  0  0  0  0  0  0  0  0  0  0
    3.7208   -1.3556    0.0000 C   0  0  1  0  0  0  0  0  0  0  0  0
    3.4118   -0.4045    0.0000 C   0  0  1  0  0  0  0  0  0  0  0  0
    4.7208   -1.3556    0.0000 C   0  0  1  0  0  0  0  0  0  0  0  0
    4.2208    0.1833    0.0000 C   0  0  1  0  0  0  0  0  0  0  0  0
    5.3086   -2.1646    0.0000 C   0  0  0  0  0  0  0  0  0  0  0  0
    5.0868    1.6833    0.0000 C   0  0  0  0  0  0  0  0  0  0  0  0
    3.3548    1.6833    0.0000 C   0  0  0  0  0  0  0  0  0  0  0  0
    3.3548    2.6833    0.0000 C   0  0  0  0  0  0  0  0  0  0  0  0
    4.2208    3.1833    0.0000 C   0  0  0  0  0  0  0  0  0  0  0  0
    3.1085   -1.2586    0.0000 H   0  0  0  0  0  0  0  0  0  0  0  0
    2.9734   -0.8429    0.0000 H   0  0  0  0  0  0  0  0  0  0  0  0
    5.3332   -1.2586    0.0000 H   0  0  0  0  0  0  0  0  0  0  0  0
    3.6684    0.4647    0.0000 H   0  0  0  0  0  0  0  0  0  0  0  0
    4.7514   -2.4364    0.0000 H   0  0  0  0  0  0  0  0  0  0  0  0
    5.4795   -2.7606    0.0000 H   0  0  0  0  0  0  0  0  0  0  0  0
    2.0000   -0.5104    0.0000 H   0  0  0  0  0  0  0  0  0  0  0  0
    2.8179    1.3733    0.0000 H   0  0  0  0  0  0  0  0  0  0  0  0
    6.6676   -2.5617    0.0000 H   0  0  0  0  0  0  0  0  0  0  0  0
    6.4898    1.4933    0.0000 H   0  0  0  0  0  0  0  0  0  0  0  0
    5.9529    0.5633    0.0000 H   0  0  0  0  0  0  0  0  0  0  0  0
    3.5821   -4.4933    0.0000 H   0  0  0  0  0  0  0  0  0  0  0  0
    2.1246   -3.1204    0.0000 H   0  0  0  0  0  0  0  0  0  0  0  0
    4.7578    4.4933    0.0000 H   0  0  0  0  0  0  0  0  0  0  0  0
    3.6839    4.4933    0.0000 H   0  0  0  0  0  0  0  0  0  0  0  0
  1  4  1  0  0  0  0
  1  7  1  0  0  0  0
  1  8  1  0  0  0  0
  1  9  2  0  0  0  0
  2 21  1  0  0  0  0
  3 16  1  0  0  0  0
  3 17  1  0  0  0  0
 14  4  1  1  0  0  0
 15  5  1  6  0  0  0
  5 29  1  0  0  0  0
  6 18  1  0  0  0  0
  6 31  1  0  0  0  0
  7 34  1  0  0  0  0
  8 35  1  0  0  0  0
 17 10  1  6  0  0  0
 10 19  2  0  0  0  0
 10 20  1  0  0  0  0
 11 19  1  0  0  0  0
 11 22  2  0  0  0  0
 12 19  1  0  0  0  0
 12 32  1  0  0  0  0
 12 33  1  0  0  0  0
 13 22  1  0  0  0  0
 13 36  1  0  0  0  0
 13 37  1  0  0  0  0
 14 15  1  0  0  0  0
 14 16  1  0  0  0  0
 14 23  1  0  0  0  0
 15 17  1  0  0  0  0
 15 24  1  0  0  0  0
 16 18  1  6  0  0  0
 16 25  1  0  0  0  0
 17 26  1  0  0  0  0
 18 27  1  0  0  0  0
 18 28  1  0  0  0  0
 20 21  2  0  0  0  0
 20 30  1  0  0  0  0
 21 22  1  0  0  0  0
M  CHG  1  10   1
M  END
> <PUBCHEM_COMPOUND_CID>
513062
> <PUBCHEM_COMPOUND_CANONICALIZED>
1
> <PUBCHEM_CACTVS_COMPLEXITY>
442
> <PUBCHEM_CACTVS_HBOND_ACCEPTOR>
11
> <PUBCHEM_CACTVS_HBOND_DONOR>
6
> <PUBCHEM_CACTVS_ROTATABLE_BOND>
4
> <PUBCHEM_CACTVS_SUBSKEYS>
AAADccBzuQIAAAAAAAAAAAAAAAAAASAAAAAsAAAAAAAAAAABgAAAHwAQCCAACBThkg4tsJdMFxCgQBJnZICAgCkRAKABUCAoRBCDGIJAyEAORAgPAALTACDwMAIAAAAAAAAAAAAAAAAAAAAAAAAAAAAAAA==
> <PUBCHEM_IUPAC_OPENEYE_NAME>
[(2R,3S,4S,5R)-5-(2,4-diamino-5-fluoro-pyrimidin-1-ium-1-yl)-4-hydroxy-2-(hydroxymethyl)tetrahydrofuran-3-yl] dihydrogen phosphate
> <PUBCHEM_IUPAC_CAS_NAME>
[(2R,3S,4S,5R)-5-(2,4-diamino-5-fluoro-1-pyrimidin-1-iumyl)-4-hydroxy-2-(hydroxymethyl)-3-oxolanyl] dihydrogen phosphate
> <PUBCHEM_IUPAC_NAME_MARKUP>
[(2<I>R</I>,3<I>S</I>,4<I>S</I>,5<I>R</I>)-5-(2,4-diamino-5-fluoropyrimidin-1-ium-1-yl)-4-hydroxy-2-(hydroxymethyl)oxolan-3-yl] dihydrogen phosphate
> <PUBCHEM_IUPAC_NAME>
[(2R,3S,4S,5R)-5-(2,4-diamino-5-fluoropyrimidin-1-ium-1-yl)-4-hydroxy-2-(hydroxymethyl)oxolan-3-yl] dihydrogen phosphate
> <PUBCHEM_IUPAC_SYSTEMATIC_NAME>
[(2R,3S,4S,5R)-5-[2,4-bis(azanyl)-5-fluoranyl-pyrimidin-1-ium-1-yl]-2-(hydroxymethyl)-4-oxidanyl-oxolan-3-yl] dihydrogen phosphate
> <PUBCHEM_IUPAC_TRADITIONAL_NAME>
[(2R,3S,4S,5R)-5-(2,4-diamino-5-fluoro-pyrimidin-1-ium-1-yl)-4-hydroxy-2-methylol-tetrahydrofuran-3-yl] dihydrogen phosphate
> <PUBCHEM_IUPAC_INCHI>
InChI=1S/C9H14FN4O7P/c10-3-1-14(9(12)13-7(3)11)8-5(16)6(4(2-15)20-8)21-22(17,18)19/h1,4-6,8,15-16H,2H2,(H5,11,12,13,17,18,19)/p+1/t4-,5+,6-,8-/m1/s1
> <PUBCHEM_IUPAC_INCHIKEY>
YOONHMHHRVAKCO-BYPJNBLXSA-O
> <PUBCHEM_XLOGP3_AA>
-3.5
> <PUBCHEM_EXACT_MASS>
341.06623899
> <PUBCHEM_MOLECULAR_FORMULA>
C9H15FN4O7P+
> <PUBCHEM_MOLECULAR_WEIGHT>
341.21
> <PUBCHEM_OPENEYE_CAN_SMILES>
C1=C(C(=NC(=[N+]1C2C(C(C(O2)CO)OP(=O)(O)O)O)N)N)F
> <PUBCHEM_OPENEYE_ISO_SMILES>
C1=C(C(=NC(=[N+]1[C@H]2[C@H]([C@@H]([C@H](O2)CO)OP(=O)(O)O)O)N)N)F
> <PUBCHEM_CACTVS_TPSA>
185
> <PUBCHEM_MONOISOTOPIC_WEIGHT>
341.06623899
> <PUBCHEM_TOTAL_CHARGE>
1
> <PUBCHEM_HEAVY_ATOM_COUNT>
22
> <PUBCHEM_ATOM_DEF_STEREO_COUNT>
4
> <PUBCHEM_ATOM_UDEF_STEREO_COUNT>
0
> <PUBCHEM_BOND_DEF_STEREO_COUNT>
0
> <PUBCHEM_BOND_UDEF_STEREO_COUNT>
0
> <PUBCHEM_ISOTOPIC_ATOM_COUNT>
0
> <PUBCHEM_COMPONENT_COUNT>
1
> <PUBCHEM_CACTVS_TAUTO_COUNT>
-1
> <PUBCHEM_COORDINATE_TYPE>
1
5
255
> <PUBCHEM_BONDANNOTATIONS>
17  10  6
10  19  8
10  20  8
11  19  8
11  22  8
16  18  6
20  21  8
21  22  8
14  4  5
15  5  6
$$$$
