513005
  -OEChem-10302200282D
129131  0     1  0  0  0  0  0999 V2000
   12.1522    2.2994    0.0000 O   0  0  0  0  0  0  0  0  0  0  0  0
   11.0859    3.6643    0.0000 O   0  0  0  0  0  0  0  0  0  0  0  0
    8.9282    4.3244    0.0000 O   0  0  0  0  0  0  0  0  0  0  0  0
    8.0622    3.8244    0.0000 O   0  0  0  0  0  0  0  0  0  0  0  0
    8.7682    6.6435    0.0000 O   0  0  0  0  0  0  0  0  0  0  0  0
    7.1962    4.3244    0.0000 O   0  0  0  0  0  0  0  0  0  0  0  0
    5.4641    1.3244    0.0000 O   0  0  0  0  0  0  0  0  0  0  0  0
    6.3301   -2.1756    0.0000 O   0  0  0  0  0  0  0  0  0  0  0  0
    2.8660   -3.1756    0.0000 O   0  0  0  0  0  0  0  0  0  0  0  0
    8.9282    2.3244    0.0000 N   0  0  0  0  0  0  0  0  0  0  0  0
   10.4370    4.5905    0.0000 N   0  0  0  0  0  0  0  0  0  0  0  0
    7.1962    1.3244    0.0000 N   0  0  0  0  0  0  0  0  0  0  0  0
    5.4641    4.3244    0.0000 N   0  0  0  0  0  0  0  0  0  0  0  0
    5.4641   -0.6756    0.0000 N   0  0  0  0  0  0  0  0  0  0  0  0
    4.5981   -3.1756    0.0000 N   0  0  0  0  0  0  0  0  0  0  0  0
   10.4370    2.0584    0.0000 C   0  0  0  0  0  0  0  0  0  0  0  0
   11.2851    1.5284    0.0000 C   0  0  0  0  0  0  0  0  0  0  0  0
    9.6710    1.4156    0.0000 C   0  0  0  0  0  0  0  0  0  0  0  0
   11.0431    0.5582    0.0000 C   0  0  0  0  0  0  0  0  0  0  0  0
   10.0456    0.4884    0.0000 C   0  0  0  0  0  0  0  0  0  0  0  0
    9.7942    2.8244    0.0000 C   0  0  1  0  0  0  0  0  0  0  0  0
   11.2250    2.6740    0.0000 C   0  0  0  0  0  0  0  0  0  0  0  0
    9.7942    3.8244    0.0000 C   0  0  0  0  0  0  0  0  0  0  0  0
   10.0950    5.5302    0.0000 C   0  0  1  0  0  0  0  0  0  0  0  0
    8.0622    2.8244    0.0000 C   0  0  0  0  0  0  0  0  0  0  0  0
   10.7378    6.2962    0.0000 C   0  0  0  0  0  0  0  0  0  0  0  0
    7.1962    2.3244    0.0000 C   0  0  2  0  0  0  0  0  0  0  0  0
   10.3958    7.2359    0.0000 C   0  0  0  0  0  0  0  0  0  0  0  0
    9.1102    5.7038    0.0000 C   0  0  0  0  0  0  0  0  0  0  0  0
    6.3301    2.8244    0.0000 C   0  0  0  0  0  0  0  0  0  0  0  0
   10.0537    8.1756    0.0000 C   0  0  0  0  0  0  0  0  0  0  0  0
   11.3355    7.5779    0.0000 C   0  0  0  0  0  0  0  0  0  0  0  0
    9.4561    6.8939    0.0000 C   0  0  0  0  0  0  0  0  0  0  0  0
    6.3301   -0.1756    0.0000 C   0  0  1  0  0  0  0  0  0  0  0  0
    7.1962   -0.6756    0.0000 C   0  0  0  0  0  0  0  0  0  0  0  0
    6.3301    3.8244    0.0000 C   0  0  0  0  0  0  0  0  0  0  0  0
    6.3301    0.8244    0.0000 C   0  0  0  0  0  0  0  0  0  0  0  0
    5.3596    5.3189    0.0000 C   0  0  0  0  0  0  0  0  0  0  0  0
    4.5506    3.9177    0.0000 C   0  0  0  0  0  0  0  0  0  0  0  0
    4.3814    5.5268    0.0000 C   0  0  0  0  0  0  0  0  0  0  0  0
    3.8814    4.6608    0.0000 C   0  0  0  0  0  0  0  0  0  0  0  0
    8.0622   -1.1756    0.0000 C   0  0  0  0  0  0  0  0  0  0  0  0
    7.6962    0.1904    0.0000 C   0  0  0  0  0  0  0  0  0  0  0  0
    6.6962   -1.5416    0.0000 C   0  0  0  0  0  0  0  0  0  0  0  0
    4.5981   -2.1756    0.0000 C   0  0  2  0  0  0  0  0  0  0  0  0
    5.4641   -1.6756    0.0000 C   0  0  0  0  0  0  0  0  0  0  0  0
    3.7320   -1.6756    0.0000 C   0  0  0  0  0  0  0  0  0  0  0  0
    3.7320   -0.6756    0.0000 C   0  0  0  0  0  0  0  0  0  0  0  0
    2.8660   -2.1756    0.0000 C   0  0  0  0  0  0  0  0  0  0  0  0
    3.7320   -3.6756    0.0000 C   0  0  0  0  0  0  0  0  0  0  0  0
    5.4641   -3.6756    0.0000 C   0  0  0  0  0  0  0  0  0  0  0  0
    3.7320   -4.6756    0.0000 C   0  0  0  0  0  0  0  0  0  0  0  0
    2.8660   -5.1756    0.0000 C   0  0  0  0  0  0  0  0  0  0  0  0
    2.8660   -6.1756    0.0000 C   0  0  0  0  0  0  0  0  0  0  0  0
    3.7320   -6.6756    0.0000 C   0  0  0  0  0  0  0  0  0  0  0  0
    2.0000   -6.6756    0.0000 C   0  0  0  0  0  0  0  0  0  0  0  0
    3.7320   -7.6756    0.0000 C   0  0  0  0  0  0  0  0  0  0  0  0
    2.0000   -7.6756    0.0000 C   0  0  0  0  0  0  0  0  0  0  0  0
    2.8660   -8.1756    0.0000 C   0  0  0  0  0  0  0  0  0  0  0  0
   11.8677    1.3164    0.0000 H   0  0  0  0  0  0  0  0  0  0  0  0
   11.5569    2.0857    0.0000 H   0  0  0  0  0  0  0  0  0  0  0  0
    9.3243    1.9296    0.0000 H   0  0  0  0  0  0  0  0  0  0  0  0
    9.1235    1.1245    0.0000 H   0  0  0  0  0  0  0  0  0  0  0  0
   11.0215   -0.0615    0.0000 H   0  0  0  0  0  0  0  0  0  0  0  0
   11.6571    0.4719    0.0000 H   0  0  0  0  0  0  0  0  0  0  0  0
    9.4496    0.3175    0.0000 H   0  0  0  0  0  0  0  0  0  0  0  0
   10.1532   -0.1222    0.0000 H   0  0  0  0  0  0  0  0  0  0  0  0
    9.2573    3.1344    0.0000 H   0  0  0  0  0  0  0  0  0  0  0  0
    8.9282    1.7044    0.0000 H   0  0  0  0  0  0  0  0  0  0  0  0
   11.0476    4.4828    0.0000 H   0  0  0  0  0  0  0  0  0  0  0  0
   10.7056    5.4225    0.0000 H   0  0  0  0  0  0  0  0  0  0  0  0
   11.1363    5.8212    0.0000 H   0  0  0  0  0  0  0  0  0  0  0  0
   11.2747    6.6062    0.0000 H   0  0  0  0  0  0  0  0  0  0  0  0
    6.6592    2.0144    0.0000 H   0  0  0  0  0  0  0  0  0  0  0  0
   12.2385    1.6855    0.0000 H   0  0  0  0  0  0  0  0  0  0  0  0
    8.4996    5.5961    0.0000 H   0  0  0  0  0  0  0  0  0  0  0  0
    9.1102    5.0838    0.0000 H   0  0  0  0  0  0  0  0  0  0  0  0
    5.7196    2.9321    0.0000 H   0  0  0  0  0  0  0  0  0  0  0  0
    6.1181    2.2418    0.0000 H   0  0  0  0  0  0  0  0  0  0  0  0
    7.7331    1.0144    0.0000 H   0  0  0  0  0  0  0  0  0  0  0  0
   10.6364    8.3876    0.0000 H   0  0  0  0  0  0  0  0  0  0  0  0
    9.8417    8.7582    0.0000 H   0  0  0  0  0  0  0  0  0  0  0  0
    9.4711    7.9635    0.0000 H   0  0  0  0  0  0  0  0  0  0  0  0
   11.5475    6.9953    0.0000 H   0  0  0  0  0  0  0  0  0  0  0  0
   11.9181    7.7900    0.0000 H   0  0  0  0  0  0  0  0  0  0  0  0
   11.1234    8.1605    0.0000 H   0  0  0  0  0  0  0  0  0  0  0  0
    9.2440    7.4765    0.0000 H   0  0  0  0  0  0  0  0  0  0  0  0
    8.8735    6.6818    0.0000 H   0  0  0  0  0  0  0  0  0  0  0  0
    9.6681    6.3113    0.0000 H   0  0  0  0  0  0  0  0  0  0  0  0
    5.7932    0.1344    0.0000 H   0  0  0  0  0  0  0  0  0  0  0  0
    5.9796    5.3189    0.0000 H   0  0  0  0  0  0  0  0  0  0  0  0
    5.4244    5.9355    0.0000 H   0  0  0  0  0  0  0  0  0  0  0  0
    4.0490    3.5532    0.0000 H   0  0  0  0  0  0  0  0  0  0  0  0
    4.8606    3.3807    0.0000 H   0  0  0  0  0  0  0  0  0  0  0  0
    4.5730    6.1165    0.0000 H   0  0  0  0  0  0  0  0  0  0  0  0
    3.8150    5.7790    0.0000 H   0  0  0  0  0  0  0  0  0  0  0  0
    3.3798    5.0252    0.0000 H   0  0  0  0  0  0  0  0  0  0  0  0
    3.4666    4.2001    0.0000 H   0  0  0  0  0  0  0  0  0  0  0  0
    4.9272   -0.3656    0.0000 H   0  0  0  0  0  0  0  0  0  0  0  0
    7.7522   -1.7125    0.0000 H   0  0  0  0  0  0  0  0  0  0  0  0
    8.5991   -1.4856    0.0000 H   0  0  0  0  0  0  0  0  0  0  0  0
    8.3722   -0.6386    0.0000 H   0  0  0  0  0  0  0  0  0  0  0  0
    8.2331   -0.1196    0.0000 H   0  0  0  0  0  0  0  0  0  0  0  0
    8.0062    0.7274    0.0000 H   0  0  0  0  0  0  0  0  0  0  0  0
    7.1592    0.5004    0.0000 H   0  0  0  0  0  0  0  0  0  0  0  0
    6.1592   -1.2316    0.0000 H   0  0  0  0  0  0  0  0  0  0  0  0
    6.3862   -2.0785    0.0000 H   0  0  0  0  0  0  0  0  0  0  0  0
    7.2331   -1.8516    0.0000 H   0  0  0  0  0  0  0  0  0  0  0  0
    8.1576    6.7512    0.0000 H   0  0  0  0  0  0  0  0  0  0  0  0
    5.1350   -2.4856    0.0000 H   0  0  0  0  0  0  0  0  0  0  0  0
    3.7320   -2.2956    0.0000 H   0  0  0  0  0  0  0  0  0  0  0  0
    4.3520   -0.6756    0.0000 H   0  0  0  0  0  0  0  0  0  0  0  0
    3.7320   -0.0556    0.0000 H   0  0  0  0  0  0  0  0  0  0  0  0
    3.1120   -0.6756    0.0000 H   0  0  0  0  0  0  0  0  0  0  0  0
    2.5560   -1.6386    0.0000 H   0  0  0  0  0  0  0  0  0  0  0  0
    2.3291   -2.4856    0.0000 H   0  0  0  0  0  0  0  0  0  0  0  0
    3.1760   -2.7125    0.0000 H   0  0  0  0  0  0  0  0  0  0  0  0
    5.1541   -4.2125    0.0000 H   0  0  0  0  0  0  0  0  0  0  0  0
    6.0010   -3.9856    0.0000 H   0  0  0  0  0  0  0  0  0  0  0  0
    5.7741   -3.1386    0.0000 H   0  0  0  0  0  0  0  0  0  0  0  0
    3.9441   -5.2582    0.0000 H   0  0  0  0  0  0  0  0  0  0  0  0
    4.3426   -4.5679    0.0000 H   0  0  0  0  0  0  0  0  0  0  0  0
    2.6540   -4.5930    0.0000 H   0  0  0  0  0  0  0  0  0  0  0  0
    2.2554   -5.2832    0.0000 H   0  0  0  0  0  0  0  0  0  0  0  0
    4.2690   -6.3656    0.0000 H   0  0  0  0  0  0  0  0  0  0  0  0
    1.4631   -6.3656    0.0000 H   0  0  0  0  0  0  0  0  0  0  0  0
    4.2690   -7.9856    0.0000 H   0  0  0  0  0  0  0  0  0  0  0  0
    1.4631   -7.9856    0.0000 H   0  0  0  0  0  0  0  0  0  0  0  0
    2.8660   -8.7956    0.0000 H   0  0  0  0  0  0  0  0  0  0  0  0
  1 22  1  0  0  0  0
  1 75  1  0  0  0  0
  2 22  2  0  0  0  0
  3 23  2  0  0  0  0
  4 25  2  0  0  0  0
  5 29  1  0  0  0  0
  5109  1  0  0  0  0
  6 36  2  0  0  0  0
  7 37  2  0  0  0  0
  8 46  2  0  0  0  0
  9 50  2  0  0  0  0
 21 10  1  6  0  0  0
 10 25  1  0  0  0  0
 10 69  1  0  0  0  0
 11 23  1  0  0  0  0
 24 11  1  6  0  0  0
 11 70  1  0  0  0  0
 27 12  1  1  0  0  0
 12 37  1  0  0  0  0
 12 80  1  0  0  0  0
 13 36  1  0  0  0  0
 13 38  1  0  0  0  0
 13 39  1  0  0  0  0
 34 14  1  6  0  0  0
 14 46  1  0  0  0  0
 14 99  1  0  0  0  0
 45 15  1  1  0  0  0
 15 50  1  0  0  0  0
 15 51  1  0  0  0  0
 16 17  1  0  0  0  0
 16 18  1  0  0  0  0
 16 21  1  0  0  0  0
 16 22  1  0  0  0  0
 17 19  1  0  0  0  0
 17 60  1  0  0  0  0
 17 61  1  0  0  0  0
 18 20  1  0  0  0  0
 18 62  1  0  0  0  0
 18 63  1  0  0  0  0
 19 20  1  0  0  0  0
 19 64  1  0  0  0  0
 19 65  1  0  0  0  0
 20 66  1  0  0  0  0
 20 67  1  0  0  0  0
 21 23  1  0  0  0  0
 21 68  1  0  0  0  0
 24 26  1  0  0  0  0
 24 29  1  0  0  0  0
 24 71  1  0  0  0  0
 25 27  1  0  0  0  0
 26 28  1  0  0  0  0
 26 72  1  0  0  0  0
 26 73  1  0  0  0  0
 27 30  1  0  0  0  0
 27 74  1  0  0  0  0
 28 31  1  0  0  0  0
 28 32  1  0  0  0  0
 28 33  1  0  0  0  0
 29 76  1  0  0  0  0
 29 77  1  0  0  0  0
 30 36  1  0  0  0  0
 30 78  1  0  0  0  0
 30 79  1  0  0  0  0
 31 81  1  0  0  0  0
 31 82  1  0  0  0  0
 31 83  1  0  0  0  0
 32 84  1  0  0  0  0
 32 85  1  0  0  0  0
 32 86  1  0  0  0  0
 33 87  1  0  0  0  0
 33 88  1  0  0  0  0
 33 89  1  0  0  0  0
 34 35  1  0  0  0  0
 34 37  1  0  0  0  0
 34 90  1  0  0  0  0
 35 42  1  0  0  0  0
 35 43  1  0  0  0  0
 35 44  1  0  0  0  0
 38 40  1  0  0  0  0
 38 91  1  0  0  0  0
 38 92  1  0  0  0  0
 39 41  1  0  0  0  0
 39 93  1  0  0  0  0
 39 94  1  0  0  0  0
 40 41  1  0  0  0  0
 40 95  1  0  0  0  0
 40 96  1  0  0  0  0
 41 97  1  0  0  0  0
 41 98  1  0  0  0  0
 42100  1  0  0  0  0
 42101  1  0  0  0  0
 42102  1  0  0  0  0
 43103  1  0  0  0  0
 43104  1  0  0  0  0
 43105  1  0  0  0  0
 44106  1  0  0  0  0
 44107  1  0  0  0  0
 44108  1  0  0  0  0
 45 46  1  0  0  0  0
 45 47  1  0  0  0  0
 45110  1  0  0  0  0
 47 48  1  0  0  0  0
 47 49  1  0  0  0  0
 47111  1  0  0  0  0
 48112  1  0  0  0  0
 48113  1  0  0  0  0
 48114  1  0  0  0  0
 49115  1  0  0  0  0
 49116  1  0  0  0  0
 49117  1  0  0  0  0
 50 52  1  0  0  0  0
 51118  1  0  0  0  0
 51119  1  0  0  0  0
 51120  1  0  0  0  0
 52 53  1  0  0  0  0
 52121  1  0  0  0  0
 52122  1  0  0  0  0
 53 54  1  0  0  0  0
 53123  1  0  0  0  0
 53124  1  0  0  0  0
 54 55  2  0  0  0  0
 54 56  1  0  0  0  0
 55 57  1  0  0  0  0
 55125  1  0  0  0  0
 56 58  2  0  0  0  0
 56126  1  0  0  0  0
 57 59  2  0  0  0  0
 57127  1  0  0  0  0
 58 59  1  0  0  0  0
 58128  1  0  0  0  0
 59129  1  0  0  0  0
M  END
> <PUBCHEM_COMPOUND_CID>
513005
> <PUBCHEM_COMPOUND_CANONICALIZED>
1
> <PUBCHEM_CACTVS_COMPLEXITY>
1470
> <PUBCHEM_CACTVS_HBOND_ACCEPTOR>
9
> <PUBCHEM_CACTVS_HBOND_DONOR>
6
> <PUBCHEM_CACTVS_ROTATABLE_BOND>
21
> <PUBCHEM_CACTVS_SUBSKEYS>
AAADcfB/vAAAAAAAAAAAAAAAAAAAAeIAAAAwAAAAAAAAAAABAAAAHgAQCAAADyjhmAYyCIPAAgCIAiHSGAACAAAgAAAIiIGIAIgKcDqA0TCUYAAmlgCYiAe/yICPAAAAAAAAAAAAAAAAAAAAAAAAAAAAAA==
> <PUBCHEM_IUPAC_OPENEYE_NAME>
1-[(1S)-1-[[(2S)-2-[[(2S)-3,3-dimethyl-2-[[(2S)-3-methyl-2-[methyl(3-phenylpropanoyl)amino]butanoyl]amino]butanoyl]amino]-4-oxo-4-pyrrolidin-1-yl-butanoyl]amino]-2-[[(1S)-1-(hydroxymethyl)-3,3-dimethyl-butyl]amino]-2-oxo-ethyl]cyclopentanecarboxylic acid
> <PUBCHEM_IUPAC_CAS_NAME>
1-[(1S)-1-[[(2S)-2-[[(2S)-3,3-dimethyl-2-[[(2S)-3-methyl-2-[methyl-(1-oxo-3-phenylpropyl)amino]-1-oxobutyl]amino]-1-oxobutyl]amino]-1,4-dioxo-4-(1-pyrrolidinyl)butyl]amino]-2-[[(2S)-1-hydroxy-4,4-dimethylpentan-2-yl]amino]-2-oxoethyl]-1-cyclopentanecarboxylic acid
> <PUBCHEM_IUPAC_NAME_MARKUP>
1-[(1<I>S</I>)-1-[[(2<I>S</I>)-2-[[(2<I>S</I>)-3,3-dimethyl-2-[[(2<I>S</I>)-3-methyl-2-[methyl(3-phenylpropanoyl)amino]butanoyl]amino]butanoyl]amino]-4-oxo-4-pyrrolidin-1-ylbutanoyl]amino]-2-[[(2<I>S</I>)-1-hydroxy-4,4-dimethylpentan-2-yl]amino]-2-oxoethyl]cyclopentane-1-carboxylic acid
> <PUBCHEM_IUPAC_NAME>
1-[(1S)-1-[[(2S)-2-[[(2S)-3,3-dimethyl-2-[[(2S)-3-methyl-2-[methyl(3-phenylpropanoyl)amino]butanoyl]amino]butanoyl]amino]-4-oxo-4-pyrrolidin-1-ylbutanoyl]amino]-2-[[(2S)-1-hydroxy-4,4-dimethylpentan-2-yl]amino]-2-oxoethyl]cyclopentane-1-carboxylic acid
> <PUBCHEM_IUPAC_SYSTEMATIC_NAME>
1-[(1S)-1-[[(2S)-2-[[(2S)-3,3-dimethyl-2-[[(2S)-3-methyl-2-[methyl(3-phenylpropanoyl)amino]butanoyl]amino]butanoyl]amino]-4-oxidanylidene-4-pyrrolidin-1-yl-butanoyl]amino]-2-[[(2S)-4,4-dimethyl-1-oxidanyl-pentan-2-yl]amino]-2-oxidanylidene-ethyl]cyclopentane-1-carboxylic acid
> <PUBCHEM_IUPAC_TRADITIONAL_NAME>
1-[(1S)-2-[[(1S)-3,3-dimethyl-1-methylol-butyl]amino]-1-[[(2S)-2-[[(2S)-2-[[(2S)-2-[hydrocinnamoyl(methyl)amino]-3-methyl-butanoyl]amino]-3,3-dimethyl-butanoyl]amino]-4-keto-4-pyrrolidino-butanoyl]amino]-2-keto-ethyl]cyclopentanecarboxylic acid
> <PUBCHEM_IUPAC_INCHI>
InChI=1S/C44H70N6O9/c1-28(2)34(49(9)32(52)20-19-29-17-11-10-12-18-29)38(55)47-35(43(6,7)8)39(56)46-31(25-33(53)50-23-15-16-24-50)37(54)48-36(44(41(58)59)21-13-14-22-44)40(57)45-30(27-51)26-42(3,4)5/h10-12,17-18,28,30-31,34-36,51H,13-16,19-27H2,1-9H3,(H,45,57)(H,46,56)(H,47,55)(H,48,54)(H,58,59)/t30-,31-,34-,35+,36+/m0/s1
> <PUBCHEM_IUPAC_INCHIKEY>
KEQHTXSUCBEFIM-RNPFFROYSA-N
> <PUBCHEM_XLOGP3_AA>
4.5
> <PUBCHEM_EXACT_MASS>
826.52042783
> <PUBCHEM_MOLECULAR_FORMULA>
C44H70N6O9
> <PUBCHEM_MOLECULAR_WEIGHT>
827.1
> <PUBCHEM_OPENEYE_CAN_SMILES>
CC(C)C(C(=O)NC(C(=O)NC(CC(=O)N1CCCC1)C(=O)NC(C(=O)NC(CC(C)(C)C)CO)C2(CCCC2)C(=O)O)C(C)(C)C)N(C)C(=O)CCC3=CC=CC=C3
> <PUBCHEM_OPENEYE_ISO_SMILES>
CC(C)[C@@H](C(=O)N[C@H](C(=O)N[C@@H](CC(=O)N1CCCC1)C(=O)N[C@H](C(=O)N[C@@H](CC(C)(C)C)CO)C2(CCCC2)C(=O)O)C(C)(C)C)N(C)C(=O)CCC3=CC=CC=C3
> <PUBCHEM_CACTVS_TPSA>
215
> <PUBCHEM_MONOISOTOPIC_WEIGHT>
826.52042783
> <PUBCHEM_TOTAL_CHARGE>
0
> <PUBCHEM_HEAVY_ATOM_COUNT>
59
> <PUBCHEM_ATOM_DEF_STEREO_COUNT>
5
> <PUBCHEM_ATOM_UDEF_STEREO_COUNT>
0
> <PUBCHEM_BOND_DEF_STEREO_COUNT>
0
> <PUBCHEM_BOND_UDEF_STEREO_COUNT>
0
> <PUBCHEM_ISOTOPIC_ATOM_COUNT>
0
> <PUBCHEM_COMPONENT_COUNT>
1
> <PUBCHEM_CACTVS_TAUTO_COUNT>
-1
> <PUBCHEM_COORDINATE_TYPE>
1
5
255
> <PUBCHEM_BONDANNOTATIONS>
21  10  6
24  11  6
27  12  5
34  14  6
45  15  5
54  55  8
54  56  8
55  57  8
56  58  8
57  59  8
58  59  8
$$$$
