513048
  -OEChem-10302200282D
 53 56  0     1  0  0  0  0  0999 V2000
    4.6870    0.0835    0.0000 O   0  0  0  0  0  0  0  0  0  0  0  0
    4.1111    2.6062    0.0000 O   0  0  0  0  0  0  0  0  0  0  0  0
    2.6166   -0.1914    0.0000 O   0  0  0  0  0  0  0  0  0  0  0  0
    9.1448   -1.3145    0.0000 O   0  0  0  0  0  0  0  0  0  0  0  0
    5.6005   -1.5098    0.0000 O   0  0  0  0  0  0  0  0  0  0  0  0
   12.7284   -2.2418    0.0000 O   0  0  0  0  0  0  0  0  0  0  0  0
    6.4666   -0.0097    0.0000 N   0  0  0  0  0  0  0  0  0  0  0  0
    7.3326   -1.5098    0.0000 N   0  0  0  0  0  0  0  0  0  0  0  0
    4.5179    1.6927    0.0000 C   0  0  1  0  0  0  0  0  0  0  0  0
    5.6005    0.4903    0.0000 C   0  0  1  0  0  0  0  0  0  0  0  0
    5.4960    1.4848    0.0000 C   0  0  0  0  0  0  0  0  0  0  0  0
    4.0179    0.8267    0.0000 C   0  0  1  0  0  0  0  0  0  0  0  0
    3.0233    0.7221    0.0000 C   0  0  0  0  0  0  0  0  0  0  0  0
    7.3326    0.4903    0.0000 C   0  0  0  0  0  0  0  0  0  0  0  0
    6.4666   -1.0098    0.0000 C   0  0  0  0  0  0  0  0  0  0  0  0
    8.1986   -0.0097    0.0000 C   0  0  0  0  0  0  0  0  0  0  0  0
    8.1986   -1.0098    0.0000 C   0  0  0  0  0  0  0  0  0  0  0  0
    9.1448    0.2950    0.0000 C   0  0  0  0  0  0  0  0  0  0  0  0
    9.7284   -0.5097    0.0000 C   0  0  0  0  0  0  0  0  0  0  0  0
   10.7284   -0.5097    0.0000 C   0  0  0  0  0  0  0  0  0  0  0  0
   11.2284   -1.3758    0.0000 C   0  0  0  0  0  0  0  0  0  0  0  0
   12.2284   -1.3758    0.0000 C   0  0  0  0  0  0  0  0  0  0  0  0
   13.7284   -2.2418    0.0000 C   0  0  0  0  0  0  0  0  0  0  0  0
   14.2284   -3.1078    0.0000 C   0  0  0  0  0  0  0  0  0  0  0  0
   14.2284   -1.3758    0.0000 C   0  0  0  0  0  0  0  0  0  0  0  0
   15.7284   -2.2418    0.0000 C   0  0  0  0  0  0  0  0  0  0  0  0
   15.2284   -3.1078    0.0000 C   0  0  0  0  0  0  0  0  0  0  0  0
   15.2284   -1.3758    0.0000 C   0  0  0  0  0  0  0  0  0  0  0  0
   16.7284   -2.2418    0.0000 C   0  0  0  0  0  0  0  0  0  0  0  0
    4.9080    2.1745    0.0000 H   0  0  0  0  0  0  0  0  0  0  0  0
    5.5681   -0.1289    0.0000 H   0  0  0  0  0  0  0  0  0  0  0  0
    6.1160    1.4848    0.0000 H   0  0  0  0  0  0  0  0  0  0  0  0
    5.5608    2.1014    0.0000 H   0  0  0  0  0  0  0  0  0  0  0  0
    3.7957    0.2478    0.0000 H   0  0  0  0  0  0  0  0  0  0  0  0
    3.0666    1.3406    0.0000 H   0  0  0  0  0  0  0  0  0  0  0  0
    2.4218    0.8721    0.0000 H   0  0  0  0  0  0  0  0  0  0  0  0
    7.3326    1.1102    0.0000 H   0  0  0  0  0  0  0  0  0  0  0  0
    4.4756    3.1078    0.0000 H   0  0  0  0  0  0  0  0  0  0  0  0
    9.3374    0.8843    0.0000 H   0  0  0  0  0  0  0  0  0  0  0  0
    2.0000   -0.2562    0.0000 H   0  0  0  0  0  0  0  0  0  0  0  0
   11.3111   -0.2977    0.0000 H   0  0  0  0  0  0  0  0  0  0  0  0
   10.6208    0.1008    0.0000 H   0  0  0  0  0  0  0  0  0  0  0  0
   10.6458   -1.5878    0.0000 H   0  0  0  0  0  0  0  0  0  0  0  0
   11.3361   -1.9864    0.0000 H   0  0  0  0  0  0  0  0  0  0  0  0
   12.8111   -1.1637    0.0000 H   0  0  0  0  0  0  0  0  0  0  0  0
   12.1208   -0.7652    0.0000 H   0  0  0  0  0  0  0  0  0  0  0  0
   13.9184   -3.6448    0.0000 H   0  0  0  0  0  0  0  0  0  0  0  0
   13.9184   -0.8388    0.0000 H   0  0  0  0  0  0  0  0  0  0  0  0
   15.5384   -3.6448    0.0000 H   0  0  0  0  0  0  0  0  0  0  0  0
   15.5384   -0.8388    0.0000 H   0  0  0  0  0  0  0  0  0  0  0  0
   16.7284   -2.8618    0.0000 H   0  0  0  0  0  0  0  0  0  0  0  0
   17.3484   -2.2418    0.0000 H   0  0  0  0  0  0  0  0  0  0  0  0
   16.7284   -1.6218    0.0000 H   0  0  0  0  0  0  0  0  0  0  0  0
  1 10  1  0  0  0  0
  1 12  1  0  0  0  0
  9  2  1  1  0  0  0
  2 38  1  0  0  0  0
  3 13  1  0  0  0  0
  3 40  1  0  0  0  0
  4 17  1  0  0  0  0
  4 19  1  0  0  0  0
  5 15  2  0  0  0  0
  6 22  1  0  0  0  0
  6 23  1  0  0  0  0
 10  7  1  6  0  0  0
  7 14  1  0  0  0  0
  7 15  1  0  0  0  0
  8 15  1  0  0  0  0
  8 17  2  0  0  0  0
  9 11  1  0  0  0  0
  9 12  1  0  0  0  0
  9 30  1  0  0  0  0
 10 11  1  0  0  0  0
 10 31  1  0  0  0  0
 11 32  1  0  0  0  0
 11 33  1  0  0  0  0
 12 13  1  6  0  0  0
 12 34  1  0  0  0  0
 13 35  1  0  0  0  0
 13 36  1  0  0  0  0
 14 16  2  0  0  0  0
 14 37  1  0  0  0  0
 16 17  1  0  0  0  0
 16 18  1  0  0  0  0
 18 19  2  0  0  0  0
 18 39  1  0  0  0  0
 19 20  1  0  0  0  0
 20 21  1  0  0  0  0
 20 41  1  0  0  0  0
 20 42  1  0  0  0  0
 21 22  1  0  0  0  0
 21 43  1  0  0  0  0
 21 44  1  0  0  0  0
 22 45  1  0  0  0  0
 22 46  1  0  0  0  0
 23 24  2  0  0  0  0
 23 25  1  0  0  0  0
 24 27  1  0  0  0  0
 24 47  1  0  0  0  0
 25 28  2  0  0  0  0
 25 48  1  0  0  0  0
 26 27  2  0  0  0  0
 26 28  1  0  0  0  0
 26 29  1  0  0  0  0
 27 49  1  0  0  0  0
 28 50  1  0  0  0  0
 29 51  1  0  0  0  0
 29 52  1  0  0  0  0
 29 53  1  0  0  0  0
M  END
> <PUBCHEM_COMPOUND_CID>
513048
> <PUBCHEM_COMPOUND_CANONICALIZED>
1
> <PUBCHEM_CACTVS_COMPLEXITY>
710
> <PUBCHEM_CACTVS_HBOND_ACCEPTOR>
6
> <PUBCHEM_CACTVS_HBOND_DONOR>
2
> <PUBCHEM_CACTVS_ROTATABLE_BOND>
7
> <PUBCHEM_CACTVS_SUBSKEYS>
AAADceB7OAAAAAAAAAAAAAAAAAAAASIAAAAwQAAAAAAAAEABAAAAHgAACAAADBThmAYzBoMABgCoAiBmVAACCAAgIAAIiAAuCJiNNiKEsRqOeCCnxhMLqAfw8AIOIAAAAAAAAABAAAAAAAAAAAAAAAAAAA==
> <PUBCHEM_IUPAC_OPENEYE_NAME>
3-[(2R,4S,5R)-4-hydroxy-5-(hydroxymethyl)tetrahydrofuran-2-yl]-6-[3-(4-methylphenoxy)propyl]furo[2,3-d]pyrimidin-2-one
> <PUBCHEM_IUPAC_CAS_NAME>
3-[(2R,4S,5R)-4-hydroxy-5-(hydroxymethyl)-2-oxolanyl]-6-[3-(4-methylphenoxy)propyl]-2-furo[2,3-d]pyrimidinone
> <PUBCHEM_IUPAC_NAME_MARKUP>
3-[(2<I>R</I>,4<I>S</I>,5<I>R</I>)-4-hydroxy-5-(hydroxymethyl)oxolan-2-yl]-6-[3-(4-methylphenoxy)propyl]furo[2,3-d]pyrimidin-2-one
> <PUBCHEM_IUPAC_NAME>
3-[(2R,4S,5R)-4-hydroxy-5-(hydroxymethyl)oxolan-2-yl]-6-[3-(4-methylphenoxy)propyl]furo[2,3-d]pyrimidin-2-one
> <PUBCHEM_IUPAC_SYSTEMATIC_NAME>
3-[(2R,4S,5R)-5-(hydroxymethyl)-4-oxidanyl-oxolan-2-yl]-6-[3-(4-methylphenoxy)propyl]furo[2,3-d]pyrimidin-2-one
> <PUBCHEM_IUPAC_TRADITIONAL_NAME>
3-[(2R,4S,5R)-4-hydroxy-5-methylol-tetrahydrofuran-2-yl]-6-[3-(4-methylphenoxy)propyl]furo[2,3-d]pyrimidin-2-one
> <PUBCHEM_IUPAC_INCHI>
InChI=1S/C21H24N2O6/c1-13-4-6-15(7-5-13)27-8-2-3-16-9-14-11-23(21(26)22-20(14)28-16)19-10-17(25)18(12-24)29-19/h4-7,9,11,17-19,24-25H,2-3,8,10,12H2,1H3/t17-,18+,19+/m0/s1
> <PUBCHEM_IUPAC_INCHIKEY>
BMFCAYQOLHJYBK-IPMKNSEASA-N
> <PUBCHEM_XLOGP3_AA>
2.1
> <PUBCHEM_EXACT_MASS>
400.16343649
> <PUBCHEM_MOLECULAR_FORMULA>
C21H24N2O6
> <PUBCHEM_MOLECULAR_WEIGHT>
400.4
> <PUBCHEM_OPENEYE_CAN_SMILES>
CC1=CC=C(C=C1)OCCCC2=CC3=CN(C(=O)N=C3O2)C4CC(C(O4)CO)O
> <PUBCHEM_OPENEYE_ISO_SMILES>
CC1=CC=C(C=C1)OCCCC2=CC3=CN(C(=O)N=C3O2)[C@H]4C[C@@H]([C@H](O4)CO)O
> <PUBCHEM_CACTVS_TPSA>
101
> <PUBCHEM_MONOISOTOPIC_WEIGHT>
400.16343649
> <PUBCHEM_TOTAL_CHARGE>
0
> <PUBCHEM_HEAVY_ATOM_COUNT>
29
> <PUBCHEM_ATOM_DEF_STEREO_COUNT>
3
> <PUBCHEM_ATOM_UDEF_STEREO_COUNT>
0
> <PUBCHEM_BOND_DEF_STEREO_COUNT>
0
> <PUBCHEM_BOND_UDEF_STEREO_COUNT>
0
> <PUBCHEM_ISOTOPIC_ATOM_COUNT>
0
> <PUBCHEM_COMPONENT_COUNT>
1
> <PUBCHEM_CACTVS_TAUTO_COUNT>
-1
> <PUBCHEM_COORDINATE_TYPE>
1
5
255
> <PUBCHEM_BONDANNOTATIONS>
12  13  6
14  16  8
16  17  8
16  18  8
18  19  8
9  2  5
23  24  8
23  25  8
24  27  8
25  28  8
26  27  8
26  28  8
4  17  8
4  19  8
10  7  6
7  14  8
7  15  8
8  15  8
8  17  8
$$$$
