513028
  -OEChem-10302200282D
 49 52  0     1  0  0  0  0  0999 V2000
    2.0000   -0.6962    0.0000 Cl  0  0  0  0  0  0  0  0  0  0  0  0
    2.0000   -2.6962    0.0000 Cl  0  0  0  0  0  0  0  0  0  0  0  0
    7.1279   -1.6962    0.0000 S   0  0  0  0  0  0  0  0  0  0  0  0
   11.1279    0.0358    0.0000 F   0  0  0  0  0  0  0  0  0  0  0  0
   11.4939   -1.3302    0.0000 F   0  0  0  0  0  0  0  0  0  0  0  0
    9.7619   -0.3302    0.0000 F   0  0  0  0  0  0  0  0  0  0  0  0
    5.2686    0.8691    0.0000 O   0  0  0  0  0  0  0  0  0  0  0  0
    7.6146   -0.2228    0.0000 O   0  0  0  0  0  0  0  0  0  0  0  0
    7.6183    1.9528    0.0000 O   0  0  0  0  0  0  0  0  0  0  0  0
    4.5726    2.8383    0.0000 O   0  0  0  0  0  0  0  0  0  0  0  0
    5.5443   -0.8915    0.0000 N   0  0  0  0  0  0  0  0  0  0  0  0
    5.5443   -2.5009    0.0000 N   0  0  0  0  0  0  0  0  0  0  0  0
    5.8550    0.0590    0.0000 C   0  0  1  0  0  0  0  0  0  0  0  0
    6.8066    0.3664    0.0000 C   0  0  1  0  0  0  0  0  0  0  0  0
    6.8083    1.3664    0.0000 C   0  0  1  0  0  0  0  0  0  0  0  0
    5.8578    1.6771    0.0000 C   0  0  1  0  0  0  0  0  0  0  0  0
    5.5504    2.6287    0.0000 C   0  0  0  0  0  0  0  0  0  0  0  0
    4.5981   -1.1962    0.0000 C   0  0  0  0  0  0  0  0  0  0  0  0
    6.1279   -1.6962    0.0000 C   0  0  0  0  0  0  0  0  0  0  0  0
    4.5981   -2.1962    0.0000 C   0  0  0  0  0  0  0  0  0  0  0  0
    3.7320   -0.6962    0.0000 C   0  0  0  0  0  0  0  0  0  0  0  0
    3.7320   -2.6962    0.0000 C   0  0  0  0  0  0  0  0  0  0  0  0
    2.8660   -1.1962    0.0000 C   0  0  0  0  0  0  0  0  0  0  0  0
    2.8660   -2.1962    0.0000 C   0  0  0  0  0  0  0  0  0  0  0  0
    7.6279   -2.5622    0.0000 C   0  0  0  0  0  0  0  0  0  0  0  0
    8.6279   -2.5622    0.0000 C   0  0  0  0  0  0  0  0  0  0  0  0
    9.1279   -1.6962    0.0000 C   0  0  0  0  0  0  0  0  0  0  0  0
    9.1279   -3.4283    0.0000 C   0  0  0  0  0  0  0  0  0  0  0  0
   10.1279   -1.6962    0.0000 C   0  0  0  0  0  0  0  0  0  0  0  0
   10.1279   -3.4283    0.0000 C   0  0  0  0  0  0  0  0  0  0  0  0
   10.6279   -2.5622    0.0000 C   0  0  0  0  0  0  0  0  0  0  0  0
   10.6279   -0.8302    0.0000 C   0  0  0  0  0  0  0  0  0  0  0  0
    6.2926   -0.3801    0.0000 H   0  0  0  0  0  0  0  0  0  0  0  0
    7.3595    0.6469    0.0000 H   0  0  0  0  0  0  0  0  0  0  0  0
    7.3602    1.0840    0.0000 H   0  0  0  0  0  0  0  0  0  0  0  0
    5.2456    1.7751    0.0000 H   0  0  0  0  0  0  0  0  0  0  0  0
    6.1645    2.7139    0.0000 H   0  0  0  0  0  0  0  0  0  0  0  0
    5.5731    3.2482    0.0000 H   0  0  0  0  0  0  0  0  0  0  0  0
    8.1814    0.0284    0.0000 H   0  0  0  0  0  0  0  0  0  0  0  0
    7.5546    2.5695    0.0000 H   0  0  0  0  0  0  0  0  0  0  0  0
    3.7320   -0.0762    0.0000 H   0  0  0  0  0  0  0  0  0  0  0  0
    4.3820    3.4283    0.0000 H   0  0  0  0  0  0  0  0  0  0  0  0
    3.7320   -3.3162    0.0000 H   0  0  0  0  0  0  0  0  0  0  0  0
    7.0453   -2.7743    0.0000 H   0  0  0  0  0  0  0  0  0  0  0  0
    7.7356   -3.1728    0.0000 H   0  0  0  0  0  0  0  0  0  0  0  0
    8.8179   -1.1593    0.0000 H   0  0  0  0  0  0  0  0  0  0  0  0
    8.8179   -3.9652    0.0000 H   0  0  0  0  0  0  0  0  0  0  0  0
   10.4379   -3.9652    0.0000 H   0  0  0  0  0  0  0  0  0  0  0  0
   11.2479   -2.5622    0.0000 H   0  0  0  0  0  0  0  0  0  0  0  0
  1 23  1  0  0  0  0
  2 24  1  0  0  0  0
  3 19  1  0  0  0  0
  3 25  1  0  0  0  0
  4 32  1  0  0  0  0
  5 32  1  0  0  0  0
  6 32  1  0  0  0  0
  7 13  1  0  0  0  0
  7 16  1  0  0  0  0
 14  8  1  1  0  0  0
  8 39  1  0  0  0  0
 15  9  1  1  0  0  0
  9 40  1  0  0  0  0
 10 17  1  0  0  0  0
 10 42  1  0  0  0  0
 13 11  1  6  0  0  0
 11 18  1  0  0  0  0
 11 19  1  0  0  0  0
 12 19  2  0  0  0  0
 12 20  1  0  0  0  0
 13 14  1  0  0  0  0
 13 33  1  0  0  0  0
 14 15  1  0  0  0  0
 14 34  1  0  0  0  0
 15 16  1  0  0  0  0
 15 35  1  0  0  0  0
 16 17  1  6  0  0  0
 16 36  1  0  0  0  0
 17 37  1  0  0  0  0
 17 38  1  0  0  0  0
 18 20  1  0  0  0  0
 18 21  2  0  0  0  0
 20 22  2  0  0  0  0
 21 23  1  0  0  0  0
 21 41  1  0  0  0  0
 22 24  1  0  0  0  0
 22 43  1  0  0  0  0
 23 24  2  0  0  0  0
 25 26  1  0  0  0  0
 25 44  1  0  0  0  0
 25 45  1  0  0  0  0
 26 27  2  0  0  0  0
 26 28  1  0  0  0  0
 27 29  1  0  0  0  0
 27 46  1  0  0  0  0
 28 30  2  0  0  0  0
 28 47  1  0  0  0  0
 29 31  2  0  0  0  0
 29 32  1  0  0  0  0
 30 31  1  0  0  0  0
 30 48  1  0  0  0  0
 31 49  1  0  0  0  0
M  END
> <PUBCHEM_COMPOUND_CID>
513028
> <PUBCHEM_COMPOUND_CANONICALIZED>
1
> <PUBCHEM_CACTVS_COMPLEXITY>
655
> <PUBCHEM_CACTVS_HBOND_ACCEPTOR>
9
> <PUBCHEM_CACTVS_HBOND_DONOR>
3
> <PUBCHEM_CACTVS_ROTATABLE_BOND>
5
> <PUBCHEM_CACTVS_SUBSKEYS>
AAADceB7OYBGAAAAAAAAAAAAAAAAAWJAAAAwYAAAAAAAAFgB9AAAHwYACAAADB7l3jax0LcMFgigAyRiZACC0C1hF7AJ2mA4dpiLeKLhm5GeYAhvgALbyCfwsEIOAABCAAIAACQAAIQABAAASAAAAAAAAA==
> <PUBCHEM_IUPAC_OPENEYE_NAME>
(2R,3R,4S,5R)-2-[5,6-dichloro-2-[[3-(trifluoromethyl)phenyl]methylsulfanyl]benzimidazol-1-yl]-5-(hydroxymethyl)tetrahydrofuran-3,4-diol
> <PUBCHEM_IUPAC_CAS_NAME>
(2R,3R,4S,5R)-2-[5,6-dichloro-2-[[3-(trifluoromethyl)phenyl]methylthio]-1-benzimidazolyl]-5-(hydroxymethyl)oxolane-3,4-diol
> <PUBCHEM_IUPAC_NAME_MARKUP>
(2<I>R</I>,3<I>R</I>,4<I>S</I>,5<I>R</I>)-2-[5,6-dichloro-2-[[3-(trifluoromethyl)phenyl]methylsulfanyl]benzimidazol-1-yl]-5-(hydroxymethyl)oxolane-3,4-diol
> <PUBCHEM_IUPAC_NAME>
(2R,3R,4S,5R)-2-[5,6-dichloro-2-[[3-(trifluoromethyl)phenyl]methylsulfanyl]benzimidazol-1-yl]-5-(hydroxymethyl)oxolane-3,4-diol
> <PUBCHEM_IUPAC_SYSTEMATIC_NAME>
(2R,3R,4S,5R)-2-[5,6-bis(chloranyl)-2-[[3-(trifluoromethyl)phenyl]methylsulfanyl]benzimidazol-1-yl]-5-(hydroxymethyl)oxolane-3,4-diol
> <PUBCHEM_IUPAC_TRADITIONAL_NAME>
(2R,3R,4S,5R)-2-[5,6-dichloro-2-[[3-(trifluoromethyl)benzyl]thio]benzimidazol-1-yl]-5-methylol-tetrahydrofuran-3,4-diol
> <PUBCHEM_IUPAC_INCHI>
InChI=1S/C20H17Cl2F3N2O4S/c21-11-5-13-14(6-12(11)22)27(18-17(30)16(29)15(7-28)31-18)19(26-13)32-8-9-2-1-3-10(4-9)20(23,24)25/h1-6,15-18,28-30H,7-8H2/t15-,16-,17-,18-/m1/s1
> <PUBCHEM_IUPAC_INCHIKEY>
AQNKYTQMBPBVEP-BRSBDYLESA-N
> <PUBCHEM_XLOGP3_AA>
4.3
> <PUBCHEM_EXACT_MASS>
508.0238181
> <PUBCHEM_MOLECULAR_FORMULA>
C20H17Cl2F3N2O4S
> <PUBCHEM_MOLECULAR_WEIGHT>
509.3
> <PUBCHEM_OPENEYE_CAN_SMILES>
C1=CC(=CC(=C1)C(F)(F)F)CSC2=NC3=CC(=C(C=C3N2C4C(C(C(O4)CO)O)O)Cl)Cl
> <PUBCHEM_OPENEYE_ISO_SMILES>
C1=CC(=CC(=C1)C(F)(F)F)CSC2=NC3=CC(=C(C=C3N2[C@H]4[C@@H]([C@@H]([C@H](O4)CO)O)O)Cl)Cl
> <PUBCHEM_CACTVS_TPSA>
113
> <PUBCHEM_MONOISOTOPIC_WEIGHT>
508.0238181
> <PUBCHEM_TOTAL_CHARGE>
0
> <PUBCHEM_HEAVY_ATOM_COUNT>
32
> <PUBCHEM_ATOM_DEF_STEREO_COUNT>
4
> <PUBCHEM_ATOM_UDEF_STEREO_COUNT>
0
> <PUBCHEM_BOND_DEF_STEREO_COUNT>
0
> <PUBCHEM_BOND_UDEF_STEREO_COUNT>
0
> <PUBCHEM_ISOTOPIC_ATOM_COUNT>
0
> <PUBCHEM_COMPONENT_COUNT>
1
> <PUBCHEM_CACTVS_TAUTO_COUNT>
-1
> <PUBCHEM_COORDINATE_TYPE>
1
5
255
> <PUBCHEM_BONDANNOTATIONS>
13  11  6
11  18  8
11  19  8
12  19  8
12  20  8
16  17  6
18  20  8
18  21  8
20  22  8
21  23  8
22  24  8
23  24  8
26  27  8
26  28  8
27  29  8
28  30  8
29  31  8
30  31  8
14  8  5
15  9  5
$$$$
