513002
  -OEChem-10302200282D
116118  0     1  0  0  0  0  0999 V2000
    9.7942   -2.4050    0.0000 O   0  0  0  0  0  0  0  0  0  0  0  0
    6.3301   -3.4050    0.0000 O   0  0  0  0  0  0  0  0  0  0  0  0
    8.9282    1.0950    0.0000 O   0  0  0  0  0  0  0  0  0  0  0  0
   10.6603    4.0950    0.0000 O   0  0  0  0  0  0  0  0  0  0  0  0
   11.5263    3.5950    0.0000 O   0  0  0  0  0  0  0  0  0  0  0  0
   14.9904    2.5950    0.0000 O   0  0  0  0  0  0  0  0  0  0  0  0
   14.1244    5.0950    0.0000 O   0  0  0  0  0  0  0  0  0  0  0  0
   15.8564   -0.9050    0.0000 O   0  0  0  0  0  0  0  0  0  0  0  0
   14.9904    3.5950    0.0000 O   0  0  0  0  0  0  0  0  0  0  0  0
   14.1244   -0.9050    0.0000 O   0  0  0  0  0  0  0  0  0  0  0  0
    7.1962   -1.9050    0.0000 N   0  0  0  0  0  0  0  0  0  0  0  0
    8.9282   -0.9050    0.0000 N   0  0  0  0  0  0  0  0  0  0  0  0
    8.9282    4.0950    0.0000 N   0  0  0  0  0  0  0  0  0  0  0  0
   10.6603    1.0950    0.0000 N   0  0  0  0  0  0  0  0  0  0  0  0
   12.3923    2.0950    0.0000 N   0  0  0  0  0  0  0  0  0  0  0  0
   14.1244    1.0950    0.0000 N   0  0  0  0  0  0  0  0  0  0  0  0
    8.0622   -3.4050    0.0000 C   0  0  0  0  0  0  0  0  0  0  0  0
    7.1962   -3.9050    0.0000 C   0  0  0  0  0  0  0  0  0  0  0  0
    8.9282   -3.9050    0.0000 C   0  0  0  0  0  0  0  0  0  0  0  0
    8.0622   -2.4050    0.0000 C   0  0  1  0  0  0  0  0  0  0  0  0
    7.1962   -4.9050    0.0000 C   0  0  0  0  0  0  0  0  0  0  0  0
    8.9282   -4.9050    0.0000 C   0  0  0  0  0  0  0  0  0  0  0  0
    8.0622   -5.4050    0.0000 C   0  0  0  0  0  0  0  0  0  0  0  0
    8.9282   -1.9050    0.0000 C   0  0  0  0  0  0  0  0  0  0  0  0
    9.7942   -0.4050    0.0000 C   0  0  1  0  0  0  0  0  0  0  0  0
    6.3301   -2.4050    0.0000 C   0  0  0  0  0  0  0  0  0  0  0  0
   10.6603   -0.9050    0.0000 C   0  0  0  0  0  0  0  0  0  0  0  0
    9.7942    0.5950    0.0000 C   0  0  0  0  0  0  0  0  0  0  0  0
    5.4641   -1.9050    0.0000 C   0  0  0  0  0  0  0  0  0  0  0  0
   10.6603    2.0950    0.0000 C   0  0  1  0  0  0  0  0  0  0  0  0
   11.5263   -0.4050    0.0000 C   0  0  0  0  0  0  0  0  0  0  0  0
   10.6603   -1.9050    0.0000 C   0  0  0  0  0  0  0  0  0  0  0  0
    8.8237    5.0895    0.0000 C   0  0  0  0  0  0  0  0  0  0  0  0
    8.0147    3.6883    0.0000 C   0  0  0  0  0  0  0  0  0  0  0  0
    7.8455    5.2974    0.0000 C   0  0  0  0  0  0  0  0  0  0  0  0
    7.3455    4.4314    0.0000 C   0  0  0  0  0  0  0  0  0  0  0  0
    9.7942    2.5950    0.0000 C   0  0  0  0  0  0  0  0  0  0  0  0
    4.5981   -2.4050    0.0000 C   0  0  0  0  0  0  0  0  0  0  0  0
    9.7942    3.5950    0.0000 C   0  0  0  0  0  0  0  0  0  0  0  0
   11.5263    2.5950    0.0000 C   0  0  0  0  0  0  0  0  0  0  0  0
    3.7320   -1.9050    0.0000 C   0  0  0  0  0  0  0  0  0  0  0  0
   13.2583    2.5950    0.0000 C   0  0  1  0  0  0  0  0  0  0  0  0
    3.7320   -0.9050    0.0000 C   0  0  0  0  0  0  0  0  0  0  0  0
    2.8660   -2.4050    0.0000 C   0  0  0  0  0  0  0  0  0  0  0  0
   13.2583    3.5950    0.0000 C   0  0  0  0  0  0  0  0  0  0  0  0
   14.1244    2.0950    0.0000 C   0  0  0  0  0  0  0  0  0  0  0  0
   14.9904    0.5950    0.0000 C   0  0  1  0  0  0  0  0  0  0  0  0
   15.8564    1.0950    0.0000 C   0  0  0  0  0  0  0  0  0  0  0  0
   16.7224    0.5950    0.0000 C   0  0  0  0  0  0  0  0  0  0  0  0
    2.8660   -0.4050    0.0000 C   0  0  0  0  0  0  0  0  0  0  0  0
    2.0000   -1.9050    0.0000 C   0  0  0  0  0  0  0  0  0  0  0  0
   17.5885    1.0950    0.0000 C   0  0  0  0  0  0  0  0  0  0  0  0
   16.7224   -0.4050    0.0000 C   0  0  0  0  0  0  0  0  0  0  0  0
    2.0000   -0.9050    0.0000 C   0  0  0  0  0  0  0  0  0  0  0  0
   14.1244    4.0950    0.0000 C   0  0  0  0  0  0  0  0  0  0  0  0
   14.9904   -0.4050    0.0000 C   0  0  0  0  0  0  0  0  0  0  0  0
    7.5252   -3.0950    0.0000 H   0  0  0  0  0  0  0  0  0  0  0  0
    6.9841   -3.3224    0.0000 H   0  0  0  0  0  0  0  0  0  0  0  0
    6.5856   -4.0127    0.0000 H   0  0  0  0  0  0  0  0  0  0  0  0
    9.5388   -4.0127    0.0000 H   0  0  0  0  0  0  0  0  0  0  0  0
    9.1403   -3.3224    0.0000 H   0  0  0  0  0  0  0  0  0  0  0  0
    8.0622   -1.7850    0.0000 H   0  0  0  0  0  0  0  0  0  0  0  0
    6.5856   -4.7973    0.0000 H   0  0  0  0  0  0  0  0  0  0  0  0
    6.9841   -5.4876    0.0000 H   0  0  0  0  0  0  0  0  0  0  0  0
    9.1403   -5.4876    0.0000 H   0  0  0  0  0  0  0  0  0  0  0  0
    9.5388   -4.7973    0.0000 H   0  0  0  0  0  0  0  0  0  0  0  0
    7.6636   -5.8800    0.0000 H   0  0  0  0  0  0  0  0  0  0  0  0
    8.4607   -5.8800    0.0000 H   0  0  0  0  0  0  0  0  0  0  0  0
    7.1962   -1.2850    0.0000 H   0  0  0  0  0  0  0  0  0  0  0  0
    8.3913   -0.5950    0.0000 H   0  0  0  0  0  0  0  0  0  0  0  0
    9.2573   -0.0950    0.0000 H   0  0  0  0  0  0  0  0  0  0  0  0
   11.1972   -1.2150    0.0000 H   0  0  0  0  0  0  0  0  0  0  0  0
    5.8626   -1.4300    0.0000 H   0  0  0  0  0  0  0  0  0  0  0  0
    5.0656   -1.4300    0.0000 H   0  0  0  0  0  0  0  0  0  0  0  0
   11.1972    1.7850    0.0000 H   0  0  0  0  0  0  0  0  0  0  0  0
   11.8363   -0.9419    0.0000 H   0  0  0  0  0  0  0  0  0  0  0  0
   12.0632   -0.0950    0.0000 H   0  0  0  0  0  0  0  0  0  0  0  0
   11.2163    0.1319    0.0000 H   0  0  0  0  0  0  0  0  0  0  0  0
   10.0403   -1.9050    0.0000 H   0  0  0  0  0  0  0  0  0  0  0  0
   10.6603   -2.5250    0.0000 H   0  0  0  0  0  0  0  0  0  0  0  0
   11.2803   -1.9050    0.0000 H   0  0  0  0  0  0  0  0  0  0  0  0
    9.4437    5.0895    0.0000 H   0  0  0  0  0  0  0  0  0  0  0  0
    8.8885    5.7061    0.0000 H   0  0  0  0  0  0  0  0  0  0  0  0
    7.5131    3.3238    0.0000 H   0  0  0  0  0  0  0  0  0  0  0  0
    8.3247    3.1513    0.0000 H   0  0  0  0  0  0  0  0  0  0  0  0
    8.0371    5.8871    0.0000 H   0  0  0  0  0  0  0  0  0  0  0  0
    7.2791    5.5496    0.0000 H   0  0  0  0  0  0  0  0  0  0  0  0
    6.8439    4.7958    0.0000 H   0  0  0  0  0  0  0  0  0  0  0  0
    6.9307    3.9707    0.0000 H   0  0  0  0  0  0  0  0  0  0  0  0
   11.1972    0.7850    0.0000 H   0  0  0  0  0  0  0  0  0  0  0  0
    9.1836    2.7027    0.0000 H   0  0  0  0  0  0  0  0  0  0  0  0
    9.5822    2.0124    0.0000 H   0  0  0  0  0  0  0  0  0  0  0  0
    4.1996   -2.8800    0.0000 H   0  0  0  0  0  0  0  0  0  0  0  0
    4.9966   -2.8800    0.0000 H   0  0  0  0  0  0  0  0  0  0  0  0
   12.3923    1.4750    0.0000 H   0  0  0  0  0  0  0  0  0  0  0  0
   13.2583    1.9750    0.0000 H   0  0  0  0  0  0  0  0  0  0  0  0
    4.2690   -0.5950    0.0000 H   0  0  0  0  0  0  0  0  0  0  0  0
    2.8660   -3.0250    0.0000 H   0  0  0  0  0  0  0  0  0  0  0  0
   13.0463    4.1776    0.0000 H   0  0  0  0  0  0  0  0  0  0  0  0
   12.6477    3.4873    0.0000 H   0  0  0  0  0  0  0  0  0  0  0  0
   14.9904    1.2150    0.0000 H   0  0  0  0  0  0  0  0  0  0  0  0
   16.2549    1.5700    0.0000 H   0  0  0  0  0  0  0  0  0  0  0  0
   15.4579    1.5700    0.0000 H   0  0  0  0  0  0  0  0  0  0  0  0
   16.1855    0.2850    0.0000 H   0  0  0  0  0  0  0  0  0  0  0  0
   13.5874    0.7850    0.0000 H   0  0  0  0  0  0  0  0  0  0  0  0
    2.8660    0.2150    0.0000 H   0  0  0  0  0  0  0  0  0  0  0  0
    1.4631   -2.2150    0.0000 H   0  0  0  0  0  0  0  0  0  0  0  0
   17.8985    0.5581    0.0000 H   0  0  0  0  0  0  0  0  0  0  0  0
   18.1254    1.4050    0.0000 H   0  0  0  0  0  0  0  0  0  0  0  0
   17.2785    1.6319    0.0000 H   0  0  0  0  0  0  0  0  0  0  0  0
   16.1024   -0.4050    0.0000 H   0  0  0  0  0  0  0  0  0  0  0  0
   16.7224   -1.0250    0.0000 H   0  0  0  0  0  0  0  0  0  0  0  0
   17.3424   -0.4050    0.0000 H   0  0  0  0  0  0  0  0  0  0  0  0
    1.4631   -0.5950    0.0000 H   0  0  0  0  0  0  0  0  0  0  0  0
   14.6613    5.4050    0.0000 H   0  0  0  0  0  0  0  0  0  0  0  0
   15.8564   -1.5250    0.0000 H   0  0  0  0  0  0  0  0  0  0  0  0
  1 24  2  0  0  0  0
  2 26  2  0  0  0  0
  3 28  2  0  0  0  0
  4 39  2  0  0  0  0
  5 40  2  0  0  0  0
  6 46  2  0  0  0  0
  7 55  1  0  0  0  0
  7115  1  0  0  0  0
  8 56  1  0  0  0  0
  8116  1  0  0  0  0
  9 55  2  0  0  0  0
 10 56  2  0  0  0  0
 20 11  1  6  0  0  0
 11 26  1  0  0  0  0
 11 69  1  0  0  0  0
 12 24  1  0  0  0  0
 25 12  1  6  0  0  0
 12 70  1  0  0  0  0
 13 33  1  0  0  0  0
 13 34  1  0  0  0  0
 13 39  1  0  0  0  0
 14 28  1  0  0  0  0
 30 14  1  1  0  0  0
 14 90  1  0  0  0  0
 15 40  1  0  0  0  0
 42 15  1  1  0  0  0
 15 95  1  0  0  0  0
 16 46  1  0  0  0  0
 47 16  1  1  0  0  0
 16105  1  0  0  0  0
 17 18  1  0  0  0  0
 17 19  1  0  0  0  0
 17 20  1  0  0  0  0
 17 57  1  0  0  0  0
 18 21  1  0  0  0  0
 18 58  1  0  0  0  0
 18 59  1  0  0  0  0
 19 22  1  0  0  0  0
 19 60  1  0  0  0  0
 19 61  1  0  0  0  0
 20 24  1  0  0  0  0
 20 62  1  0  0  0  0
 21 23  1  0  0  0  0
 21 63  1  0  0  0  0
 21 64  1  0  0  0  0
 22 23  1  0  0  0  0
 22 65  1  0  0  0  0
 22 66  1  0  0  0  0
 23 67  1  0  0  0  0
 23 68  1  0  0  0  0
 25 27  1  0  0  0  0
 25 28  1  0  0  0  0
 25 71  1  0  0  0  0
 26 29  1  0  0  0  0
 27 31  1  0  0  0  0
 27 32  1  0  0  0  0
 27 72  1  0  0  0  0
 29 38  1  0  0  0  0
 29 73  1  0  0  0  0
 29 74  1  0  0  0  0
 30 37  1  0  0  0  0
 30 40  1  0  0  0  0
 30 75  1  0  0  0  0
 31 76  1  0  0  0  0
 31 77  1  0  0  0  0
 31 78  1  0  0  0  0
 32 79  1  0  0  0  0
 32 80  1  0  0  0  0
 32 81  1  0  0  0  0
 33 35  1  0  0  0  0
 33 82  1  0  0  0  0
 33 83  1  0  0  0  0
 34 36  1  0  0  0  0
 34 84  1  0  0  0  0
 34 85  1  0  0  0  0
 35 36  1  0  0  0  0
 35 86  1  0  0  0  0
 35 87  1  0  0  0  0
 36 88  1  0  0  0  0
 36 89  1  0  0  0  0
 37 39  1  0  0  0  0
 37 91  1  0  0  0  0
 37 92  1  0  0  0  0
 38 41  1  0  0  0  0
 38 93  1  0  0  0  0
 38 94  1  0  0  0  0
 41 43  2  0  0  0  0
 41 44  1  0  0  0  0
 42 45  1  0  0  0  0
 42 46  1  0  0  0  0
 42 96  1  0  0  0  0
 43 50  1  0  0  0  0
 43 97  1  0  0  0  0
 44 51  2  0  0  0  0
 44 98  1  0  0  0  0
 45 55  1  0  0  0  0
 45 99  1  0  0  0  0
 45100  1  0  0  0  0
 47 48  1  0  0  0  0
 47 56  1  0  0  0  0
 47101  1  0  0  0  0
 48 49  1  0  0  0  0
 48102  1  0  0  0  0
 48103  1  0  0  0  0
 49 52  1  0  0  0  0
 49 53  1  0  0  0  0
 49104  1  0  0  0  0
 50 54  2  0  0  0  0
 50106  1  0  0  0  0
 51 54  1  0  0  0  0
 51107  1  0  0  0  0
 52108  1  0  0  0  0
 52109  1  0  0  0  0
 52110  1  0  0  0  0
 53111  1  0  0  0  0
 53112  1  0  0  0  0
 53113  1  0  0  0  0
 54114  1  0  0  0  0
M  END
> <PUBCHEM_COMPOUND_CID>
513002
> <PUBCHEM_COMPOUND_CANONICALIZED>
1
> <PUBCHEM_CACTVS_COMPLEXITY>
1370
> <PUBCHEM_CACTVS_HBOND_ACCEPTOR>
10
> <PUBCHEM_CACTVS_HBOND_DONOR>
7
> <PUBCHEM_CACTVS_ROTATABLE_BOND>
21
> <PUBCHEM_CACTVS_SUBSKEYS>
AAADcfB/vAAAAAAAAAAAAAAAAAAAAWAAAAAwYAAAAAAAAAABAAAAHgAQCAAADSjBmAQyCIPAAgCIAiHSGAACAAAgAAAIiIGIAIgKYDqA0TCUYAAmlgCYiAe/iICOAAAAAAAAAAAAAAAAAAAAAAAAAAAAAA==
> <PUBCHEM_IUPAC_OPENEYE_NAME>
(2S)-2-[[(2S)-3-carboxy-2-[[(2S)-2-[[(2S)-2-[[(2S)-2-cyclohexyl-2-(3-phenylpropanoylamino)acetyl]amino]-3-methyl-butanoyl]amino]-4-oxo-4-pyrrolidin-1-yl-butanoyl]amino]propanoyl]amino]-4-methyl-pentanoic acid
> <PUBCHEM_IUPAC_CAS_NAME>
(2S)-2-[[(2S)-3-carboxy-2-[[(2S)-2-[[(2S)-2-[[(2S)-2-cyclohexyl-1-oxo-2-[(1-oxo-3-phenylpropyl)amino]ethyl]amino]-3-methyl-1-oxobutyl]amino]-1,4-dioxo-4-(1-pyrrolidinyl)butyl]amino]-1-oxopropyl]amino]-4-methylpentanoic acid
> <PUBCHEM_IUPAC_NAME_MARKUP>
(2<I>S</I>)-2-[[(2<I>S</I>)-3-carboxy-2-[[(2<I>S</I>)-2-[[(2<I>S</I>)-2-[[(2<I>S</I>)-2-cyclohexyl-2-(3-phenylpropanoylamino)acetyl]amino]-3-methylbutanoyl]amino]-4-oxo-4-pyrrolidin-1-ylbutanoyl]amino]propanoyl]amino]-4-methylpentanoic acid
> <PUBCHEM_IUPAC_NAME>
(2S)-2-[[(2S)-3-carboxy-2-[[(2S)-2-[[(2S)-2-[[(2S)-2-cyclohexyl-2-(3-phenylpropanoylamino)acetyl]amino]-3-methylbutanoyl]amino]-4-oxo-4-pyrrolidin-1-ylbutanoyl]amino]propanoyl]amino]-4-methylpentanoic acid
> <PUBCHEM_IUPAC_SYSTEMATIC_NAME>
(2S)-2-[[(2S)-2-[[(2S)-2-[[(2S)-2-[[(2S)-2-cyclohexyl-2-(3-phenylpropanoylamino)ethanoyl]amino]-3-methyl-butanoyl]amino]-4-oxidanylidene-4-pyrrolidin-1-yl-butanoyl]amino]-4-oxidanyl-4-oxidanylidene-butanoyl]amino]-4-methyl-pentanoic acid
> <PUBCHEM_IUPAC_TRADITIONAL_NAME>
(2S)-2-[[(2S)-3-carboxy-2-[[(2S)-2-[[(2S)-2-[[(2S)-2-cyclohexyl-2-(hydrocinnamoylamino)acetyl]amino]-3-methyl-butanoyl]amino]-4-keto-4-pyrrolidino-butanoyl]amino]propanoyl]amino]-4-methyl-valeric acid
> <PUBCHEM_IUPAC_INCHI>
InChI=1S/C40H60N6O10/c1-24(2)21-30(40(55)56)43-37(52)29(23-33(49)50)41-36(51)28(22-32(48)46-19-11-12-20-46)42-38(53)34(25(3)4)45-39(54)35(27-15-9-6-10-16-27)44-31(47)18-17-26-13-7-5-8-14-26/h5,7-8,13-14,24-25,27-30,34-35H,6,9-12,15-23H2,1-4H3,(H,41,51)(H,42,53)(H,43,52)(H,44,47)(H,45,54)(H,49,50)(H,55,56)/t28-,29-,30-,34-,35-/m0/s1
> <PUBCHEM_IUPAC_INCHIKEY>
IZVTUJXRZDURJX-AKLSFAGMSA-N
> <PUBCHEM_XLOGP3_AA>
3.4
> <PUBCHEM_EXACT_MASS>
784.43709213
> <PUBCHEM_MOLECULAR_FORMULA>
C40H60N6O10
> <PUBCHEM_MOLECULAR_WEIGHT>
784.9
> <PUBCHEM_OPENEYE_CAN_SMILES>
CC(C)CC(C(=O)O)NC(=O)C(CC(=O)O)NC(=O)C(CC(=O)N1CCCC1)NC(=O)C(C(C)C)NC(=O)C(C2CCCCC2)NC(=O)CCC3=CC=CC=C3
> <PUBCHEM_OPENEYE_ISO_SMILES>
CC(C)C[C@@H](C(=O)O)NC(=O)[C@H](CC(=O)O)NC(=O)[C@H](CC(=O)N1CCCC1)NC(=O)[C@H](C(C)C)NC(=O)[C@H](C2CCCCC2)NC(=O)CCC3=CC=CC=C3
> <PUBCHEM_CACTVS_TPSA>
240
> <PUBCHEM_MONOISOTOPIC_WEIGHT>
784.43709213
> <PUBCHEM_TOTAL_CHARGE>
0
> <PUBCHEM_HEAVY_ATOM_COUNT>
56
> <PUBCHEM_ATOM_DEF_STEREO_COUNT>
5
> <PUBCHEM_ATOM_UDEF_STEREO_COUNT>
0
> <PUBCHEM_BOND_DEF_STEREO_COUNT>
0
> <PUBCHEM_BOND_UDEF_STEREO_COUNT>
0
> <PUBCHEM_ISOTOPIC_ATOM_COUNT>
0
> <PUBCHEM_COMPONENT_COUNT>
1
> <PUBCHEM_CACTVS_TAUTO_COUNT>
-1
> <PUBCHEM_COORDINATE_TYPE>
1
5
255
> <PUBCHEM_BONDANNOTATIONS>
20  11  6
25  12  6
30  14  5
42  15  5
47  16  5
41  43  8
41  44  8
43  50  8
44  51  8
50  54  8
51  54  8
$$$$
