513061
  -OEChem-10302200282D
 35 36  0     1  0  0  0  0  0999 V2000
    5.1278   -3.0781    0.0000 P   0  0  0  0  0  0  0  0  0  0  0  0
    2.7147    3.1833    0.0000 F   0  0  0  0  0  0  0  0  0  0  0  0
    3.6377   -0.4045    0.0000 O   0  0  0  0  0  0  0  0  0  0  0  0
    5.5345   -2.1646    0.0000 O   0  0  0  0  0  0  0  0  0  0  0  0
    6.2068   -0.0955    0.0000 O   0  0  0  0  0  0  0  0  0  0  0  0
    2.3644   -2.0601    0.0000 O   0  0  0  0  0  0  0  0  0  0  0  0
    4.7210   -3.9917    0.0000 O   0  0  0  0  0  0  0  0  0  0  0  0
    6.0413   -3.4849    0.0000 O   0  0  0  0  0  0  0  0  0  0  0  0
    4.2142   -2.6714    0.0000 O   0  0  0  0  0  0  0  0  0  0  0  0
    4.4467    1.1833    0.0000 N   0  3  0  0  0  0  0  0  0  0  0  0
    5.3128    2.6833    0.0000 N   0  0  0  0  0  0  0  0  0  0  0  0
    4.4467    4.1833    0.0000 N   0  0  0  0  0  0  0  0  0  0  0  0
    4.9467   -1.3556    0.0000 C   0  0  1  0  0  0  0  0  0  0  0  0
    5.2558   -0.4045    0.0000 C   0  0  1  0  0  0  0  0  0  0  0  0
    3.9467   -1.3556    0.0000 C   0  0  1  0  0  0  0  0  0  0  0  0
    4.4467    0.1833    0.0000 C   0  0  1  0  0  0  0  0  0  0  0  0
    3.3590   -2.1646    0.0000 C   0  0  0  0  0  0  0  0  0  0  0  0
    3.5807    1.6833    0.0000 C   0  0  0  0  0  0  0  0  0  0  0  0
    5.3128    1.6833    0.0000 C   0  0  0  0  0  0  0  0  0  0  0  0
    3.5807    2.6833    0.0000 C   0  0  0  0  0  0  0  0  0  0  0  0
    4.4467    3.1833    0.0000 C   0  0  0  0  0  0  0  0  0  0  0  0
    4.6653   -1.9080    0.0000 H   0  0  0  0  0  0  0  0  0  0  0  0
    5.6942   -0.8429    0.0000 H   0  0  0  0  0  0  0  0  0  0  0  0
    3.3344   -1.2586    0.0000 H   0  0  0  0  0  0  0  0  0  0  0  0
    3.8943    0.4647    0.0000 H   0  0  0  0  0  0  0  0  0  0  0  0
    3.1880   -2.7606    0.0000 H   0  0  0  0  0  0  0  0  0  0  0  0
    3.9162   -2.4364    0.0000 H   0  0  0  0  0  0  0  0  0  0  0  0
    6.6676   -0.5104    0.0000 H   0  0  0  0  0  0  0  0  0  0  0  0
    3.0438    1.3733    0.0000 H   0  0  0  0  0  0  0  0  0  0  0  0
    5.8497    1.3733    0.0000 H   0  0  0  0  0  0  0  0  0  0  0  0
    2.0000   -2.5617    0.0000 H   0  0  0  0  0  0  0  0  0  0  0  0
    5.0855   -4.4933    0.0000 H   0  0  0  0  0  0  0  0  0  0  0  0
    6.5429   -3.1204    0.0000 H   0  0  0  0  0  0  0  0  0  0  0  0
    4.9837    4.4933    0.0000 H   0  0  0  0  0  0  0  0  0  0  0  0
    3.9098    4.4933    0.0000 H   0  0  0  0  0  0  0  0  0  0  0  0
  1  4  1  0  0  0  0
  1  7  1  0  0  0  0
  1  8  1  0  0  0  0
  1  9  2  0  0  0  0
  2 20  1  0  0  0  0
  3 15  1  0  0  0  0
  3 16  1  0  0  0  0
 13  4  1  6  0  0  0
 14  5  1  1  0  0  0
  5 28  1  0  0  0  0
  6 17  1  0  0  0  0
  6 31  1  0  0  0  0
  7 32  1  0  0  0  0
  8 33  1  0  0  0  0
 16 10  1  1  0  0  0
 10 18  1  0  0  0  0
 10 19  2  0  0  0  0
 11 19  1  0  0  0  0
 11 21  2  0  0  0  0
 12 21  1  0  0  0  0
 12 34  1  0  0  0  0
 12 35  1  0  0  0  0
 13 14  1  0  0  0  0
 13 15  1  0  0  0  0
 13 22  1  0  0  0  0
 14 16  1  0  0  0  0
 14 23  1  0  0  0  0
 15 17  1  1  0  0  0
 15 24  1  0  0  0  0
 16 25  1  0  0  0  0
 17 26  1  0  0  0  0
 17 27  1  0  0  0  0
 18 20  2  0  0  0  0
 18 29  1  0  0  0  0
 19 30  1  0  0  0  0
 20 21  1  0  0  0  0
M  CHG  1  10   1
M  END
> <PUBCHEM_COMPOUND_CID>
513061
> <PUBCHEM_COMPOUND_CANONICALIZED>
1
> <PUBCHEM_CACTVS_COMPLEXITY>
413
> <PUBCHEM_CACTVS_HBOND_ACCEPTOR>
10
> <PUBCHEM_CACTVS_HBOND_DONOR>
5
> <PUBCHEM_CACTVS_ROTATABLE_BOND>
4
> <PUBCHEM_CACTVS_SUBSKEYS>
AAADccBzOQIAAAAAAAAAAAAAAAAAASAAAAAsAAAAAAAAAAABgAAAHwAQCCAACBThkg4tsJdMFxCgQBJnZICAgCkRAKABUCAoRBCDGIJAyEAORAgPAALTACDwMAIAAAAAAAAAAAAAAAAAAAAAAAAAAAAAAA==
> <PUBCHEM_IUPAC_OPENEYE_NAME>
[(2R,3S,4S,5R)-5-(4-amino-5-fluoro-pyrimidin-1-ium-1-yl)-4-hydroxy-2-(hydroxymethyl)tetrahydrofuran-3-yl] dihydrogen phosphate
> <PUBCHEM_IUPAC_CAS_NAME>
[(2R,3S,4S,5R)-5-(4-amino-5-fluoro-1-pyrimidin-1-iumyl)-4-hydroxy-2-(hydroxymethyl)-3-oxolanyl] dihydrogen phosphate
> <PUBCHEM_IUPAC_NAME_MARKUP>
[(2<I>R</I>,3<I>S</I>,4<I>S</I>,5<I>R</I>)-5-(4-amino-5-fluoropyrimidin-1-ium-1-yl)-4-hydroxy-2-(hydroxymethyl)oxolan-3-yl] dihydrogen phosphate
> <PUBCHEM_IUPAC_NAME>
[(2R,3S,4S,5R)-5-(4-amino-5-fluoropyrimidin-1-ium-1-yl)-4-hydroxy-2-(hydroxymethyl)oxolan-3-yl] dihydrogen phosphate
> <PUBCHEM_IUPAC_SYSTEMATIC_NAME>
[(2R,3S,4S,5R)-5-(4-azanyl-5-fluoranyl-pyrimidin-1-ium-1-yl)-2-(hydroxymethyl)-4-oxidanyl-oxolan-3-yl] dihydrogen phosphate
> <PUBCHEM_IUPAC_TRADITIONAL_NAME>
[(2R,3S,4S,5R)-5-(4-amino-5-fluoro-pyrimidin-1-ium-1-yl)-4-hydroxy-2-methylol-tetrahydrofuran-3-yl] dihydrogen phosphate
> <PUBCHEM_IUPAC_INCHI>
InChI=1S/C9H13FN3O7P/c10-4-1-13(3-12-8(4)11)9-6(15)7(5(2-14)19-9)20-21(16,17)18/h1,3,5-7,9,11,14-15H,2H2,(H2,16,17,18)/p+1/t5-,6+,7-,9-/m1/s1
> <PUBCHEM_IUPAC_INCHIKEY>
MNUCJESZCNWAGM-JVZYCSMKSA-O
> <PUBCHEM_XLOGP3_AA>
-3.2
> <PUBCHEM_EXACT_MASS>
326.05533995
> <PUBCHEM_MOLECULAR_FORMULA>
C9H14FN3O7P+
> <PUBCHEM_MOLECULAR_WEIGHT>
326.20
> <PUBCHEM_OPENEYE_CAN_SMILES>
C1=C(C(=NC=[N+]1C2C(C(C(O2)CO)OP(=O)(O)O)O)N)F
> <PUBCHEM_OPENEYE_ISO_SMILES>
C1=C(C(=NC=[N+]1[C@H]2[C@H]([C@@H]([C@H](O2)CO)OP(=O)(O)O)O)N)F
> <PUBCHEM_CACTVS_TPSA>
159
> <PUBCHEM_MONOISOTOPIC_WEIGHT>
326.05533995
> <PUBCHEM_TOTAL_CHARGE>
1
> <PUBCHEM_HEAVY_ATOM_COUNT>
21
> <PUBCHEM_ATOM_DEF_STEREO_COUNT>
4
> <PUBCHEM_ATOM_UDEF_STEREO_COUNT>
0
> <PUBCHEM_BOND_DEF_STEREO_COUNT>
0
> <PUBCHEM_BOND_UDEF_STEREO_COUNT>
0
> <PUBCHEM_ISOTOPIC_ATOM_COUNT>
0
> <PUBCHEM_COMPONENT_COUNT>
1
> <PUBCHEM_CACTVS_TAUTO_COUNT>
-1
> <PUBCHEM_COORDINATE_TYPE>
1
5
255
> <PUBCHEM_BONDANNOTATIONS>
16  10  5
10  18  8
10  19  8
11  19  8
11  21  8
15  17  5
18  20  8
20  21  8
13  4  6
14  5  5
$$$$
