513011
  -OEChem-10302200282D
122124  0     1  0  0  0  0  0999 V2000
    8.9282    5.5950    0.0000 O   0  0  0  0  0  0  0  0  0  0  0  0
   10.6603    2.5950    0.0000 O   0  0  0  0  0  0  0  0  0  0  0  0
    9.7942   -0.9050    0.0000 O   0  0  0  0  0  0  0  0  0  0  0  0
    8.0622    5.0950    0.0000 O   0  0  0  0  0  0  0  0  0  0  0  0
   13.2583   -1.9050    0.0000 O   0  0  0  0  0  0  0  0  0  0  0  0
    4.5981    4.0950    0.0000 O   0  0  0  0  0  0  0  0  0  0  0  0
    3.7320    0.5950    0.0000 O   0  0  0  0  0  0  0  0  0  0  0  0
    5.4641    6.5950    0.0000 O   0  0  0  0  0  0  0  0  0  0  0  0
    5.4641    0.5950    0.0000 O   0  0  0  0  0  0  0  0  0  0  0  0
    4.5981    5.0950    0.0000 O   0  0  0  0  0  0  0  0  0  0  0  0
   10.6603    5.5950    0.0000 N   0  0  0  0  0  0  0  0  0  0  0  0
    8.9282    2.5950    0.0000 N   0  0  0  0  0  0  0  0  0  0  0  0
   10.6603    0.5950    0.0000 N   0  0  0  0  0  0  0  0  0  0  0  0
   11.5263   -1.9050    0.0000 N   0  0  0  0  0  0  0  0  0  0  0  0
    7.1962    3.5950    0.0000 N   0  0  0  0  0  0  0  0  0  0  0  0
    5.4641    2.5950    0.0000 N   0  0  0  0  0  0  0  0  0  0  0  0
   11.5738    5.1883    0.0000 C   0  0  0  0  0  0  0  0  0  0  0  0
   10.7648    6.5895    0.0000 C   0  0  0  0  0  0  0  0  0  0  0  0
   12.2429    5.9314    0.0000 C   0  0  0  0  0  0  0  0  0  0  0  0
   11.7429    6.7974    0.0000 C   0  0  0  0  0  0  0  0  0  0  0  0
    9.7942    4.0950    0.0000 C   0  0  0  0  0  0  0  0  0  0  0  0
    8.9282    3.5950    0.0000 C   0  0  1  0  0  0  0  0  0  0  0  0
    9.7942    5.0950    0.0000 C   0  0  0  0  0  0  0  0  0  0  0  0
    9.7942    1.0950    0.0000 C   0  0  1  0  0  0  0  0  0  0  0  0
   11.5263   -0.9050    0.0000 C   0  0  1  0  0  0  0  0  0  0  0  0
    8.9282    0.5950    0.0000 C   0  0  0  0  0  0  0  0  0  0  0  0
   12.3923   -0.4050    0.0000 C   0  0  0  0  0  0  0  0  0  0  0  0
    9.7942    2.0950    0.0000 C   0  0  0  0  0  0  0  0  0  0  0  0
   10.6603   -0.4050    0.0000 C   0  0  0  0  0  0  0  0  0  0  0  0
   12.3923   -3.4050    0.0000 C   0  0  0  0  0  0  0  0  0  0  0  0
    8.0622    4.0950    0.0000 C   0  0  0  0  0  0  0  0  0  0  0  0
    8.0622    1.0950    0.0000 C   0  0  0  0  0  0  0  0  0  0  0  0
    8.9282   -0.4050    0.0000 C   0  0  0  0  0  0  0  0  0  0  0  0
   12.3923   -2.4050    0.0000 C   0  0  0  0  0  0  0  0  0  0  0  0
   12.3923    0.5950    0.0000 C   0  0  0  0  0  0  0  0  0  0  0  0
   13.2583   -0.9050    0.0000 C   0  0  0  0  0  0  0  0  0  0  0  0
   11.5263   -3.9050    0.0000 C   0  0  0  0  0  0  0  0  0  0  0  0
   13.2583   -3.9050    0.0000 C   0  0  0  0  0  0  0  0  0  0  0  0
    6.3301    4.0950    0.0000 C   0  0  1  0  0  0  0  0  0  0  0  0
    4.5981    2.0950    0.0000 C   0  0  1  0  0  0  0  0  0  0  0  0
    3.7320    2.5950    0.0000 C   0  0  0  0  0  0  0  0  0  0  0  0
    6.3301    5.0950    0.0000 C   0  0  0  0  0  0  0  0  0  0  0  0
    5.4641    3.5950    0.0000 C   0  0  0  0  0  0  0  0  0  0  0  0
   11.5263   -4.9050    0.0000 C   0  0  0  0  0  0  0  0  0  0  0  0
   14.1244   -3.4050    0.0000 C   0  0  0  0  0  0  0  0  0  0  0  0
    2.8660    2.0950    0.0000 C   0  0  0  0  0  0  0  0  0  0  0  0
    2.0000    2.5950    0.0000 C   0  0  0  0  0  0  0  0  0  0  0  0
    2.8660    1.0950    0.0000 C   0  0  0  0  0  0  0  0  0  0  0  0
   12.3923   -5.4050    0.0000 C   0  0  0  0  0  0  0  0  0  0  0  0
   14.1244   -2.4050    0.0000 C   0  0  0  0  0  0  0  0  0  0  0  0
   10.6603   -5.4050    0.0000 C   0  0  0  0  0  0  0  0  0  0  0  0
   14.9904   -3.9050    0.0000 C   0  0  0  0  0  0  0  0  0  0  0  0
    4.5981    1.0950    0.0000 C   0  0  0  0  0  0  0  0  0  0  0  0
    5.4641    5.5950    0.0000 C   0  0  0  0  0  0  0  0  0  0  0  0
   12.3923   -6.4050    0.0000 C   0  0  0  0  0  0  0  0  0  0  0  0
   14.9904   -1.9050    0.0000 C   0  0  0  0  0  0  0  0  0  0  0  0
   10.6603   -6.4050    0.0000 C   0  0  0  0  0  0  0  0  0  0  0  0
   15.8564   -3.4050    0.0000 C   0  0  0  0  0  0  0  0  0  0  0  0
   11.5263   -6.9050    0.0000 C   0  0  0  0  0  0  0  0  0  0  0  0
   15.8564   -2.4050    0.0000 C   0  0  0  0  0  0  0  0  0  0  0  0
   11.2638    4.6513    0.0000 H   0  0  0  0  0  0  0  0  0  0  0  0
   12.0754    4.8238    0.0000 H   0  0  0  0  0  0  0  0  0  0  0  0
   10.7000    7.2061    0.0000 H   0  0  0  0  0  0  0  0  0  0  0  0
   10.1448    6.5895    0.0000 H   0  0  0  0  0  0  0  0  0  0  0  0
   12.6578    5.4707    0.0000 H   0  0  0  0  0  0  0  0  0  0  0  0
   12.7445    6.2958    0.0000 H   0  0  0  0  0  0  0  0  0  0  0  0
   12.3093    7.0496    0.0000 H   0  0  0  0  0  0  0  0  0  0  0  0
   11.5513    7.3871    0.0000 H   0  0  0  0  0  0  0  0  0  0  0  0
   10.0063    3.5124    0.0000 H   0  0  0  0  0  0  0  0  0  0  0  0
   10.4048    4.2027    0.0000 H   0  0  0  0  0  0  0  0  0  0  0  0
    9.4651    3.2850    0.0000 H   0  0  0  0  0  0  0  0  0  0  0  0
   10.3312    1.4050    0.0000 H   0  0  0  0  0  0  0  0  0  0  0  0
   10.9893   -1.2150    0.0000 H   0  0  0  0  0  0  0  0  0  0  0  0
    9.4651    0.2850    0.0000 H   0  0  0  0  0  0  0  0  0  0  0  0
   11.8554   -0.0950    0.0000 H   0  0  0  0  0  0  0  0  0  0  0  0
    8.3913    2.2850    0.0000 H   0  0  0  0  0  0  0  0  0  0  0  0
   11.1972    0.9050    0.0000 H   0  0  0  0  0  0  0  0  0  0  0  0
   11.8554   -3.0950    0.0000 H   0  0  0  0  0  0  0  0  0  0  0  0
   10.9893   -2.2150    0.0000 H   0  0  0  0  0  0  0  0  0  0  0  0
    8.3722    1.6319    0.0000 H   0  0  0  0  0  0  0  0  0  0  0  0
    7.5252    1.4050    0.0000 H   0  0  0  0  0  0  0  0  0  0  0  0
    7.7522    0.5581    0.0000 H   0  0  0  0  0  0  0  0  0  0  0  0
    8.3082   -0.4050    0.0000 H   0  0  0  0  0  0  0  0  0  0  0  0
    8.9282   -1.0250    0.0000 H   0  0  0  0  0  0  0  0  0  0  0  0
    9.5482   -0.4050    0.0000 H   0  0  0  0  0  0  0  0  0  0  0  0
   13.0123    0.5950    0.0000 H   0  0  0  0  0  0  0  0  0  0  0  0
   12.3923    1.2150    0.0000 H   0  0  0  0  0  0  0  0  0  0  0  0
   11.7723    0.5950    0.0000 H   0  0  0  0  0  0  0  0  0  0  0  0
   12.9483   -1.4419    0.0000 H   0  0  0  0  0  0  0  0  0  0  0  0
   13.7953   -1.2150    0.0000 H   0  0  0  0  0  0  0  0  0  0  0  0
   13.5683   -0.3681    0.0000 H   0  0  0  0  0  0  0  0  0  0  0  0
   11.3142   -3.3224    0.0000 H   0  0  0  0  0  0  0  0  0  0  0  0
   10.9157   -4.0127    0.0000 H   0  0  0  0  0  0  0  0  0  0  0  0
   12.8598   -4.3800    0.0000 H   0  0  0  0  0  0  0  0  0  0  0  0
   13.6569   -4.3800    0.0000 H   0  0  0  0  0  0  0  0  0  0  0  0
    6.3301    3.4750    0.0000 H   0  0  0  0  0  0  0  0  0  0  0  0
    7.1962    2.9750    0.0000 H   0  0  0  0  0  0  0  0  0  0  0  0
    4.5981    2.7150    0.0000 H   0  0  0  0  0  0  0  0  0  0  0  0
    4.1306    3.0700    0.0000 H   0  0  0  0  0  0  0  0  0  0  0  0
    3.3335    3.0700    0.0000 H   0  0  0  0  0  0  0  0  0  0  0  0
    6.9407    4.9873    0.0000 H   0  0  0  0  0  0  0  0  0  0  0  0
    6.5422    5.6776    0.0000 H   0  0  0  0  0  0  0  0  0  0  0  0
    2.8660    2.7150    0.0000 H   0  0  0  0  0  0  0  0  0  0  0  0
    6.0010    2.2850    0.0000 H   0  0  0  0  0  0  0  0  0  0  0  0
    2.3100    3.1319    0.0000 H   0  0  0  0  0  0  0  0  0  0  0  0
    1.4631    2.9050    0.0000 H   0  0  0  0  0  0  0  0  0  0  0  0
    1.6900    2.0581    0.0000 H   0  0  0  0  0  0  0  0  0  0  0  0
    2.2460    1.0950    0.0000 H   0  0  0  0  0  0  0  0  0  0  0  0
    2.8660    0.4750    0.0000 H   0  0  0  0  0  0  0  0  0  0  0  0
    3.4860    1.0950    0.0000 H   0  0  0  0  0  0  0  0  0  0  0  0
   12.9292   -5.0950    0.0000 H   0  0  0  0  0  0  0  0  0  0  0  0
   13.5874   -2.0950    0.0000 H   0  0  0  0  0  0  0  0  0  0  0  0
   10.1233   -5.0950    0.0000 H   0  0  0  0  0  0  0  0  0  0  0  0
   14.9904   -4.5250    0.0000 H   0  0  0  0  0  0  0  0  0  0  0  0
   12.9292   -6.7150    0.0000 H   0  0  0  0  0  0  0  0  0  0  0  0
   14.9904   -1.2850    0.0000 H   0  0  0  0  0  0  0  0  0  0  0  0
   10.1233   -6.7150    0.0000 H   0  0  0  0  0  0  0  0  0  0  0  0
   16.3933   -3.7150    0.0000 H   0  0  0  0  0  0  0  0  0  0  0  0
   11.5263   -7.5250    0.0000 H   0  0  0  0  0  0  0  0  0  0  0  0
   16.3933   -2.0950    0.0000 H   0  0  0  0  0  0  0  0  0  0  0  0
    3.7320   -0.0250    0.0000 H   0  0  0  0  0  0  0  0  0  0  0  0
    4.9272    6.9050    0.0000 H   0  0  0  0  0  0  0  0  0  0  0  0
  1 23  2  0  0  0  0
  2 28  2  0  0  0  0
  3 29  2  0  0  0  0
  4 31  2  0  0  0  0
  5 34  2  0  0  0  0
  6 43  2  0  0  0  0
  7 53  1  0  0  0  0
  7121  1  0  0  0  0
  8 54  1  0  0  0  0
  8122  1  0  0  0  0
  9 53  2  0  0  0  0
 10 54  2  0  0  0  0
 11 17  1  0  0  0  0
 11 18  1  0  0  0  0
 11 23  1  0  0  0  0
 22 12  1  6  0  0  0
 12 28  1  0  0  0  0
 12 76  1  0  0  0  0
 24 13  1  1  0  0  0
 13 29  1  0  0  0  0
 13 77  1  0  0  0  0
 25 14  1  6  0  0  0
 14 34  1  0  0  0  0
 14 79  1  0  0  0  0
 15 31  1  0  0  0  0
 39 15  1  6  0  0  0
 15 97  1  0  0  0  0
 40 16  1  6  0  0  0
 16 43  1  0  0  0  0
 16104  1  0  0  0  0
 17 19  1  0  0  0  0
 17 61  1  0  0  0  0
 17 62  1  0  0  0  0
 18 20  1  0  0  0  0
 18 63  1  0  0  0  0
 18 64  1  0  0  0  0
 19 20  1  0  0  0  0
 19 65  1  0  0  0  0
 19 66  1  0  0  0  0
 20 67  1  0  0  0  0
 20 68  1  0  0  0  0
 21 22  1  0  0  0  0
 21 23  1  0  0  0  0
 21 69  1  0  0  0  0
 21 70  1  0  0  0  0
 22 31  1  0  0  0  0
 22 71  1  0  0  0  0
 24 26  1  0  0  0  0
 24 28  1  0  0  0  0
 24 72  1  0  0  0  0
 25 27  1  0  0  0  0
 25 29  1  0  0  0  0
 25 73  1  0  0  0  0
 26 32  1  0  0  0  0
 26 33  1  0  0  0  0
 26 74  1  0  0  0  0
 27 35  1  0  0  0  0
 27 36  1  0  0  0  0
 27 75  1  0  0  0  0
 30 34  1  0  0  0  0
 30 37  1  0  0  0  0
 30 38  1  0  0  0  0
 30 78  1  0  0  0  0
 32 80  1  0  0  0  0
 32 81  1  0  0  0  0
 32 82  1  0  0  0  0
 33 83  1  0  0  0  0
 33 84  1  0  0  0  0
 33 85  1  0  0  0  0
 35 86  1  0  0  0  0
 35 87  1  0  0  0  0
 35 88  1  0  0  0  0
 36 89  1  0  0  0  0
 36 90  1  0  0  0  0
 36 91  1  0  0  0  0
 37 44  1  0  0  0  0
 37 92  1  0  0  0  0
 37 93  1  0  0  0  0
 38 45  1  0  0  0  0
 38 94  1  0  0  0  0
 38 95  1  0  0  0  0
 39 42  1  0  0  0  0
 39 43  1  0  0  0  0
 39 96  1  0  0  0  0
 40 41  1  0  0  0  0
 40 53  1  0  0  0  0
 40 98  1  0  0  0  0
 41 46  1  0  0  0  0
 41 99  1  0  0  0  0
 41100  1  0  0  0  0
 42 54  1  0  0  0  0
 42101  1  0  0  0  0
 42102  1  0  0  0  0
 44 49  2  0  0  0  0
 44 51  1  0  0  0  0
 45 50  2  0  0  0  0
 45 52  1  0  0  0  0
 46 47  1  0  0  0  0
 46 48  1  0  0  0  0
 46103  1  0  0  0  0
 47105  1  0  0  0  0
 47106  1  0  0  0  0
 47107  1  0  0  0  0
 48108  1  0  0  0  0
 48109  1  0  0  0  0
 48110  1  0  0  0  0
 49 55  1  0  0  0  0
 49111  1  0  0  0  0
 50 56  1  0  0  0  0
 50112  1  0  0  0  0
 51 57  2  0  0  0  0
 51113  1  0  0  0  0
 52 58  2  0  0  0  0
 52114  1  0  0  0  0
 55 59  2  0  0  0  0
 55115  1  0  0  0  0
 56 60  2  0  0  0  0
 56116  1  0  0  0  0
 57 59  1  0  0  0  0
 57117  1  0  0  0  0
 58 60  1  0  0  0  0
 58118  1  0  0  0  0
 59119  1  0  0  0  0
 60120  1  0  0  0  0
M  END
> <PUBCHEM_COMPOUND_CID>
513011
> <PUBCHEM_COMPOUND_CANONICALIZED>
1
> <PUBCHEM_CACTVS_COMPLEXITY>
1450
> <PUBCHEM_CACTVS_HBOND_ACCEPTOR>
10
> <PUBCHEM_CACTVS_HBOND_DONOR>
7
> <PUBCHEM_CACTVS_ROTATABLE_BOND>
23
> <PUBCHEM_CACTVS_SUBSKEYS>
AAADcfB/vAAAAAAAAAAAAAAAAAAAAWAAAAAwYAAAAAAAAAABQAAAHgAQCAAADSjBmAQyCIPAAgCIAiHSGAACAAAgAAAIiIGIAIgKYDqA0TCUYAAmlgCYiAe/iMCOAAAAAAAAAAAAAAAAAAAAAAAAAAAAAA==
> <PUBCHEM_IUPAC_OPENEYE_NAME>
(2S)-2-[[(2S)-2-[[(2S)-2-[[(2S)-2-[[(2S)-2-[(2-benzyl-3-phenyl-propanoyl)amino]-3-methyl-butanoyl]amino]-3-methyl-butanoyl]amino]-4-oxo-4-pyrrolidin-1-yl-butanoyl]amino]-3-carboxy-propanoyl]amino]-4-methyl-pentanoic acid
> <PUBCHEM_IUPAC_CAS_NAME>
(2S)-2-[[(2S)-3-carboxy-2-[[(2S)-2-[[(2S)-3-methyl-2-[[(2S)-3-methyl-1-oxo-2-[[1-oxo-3-phenyl-2-(phenylmethyl)propyl]amino]butyl]amino]-1-oxobutyl]amino]-1,4-dioxo-4-(1-pyrrolidinyl)butyl]amino]-1-oxopropyl]amino]-4-methylpentanoic acid
> <PUBCHEM_IUPAC_NAME_MARKUP>
(2<I>S</I>)-2-[[(2<I>S</I>)-2-[[(2<I>S</I>)-2-[[(2<I>S</I>)-2-[[(2<I>S</I>)-2-[(2-benzyl-3-phenylpropanoyl)amino]-3-methylbutanoyl]amino]-3-methylbutanoyl]amino]-4-oxo-4-pyrrolidin-1-ylbutanoyl]amino]-3-carboxypropanoyl]amino]-4-methylpentanoic acid
> <PUBCHEM_IUPAC_NAME>
(2S)-2-[[(2S)-2-[[(2S)-2-[[(2S)-2-[[(2S)-2-[(2-benzyl-3-phenylpropanoyl)amino]-3-methylbutanoyl]amino]-3-methylbutanoyl]amino]-4-oxo-4-pyrrolidin-1-ylbutanoyl]amino]-3-carboxypropanoyl]amino]-4-methylpentanoic acid
> <PUBCHEM_IUPAC_SYSTEMATIC_NAME>
(2S)-4-methyl-2-[[(2S)-2-[[(2S)-2-[[(2S)-3-methyl-2-[[(2S)-3-methyl-2-[[3-phenyl-2-(phenylmethyl)propanoyl]amino]butanoyl]amino]butanoyl]amino]-4-oxidanylidene-4-pyrrolidin-1-yl-butanoyl]amino]-4-oxidanyl-4-oxidanylidene-butanoyl]amino]pentanoic acid
> <PUBCHEM_IUPAC_TRADITIONAL_NAME>
(2S)-2-[[(2S)-2-[[(2S)-2-[[(2S)-2-[[(2S)-2-[(2-benzyl-3-phenyl-propanoyl)amino]-3-methyl-butanoyl]amino]-3-methyl-butanoyl]amino]-4-keto-4-pyrrolidino-butanoyl]amino]-3-carboxy-propanoyl]amino]-4-methyl-valeric acid
> <PUBCHEM_IUPAC_INCHI>
InChI=1S/C44H62N6O10/c1-26(2)21-34(44(59)60)47-41(56)33(25-36(52)53)45-40(55)32(24-35(51)50-19-13-14-20-50)46-42(57)37(27(3)4)49-43(58)38(28(5)6)48-39(54)31(22-29-15-9-7-10-16-29)23-30-17-11-8-12-18-30/h7-12,15-18,26-28,31-34,37-38H,13-14,19-25H2,1-6H3,(H,45,55)(H,46,57)(H,47,56)(H,48,54)(H,49,58)(H,52,53)(H,59,60)/t32-,33-,34-,37-,38-/m0/s1
> <PUBCHEM_IUPAC_INCHIKEY>
AGVDOEDTEWLKPJ-GMQPWBGISA-N
> <PUBCHEM_XLOGP3_AA>
4.3
> <PUBCHEM_EXACT_MASS>
834.45274220
> <PUBCHEM_MOLECULAR_FORMULA>
C44H62N6O10
> <PUBCHEM_MOLECULAR_WEIGHT>
835.0
> <PUBCHEM_OPENEYE_CAN_SMILES>
CC(C)CC(C(=O)O)NC(=O)C(CC(=O)O)NC(=O)C(CC(=O)N1CCCC1)NC(=O)C(C(C)C)NC(=O)C(C(C)C)NC(=O)C(CC2=CC=CC=C2)CC3=CC=CC=C3
> <PUBCHEM_OPENEYE_ISO_SMILES>
CC(C)C[C@@H](C(=O)O)NC(=O)[C@H](CC(=O)O)NC(=O)[C@H](CC(=O)N1CCCC1)NC(=O)[C@H](C(C)C)NC(=O)[C@H](C(C)C)NC(=O)C(CC2=CC=CC=C2)CC3=CC=CC=C3
> <PUBCHEM_CACTVS_TPSA>
240
> <PUBCHEM_MONOISOTOPIC_WEIGHT>
834.45274220
> <PUBCHEM_TOTAL_CHARGE>
0
> <PUBCHEM_HEAVY_ATOM_COUNT>
60
> <PUBCHEM_ATOM_DEF_STEREO_COUNT>
5
> <PUBCHEM_ATOM_UDEF_STEREO_COUNT>
0
> <PUBCHEM_BOND_DEF_STEREO_COUNT>
0
> <PUBCHEM_BOND_UDEF_STEREO_COUNT>
0
> <PUBCHEM_ISOTOPIC_ATOM_COUNT>
0
> <PUBCHEM_COMPONENT_COUNT>
1
> <PUBCHEM_CACTVS_TAUTO_COUNT>
-1
> <PUBCHEM_COORDINATE_TYPE>
1
5
255
> <PUBCHEM_BONDANNOTATIONS>
22  12  6
24  13  5
25  14  6
39  15  6
40  16  6
44  49  8
44  51  8
45  50  8
45  52  8
49  55  8
50  56  8
51  57  8
52  58  8
55  59  8
56  60  8
57  59  8
58  60  8
$$$$
