513032
  -OEChem-10302200282D
 38 40  0     1  0  0  0  0  0999 V2000
    2.0000   -1.0622    0.0000 Cl  0  0  0  0  0  0  0  0  0  0  0  0
    2.0000   -3.0622    0.0000 Cl  0  0  0  0  0  0  0  0  0  0  0  0
    7.1279   -2.0622    0.0000 S   0  0  0  0  0  0  0  0  0  0  0  0
    5.2686    0.5031    0.0000 O   0  0  0  0  0  0  0  0  0  0  0  0
    7.6146   -0.5888    0.0000 O   0  0  0  0  0  0  0  0  0  0  0  0
    7.6183    1.5868    0.0000 O   0  0  0  0  0  0  0  0  0  0  0  0
    4.5726    2.4722    0.0000 O   0  0  0  0  0  0  0  0  0  0  0  0
    5.5443   -1.2575    0.0000 N   0  0  0  0  0  0  0  0  0  0  0  0
    5.5443   -2.8670    0.0000 N   0  0  0  0  0  0  0  0  0  0  0  0
    5.8550   -0.3070    0.0000 C   0  0  1  0  0  0  0  0  0  0  0  0
    6.8066    0.0004    0.0000 C   0  0  1  0  0  0  0  0  0  0  0  0
    6.8083    1.0004    0.0000 C   0  0  1  0  0  0  0  0  0  0  0  0
    5.8578    1.3110    0.0000 C   0  0  1  0  0  0  0  0  0  0  0  0
    5.5504    2.2626    0.0000 C   0  0  0  0  0  0  0  0  0  0  0  0
    4.5981   -1.5622    0.0000 C   0  0  0  0  0  0  0  0  0  0  0  0
    6.1279   -2.0622    0.0000 C   0  0  0  0  0  0  0  0  0  0  0  0
    4.5981   -2.5622    0.0000 C   0  0  0  0  0  0  0  0  0  0  0  0
    3.7320   -1.0622    0.0000 C   0  0  0  0  0  0  0  0  0  0  0  0
    3.7320   -3.0622    0.0000 C   0  0  0  0  0  0  0  0  0  0  0  0
    2.8660   -1.5622    0.0000 C   0  0  0  0  0  0  0  0  0  0  0  0
    2.8660   -2.5622    0.0000 C   0  0  0  0  0  0  0  0  0  0  0  0
    7.6279   -2.9283    0.0000 C   0  0  0  0  0  0  0  0  0  0  0  0
    8.6279   -2.9283    0.0000 C   0  0  0  0  0  0  0  0  0  0  0  0
    9.6279   -2.9283    0.0000 C   0  0  0  0  0  0  0  0  0  0  0  0
    6.2926   -0.7461    0.0000 H   0  0  0  0  0  0  0  0  0  0  0  0
    7.3595    0.2809    0.0000 H   0  0  0  0  0  0  0  0  0  0  0  0
    6.7124    1.6129    0.0000 H   0  0  0  0  0  0  0  0  0  0  0  0
    5.2456    1.4091    0.0000 H   0  0  0  0  0  0  0  0  0  0  0  0
    6.1645    2.3479    0.0000 H   0  0  0  0  0  0  0  0  0  0  0  0
    5.5731    2.8822    0.0000 H   0  0  0  0  0  0  0  0  0  0  0  0
    8.1814   -0.3376    0.0000 H   0  0  0  0  0  0  0  0  0  0  0  0
    7.5546    2.2035    0.0000 H   0  0  0  0  0  0  0  0  0  0  0  0
    3.7320   -0.4422    0.0000 H   0  0  0  0  0  0  0  0  0  0  0  0
    3.7320   -3.6822    0.0000 H   0  0  0  0  0  0  0  0  0  0  0  0
    4.3820    3.0622    0.0000 H   0  0  0  0  0  0  0  0  0  0  0  0
    7.0453   -3.1403    0.0000 H   0  0  0  0  0  0  0  0  0  0  0  0
    7.7356   -3.5388    0.0000 H   0  0  0  0  0  0  0  0  0  0  0  0
   10.2479   -2.9283    0.0000 H   0  0  0  0  0  0  0  0  0  0  0  0
  1 20  1  0  0  0  0
  2 21  1  0  0  0  0
  3 16  1  0  0  0  0
  3 22  1  0  0  0  0
  4 10  1  0  0  0  0
  4 13  1  0  0  0  0
 11  5  1  1  0  0  0
  5 31  1  0  0  0  0
 12  6  1  1  0  0  0
  6 32  1  0  0  0  0
  7 14  1  0  0  0  0
  7 35  1  0  0  0  0
 10  8  1  6  0  0  0
  8 15  1  0  0  0  0
  8 16  1  0  0  0  0
  9 16  2  0  0  0  0
  9 17  1  0  0  0  0
 10 11  1  0  0  0  0
 10 25  1  0  0  0  0
 11 12  1  0  0  0  0
 11 26  1  0  0  0  0
 12 13  1  0  0  0  0
 12 27  1  0  0  0  0
 13 14  1  6  0  0  0
 13 28  1  0  0  0  0
 14 29  1  0  0  0  0
 14 30  1  0  0  0  0
 15 17  1  0  0  0  0
 15 18  2  0  0  0  0
 17 19  2  0  0  0  0
 18 20  1  0  0  0  0
 18 33  1  0  0  0  0
 19 21  1  0  0  0  0
 19 34  1  0  0  0  0
 20 21  2  0  0  0  0
 22 23  1  0  0  0  0
 22 36  1  0  0  0  0
 22 37  1  0  0  0  0
 23 24  3  0  0  0  0
 24 38  1  0  0  0  0
M  END
> <PUBCHEM_COMPOUND_CID>
513032
> <PUBCHEM_COMPOUND_CANONICALIZED>
1
> <PUBCHEM_CACTVS_COMPLEXITY>
507
> <PUBCHEM_CACTVS_HBOND_ACCEPTOR>
6
> <PUBCHEM_CACTVS_HBOND_DONOR>
3
> <PUBCHEM_CACTVS_ROTATABLE_BOND>
4
> <PUBCHEM_CACTVS_SUBSKEYS>
AAADccBzOABGAAAAAAAAAAAAAAAAAWJAAAAwAAAAAAAAAFgB8AAAHgYACAAACB7l1iax0LcMFgjgGSRiZACC0C1hF7AB2mA4dpiLeKLBmpGeYAhvgALbyCfwMAIAAABAAAIAACQAAIAABAAASAAAAAAAAA==
> <PUBCHEM_IUPAC_OPENEYE_NAME>
(2R,3R,4S,5R)-2-(5,6-dichloro-2-prop-2-ynylsulfanyl-benzimidazol-1-yl)-5-(hydroxymethyl)tetrahydrofuran-3,4-diol
> <PUBCHEM_IUPAC_CAS_NAME>
(2R,3R,4S,5R)-2-[5,6-dichloro-2-(prop-2-ynylthio)-1-benzimidazolyl]-5-(hydroxymethyl)oxolane-3,4-diol
> <PUBCHEM_IUPAC_NAME_MARKUP>
(2<I>R</I>,3<I>R</I>,4<I>S</I>,5<I>R</I>)-2-(5,6-dichloro-2-prop-2-ynylsulfanylbenzimidazol-1-yl)-5-(hydroxymethyl)oxolane-3,4-diol
> <PUBCHEM_IUPAC_NAME>
(2R,3R,4S,5R)-2-(5,6-dichloro-2-prop-2-ynylsulfanylbenzimidazol-1-yl)-5-(hydroxymethyl)oxolane-3,4-diol
> <PUBCHEM_IUPAC_SYSTEMATIC_NAME>
(2R,3R,4S,5R)-2-[5,6-bis(chloranyl)-2-prop-2-ynylsulfanyl-benzimidazol-1-yl]-5-(hydroxymethyl)oxolane-3,4-diol
> <PUBCHEM_IUPAC_TRADITIONAL_NAME>
(2R,3R,4S,5R)-2-[5,6-dichloro-2-(propargylthio)benzimidazol-1-yl]-5-methylol-tetrahydrofuran-3,4-diol
> <PUBCHEM_IUPAC_INCHI>
InChI=1S/C15H14Cl2N2O4S/c1-2-3-24-15-18-9-4-7(16)8(17)5-10(9)19(15)14-13(22)12(21)11(6-20)23-14/h1,4-5,11-14,20-22H,3,6H2/t11-,12-,13-,14-/m1/s1
> <PUBCHEM_IUPAC_INCHIKEY>
XILAHFMFYVUYJO-AAVRWANBSA-N
> <PUBCHEM_XLOGP3_AA>
2
> <PUBCHEM_EXACT_MASS>
388.0051335
> <PUBCHEM_MOLECULAR_FORMULA>
C15H14Cl2N2O4S
> <PUBCHEM_MOLECULAR_WEIGHT>
389.3
> <PUBCHEM_OPENEYE_CAN_SMILES>
C#CCSC1=NC2=CC(=C(C=C2N1C3C(C(C(O3)CO)O)O)Cl)Cl
> <PUBCHEM_OPENEYE_ISO_SMILES>
C#CCSC1=NC2=CC(=C(C=C2N1[C@H]3[C@@H]([C@@H]([C@H](O3)CO)O)O)Cl)Cl
> <PUBCHEM_CACTVS_TPSA>
113
> <PUBCHEM_MONOISOTOPIC_WEIGHT>
388.0051335
> <PUBCHEM_TOTAL_CHARGE>
0
> <PUBCHEM_HEAVY_ATOM_COUNT>
24
> <PUBCHEM_ATOM_DEF_STEREO_COUNT>
4
> <PUBCHEM_ATOM_UDEF_STEREO_COUNT>
0
> <PUBCHEM_BOND_DEF_STEREO_COUNT>
0
> <PUBCHEM_BOND_UDEF_STEREO_COUNT>
0
> <PUBCHEM_ISOTOPIC_ATOM_COUNT>
0
> <PUBCHEM_COMPONENT_COUNT>
1
> <PUBCHEM_CACTVS_TAUTO_COUNT>
-1
> <PUBCHEM_COORDINATE_TYPE>
1
5
255
> <PUBCHEM_BONDANNOTATIONS>
13  14  6
15  17  8
15  18  8
17  19  8
18  20  8
19  21  8
20  21  8
11  5  5
12  6  5
10  8  6
8  15  8
8  16  8
9  16  8
9  17  8
$$$$
