513006
  -OEChem-10302200282D
139142  0     1  0  0  0  0  0999 V2000
    2.0863    2.3863    0.0000 O   0  0  0  0  0  0  0  0  0  0  0  0
    3.1526    3.7511    0.0000 O   0  0  0  0  0  0  0  0  0  0  0  0
    5.3103    4.4112    0.0000 O   0  0  0  0  0  0  0  0  0  0  0  0
    6.1763    3.9112    0.0000 O   0  0  0  0  0  0  0  0  0  0  0  0
    5.4703    6.7303    0.0000 O   0  0  0  0  0  0  0  0  0  0  0  0
    8.7744    1.4112    0.0000 O   0  0  0  0  0  0  0  0  0  0  0  0
    7.0423    4.4112    0.0000 O   0  0  0  0  0  0  0  0  0  0  0  0
    7.9084   -2.0888    0.0000 O   0  0  0  0  0  0  0  0  0  0  0  0
   11.3725   -3.0888    0.0000 O   0  0  0  0  0  0  0  0  0  0  0  0
    5.3103    2.4112    0.0000 N   0  0  0  0  0  0  0  0  0  0  0  0
    3.8015    4.6773    0.0000 N   0  0  0  0  0  0  0  0  0  0  0  0
    7.0423    1.4112    0.0000 N   0  0  0  0  0  0  0  0  0  0  0  0
    8.7744    4.4112    0.0000 N   0  0  0  0  0  0  0  0  0  0  0  0
    8.7744   -0.5888    0.0000 N   0  0  0  0  0  0  0  0  0  0  0  0
    9.6404   -3.0888    0.0000 N   0  0  0  0  0  0  0  0  0  0  0  0
    3.8014    2.1452    0.0000 C   0  0  0  0  0  0  0  0  0  0  0  0
    4.5676    1.5024    0.0000 C   0  0  0  0  0  0  0  0  0  0  0  0
    2.9534    1.6153    0.0000 C   0  0  0  0  0  0  0  0  0  0  0  0
    4.1930    0.5752    0.0000 C   0  0  0  0  0  0  0  0  0  0  0  0
    3.1953    0.6450    0.0000 C   0  0  0  0  0  0  0  0  0  0  0  0
    4.4443    2.9112    0.0000 C   0  0  1  0  0  0  0  0  0  0  0  0
    3.0135    2.7609    0.0000 C   0  0  0  0  0  0  0  0  0  0  0  0
    4.4443    3.9112    0.0000 C   0  0  0  0  0  0  0  0  0  0  0  0
    6.1763    2.9112    0.0000 C   0  0  0  0  0  0  0  0  0  0  0  0
    4.1435    5.6170    0.0000 C   0  0  1  0  0  0  0  0  0  0  0  0
    7.0423    2.4112    0.0000 C   0  0  2  0  0  0  0  0  0  0  0  0
    3.5007    6.3830    0.0000 C   0  0  0  0  0  0  0  0  0  0  0  0
    7.9084    2.9112    0.0000 C   0  0  0  0  0  0  0  0  0  0  0  0
    5.1283    5.7906    0.0000 C   0  0  0  0  0  0  0  0  0  0  0  0
    3.8427    7.3227    0.0000 C   0  0  0  0  0  0  0  0  0  0  0  0
    7.9084   -0.0888    0.0000 C   0  0  1  0  0  0  0  0  0  0  0  0
    7.0423   -0.5888    0.0000 C   0  0  0  0  0  0  0  0  0  0  0  0
    7.9084    0.9112    0.0000 C   0  0  0  0  0  0  0  0  0  0  0  0
    7.9084    3.9112    0.0000 C   0  0  0  0  0  0  0  0  0  0  0  0
    9.6879    4.0045    0.0000 C   0  0  0  0  0  0  0  0  0  0  0  0
    8.8789    5.4058    0.0000 C   0  0  0  0  0  0  0  0  0  0  0  0
    3.1999    8.0888    0.0000 C   0  0  0  0  0  0  0  0  0  0  0  0
    4.8275    7.4964    0.0000 C   0  0  0  0  0  0  0  0  0  0  0  0
   10.3571    4.7476    0.0000 C   0  0  0  0  0  0  0  0  0  0  0  0
    9.8571    5.6137    0.0000 C   0  0  0  0  0  0  0  0  0  0  0  0
    6.1763   -1.0888    0.0000 C   0  0  0  0  0  0  0  0  0  0  0  0
    6.5423    0.2773    0.0000 C   0  0  0  0  0  0  0  0  0  0  0  0
    7.5423   -1.4548    0.0000 C   0  0  0  0  0  0  0  0  0  0  0  0
    9.6404   -2.0888    0.0000 C   0  0  2  0  0  0  0  0  0  0  0  0
    8.7744   -1.5888    0.0000 C   0  0  0  0  0  0  0  0  0  0  0  0
   10.5064   -1.5888    0.0000 C   0  0  0  0  0  0  0  0  0  0  0  0
   10.5064   -4.5888    0.0000 C   0  0  0  0  0  0  0  0  0  0  0  0
   10.5064   -3.5888    0.0000 C   0  0  0  0  0  0  0  0  0  0  0  0
   10.5064   -0.5888    0.0000 C   0  0  0  0  0  0  0  0  0  0  0  0
   11.3725   -2.0888    0.0000 C   0  0  0  0  0  0  0  0  0  0  0  0
    8.7744   -3.5888    0.0000 C   0  0  0  0  0  0  0  0  0  0  0  0
    9.6404   -5.0888    0.0000 C   0  0  0  0  0  0  0  0  0  0  0  0
   11.3725   -5.0888    0.0000 C   0  0  0  0  0  0  0  0  0  0  0  0
    9.6404   -6.0888    0.0000 C   0  0  0  0  0  0  0  0  0  0  0  0
   12.2385   -4.5888    0.0000 C   0  0  0  0  0  0  0  0  0  0  0  0
   10.5064   -6.5888    0.0000 C   0  0  0  0  0  0  0  0  0  0  0  0
   12.2385   -3.5888    0.0000 C   0  0  0  0  0  0  0  0  0  0  0  0
    8.7744   -6.5888    0.0000 C   0  0  0  0  0  0  0  0  0  0  0  0
   13.1045   -5.0888    0.0000 C   0  0  0  0  0  0  0  0  0  0  0  0
   10.5064   -7.5888    0.0000 C   0  0  0  0  0  0  0  0  0  0  0  0
   13.1045   -3.0888    0.0000 C   0  0  0  0  0  0  0  0  0  0  0  0
    8.7744   -7.5888    0.0000 C   0  0  0  0  0  0  0  0  0  0  0  0
   13.9705   -4.5888    0.0000 C   0  0  0  0  0  0  0  0  0  0  0  0
    9.6404   -8.0888    0.0000 C   0  0  0  0  0  0  0  0  0  0  0  0
   13.9705   -3.5888    0.0000 C   0  0  0  0  0  0  0  0  0  0  0  0
    5.1150    1.2113    0.0000 H   0  0  0  0  0  0  0  0  0  0  0  0
    4.9143    2.0164    0.0000 H   0  0  0  0  0  0  0  0  0  0  0  0
    2.6816    2.1726    0.0000 H   0  0  0  0  0  0  0  0  0  0  0  0
    2.3708    1.4033    0.0000 H   0  0  0  0  0  0  0  0  0  0  0  0
    4.0853   -0.0354    0.0000 H   0  0  0  0  0  0  0  0  0  0  0  0
    4.7889    0.4043    0.0000 H   0  0  0  0  0  0  0  0  0  0  0  0
    2.5814    0.5587    0.0000 H   0  0  0  0  0  0  0  0  0  0  0  0
    3.2170    0.0254    0.0000 H   0  0  0  0  0  0  0  0  0  0  0  0
    4.9812    3.2212    0.0000 H   0  0  0  0  0  0  0  0  0  0  0  0
    5.3103    1.7912    0.0000 H   0  0  0  0  0  0  0  0  0  0  0  0
    3.1909    4.5696    0.0000 H   0  0  0  0  0  0  0  0  0  0  0  0
    3.5329    5.5093    0.0000 H   0  0  0  0  0  0  0  0  0  0  0  0
    7.5793    2.1012    0.0000 H   0  0  0  0  0  0  0  0  0  0  0  0
    2.0000    1.7723    0.0000 H   0  0  0  0  0  0  0  0  0  0  0  0
    2.9638    6.6930    0.0000 H   0  0  0  0  0  0  0  0  0  0  0  0
    3.1022    5.9081    0.0000 H   0  0  0  0  0  0  0  0  0  0  0  0
    8.1204    2.3286    0.0000 H   0  0  0  0  0  0  0  0  0  0  0  0
    8.5190    3.0189    0.0000 H   0  0  0  0  0  0  0  0  0  0  0  0
    5.1283    5.1706    0.0000 H   0  0  0  0  0  0  0  0  0  0  0  0
    5.7389    5.6830    0.0000 H   0  0  0  0  0  0  0  0  0  0  0  0
    6.5054    1.1012    0.0000 H   0  0  0  0  0  0  0  0  0  0  0  0
    3.2322    7.2150    0.0000 H   0  0  0  0  0  0  0  0  0  0  0  0
    7.9084   -0.7088    0.0000 H   0  0  0  0  0  0  0  0  0  0  0  0
    9.3779    3.4676    0.0000 H   0  0  0  0  0  0  0  0  0  0  0  0
   10.1895    3.6401    0.0000 H   0  0  0  0  0  0  0  0  0  0  0  0
    8.8141    6.0224    0.0000 H   0  0  0  0  0  0  0  0  0  0  0  0
    8.2589    5.4058    0.0000 H   0  0  0  0  0  0  0  0  0  0  0  0
    3.6749    8.4873    0.0000 H   0  0  0  0  0  0  0  0  0  0  0  0
    2.8014    8.5637    0.0000 H   0  0  0  0  0  0  0  0  0  0  0  0
    2.7250    7.6902    0.0000 H   0  0  0  0  0  0  0  0  0  0  0  0
    4.9352    6.8858    0.0000 H   0  0  0  0  0  0  0  0  0  0  0  0
    5.4381    7.6040    0.0000 H   0  0  0  0  0  0  0  0  0  0  0  0
    4.7199    8.1069    0.0000 H   0  0  0  0  0  0  0  0  0  0  0  0
   10.7719    4.2869    0.0000 H   0  0  0  0  0  0  0  0  0  0  0  0
   10.8587    5.1121    0.0000 H   0  0  0  0  0  0  0  0  0  0  0  0
   10.4235    5.8658    0.0000 H   0  0  0  0  0  0  0  0  0  0  0  0
    9.6655    6.2033    0.0000 H   0  0  0  0  0  0  0  0  0  0  0  0
    9.3113   -0.2788    0.0000 H   0  0  0  0  0  0  0  0  0  0  0  0
    5.8663   -0.5518    0.0000 H   0  0  0  0  0  0  0  0  0  0  0  0
    5.6394   -1.3988    0.0000 H   0  0  0  0  0  0  0  0  0  0  0  0
    6.4863   -1.6257    0.0000 H   0  0  0  0  0  0  0  0  0  0  0  0
    7.0793    0.5873    0.0000 H   0  0  0  0  0  0  0  0  0  0  0  0
    6.2323    0.8142    0.0000 H   0  0  0  0  0  0  0  0  0  0  0  0
    6.0054   -0.0327    0.0000 H   0  0  0  0  0  0  0  0  0  0  0  0
    7.0054   -1.7648    0.0000 H   0  0  0  0  0  0  0  0  0  0  0  0
    7.8523   -1.9917    0.0000 H   0  0  0  0  0  0  0  0  0  0  0  0
    8.0793   -1.1448    0.0000 H   0  0  0  0  0  0  0  0  0  0  0  0
    9.1035   -2.3988    0.0000 H   0  0  0  0  0  0  0  0  0  0  0  0
    6.0809    6.8380    0.0000 H   0  0  0  0  0  0  0  0  0  0  0  0
   10.5064   -2.2088    0.0000 H   0  0  0  0  0  0  0  0  0  0  0  0
   11.0434   -4.2788    0.0000 H   0  0  0  0  0  0  0  0  0  0  0  0
   11.1264   -0.5888    0.0000 H   0  0  0  0  0  0  0  0  0  0  0  0
   10.5064    0.0312    0.0000 H   0  0  0  0  0  0  0  0  0  0  0  0
    9.8864   -0.5888    0.0000 H   0  0  0  0  0  0  0  0  0  0  0  0
   11.0625   -2.6257    0.0000 H   0  0  0  0  0  0  0  0  0  0  0  0
   11.9094   -2.3988    0.0000 H   0  0  0  0  0  0  0  0  0  0  0  0
   11.6825   -1.5518    0.0000 H   0  0  0  0  0  0  0  0  0  0  0  0
    8.4644   -3.0518    0.0000 H   0  0  0  0  0  0  0  0  0  0  0  0
    8.2375   -3.8988    0.0000 H   0  0  0  0  0  0  0  0  0  0  0  0
    9.0844   -4.1257    0.0000 H   0  0  0  0  0  0  0  0  0  0  0  0
    9.4284   -4.5062    0.0000 H   0  0  0  0  0  0  0  0  0  0  0  0
    9.0298   -5.1964    0.0000 H   0  0  0  0  0  0  0  0  0  0  0  0
   10.9739   -5.5637    0.0000 H   0  0  0  0  0  0  0  0  0  0  0  0
   11.7710   -5.5637    0.0000 H   0  0  0  0  0  0  0  0  0  0  0  0
   11.0434   -6.2788    0.0000 H   0  0  0  0  0  0  0  0  0  0  0  0
   11.7016   -3.2788    0.0000 H   0  0  0  0  0  0  0  0  0  0  0  0
    8.2375   -6.2788    0.0000 H   0  0  0  0  0  0  0  0  0  0  0  0
   13.1045   -5.7088    0.0000 H   0  0  0  0  0  0  0  0  0  0  0  0
   11.0434   -7.8988    0.0000 H   0  0  0  0  0  0  0  0  0  0  0  0
   13.1045   -2.4688    0.0000 H   0  0  0  0  0  0  0  0  0  0  0  0
    8.2375   -7.8988    0.0000 H   0  0  0  0  0  0  0  0  0  0  0  0
   14.5075   -4.8988    0.0000 H   0  0  0  0  0  0  0  0  0  0  0  0
    9.6404   -8.7088    0.0000 H   0  0  0  0  0  0  0  0  0  0  0  0
   14.5075   -3.2788    0.0000 H   0  0  0  0  0  0  0  0  0  0  0  0
  1 22  1  0  0  0  0
  1 79  1  0  0  0  0
  2 22  2  0  0  0  0
  3 23  2  0  0  0  0
  4 24  2  0  0  0  0
  5 29  1  0  0  0  0
  5114  1  0  0  0  0
  6 33  2  0  0  0  0
  7 34  2  0  0  0  0
  8 45  2  0  0  0  0
  9 48  2  0  0  0  0
 21 10  1  1  0  0  0
 10 24  1  0  0  0  0
 10 75  1  0  0  0  0
 11 23  1  0  0  0  0
 25 11  1  1  0  0  0
 11 76  1  0  0  0  0
 26 12  1  6  0  0  0
 12 33  1  0  0  0  0
 12 86  1  0  0  0  0
 13 34  1  0  0  0  0
 13 35  1  0  0  0  0
 13 36  1  0  0  0  0
 31 14  1  1  0  0  0
 14 45  1  0  0  0  0
 14103  1  0  0  0  0
 44 15  1  6  0  0  0
 15 48  1  0  0  0  0
 15 51  1  0  0  0  0
 16 17  1  0  0  0  0
 16 18  1  0  0  0  0
 16 21  1  0  0  0  0
 16 22  1  0  0  0  0
 17 19  1  0  0  0  0
 17 66  1  0  0  0  0
 17 67  1  0  0  0  0
 18 20  1  0  0  0  0
 18 68  1  0  0  0  0
 18 69  1  0  0  0  0
 19 20  1  0  0  0  0
 19 70  1  0  0  0  0
 19 71  1  0  0  0  0
 20 72  1  0  0  0  0
 20 73  1  0  0  0  0
 21 23  1  0  0  0  0
 21 74  1  0  0  0  0
 24 26  1  0  0  0  0
 25 27  1  0  0  0  0
 25 29  1  0  0  0  0
 25 77  1  0  0  0  0
 26 28  1  0  0  0  0
 26 78  1  0  0  0  0
 27 30  1  0  0  0  0
 27 80  1  0  0  0  0
 27 81  1  0  0  0  0
 28 34  1  0  0  0  0
 28 82  1  0  0  0  0
 28 83  1  0  0  0  0
 29 84  1  0  0  0  0
 29 85  1  0  0  0  0
 30 37  1  0  0  0  0
 30 38  1  0  0  0  0
 30 87  1  0  0  0  0
 31 32  1  0  0  0  0
 31 33  1  0  0  0  0
 31 88  1  0  0  0  0
 32 41  1  0  0  0  0
 32 42  1  0  0  0  0
 32 43  1  0  0  0  0
 35 39  1  0  0  0  0
 35 89  1  0  0  0  0
 35 90  1  0  0  0  0
 36 40  1  0  0  0  0
 36 91  1  0  0  0  0
 36 92  1  0  0  0  0
 37 93  1  0  0  0  0
 37 94  1  0  0  0  0
 37 95  1  0  0  0  0
 38 96  1  0  0  0  0
 38 97  1  0  0  0  0
 38 98  1  0  0  0  0
 39 40  1  0  0  0  0
 39 99  1  0  0  0  0
 39100  1  0  0  0  0
 40101  1  0  0  0  0
 40102  1  0  0  0  0
 41104  1  0  0  0  0
 41105  1  0  0  0  0
 41106  1  0  0  0  0
 42107  1  0  0  0  0
 42108  1  0  0  0  0
 42109  1  0  0  0  0
 43110  1  0  0  0  0
 43111  1  0  0  0  0
 43112  1  0  0  0  0
 44 45  1  0  0  0  0
 44 46  1  0  0  0  0
 44113  1  0  0  0  0
 46 49  1  0  0  0  0
 46 50  1  0  0  0  0
 46115  1  0  0  0  0
 47 48  1  0  0  0  0
 47 52  1  0  0  0  0
 47 53  1  0  0  0  0
 47116  1  0  0  0  0
 49117  1  0  0  0  0
 49118  1  0  0  0  0
 49119  1  0  0  0  0
 50120  1  0  0  0  0
 50121  1  0  0  0  0
 50122  1  0  0  0  0
 51123  1  0  0  0  0
 51124  1  0  0  0  0
 51125  1  0  0  0  0
 52 54  1  0  0  0  0
 52126  1  0  0  0  0
 52127  1  0  0  0  0
 53 55  1  0  0  0  0
 53128  1  0  0  0  0
 53129  1  0  0  0  0
 54 56  2  0  0  0  0
 54 58  1  0  0  0  0
 55 57  2  0  0  0  0
 55 59  1  0  0  0  0
 56 60  1  0  0  0  0
 56130  1  0  0  0  0
 57 61  1  0  0  0  0
 57131  1  0  0  0  0
 58 62  2  0  0  0  0
 58132  1  0  0  0  0
 59 63  2  0  0  0  0
 59133  1  0  0  0  0
 60 64  2  0  0  0  0
 60134  1  0  0  0  0
 61 65  2  0  0  0  0
 61135  1  0  0  0  0
 62 64  1  0  0  0  0
 62136  1  0  0  0  0
 63 65  1  0  0  0  0
 63137  1  0  0  0  0
 64138  1  0  0  0  0
 65139  1  0  0  0  0
M  END
> <PUBCHEM_COMPOUND_CID>
513006
> <PUBCHEM_COMPOUND_CANONICALIZED>
1
> <PUBCHEM_CACTVS_COMPLEXITY>
1590
> <PUBCHEM_CACTVS_HBOND_ACCEPTOR>
9
> <PUBCHEM_CACTVS_HBOND_DONOR>
6
> <PUBCHEM_CACTVS_ROTATABLE_BOND>
23
> <PUBCHEM_CACTVS_SUBSKEYS>
AAADcfB/vAAAAAAAAAAAAAAAAAAAAeIAAAAwYAAAAAAAAAABQAAAHgAQCAAADyjhmAYyCIPAAgCIAiHSGAACAAAgAAAIiIGIAIgKcDqA0TCUYAAmlgCYiAe/yMCPAAAAAAAAAAAAAAAAAAAAAAAAAAAAAA==
> <PUBCHEM_IUPAC_OPENEYE_NAME>
1-[(1S)-1-[[(2S)-2-[[(2S)-2-[[(2S)-2-[(2-benzyl-3-phenyl-propanoyl)-methyl-amino]-3-methyl-butanoyl]amino]-3,3-dimethyl-butanoyl]amino]-4-oxo-4-pyrrolidin-1-yl-butanoyl]amino]-2-[[(1S)-1-(hydroxymethyl)-3-methyl-butyl]amino]-2-oxo-ethyl]cyclopentanecarboxylic acid
> <PUBCHEM_IUPAC_CAS_NAME>
1-[(1S)-1-[[(2S)-2-[[(2S)-3,3-dimethyl-2-[[(2S)-3-methyl-2-[methyl-[1-oxo-3-phenyl-2-(phenylmethyl)propyl]amino]-1-oxobutyl]amino]-1-oxobutyl]amino]-1,4-dioxo-4-(1-pyrrolidinyl)butyl]amino]-2-[[(2S)-1-hydroxy-4-methylpentan-2-yl]amino]-2-oxoethyl]-1-cyclopentanecarboxylic acid
> <PUBCHEM_IUPAC_NAME_MARKUP>
1-[(1<I>S</I>)-1-[[(2<I>S</I>)-2-[[(2<I>S</I>)-2-[[(2<I>S</I>)-2-[(2-benzyl-3-phenylpropanoyl)-methylamino]-3-methylbutanoyl]amino]-3,3-dimethylbutanoyl]amino]-4-oxo-4-pyrrolidin-1-ylbutanoyl]amino]-2-[[(2<I>S</I>)-1-hydroxy-4-methylpentan-2-yl]amino]-2-oxoethyl]cyclopentane-1-carboxylic acid
> <PUBCHEM_IUPAC_NAME>
1-[(1S)-1-[[(2S)-2-[[(2S)-2-[[(2S)-2-[(2-benzyl-3-phenylpropanoyl)-methylamino]-3-methylbutanoyl]amino]-3,3-dimethylbutanoyl]amino]-4-oxo-4-pyrrolidin-1-ylbutanoyl]amino]-2-[[(2S)-1-hydroxy-4-methylpentan-2-yl]amino]-2-oxoethyl]cyclopentane-1-carboxylic acid
> <PUBCHEM_IUPAC_SYSTEMATIC_NAME>
1-[(1S)-1-[[(2S)-2-[[(2S)-3,3-dimethyl-2-[[(2S)-3-methyl-2-[methyl-[3-phenyl-2-(phenylmethyl)propanoyl]amino]butanoyl]amino]butanoyl]amino]-4-oxidanylidene-4-pyrrolidin-1-yl-butanoyl]amino]-2-[[(2S)-4-methyl-1-oxidanyl-pentan-2-yl]amino]-2-oxidanylidene-ethyl]cyclopentane-1-carboxylic acid
> <PUBCHEM_IUPAC_TRADITIONAL_NAME>
1-[(1S)-1-[[(2S)-2-[[(2S)-2-[[(2S)-2-[(2-benzyl-3-phenyl-propanoyl)-methyl-amino]-3-methyl-butanoyl]amino]-3,3-dimethyl-butanoyl]amino]-4-keto-4-pyrrolidino-butanoyl]amino]-2-keto-2-[[(1S)-3-methyl-1-methylol-butyl]amino]ethyl]cyclopentanecarboxylic acid
> <PUBCHEM_IUPAC_INCHI>
InChI=1S/C50H74N6O9/c1-32(2)27-37(31-57)51-46(62)42(50(48(64)65)23-15-16-24-50)54-43(59)38(30-39(58)56-25-17-18-26-56)52-45(61)41(49(5,6)7)53-44(60)40(33(3)4)55(8)47(63)36(28-34-19-11-9-12-20-34)29-35-21-13-10-14-22-35/h9-14,19-22,32-33,36-38,40-42,57H,15-18,23-31H2,1-8H3,(H,51,62)(H,52,61)(H,53,60)(H,54,59)(H,64,65)/t37-,38-,40-,41+,42+/m0/s1
> <PUBCHEM_IUPAC_INCHIKEY>
UPRGJVBMXKNELK-HOMVEOSBSA-N
> <PUBCHEM_XLOGP3_AA>
6.1
> <PUBCHEM_EXACT_MASS>
902.55172796
> <PUBCHEM_MOLECULAR_FORMULA>
C50H74N6O9
> <PUBCHEM_MOLECULAR_WEIGHT>
903.2
> <PUBCHEM_OPENEYE_CAN_SMILES>
CC(C)CC(CO)NC(=O)C(C1(CCCC1)C(=O)O)NC(=O)C(CC(=O)N2CCCC2)NC(=O)C(C(C)(C)C)NC(=O)C(C(C)C)N(C)C(=O)C(CC3=CC=CC=C3)CC4=CC=CC=C4
> <PUBCHEM_OPENEYE_ISO_SMILES>
CC(C)C[C@@H](CO)NC(=O)[C@H](C1(CCCC1)C(=O)O)NC(=O)[C@H](CC(=O)N2CCCC2)NC(=O)[C@H](C(C)(C)C)NC(=O)[C@H](C(C)C)N(C)C(=O)C(CC3=CC=CC=C3)CC4=CC=CC=C4
> <PUBCHEM_CACTVS_TPSA>
215
> <PUBCHEM_MONOISOTOPIC_WEIGHT>
902.55172796
> <PUBCHEM_TOTAL_CHARGE>
0
> <PUBCHEM_HEAVY_ATOM_COUNT>
65
> <PUBCHEM_ATOM_DEF_STEREO_COUNT>
5
> <PUBCHEM_ATOM_UDEF_STEREO_COUNT>
0
> <PUBCHEM_BOND_DEF_STEREO_COUNT>
0
> <PUBCHEM_BOND_UDEF_STEREO_COUNT>
0
> <PUBCHEM_ISOTOPIC_ATOM_COUNT>
0
> <PUBCHEM_COMPONENT_COUNT>
1
> <PUBCHEM_CACTVS_TAUTO_COUNT>
-1
> <PUBCHEM_COORDINATE_TYPE>
1
5
255
> <PUBCHEM_BONDANNOTATIONS>
21  10  5
25  11  5
26  12  6
31  14  5
44  15  6
54  56  8
54  58  8
55  57  8
55  59  8
56  60  8
57  61  8
58  62  8
59  63  8
60  64  8
61  65  8
62  64  8
63  65  8
$$$$
