513164
  -OEChem-10302200282D
 71 75  0     1  0  0  0  0  0999 V2000
   12.3024   -0.6878    0.0000 O   0  0  0  0  0  0  0  0  0  0  0  0
   12.6247    1.2768    0.0000 O   0  0  0  0  0  0  0  0  0  0  0  0
    8.5552   -2.0984    0.0000 O   0  0  0  0  0  0  0  0  0  0  0  0
    5.1670   -0.8654    0.0000 O   0  0  0  0  0  0  0  0  0  0  0  0
   11.0423    0.5723    0.0000 N   0  0  0  0  0  0  0  0  0  0  0  0
    8.7392   -0.3762    0.0000 N   0  0  0  0  0  0  0  0  0  0  0  0
    6.5665   -1.8859    0.0000 N   0  0  0  0  0  0  0  0  0  0  0  0
    4.9830   -2.5876    0.0000 N   0  0  0  0  0  0  0  0  0  0  0  0
   10.5423   -0.9665    0.0000 C   0  0  0  0  0  0  0  0  0  0  0  0
    9.7333   -0.3787    0.0000 C   0  0  2  0  0  0  0  0  0  0  0  0
   10.0423    0.5723    0.0000 C   0  0  2  0  0  0  0  0  0  0  0  0
   11.2495   -1.6736    0.0000 C   0  0  0  0  0  0  0  0  0  0  0  0
    9.8352   -1.6736    0.0000 C   0  0  0  0  0  0  0  0  0  0  0  0
   10.5423   -2.3807    0.0000 C   0  0  0  0  0  0  0  0  0  0  0  0
   11.3514   -0.3787    0.0000 C   0  0  0  0  0  0  0  0  0  0  0  0
    9.2366    1.1545    0.0000 C   0  0  0  0  0  0  0  0  0  0  0  0
    8.4329    0.5695    0.0000 C   0  0  0  0  0  0  0  0  0  0  0  0
   11.6301    1.3813    0.0000 C   0  0  0  0  0  0  0  0  0  0  0  0
   11.2234    2.2949    0.0000 C   0  0  0  0  0  0  0  0  0  0  0  0
    8.1501   -1.1842    0.0000 C   0  0  0  0  0  0  0  0  0  0  0  0
   11.3279    3.2894    0.0000 C   0  0  0  0  0  0  0  0  0  0  0  0
   10.4144    2.8827    0.0000 C   0  0  0  0  0  0  0  0  0  0  0  0
    7.1557   -1.0779    0.0000 C   0  0  2  0  0  0  0  0  0  0  0  0
    6.7506   -0.1637    0.0000 C   0  0  0  0  0  0  0  0  0  0  0  0
    5.7562   -0.0574    0.0000 C   0  0  0  0  0  0  0  0  0  0  0  0
    7.3398    0.6443    0.0000 C   0  0  0  0  0  0  0  0  0  0  0  0
    5.5722   -1.7797    0.0000 C   0  0  0  0  0  0  0  0  0  0  0  0
    3.9887   -2.4814    0.0000 C   0  0  0  0  0  0  0  0  0  0  0  0
    3.5835   -1.5672    0.0000 C   0  0  0  0  0  0  0  0  0  0  0  0
    3.3995   -3.2894    0.0000 C   0  0  0  0  0  0  0  0  0  0  0  0
    2.5892   -1.4609    0.0000 C   0  0  0  0  0  0  0  0  0  0  0  0
    2.4052   -3.1832    0.0000 C   0  0  0  0  0  0  0  0  0  0  0  0
    2.0000   -2.2689    0.0000 C   0  0  0  0  0  0  0  0  0  0  0  0
    9.4696   -1.1868    0.0000 H   0  0  0  0  0  0  0  0  0  0  0  0
   10.3040    1.3811    0.0000 H   0  0  0  0  0  0  0  0  0  0  0  0
   11.6879   -2.1120    0.0000 H   0  0  0  0  0  0  0  0  0  0  0  0
   11.6879   -1.2352    0.0000 H   0  0  0  0  0  0  0  0  0  0  0  0
    9.3968   -1.2352    0.0000 H   0  0  0  0  0  0  0  0  0  0  0  0
    9.3968   -2.1120    0.0000 H   0  0  0  0  0  0  0  0  0  0  0  0
   10.1039   -2.8191    0.0000 H   0  0  0  0  0  0  0  0  0  0  0  0
   10.9808   -2.8191    0.0000 H   0  0  0  0  0  0  0  0  0  0  0  0
    9.6505    1.6161    0.0000 H   0  0  0  0  0  0  0  0  0  0  0  0
    8.8211    1.6147    0.0000 H   0  0  0  0  0  0  0  0  0  0  0  0
    8.1227    1.1064    0.0000 H   0  0  0  0  0  0  0  0  0  0  0  0
    7.8664    0.3175    0.0000 H   0  0  0  0  0  0  0  0  0  0  0  0
   11.8358    2.3919    0.0000 H   0  0  0  0  0  0  0  0  0  0  0  0
   11.9464    3.3326    0.0000 H   0  0  0  0  0  0  0  0  0  0  0  0
   11.1779    3.8910    0.0000 H   0  0  0  0  0  0  0  0  0  0  0  0
   10.0677    3.3967    0.0000 H   0  0  0  0  0  0  0  0  0  0  0  0
    9.9684    2.4520    0.0000 H   0  0  0  0  0  0  0  0  0  0  0  0
    7.7722   -1.1438    0.0000 H   0  0  0  0  0  0  0  0  0  0  0  0
    6.3853   -0.6646    0.0000 H   0  0  0  0  0  0  0  0  0  0  0  0
    6.8177   -2.4527    0.0000 H   0  0  0  0  0  0  0  0  0  0  0  0
    5.8221    0.5591    0.0000 H   0  0  0  0  0  0  0  0  0  0  0  0
    5.1397    0.0085    0.0000 H   0  0  0  0  0  0  0  0  0  0  0  0
    5.6904   -0.6739    0.0000 H   0  0  0  0  0  0  0  0  0  0  0  0
    7.8407    0.2790    0.0000 H   0  0  0  0  0  0  0  0  0  0  0  0
    7.7050    1.1453    0.0000 H   0  0  0  0  0  0  0  0  0  0  0  0
    6.8388    1.0096    0.0000 H   0  0  0  0  0  0  0  0  0  0  0  0
    4.2399   -3.0482    0.0000 H   0  0  0  0  0  0  0  0  0  0  0  0
    5.2342   -3.1545    0.0000 H   0  0  0  0  0  0  0  0  0  0  0  0
    4.1854   -1.4182    0.0000 H   0  0  0  0  0  0  0  0  0  0  0  0
    3.5414   -0.9486    0.0000 H   0  0  0  0  0  0  0  0  0  0  0  0
    3.2276   -3.8851    0.0000 H   0  0  0  0  0  0  0  0  0  0  0  0
    3.9563   -3.5622    0.0000 H   0  0  0  0  0  0  0  0  0  0  0  0
    2.7611   -0.8652    0.0000 H   0  0  0  0  0  0  0  0  0  0  0  0
    2.0324   -1.1882    0.0000 H   0  0  0  0  0  0  0  0  0  0  0  0
    1.8033   -3.3321    0.0000 H   0  0  0  0  0  0  0  0  0  0  0  0
    2.4473   -3.8017    0.0000 H   0  0  0  0  0  0  0  0  0  0  0  0
    1.5701   -1.8222    0.0000 H   0  0  0  0  0  0  0  0  0  0  0  0
    1.4854   -2.6147    0.0000 H   0  0  0  0  0  0  0  0  0  0  0  0
  1 15  2  0  0  0  0
  2 18  2  0  0  0  0
  3 20  2  0  0  0  0
  4 27  2  0  0  0  0
  5 11  1  0  0  0  0
  5 15  1  0  0  0  0
  5 18  1  0  0  0  0
  6 10  1  0  0  0  0
  6 17  1  0  0  0  0
  6 20  1  0  0  0  0
 23  7  1  1  0  0  0
  7 27  1  0  0  0  0
  7 53  1  0  0  0  0
  8 27  1  0  0  0  0
  8 28  1  0  0  0  0
  8 61  1  0  0  0  0
  9 10  1  0  0  0  0
  9 12  1  0  0  0  0
  9 13  1  0  0  0  0
  9 15  1  0  0  0  0
 10 11  1  0  0  0  0
 10 34  1  6  0  0  0
 11 16  1  0  0  0  0
 11 35  1  1  0  0  0
 12 14  1  0  0  0  0
 12 36  1  0  0  0  0
 12 37  1  0  0  0  0
 13 14  1  0  0  0  0
 13 38  1  0  0  0  0
 13 39  1  0  0  0  0
 14 40  1  0  0  0  0
 14 41  1  0  0  0  0
 16 17  1  0  0  0  0
 16 42  1  0  0  0  0
 16 43  1  0  0  0  0
 17 44  1  0  0  0  0
 17 45  1  0  0  0  0
 18 19  1  0  0  0  0
 19 21  1  0  0  0  0
 19 22  1  0  0  0  0
 19 46  1  0  0  0  0
 20 23  1  0  0  0  0
 21 22  1  0  0  0  0
 21 47  1  0  0  0  0
 21 48  1  0  0  0  0
 22 49  1  0  0  0  0
 22 50  1  0  0  0  0
 23 24  1  0  0  0  0
 23 51  1  0  0  0  0
 24 25  1  0  0  0  0
 24 26  1  0  0  0  0
 24 52  1  0  0  0  0
 25 54  1  0  0  0  0
 25 55  1  0  0  0  0
 25 56  1  0  0  0  0
 26 57  1  0  0  0  0
 26 58  1  0  0  0  0
 26 59  1  0  0  0  0
 28 29  1  0  0  0  0
 28 30  1  0  0  0  0
 28 60  1  0  0  0  0
 29 31  1  0  0  0  0
 29 62  1  0  0  0  0
 29 63  1  0  0  0  0
 30 32  1  0  0  0  0
 30 64  1  0  0  0  0
 30 65  1  0  0  0  0
 31 33  1  0  0  0  0
 31 66  1  0  0  0  0
 31 67  1  0  0  0  0
 32 33  1  0  0  0  0
 32 68  1  0  0  0  0
 32 69  1  0  0  0  0
 33 70  1  0  0  0  0
 33 71  1  0  0  0  0
M  END
> <PUBCHEM_COMPOUND_CID>
513164
> <PUBCHEM_COMPOUND_CANONICALIZED>
1
> <PUBCHEM_CACTVS_COMPLEXITY>
828
> <PUBCHEM_CACTVS_HBOND_ACCEPTOR>
4
> <PUBCHEM_CACTVS_HBOND_DONOR>
2
> <PUBCHEM_CACTVS_ROTATABLE_BOND>
5
> <PUBCHEM_CACTVS_SUBSKEYS>
AAADcfB7uAAAAAAAAAAAAAAAGABgAWLAAAAwAAAAAAAWAAAAAAAAHgAQAAAADyjBgAQDAAPAAAAIAAEQEAAAAAAAAAAAAIGIAACAQBoAwCAUAAAIFiKAAAEciIAPAAAAAAAAAAAAAAAAAAAAAAAAAAAAAA==
> <PUBCHEM_IUPAC_OPENEYE_NAME>
1-[(1S)-1-[(3aS,6aR)-4-(cyclopropanecarbonyl)-5-oxo-spiro[2,3,3a,6a-tetrahydropyrrolo[3,2-b]pyrrole-6,1'-cyclobutane]-1-carbonyl]-2-methyl-propyl]-3-cyclohexyl-urea
> <PUBCHEM_IUPAC_CAS_NAME>
1-[(2S)-1-[(3aS,6aR)-4-[cyclopropyl(oxo)methyl]-5-oxo-1-spiro[2,3,3a,6a-tetrahydropyrrolo[3,2-b]pyrrole-6,1'-cyclobutane]yl]-3-methyl-1-oxobutan-2-yl]-3-cyclohexylurea
> <PUBCHEM_IUPAC_NAME_MARKUP>
1-[(2<I>S</I>)-1-[(3<I>a</I><I>S</I>,6<I>a</I><I>R</I>)-4-(cyclopropanecarbonyl)-5-oxospiro[2,3,3<I>a</I>,6<I>a</I>-tetrahydropyrrolo[3,2-b]pyrrole-6,1&apos;-cyclobutane]-1-yl]-3-methyl-1-oxobutan-2-yl]-3-cyclohexylurea
> <PUBCHEM_IUPAC_NAME>
1-[(2S)-1-[(3aS,6aR)-4-(cyclopropanecarbonyl)-5-oxospiro[2,3,3a,6a-tetrahydropyrrolo[3,2-b]pyrrole-6,1'-cyclobutane]-1-yl]-3-methyl-1-oxobutan-2-yl]-3-cyclohexylurea
> <PUBCHEM_IUPAC_SYSTEMATIC_NAME>
1-[(2S)-1-[(3aS,6aR)-4-cyclopropylcarbonyl-5-oxidanylidene-spiro[2,3,3a,6a-tetrahydropyrrolo[3,2-b]pyrrole-6,1'-cyclobutane]-1-yl]-3-methyl-1-oxidanylidene-butan-2-yl]-3-cyclohexyl-urea
> <PUBCHEM_IUPAC_TRADITIONAL_NAME>
1-[(1S)-1-[(3aS,6aR)-4-(cyclopropanecarbonyl)-5-keto-spiro[2,3,3a,6a-tetrahydropyrrolo[3,2-b]pyrrole-6,1'-cyclobutane]-1-carbonyl]-2-methyl-propyl]-3-cyclohexyl-urea
> <PUBCHEM_IUPAC_INCHI>
InChI=1S/C25H38N4O4/c1-15(2)19(27-24(33)26-17-7-4-3-5-8-17)22(31)28-14-11-18-20(28)25(12-6-13-25)23(32)29(18)21(30)16-9-10-16/h15-20H,3-14H2,1-2H3,(H2,26,27,33)/t18-,19-,20-/m0/s1
> <PUBCHEM_IUPAC_INCHIKEY>
JVMJWUOZTYOUOH-UFYCRDLUSA-N
> <PUBCHEM_XLOGP3_AA>
2.7
> <PUBCHEM_EXACT_MASS>
458.28930571
> <PUBCHEM_MOLECULAR_FORMULA>
C25H38N4O4
> <PUBCHEM_MOLECULAR_WEIGHT>
458.6
> <PUBCHEM_OPENEYE_CAN_SMILES>
CC(C)C(C(=O)N1CCC2C1C3(CCC3)C(=O)N2C(=O)C4CC4)NC(=O)NC5CCCCC5
> <PUBCHEM_OPENEYE_ISO_SMILES>
CC(C)[C@@H](C(=O)N1CC[C@H]2[C@H]1C3(CCC3)C(=O)N2C(=O)C4CC4)NC(=O)NC5CCCCC5
> <PUBCHEM_CACTVS_TPSA>
98.8
> <PUBCHEM_MONOISOTOPIC_WEIGHT>
458.28930571
> <PUBCHEM_TOTAL_CHARGE>
0
> <PUBCHEM_HEAVY_ATOM_COUNT>
33
> <PUBCHEM_ATOM_DEF_STEREO_COUNT>
3
> <PUBCHEM_ATOM_UDEF_STEREO_COUNT>
0
> <PUBCHEM_BOND_DEF_STEREO_COUNT>
0
> <PUBCHEM_BOND_UDEF_STEREO_COUNT>
0
> <PUBCHEM_ISOTOPIC_ATOM_COUNT>
0
> <PUBCHEM_COMPONENT_COUNT>
1
> <PUBCHEM_CACTVS_TAUTO_COUNT>
-1
> <PUBCHEM_COORDINATE_TYPE>
1
5
255
> <PUBCHEM_BONDANNOTATIONS>
10  34  6
11  35  5
23  7  5
$$$$
