513125
  -OEChem-10302200282D
 73 76  0     1  0  0  0  0  0999 V2000
    2.1535   -2.0404    0.0000 Cl  0  0  0  0  0  0  0  0  0  0  0  0
    2.0000   -4.0344    0.0000 Cl  0  0  0  0  0  0  0  0  0  0  0  0
    8.4090    0.9455    0.0000 Si  0  0  0  0  0  0  0  0  0  0  0  0
    7.1024    2.2520    0.0000 Si  0  0  0  0  0  0  0  0  0  0  0  0
    8.0263    0.0216    0.0000 O   0  0  0  0  0  0  0  0  0  0  0  0
    8.0263    1.8694    0.0000 O   0  0  0  0  0  0  0  0  0  0  0  0
    5.5349   -0.7360    0.0000 O   0  0  0  0  0  0  0  0  0  0  0  0
    6.1785    1.8694    0.0000 O   0  0  0  0  0  0  0  0  0  0  0  0
    7.7811   -2.0027    0.0000 O   0  0  0  0  0  0  0  0  0  0  0  0
    5.6723   -2.5070    0.0000 N   0  0  0  0  0  0  0  0  0  0  0  0
    5.5488   -4.1117    0.0000 N   0  0  0  0  0  0  0  0  0  0  0  0
    7.1024   -0.3611    0.0000 C   0  0  1  0  0  0  0  0  0  0  0  0
    6.1785    0.0216    0.0000 C   0  0  1  0  0  0  0  0  0  0  0  0
    7.0218   -1.3519    0.0000 C   0  0  2  0  0  0  0  0  0  0  0  0
    6.0550   -1.5831    0.0000 C   0  0  1  0  0  0  0  0  0  0  0  0
    9.3328    1.3282    0.0000 C   0  0  0  0  0  0  0  0  0  0  0  0
    9.0177    0.1521    0.0000 C   0  0  0  0  0  0  0  0  0  0  0  0
    5.7958    0.9455    0.0000 C   0  0  0  0  0  0  0  0  0  0  0  0
    6.3090    2.8608    0.0000 C   0  0  0  0  0  0  0  0  0  0  0  0
    7.4851    3.1759    0.0000 C   0  0  0  0  0  0  0  0  0  0  0  0
    9.4634    2.3196    0.0000 C   0  0  0  0  0  0  0  0  0  0  0  0
   10.3243    1.1976    0.0000 C   0  0  0  0  0  0  0  0  0  0  0  0
    8.6350   -0.7718    0.0000 C   0  0  0  0  0  0  0  0  0  0  0  0
   10.0092    0.2826    0.0000 C   0  0  0  0  0  0  0  0  0  0  0  0
    5.3852    2.4781    0.0000 C   0  0  0  0  0  0  0  0  0  0  0  0
    6.4396    3.8522    0.0000 C   0  0  0  0  0  0  0  0  0  0  0  0
    8.4765    3.3064    0.0000 C   0  0  0  0  0  0  0  0  0  0  0  0
    7.3546    4.1674    0.0000 C   0  0  0  0  0  0  0  0  0  0  0  0
    4.7055   -2.7382    0.0000 C   0  0  0  0  0  0  0  0  0  0  0  0
    6.1925   -3.3542    0.0000 C   0  0  0  0  0  0  0  0  0  0  0  0
    4.6288   -3.7353    0.0000 C   0  0  0  0  0  0  0  0  0  0  0  0
    3.8804   -2.1732    0.0000 C   0  0  0  0  0  0  0  0  0  0  0  0
    3.7269   -4.1674    0.0000 C   0  0  0  0  0  0  0  0  0  0  0  0
    2.9786   -2.6053    0.0000 C   0  0  0  0  0  0  0  0  0  0  0  0
    2.9018   -3.6024    0.0000 C   0  0  0  0  0  0  0  0  0  0  0  0
    7.7894   -0.8616    0.0000 H   0  0  0  0  0  0  0  0  0  0  0  0
    5.3388    0.1535    0.0000 H   0  0  0  0  0  0  0  0  0  0  0  0
    6.8763   -1.9546    0.0000 H   0  0  0  0  0  0  0  0  0  0  0  0
    6.4575   -2.0548    0.0000 H   0  0  0  0  0  0  0  0  0  0  0  0
    9.4138    0.7135    0.0000 H   0  0  0  0  0  0  0  0  0  0  0  0
    9.2550    0.7249    0.0000 H   0  0  0  0  0  0  0  0  0  0  0  0
    5.3040    1.3229    0.0000 H   0  0  0  0  0  0  0  0  0  0  0  0
    5.3040    0.5680    0.0000 H   0  0  0  0  0  0  0  0  0  0  0  0
    5.8172    3.2382    0.0000 H   0  0  0  0  0  0  0  0  0  0  0  0
    6.8704    3.2568    0.0000 H   0  0  0  0  0  0  0  0  0  0  0  0
   10.0781    2.2387    0.0000 H   0  0  0  0  0  0  0  0  0  0  0  0
    9.5443    2.9343    0.0000 H   0  0  0  0  0  0  0  0  0  0  0  0
    8.8487    2.4005    0.0000 H   0  0  0  0  0  0  0  0  0  0  0  0
   10.2434    0.5829    0.0000 H   0  0  0  0  0  0  0  0  0  0  0  0
   10.9390    1.1167    0.0000 H   0  0  0  0  0  0  0  0  0  0  0  0
   10.4052    1.8123    0.0000 H   0  0  0  0  0  0  0  0  0  0  0  0
    8.0622   -0.5345    0.0000 H   0  0  0  0  0  0  0  0  0  0  0  0
    8.3978   -1.3446    0.0000 H   0  0  0  0  0  0  0  0  0  0  0  0
    9.2078   -1.0090    0.0000 H   0  0  0  0  0  0  0  0  0  0  0  0
   10.0901   -0.3321    0.0000 H   0  0  0  0  0  0  0  0  0  0  0  0
   10.6239    0.3636    0.0000 H   0  0  0  0  0  0  0  0  0  0  0  0
    9.9282    0.8973    0.0000 H   0  0  0  0  0  0  0  0  0  0  0  0
    5.1479    3.0509    0.0000 H   0  0  0  0  0  0  0  0  0  0  0  0
    4.8124    2.2408    0.0000 H   0  0  0  0  0  0  0  0  0  0  0  0
    5.6224    1.9053    0.0000 H   0  0  0  0  0  0  0  0  0  0  0  0
    7.0543    3.7713    0.0000 H   0  0  0  0  0  0  0  0  0  0  0  0
    6.5205    4.4669    0.0000 H   0  0  0  0  0  0  0  0  0  0  0  0
    5.8249    3.9332    0.0000 H   0  0  0  0  0  0  0  0  0  0  0  0
    8.5574    2.6917    0.0000 H   0  0  0  0  0  0  0  0  0  0  0  0
    9.0912    3.3874    0.0000 H   0  0  0  0  0  0  0  0  0  0  0  0
    8.3956    3.9211    0.0000 H   0  0  0  0  0  0  0  0  0  0  0  0
    7.9692    4.2483    0.0000 H   0  0  0  0  0  0  0  0  0  0  0  0
    7.2736    4.7820    0.0000 H   0  0  0  0  0  0  0  0  0  0  0  0
    6.7398    4.0864    0.0000 H   0  0  0  0  0  0  0  0  0  0  0  0
    7.6671   -2.6121    0.0000 H   0  0  0  0  0  0  0  0  0  0  0  0
    6.8106   -3.4017    0.0000 H   0  0  0  0  0  0  0  0  0  0  0  0
    3.9280   -1.5551    0.0000 H   0  0  0  0  0  0  0  0  0  0  0  0
    3.6794   -4.7855    0.0000 H   0  0  0  0  0  0  0  0  0  0  0  0
  1 34  1  0  0  0  0
  2 35  1  0  0  0  0
  3  5  1  0  0  0  0
  3  6  1  0  0  0  0
  3 16  1  0  0  0  0
  3 17  1  0  0  0  0
  4  6  1  0  0  0  0
  4  8  1  0  0  0  0
  4 19  1  0  0  0  0
  4 20  1  0  0  0  0
  5 12  1  0  0  0  0
  7 13  1  0  0  0  0
  7 15  1  0  0  0  0
  8 18  1  0  0  0  0
 14  9  1  1  0  0  0
  9 70  1  0  0  0  0
 15 10  1  6  0  0  0
 10 29  1  0  0  0  0
 10 30  1  0  0  0  0
 11 30  2  0  0  0  0
 11 31  1  0  0  0  0
 12 13  1  0  0  0  0
 12 14  1  0  0  0  0
 12 36  1  1  0  0  0
 13 18  1  0  0  0  0
 13 37  1  1  0  0  0
 14 15  1  0  0  0  0
 14 38  1  0  0  0  0
 15 39  1  0  0  0  0
 16 21  1  0  0  0  0
 16 22  1  0  0  0  0
 16 40  1  0  0  0  0
 17 23  1  0  0  0  0
 17 24  1  0  0  0  0
 17 41  1  0  0  0  0
 18 42  1  0  0  0  0
 18 43  1  0  0  0  0
 19 25  1  0  0  0  0
 19 26  1  0  0  0  0
 19 44  1  0  0  0  0
 20 27  1  0  0  0  0
 20 28  1  0  0  0  0
 20 45  1  0  0  0  0
 21 46  1  0  0  0  0
 21 47  1  0  0  0  0
 21 48  1  0  0  0  0
 22 49  1  0  0  0  0
 22 50  1  0  0  0  0
 22 51  1  0  0  0  0
 23 52  1  0  0  0  0
 23 53  1  0  0  0  0
 23 54  1  0  0  0  0
 24 55  1  0  0  0  0
 24 56  1  0  0  0  0
 24 57  1  0  0  0  0
 25 58  1  0  0  0  0
 25 59  1  0  0  0  0
 25 60  1  0  0  0  0
 26 61  1  0  0  0  0
 26 62  1  0  0  0  0
 26 63  1  0  0  0  0
 27 64  1  0  0  0  0
 27 65  1  0  0  0  0
 27 66  1  0  0  0  0
 28 67  1  0  0  0  0
 28 68  1  0  0  0  0
 28 69  1  0  0  0  0
 29 31  1  0  0  0  0
 29 32  2  0  0  0  0
 30 71  1  0  0  0  0
 31 33  2  0  0  0  0
 32 34  1  0  0  0  0
 32 72  1  0  0  0  0
 33 35  1  0  0  0  0
 33 73  1  0  0  0  0
 34 35  2  0  0  0  0
M  END
> <PUBCHEM_COMPOUND_CID>
513125
> <PUBCHEM_COMPOUND_CANONICALIZED>
1
> <PUBCHEM_CACTVS_COMPLEXITY>
733
> <PUBCHEM_CACTVS_HBOND_ACCEPTOR>
6
> <PUBCHEM_CACTVS_HBOND_DONOR>
1
> <PUBCHEM_CACTVS_ROTATABLE_BOND>
5
> <PUBCHEM_CACTVS_SUBSKEYS>
AAADcfB7OAwGAAAAAAAAAAAAAAAAAWJAAAAwAAAAAAASAFgB8AAAHhIACEAACB7htiZ30LcMFgGgASRjZACCgC0xF6AB2mA4dpiLeKLBmpGeYAhvgALbyCfwMAIAAABAAAIAACQAAIAABAAASAAAAAAAAA==
> <PUBCHEM_IUPAC_OPENEYE_NAME>
(6aR,8R,9R,9aR)-8-(5,6-dichlorobenzimidazol-1-yl)-2,2,4,4-tetraisopropyl-6a,8,9,9a-tetrahydro-6H-furo[3,2-f][1,3,5,2,4]trioxadisilocin-9-ol
> <PUBCHEM_IUPAC_CAS_NAME>
(6aR,8R,9R,9aR)-8-(5,6-dichloro-1-benzimidazolyl)-2,2,4,4-tetra(propan-2-yl)-6a,8,9,9a-tetrahydro-6H-furo[3,2-f][1,3,5,2,4]trioxadisilocin-9-ol
> <PUBCHEM_IUPAC_NAME_MARKUP>
(6<I>a</I><I>R</I>,8<I>R</I>,9<I>R</I>,9<I>a</I><I>R</I>)-8-(5,6-dichlorobenzimidazol-1-yl)-2,2,4,4-tetra(propan-2-yl)-6<I>a</I>,8,9,9<I>a</I>-tetrahydro-6<I>H</I>-furo[3,2-f][1,3,5,2,4]trioxadisilocin-9-ol
> <PUBCHEM_IUPAC_NAME>
(6aR,8R,9R,9aR)-8-(5,6-dichlorobenzimidazol-1-yl)-2,2,4,4-tetra(propan-2-yl)-6a,8,9,9a-tetrahydro-6H-furo[3,2-f][1,3,5,2,4]trioxadisilocin-9-ol
> <PUBCHEM_IUPAC_SYSTEMATIC_NAME>
(6aR,8R,9R,9aR)-8-[5,6-bis(chloranyl)benzimidazol-1-yl]-2,2,4,4-tetra(propan-2-yl)-6a,8,9,9a-tetrahydro-6H-furo[3,2-f][1,3,5,2,4]trioxadisilocin-9-ol
> <PUBCHEM_IUPAC_TRADITIONAL_NAME>
(6aR,8R,9R,9aR)-8-(5,6-dichlorobenzimidazol-1-yl)-2,2,4,4-tetraisopropyl-6a,8,9,9a-tetrahydro-6H-furo[3,2-f][1,3,5,2,4]trioxadisilocin-9-ol
> <PUBCHEM_IUPAC_INCHI>
InChI=1S/C24H38Cl2N2O5Si2/c1-13(2)34(14(3)4)30-11-21-23(32-35(33-34,15(5)6)16(7)8)22(29)24(31-21)28-12-27-19-9-17(25)18(26)10-20(19)28/h9-10,12-16,21-24,29H,11H2,1-8H3/t21-,22-,23+,24-/m1/s1
> <PUBCHEM_IUPAC_INCHIKEY>
MDFYYURNHORSHX-JLLPCOHGSA-N
> <PUBCHEM_EXACT_MASS>
560.1696308
> <PUBCHEM_MOLECULAR_FORMULA>
C24H38Cl2N2O5Si2
> <PUBCHEM_MOLECULAR_WEIGHT>
561.6
> <PUBCHEM_OPENEYE_CAN_SMILES>
CC(C)[Si]1(OCC2C(C(C(O2)N3C=NC4=CC(=C(C=C43)Cl)Cl)O)O[Si](O1)(C(C)C)C(C)C)C(C)C
> <PUBCHEM_OPENEYE_ISO_SMILES>
CC(C)[Si]1(OC[C@@H]2[C@@H]([C@H]([C@@H](O2)N3C=NC4=CC(=C(C=C43)Cl)Cl)O)O[Si](O1)(C(C)C)C(C)C)C(C)C
> <PUBCHEM_CACTVS_TPSA>
75
> <PUBCHEM_MONOISOTOPIC_WEIGHT>
560.1696308
> <PUBCHEM_TOTAL_CHARGE>
0
> <PUBCHEM_HEAVY_ATOM_COUNT>
35
> <PUBCHEM_ATOM_DEF_STEREO_COUNT>
4
> <PUBCHEM_ATOM_UDEF_STEREO_COUNT>
0
> <PUBCHEM_BOND_DEF_STEREO_COUNT>
0
> <PUBCHEM_BOND_UDEF_STEREO_COUNT>
0
> <PUBCHEM_ISOTOPIC_ATOM_COUNT>
0
> <PUBCHEM_COMPONENT_COUNT>
1
> <PUBCHEM_CACTVS_TAUTO_COUNT>
-1
> <PUBCHEM_COORDINATE_TYPE>
1
5
255
> <PUBCHEM_BONDANNOTATIONS>
15  10  6
10  29  8
10  30  8
11  30  8
11  31  8
12  36  5
13  37  5
29  31  8
29  32  8
31  33  8
32  34  8
33  35  8
34  35  8
14  9  5
$$$$
