513107
  -OEChem-10302200282D
 32 34  0     1  0  0  0  0  0999 V2000
    2.0000    0.5415    0.0000 Cl  0  0  0  0  0  0  0  0  0  0  0  0
   10.7263   -1.4827    0.0000 Cl  0  0  0  0  0  0  0  0  0  0  0  0
    5.5301   -1.4827    0.0000 O   0  0  0  0  0  0  0  0  0  0  0  0
    5.5301    1.5173    0.0000 O   0  0  0  0  0  0  0  0  0  0  0  0
    6.3961    0.0173    0.0000 C   0  0  3  0  0  0  0  0  0  0  0  0
    7.2622    0.5173    0.0000 C   0  0  0  0  0  0  0  0  0  0  0  0
    6.3961   -0.9827    0.0000 C   0  0  0  0  0  0  0  0  0  0  0  0
    5.5301    0.5173    0.0000 C   0  0  0  0  0  0  0  0  0  0  0  0
    4.6641    0.0173    0.0000 C   0  0  0  0  0  0  0  0  0  0  0  0
    8.1282    0.0173    0.0000 C   0  0  0  0  0  0  0  0  0  0  0  0
    4.6641   -0.9827    0.0000 C   0  0  0  0  0  0  0  0  0  0  0  0
    3.7702    0.5520    0.0000 C   0  0  0  0  0  0  0  0  0  0  0  0
    3.7702   -1.5173    0.0000 C   0  0  0  0  0  0  0  0  0  0  0  0
    8.9942    0.5173    0.0000 C   0  0  0  0  0  0  0  0  0  0  0  0
    8.1282   -0.9827    0.0000 C   0  0  0  0  0  0  0  0  0  0  0  0
    2.8641    0.0381    0.0000 C   0  0  0  0  0  0  0  0  0  0  0  0
    2.8641   -1.0035    0.0000 C   0  0  0  0  0  0  0  0  0  0  0  0
    9.8602    0.0173    0.0000 C   0  0  0  0  0  0  0  0  0  0  0  0
    8.9942   -1.4827    0.0000 C   0  0  0  0  0  0  0  0  0  0  0  0
    9.8602   -0.9827    0.0000 C   0  0  0  0  0  0  0  0  0  0  0  0
    6.9331   -0.2927    0.0000 H   0  0  0  0  0  0  0  0  0  0  0  0
    7.6607    0.9923    0.0000 H   0  0  0  0  0  0  0  0  0  0  0  0
    6.8636    0.9923    0.0000 H   0  0  0  0  0  0  0  0  0  0  0  0
    6.6082   -1.5653    0.0000 H   0  0  0  0  0  0  0  0  0  0  0  0
    7.0067   -0.8750    0.0000 H   0  0  0  0  0  0  0  0  0  0  0  0
    3.7773    1.1720    0.0000 H   0  0  0  0  0  0  0  0  0  0  0  0
    3.7773   -2.1373    0.0000 H   0  0  0  0  0  0  0  0  0  0  0  0
    8.9942    1.1373    0.0000 H   0  0  0  0  0  0  0  0  0  0  0  0
    7.5913   -1.2927    0.0000 H   0  0  0  0  0  0  0  0  0  0  0  0
    2.3284   -1.3156    0.0000 H   0  0  0  0  0  0  0  0  0  0  0  0
   10.3972    0.3273    0.0000 H   0  0  0  0  0  0  0  0  0  0  0  0
    8.9942   -2.1027    0.0000 H   0  0  0  0  0  0  0  0  0  0  0  0
  1 16  1  0  0  0  0
  2 20  1  0  0  0  0
  3  7  1  0  0  0  0
  3 11  1  0  0  0  0
  4  8  2  0  0  0  0
  5  6  1  0  0  0  0
  5  7  1  0  0  0  0
  5  8  1  0  0  0  0
  5 21  1  0  0  0  0
  6 10  1  0  0  0  0
  6 22  1  0  0  0  0
  6 23  1  0  0  0  0
  7 24  1  0  0  0  0
  7 25  1  0  0  0  0
  8  9  1  0  0  0  0
  9 11  2  0  0  0  0
  9 12  1  0  0  0  0
 10 14  2  0  0  0  0
 10 15  1  0  0  0  0
 11 13  1  0  0  0  0
 12 16  2  0  0  0  0
 12 26  1  0  0  0  0
 13 17  2  0  0  0  0
 13 27  1  0  0  0  0
 14 18  1  0  0  0  0
 14 28  1  0  0  0  0
 15 19  2  0  0  0  0
 15 29  1  0  0  0  0
 16 17  1  0  0  0  0
 17 30  1  0  0  0  0
 18 20  2  0  0  0  0
 18 31  1  0  0  0  0
 19 20  1  0  0  0  0
 19 32  1  0  0  0  0
M  END
> <PUBCHEM_COMPOUND_CID>
513107
> <PUBCHEM_COMPOUND_CANONICALIZED>
1
> <PUBCHEM_CACTVS_COMPLEXITY>
352
> <PUBCHEM_CACTVS_HBOND_ACCEPTOR>
2
> <PUBCHEM_CACTVS_HBOND_DONOR>
0
> <PUBCHEM_CACTVS_ROTATABLE_BOND>
2
> <PUBCHEM_CACTVS_SUBSKEYS>
AAADccB4MAAGAAAAAAAAAAAAAAAAAAAAAAA0YIAAAAAAAACRQAAAGgIAAAAADQagmCIwBoAABACIAqBSAAACCAAkJQAIiAEGCsgMJjaFNxqCOWCk4BEIqYeIyOCOBCAAIAAIAAAIQABAABAAAAAAAAAAAA==
> <PUBCHEM_IUPAC_OPENEYE_NAME>
6-chloro-3-[(4-chlorophenyl)methyl]chroman-4-one
> <PUBCHEM_IUPAC_CAS_NAME>
6-chloro-3-[(4-chlorophenyl)methyl]-3,4-dihydro-2H-1-benzopyran-4-one
> <PUBCHEM_IUPAC_NAME_MARKUP>
6-chloro-3-[(4-chlorophenyl)methyl]-2,3-dihydrochromen-4-one
> <PUBCHEM_IUPAC_NAME>
6-chloro-3-[(4-chlorophenyl)methyl]-2,3-dihydrochromen-4-one
> <PUBCHEM_IUPAC_SYSTEMATIC_NAME>
6-chloranyl-3-[(4-chlorophenyl)methyl]-2,3-dihydrochromen-4-one
> <PUBCHEM_IUPAC_TRADITIONAL_NAME>
6-chloro-3-(4-chlorobenzyl)chroman-4-one
> <PUBCHEM_IUPAC_INCHI>
InChI=1S/C16H12Cl2O2/c17-12-3-1-10(2-4-12)7-11-9-20-15-6-5-13(18)8-14(15)16(11)19/h1-6,8,11H,7,9H2
> <PUBCHEM_IUPAC_INCHIKEY>
FECWNNQTGADNEC-UHFFFAOYSA-N
> <PUBCHEM_XLOGP3_AA>
4.6
> <PUBCHEM_EXACT_MASS>
306.0214350
> <PUBCHEM_MOLECULAR_FORMULA>
C16H12Cl2O2
> <PUBCHEM_MOLECULAR_WEIGHT>
307.2
> <PUBCHEM_OPENEYE_CAN_SMILES>
C1C(C(=O)C2=C(O1)C=CC(=C2)Cl)CC3=CC=C(C=C3)Cl
> <PUBCHEM_OPENEYE_ISO_SMILES>
C1C(C(=O)C2=C(O1)C=CC(=C2)Cl)CC3=CC=C(C=C3)Cl
> <PUBCHEM_CACTVS_TPSA>
26.3
> <PUBCHEM_MONOISOTOPIC_WEIGHT>
306.0214350
> <PUBCHEM_TOTAL_CHARGE>
0
> <PUBCHEM_HEAVY_ATOM_COUNT>
20
> <PUBCHEM_ATOM_DEF_STEREO_COUNT>
0
> <PUBCHEM_ATOM_UDEF_STEREO_COUNT>
1
> <PUBCHEM_BOND_DEF_STEREO_COUNT>
0
> <PUBCHEM_BOND_UDEF_STEREO_COUNT>
0
> <PUBCHEM_ISOTOPIC_ATOM_COUNT>
0
> <PUBCHEM_COMPONENT_COUNT>
1
> <PUBCHEM_CACTVS_TAUTO_COUNT>
-1
> <PUBCHEM_COORDINATE_TYPE>
1
5
255
> <PUBCHEM_BONDANNOTATIONS>
10  14  8
10  15  8
11  13  8
12  16  8
13  17  8
14  18  8
15  19  8
16  17  8
18  20  8
19  20  8
5  6  3
9  11  8
9  12  8
$$$$
