513130
  -OEChem-10302200282D
 30 31  0     1  0  0  0  0  0999 V2000
    2.0000   -0.5983    0.0000 Cl  0  0  0  0  0  0  0  0  0  0  0  0
    2.0000   -2.5983    0.0000 Cl  0  0  0  0  0  0  0  0  0  0  0  0
    6.8335    0.3632    0.0000 O   0  0  0  0  0  0  0  0  0  0  0  0
    5.4978    1.8518    0.0000 O   0  0  0  0  0  0  0  0  0  0  0  0
    8.4333    2.4704    0.0000 O   0  0  0  0  0  0  0  0  0  0  0  0
    5.5443   -0.7936    0.0000 N   0  0  0  0  0  0  0  0  0  0  0  0
    5.5443   -2.4030    0.0000 N   0  0  0  0  0  0  0  0  0  0  0  0
    5.8550    0.1570    0.0000 C   0  0  3  0  0  0  0  0  0  0  0  0
    4.5981   -1.0983    0.0000 C   0  0  0  0  0  0  0  0  0  0  0  0
    4.5981   -2.0983    0.0000 C   0  0  0  0  0  0  0  0  0  0  0  0
    5.1871    0.9013    0.0000 C   0  0  0  0  0  0  0  0  0  0  0  0
    6.1279   -1.5983    0.0000 C   0  0  0  0  0  0  0  0  0  0  0  0
    3.7320   -0.5983    0.0000 C   0  0  0  0  0  0  0  0  0  0  0  0
    7.1441    1.3137    0.0000 C   0  0  0  0  0  0  0  0  0  0  0  0
    3.7320   -2.5983    0.0000 C   0  0  0  0  0  0  0  0  0  0  0  0
    2.8660   -1.0983    0.0000 C   0  0  0  0  0  0  0  0  0  0  0  0
    2.8660   -2.0983    0.0000 C   0  0  0  0  0  0  0  0  0  0  0  0
    8.1226    1.5199    0.0000 C   0  0  0  0  0  0  0  0  0  0  0  0
    6.0476    0.7463    0.0000 H   0  0  0  0  0  0  0  0  0  0  0  0
    4.6402    1.1933    0.0000 H   0  0  0  0  0  0  0  0  0  0  0  0
    4.8046    0.4134    0.0000 H   0  0  0  0  0  0  0  0  0  0  0  0
    6.7479   -1.5983    0.0000 H   0  0  0  0  0  0  0  0  0  0  0  0
    3.7320    0.0217    0.0000 H   0  0  0  0  0  0  0  0  0  0  0  0
    7.1236    1.9334    0.0000 H   0  0  0  0  0  0  0  0  0  0  0  0
    6.5303    1.4010    0.0000 H   0  0  0  0  0  0  0  0  0  0  0  0
    3.7320   -3.2183    0.0000 H   0  0  0  0  0  0  0  0  0  0  0  0
    8.1432    0.9003    0.0000 H   0  0  0  0  0  0  0  0  0  0  0  0
    8.7364    1.4326    0.0000 H   0  0  0  0  0  0  0  0  0  0  0  0
    5.0837    2.3132    0.0000 H   0  0  0  0  0  0  0  0  0  0  0  0
    9.0400    2.5983    0.0000 H   0  0  0  0  0  0  0  0  0  0  0  0
  1 16  1  0  0  0  0
  2 17  1  0  0  0  0
  3  8  1  0  0  0  0
  3 14  1  0  0  0  0
  4 11  1  0  0  0  0
  4 29  1  0  0  0  0
  5 18  1  0  0  0  0
  5 30  1  0  0  0  0
  6  8  1  0  0  0  0
  6  9  1  0  0  0  0
  6 12  1  0  0  0  0
  7 10  1  0  0  0  0
  7 12  2  0  0  0  0
  8 11  1  0  0  0  0
  8 19  1  0  0  0  0
  9 10  1  0  0  0  0
  9 13  2  0  0  0  0
 10 15  2  0  0  0  0
 11 20  1  0  0  0  0
 11 21  1  0  0  0  0
 12 22  1  0  0  0  0
 13 16  1  0  0  0  0
 13 23  1  0  0  0  0
 14 18  1  0  0  0  0
 14 24  1  0  0  0  0
 14 25  1  0  0  0  0
 15 17  1  0  0  0  0
 15 26  1  0  0  0  0
 16 17  2  0  0  0  0
 18 27  1  0  0  0  0
 18 28  1  0  0  0  0
M  END
> <PUBCHEM_COMPOUND_CID>
513130
> <PUBCHEM_COMPOUND_CANONICALIZED>
1
> <PUBCHEM_CACTVS_COMPLEXITY>
273
> <PUBCHEM_CACTVS_HBOND_ACCEPTOR>
4
> <PUBCHEM_CACTVS_HBOND_DONOR>
2
> <PUBCHEM_CACTVS_ROTATABLE_BOND>
5
> <PUBCHEM_CACTVS_SUBSKEYS>
AAADccBzMAAGAAAAAAAAAAAAAAAAAWAAAAAwAAAAAAAAAFgB8AAAHgIACAAACArhliY10LcMFgCgASRjZACCgC0xF6AB2mA4dpiLeKLBmpGeIAhogALbyCcQAAAAAABAAAIAACQAAIAABAAASAAAAAAAAA==
> <PUBCHEM_IUPAC_OPENEYE_NAME>
2-(5,6-dichlorobenzimidazol-1-yl)-2-(2-hydroxyethoxy)ethanol
> <PUBCHEM_IUPAC_CAS_NAME>
2-(5,6-dichloro-1-benzimidazolyl)-2-(2-hydroxyethoxy)ethanol
> <PUBCHEM_IUPAC_NAME_MARKUP>
2-(5,6-dichlorobenzimidazol-1-yl)-2-(2-hydroxyethoxy)ethanol
> <PUBCHEM_IUPAC_NAME>
2-(5,6-dichlorobenzimidazol-1-yl)-2-(2-hydroxyethoxy)ethanol
> <PUBCHEM_IUPAC_SYSTEMATIC_NAME>
2-[5,6-bis(chloranyl)benzimidazol-1-yl]-2-(2-hydroxyethyloxy)ethanol
> <PUBCHEM_IUPAC_TRADITIONAL_NAME>
2-(5,6-dichlorobenzimidazol-1-yl)-2-(2-hydroxyethoxy)ethanol
> <PUBCHEM_IUPAC_INCHI>
InChI=1S/C11H12Cl2N2O3/c12-7-3-9-10(4-8(7)13)15(6-14-9)11(5-17)18-2-1-16/h3-4,6,11,16-17H,1-2,5H2
> <PUBCHEM_IUPAC_INCHIKEY>
HGOZCGFSAYJYKO-UHFFFAOYSA-N
> <PUBCHEM_XLOGP3_AA>
1.2
> <PUBCHEM_EXACT_MASS>
290.0224976
> <PUBCHEM_MOLECULAR_FORMULA>
C11H12Cl2N2O3
> <PUBCHEM_MOLECULAR_WEIGHT>
291.13
> <PUBCHEM_OPENEYE_CAN_SMILES>
C1=C2C(=CC(=C1Cl)Cl)N(C=N2)C(CO)OCCO
> <PUBCHEM_OPENEYE_ISO_SMILES>
C1=C2C(=CC(=C1Cl)Cl)N(C=N2)C(CO)OCCO
> <PUBCHEM_CACTVS_TPSA>
67.5
> <PUBCHEM_MONOISOTOPIC_WEIGHT>
290.0224976
> <PUBCHEM_TOTAL_CHARGE>
0
> <PUBCHEM_HEAVY_ATOM_COUNT>
18
> <PUBCHEM_ATOM_DEF_STEREO_COUNT>
0
> <PUBCHEM_ATOM_UDEF_STEREO_COUNT>
1
> <PUBCHEM_BOND_DEF_STEREO_COUNT>
0
> <PUBCHEM_BOND_UDEF_STEREO_COUNT>
0
> <PUBCHEM_ISOTOPIC_ATOM_COUNT>
0
> <PUBCHEM_COMPONENT_COUNT>
1
> <PUBCHEM_CACTVS_TAUTO_COUNT>
-1
> <PUBCHEM_COORDINATE_TYPE>
1
5
255
> <PUBCHEM_BONDANNOTATIONS>
10  15  8
13  16  8
15  17  8
16  17  8
6  12  8
6  9  8
7  10  8
7  12  8
8  11  3
9  10  8
9  13  8
$$$$
