513183
  -OEChem-10302200282D
101104  0     1  0  0  0  0  0999 V2000
   12.9296    1.7244    0.0000 O   0  0  0  0  0  0  0  0  0  0  0  0
   10.5658    0.6719    0.0000 O   0  0  0  0  0  0  0  0  0  0  0  0
   10.5983    2.8472    0.0000 O   0  0  0  0  0  0  0  0  0  0  0  0
   11.9444   -0.7643    0.0000 O   0  0  0  0  0  0  0  0  0  0  0  0
   13.2141   -1.9424    0.0000 O   0  0  0  0  0  0  0  0  0  0  0  0
   13.8942   -1.2094    0.0000 O   0  0  0  0  0  0  0  0  0  0  0  0
   10.5840   -2.2304    0.0000 O   0  0  0  0  0  0  0  0  0  0  0  0
    8.8786    3.0540    0.0000 O   0  0  0  0  0  0  0  0  0  0  0  0
   14.3163    2.9286    0.0000 O   0  0  0  0  0  0  0  0  0  0  0  0
   11.1736   -4.1416    0.0000 O   0  0  0  0  0  0  0  0  0  0  0  0
    9.5594    1.4613    0.0000 O   0  0  0  0  0  0  0  0  0  0  0  0
   13.6469    6.3274    0.0000 O   0  0  0  0  0  0  0  0  0  0  0  0
   15.1941   -5.8970    0.0000 O   0  0  0  0  0  0  0  0  0  0  0  0
   15.1639   -2.3875    0.0000 O   0  0  0  0  0  0  0  0  0  0  0  0
   12.6772    3.4885    0.0000 N   0  0  0  0  0  0  0  0  0  0  0  0
   13.9816    4.6280    0.0000 N   0  0  0  0  0  0  0  0  0  0  0  0
   14.2797    0.4792    0.0000 N   0  0  0  0  0  0  0  0  0  0  0  0
   14.7785   -4.0761    0.0000 N   0  0  0  0  0  0  0  0  0  0  0  0
   16.8769   -5.7074    0.0000 N   0  0  0  0  0  0  0  0  0  0  0  0
   12.3298    0.9243    0.0000 C   0  0  1  0  0  0  0  0  0  0  0  0
   11.3835    1.2475    0.0000 C   0  0  2  0  0  0  0  0  0  0  0  0
   11.3984    2.2474    0.0000 C   0  0  2  0  0  0  0  0  0  0  0  0
   12.3540    2.5421    0.0000 C   0  0  1  0  0  0  0  0  0  0  0  0
   12.6246   -0.0313    0.0000 C   0  0  2  0  0  0  0  0  0  0  0  0
   12.2391   -1.7199    0.0000 C   0  0  1  0  0  0  0  0  0  0  0  0
   13.5995   -0.2538    0.0000 C   0  0  0  0  0  0  0  0  0  0  0  0
   11.5590   -2.4530    0.0000 C   0  0  2  0  0  0  0  0  0  0  0  0
   13.6584    3.6817    0.0000 C   0  0  0  0  0  0  0  0  0  0  0  0
   12.0193    4.2415    0.0000 C   0  0  0  0  0  0  0  0  0  0  0  0
   10.6554   -0.3241    0.0000 C   0  0  0  0  0  0  0  0  0  0  0  0
   11.8537   -3.4085    0.0000 C   0  0  2  0  0  0  0  0  0  0  0  0
    9.6788    2.4542    0.0000 C   0  0  0  0  0  0  0  0  0  0  0  0
   15.7534   -4.2986    0.0000 C   0  0  1  0  0  0  0  0  0  0  0  0
   13.5088   -2.8980    0.0000 C   0  0  0  0  0  0  0  0  0  0  0  0
   12.3425    5.1879    0.0000 C   0  0  0  0  0  0  0  0  0  0  0  0
   16.3769   -3.5168    0.0000 C   0  0  0  0  0  0  0  0  0  0  0  0
   12.8287   -3.6311    0.0000 C   0  0  0  0  0  0  0  0  0  0  0  0
   17.3769   -3.5168    0.0000 C   0  0  0  0  0  0  0  0  0  0  0  0
   18.0004   -4.2986    0.0000 C   0  0  0  0  0  0  0  0  0  0  0  0
   17.7779   -5.2736    0.0000 C   0  0  2  0  0  0  0  0  0  0  0  0
   13.3236    5.3811    0.0000 C   0  0  0  0  0  0  0  0  0  0  0  0
   14.4838   -3.1205    0.0000 C   0  0  0  0  0  0  0  0  0  0  0  0
   15.9760   -5.2736    0.0000 C   0  0  0  0  0  0  0  0  0  0  0  0
   18.5597   -5.8970    0.0000 C   0  0  0  0  0  0  0  0  0  0  0  0
    7.9591    2.6610    0.0000 C   0  0  0  0  0  0  0  0  0  0  0  0
    7.1590    3.2608    0.0000 C   0  0  0  0  0  0  0  0  0  0  0  0
    6.2395    2.8678    0.0000 C   0  0  0  0  0  0  0  0  0  0  0  0
    5.4393    3.4676    0.0000 C   0  0  0  0  0  0  0  0  0  0  0  0
    4.5198    3.0746    0.0000 C   0  0  0  0  0  0  0  0  0  0  0  0
    3.7197    3.6744    0.0000 C   0  0  0  0  0  0  0  0  0  0  0  0
    2.8001    3.2814    0.0000 C   0  0  0  0  0  0  0  0  0  0  0  0
    2.0000    3.8812    0.0000 C   0  0  0  0  0  0  0  0  0  0  0  0
   13.1673    0.7788    0.0000 H   0  0  0  0  0  0  0  0  0  0  0  0
   11.4713    0.6337    0.0000 H   0  0  0  0  0  0  0  0  0  0  0  0
   10.8419    1.9742    0.0000 H   0  0  0  0  0  0  0  0  0  0  0  0
   11.9222    2.9870    0.0000 H   0  0  0  0  0  0  0  0  0  0  0  0
   12.8073   -0.6238    0.0000 H   0  0  0  0  0  0  0  0  0  0  0  0
   11.6347   -1.5820    0.0000 H   0  0  0  0  0  0  0  0  0  0  0  0
   11.1373   -2.9075    0.0000 H   0  0  0  0  0  0  0  0  0  0  0  0
   11.4110    4.1217    0.0000 H   0  0  0  0  0  0  0  0  0  0  0  0
   10.0379   -0.3797    0.0000 H   0  0  0  0  0  0  0  0  0  0  0  0
   10.7110   -0.9416    0.0000 H   0  0  0  0  0  0  0  0  0  0  0  0
   11.2729   -0.2685    0.0000 H   0  0  0  0  0  0  0  0  0  0  0  0
   12.0365   -4.0010    0.0000 H   0  0  0  0  0  0  0  0  0  0  0  0
   15.5487   -3.7134    0.0000 H   0  0  0  0  0  0  0  0  0  0  0  0
   16.5149   -2.9123    0.0000 H   0  0  0  0  0  0  0  0  0  0  0  0
   15.8183   -3.2478    0.0000 H   0  0  0  0  0  0  0  0  0  0  0  0
   14.5899    4.7479    0.0000 H   0  0  0  0  0  0  0  0  0  0  0  0
   11.9346    5.6548    0.0000 H   0  0  0  0  0  0  0  0  0  0  0  0
   13.0114   -4.2235    0.0000 H   0  0  0  0  0  0  0  0  0  0  0  0
   17.9355   -3.2478    0.0000 H   0  0  0  0  0  0  0  0  0  0  0  0
   17.2390   -2.9123    0.0000 H   0  0  0  0  0  0  0  0  0  0  0  0
   14.8841    0.3413    0.0000 H   0  0  0  0  0  0  0  0  0  0  0  0
   14.0969    1.0717    0.0000 H   0  0  0  0  0  0  0  0  0  0  0  0
   18.5590   -4.5676    0.0000 H   0  0  0  0  0  0  0  0  0  0  0  0
   18.3870   -3.8139    0.0000 H   0  0  0  0  0  0  0  0  0  0  0  0
   17.7085   -5.8897    0.0000 H   0  0  0  0  0  0  0  0  0  0  0  0
   14.3568   -4.5306    0.0000 H   0  0  0  0  0  0  0  0  0  0  0  0
   16.8769   -6.3274    0.0000 H   0  0  0  0  0  0  0  0  0  0  0  0
   10.1623   -2.6849    0.0000 H   0  0  0  0  0  0  0  0  0  0  0  0
   18.1732   -6.3818    0.0000 H   0  0  0  0  0  0  0  0  0  0  0  0
   19.0445   -6.2836    0.0000 H   0  0  0  0  0  0  0  0  0  0  0  0
   18.9463   -5.4123    0.0000 H   0  0  0  0  0  0  0  0  0  0  0  0
   11.3563   -4.7340    0.0000 H   0  0  0  0  0  0  0  0  0  0  0  0
    7.5067    2.2370    0.0000 H   0  0  0  0  0  0  0  0  0  0  0  0
    8.2981    2.1418    0.0000 H   0  0  0  0  0  0  0  0  0  0  0  0
    7.6114    3.6848    0.0000 H   0  0  0  0  0  0  0  0  0  0  0  0
    6.8200    3.7799    0.0000 H   0  0  0  0  0  0  0  0  0  0  0  0
    5.7871    2.4438    0.0000 H   0  0  0  0  0  0  0  0  0  0  0  0
    6.5784    2.3486    0.0000 H   0  0  0  0  0  0  0  0  0  0  0  0
    5.8917    3.8916    0.0000 H   0  0  0  0  0  0  0  0  0  0  0  0
    5.1004    3.9867    0.0000 H   0  0  0  0  0  0  0  0  0  0  0  0
    4.0674    2.6506    0.0000 H   0  0  0  0  0  0  0  0  0  0  0  0
    4.8588    2.5554    0.0000 H   0  0  0  0  0  0  0  0  0  0  0  0
    4.1720    4.0984    0.0000 H   0  0  0  0  0  0  0  0  0  0  0  0
    3.3807    4.1935    0.0000 H   0  0  0  0  0  0  0  0  0  0  0  0
    2.3478    2.8574    0.0000 H   0  0  0  0  0  0  0  0  0  0  0  0
    3.1391    2.7622    0.0000 H   0  0  0  0  0  0  0  0  0  0  0  0
    2.3719    4.3773    0.0000 H   0  0  0  0  0  0  0  0  0  0  0  0
    1.5039    4.2531    0.0000 H   0  0  0  0  0  0  0  0  0  0  0  0
    1.6281    3.3851    0.0000 H   0  0  0  0  0  0  0  0  0  0  0  0
  1 20  1  0  0  0  0
  1 23  1  0  0  0  0
 21  2  1  1  0  0  0
  2 30  1  0  0  0  0
 22  3  1  1  0  0  0
  3 32  1  0  0  0  0
 24  4  1  6  0  0  0
 25  4  1  1  0  0  0
  5 25  1  0  0  0  0
  5 34  1  0  0  0  0
  6 26  2  0  0  0  0
 27  7  1  6  0  0  0
  7 80  1  0  0  0  0
  8 32  1  0  0  0  0
  8 45  1  0  0  0  0
  9 28  2  0  0  0  0
 31 10  1  6  0  0  0
 10 84  1  0  0  0  0
 11 32  2  0  0  0  0
 12 41  2  0  0  0  0
 13 43  2  0  0  0  0
 14 42  2  0  0  0  0
 23 15  1  6  0  0  0
 15 28  1  0  0  0  0
 15 29  1  0  0  0  0
 16 28  1  0  0  0  0
 16 41  1  0  0  0  0
 16 68  1  0  0  0  0
 17 26  1  0  0  0  0
 17 73  1  0  0  0  0
 17 74  1  0  0  0  0
 33 18  1  1  0  0  0
 18 42  1  0  0  0  0
 18 78  1  0  0  0  0
 19 40  1  0  0  0  0
 19 43  1  0  0  0  0
 19 79  1  0  0  0  0
 20 21  1  0  0  0  0
 20 24  1  0  0  0  0
 20 53  1  1  0  0  0
 21 22  1  0  0  0  0
 21 54  1  0  0  0  0
 22 23  1  0  0  0  0
 22 55  1  0  0  0  0
 23 56  1  0  0  0  0
 24 26  1  0  0  0  0
 24 57  1  0  0  0  0
 25 27  1  0  0  0  0
 25 58  1  0  0  0  0
 27 31  1  0  0  0  0
 27 59  1  0  0  0  0
 29 35  2  0  0  0  0
 29 60  1  0  0  0  0
 30 61  1  0  0  0  0
 30 62  1  0  0  0  0
 30 63  1  0  0  0  0
 31 37  1  0  0  0  0
 31 64  1  0  0  0  0
 33 36  1  0  0  0  0
 33 43  1  0  0  0  0
 33 65  1  0  0  0  0
 34 37  2  0  0  0  0
 34 42  1  0  0  0  0
 35 41  1  0  0  0  0
 35 69  1  0  0  0  0
 36 38  1  0  0  0  0
 36 66  1  0  0  0  0
 36 67  1  0  0  0  0
 37 70  1  0  0  0  0
 38 39  1  0  0  0  0
 38 71  1  0  0  0  0
 38 72  1  0  0  0  0
 39 40  1  0  0  0  0
 39 75  1  0  0  0  0
 39 76  1  0  0  0  0
 40 44  1  6  0  0  0
 40 77  1  0  0  0  0
 44 81  1  0  0  0  0
 44 82  1  0  0  0  0
 44 83  1  0  0  0  0
 45 46  1  0  0  0  0
 45 85  1  0  0  0  0
 45 86  1  0  0  0  0
 46 47  1  0  0  0  0
 46 87  1  0  0  0  0
 46 88  1  0  0  0  0
 47 48  1  0  0  0  0
 47 89  1  0  0  0  0
 47 90  1  0  0  0  0
 48 49  1  0  0  0  0
 48 91  1  0  0  0  0
 48 92  1  0  0  0  0
 49 50  1  0  0  0  0
 49 93  1  0  0  0  0
 49 94  1  0  0  0  0
 50 51  1  0  0  0  0
 50 95  1  0  0  0  0
 50 96  1  0  0  0  0
 51 52  1  0  0  0  0
 51 97  1  0  0  0  0
 51 98  1  0  0  0  0
 52 99  1  0  0  0  0
 52100  1  0  0  0  0
 52101  1  0  0  0  0
M  END
> <PUBCHEM_COMPOUND_CID>
513183
> <PUBCHEM_COMPOUND_CANONICALIZED>
1
> <PUBCHEM_CACTVS_COMPLEXITY>
1380
> <PUBCHEM_CACTVS_HBOND_ACCEPTOR>
14
> <PUBCHEM_CACTVS_HBOND_DONOR>
6
> <PUBCHEM_CACTVS_ROTATABLE_BOND>
18
> <PUBCHEM_CACTVS_SUBSKEYS>
AAADcfB/vAAAAAAAAAAAAAAAAAAAASAAAAAgQAAABYAAAAAAAAAAHgAQCAAACDzxgAcDCAPABgCIACFWWAKACAAgIgAICIHIAEiTVBYAgCQ/UAAP9yKfEcP6/K7AAAAAAAAAAAAAAAAAAAAAAAAAAAAAAA==
> <PUBCHEM_IUPAC_OPENEYE_NAME>
[(2R,3R,4R,5S)-5-[(1R)-2-amino-1-[[(2S,3S,4S)-3,4-dihydroxy-6-[[(3S,7S)-7-methyl-2-oxo-azepan-3-yl]carbamoyl]-3,4-dihydro-2H-pyran-2-yl]oxy]-2-oxo-ethyl]-2-(2,4-dioxopyrimidin-1-yl)-4-methoxy-tetrahydrofuran-3-yl] octyl carbonate
> <PUBCHEM_IUPAC_CAS_NAME>
carbonic acid [(2R,3R,4R,5S)-5-[(1R)-2-amino-1-[[(2S,3S,4S)-3,4-dihydroxy-6-[[[(3S,7S)-7-methyl-2-oxo-3-azepanyl]amino]-oxomethyl]-3,4-dihydro-2H-pyran-2-yl]oxy]-2-oxoethyl]-2-(2,4-dioxo-1-pyrimidinyl)-4-methoxy-3-oxolanyl] octyl ester
> <PUBCHEM_IUPAC_NAME_MARKUP>
[(2<I>R</I>,3<I>R</I>,4<I>R</I>,5<I>S</I>)-5-[(1<I>R</I>)-2-amino-1-[[(2<I>S</I>,3<I>S</I>,4<I>S</I>)-3,4-dihydroxy-6-[[(3<I>S</I>,7<I>S</I>)-7-methyl-2-oxoazepan-3-yl]carbamoyl]-3,4-dihydro-2<I>H</I>-pyran-2-yl]oxy]-2-oxoethyl]-2-(2,4-dioxopyrimidin-1-yl)-4-methoxyoxolan-3-yl] octyl carbonate
> <PUBCHEM_IUPAC_NAME>
[(2R,3R,4R,5S)-5-[(1R)-2-amino-1-[[(2S,3S,4S)-3,4-dihydroxy-6-[[(3S,7S)-7-methyl-2-oxoazepan-3-yl]carbamoyl]-3,4-dihydro-2H-pyran-2-yl]oxy]-2-oxoethyl]-2-(2,4-dioxopyrimidin-1-yl)-4-methoxyoxolan-3-yl] octyl carbonate
> <PUBCHEM_IUPAC_SYSTEMATIC_NAME>
[(2R,3R,4R,5S)-5-[(1R)-2-azanyl-1-[[(2S,3S,4S)-6-[[(3S,7S)-7-methyl-2-oxidanylidene-azepan-3-yl]carbamoyl]-3,4-bis(oxidanyl)-3,4-dihydro-2H-pyran-2-yl]oxy]-2-oxidanylidene-ethyl]-2-[2,4-bis(oxidanylidene)pyrimidin-1-yl]-4-methoxy-oxolan-3-yl] octyl carbonate
> <PUBCHEM_IUPAC_TRADITIONAL_NAME>
carbonic acid [(2R,3R,4R,5S)-5-[(1R)-2-amino-1-[[(2S,3S,4S)-3,4-dihydroxy-6-[[(3S,7S)-2-keto-7-methyl-azepan-3-yl]carbamoyl]-3,4-dihydro-2H-pyran-2-yl]oxy]-2-keto-ethyl]-2-(2,4-diketopyrimidin-1-yl)-4-methoxy-tetrahydrofuran-3-yl] octyl ester
> <PUBCHEM_IUPAC_INCHI>
InChI=1S/C33H49N5O14/c1-4-5-6-7-8-9-15-48-33(46)52-26-23(47-3)24(50-30(26)38-14-13-21(40)37-32(38)45)25(27(34)42)51-31-22(41)19(39)16-20(49-31)29(44)36-18-12-10-11-17(2)35-28(18)43/h13-14,16-19,22-26,30-31,39,41H,4-12,15H2,1-3H3,(H2,34,42)(H,35,43)(H,36,44)(H,37,40,45)/t17-,18-,19-,22-,23+,24-,25+,26+,30+,31+/m0/s1
> <PUBCHEM_IUPAC_INCHIKEY>
YFRVYZYZXUOXJL-JJZAUXFRSA-N
> <PUBCHEM_XLOGP3_AA>
0.7
> <PUBCHEM_EXACT_MASS>
739.32760125
> <PUBCHEM_MOLECULAR_FORMULA>
C33H49N5O14
> <PUBCHEM_MOLECULAR_WEIGHT>
739.8
> <PUBCHEM_OPENEYE_CAN_SMILES>
CCCCCCCCOC(=O)OC1C(C(OC1N2C=CC(=O)NC2=O)C(C(=O)N)OC3C(C(C=C(O3)C(=O)NC4CCCC(NC4=O)C)O)O)OC
> <PUBCHEM_OPENEYE_ISO_SMILES>
CCCCCCCCOC(=O)O[C@@H]1[C@@H]([C@H](O[C@H]1N2C=CC(=O)NC2=O)[C@H](C(=O)N)O[C@@H]3[C@H]([C@H](C=C(O3)C(=O)N[C@H]4CCC[C@@H](NC4=O)C)O)O)OC
> <PUBCHEM_CACTVS_TPSA>
264
> <PUBCHEM_MONOISOTOPIC_WEIGHT>
739.32760125
> <PUBCHEM_TOTAL_CHARGE>
0
> <PUBCHEM_HEAVY_ATOM_COUNT>
52
> <PUBCHEM_ATOM_DEF_STEREO_COUNT>
10
> <PUBCHEM_ATOM_UDEF_STEREO_COUNT>
0
> <PUBCHEM_BOND_DEF_STEREO_COUNT>
0
> <PUBCHEM_BOND_UDEF_STEREO_COUNT>
0
> <PUBCHEM_ISOTOPIC_ATOM_COUNT>
0
> <PUBCHEM_COMPONENT_COUNT>
1
> <PUBCHEM_CACTVS_TAUTO_COUNT>
-1
> <PUBCHEM_COORDINATE_TYPE>
1
5
255
> <PUBCHEM_BONDANNOTATIONS>
31  10  6
23  15  6
15  28  8
15  29  8
16  28  8
16  41  8
33  18  5
21  2  5
20  53  5
29  35  8
22  3  5
35  41  8
24  4  6
25  4  5
40  44  6
27  7  6
$$$$
