513143
  -OEChem-10302200282D
 74 77  0     1  0  0  0  0  0999 V2000
    4.6870    2.1739    0.0000 O   0  0  0  0  0  0  0  0  0  0  0  0
   17.2284   -2.7495    0.0000 O   0  0  0  0  0  0  0  0  0  0  0  0
    4.1111    4.6966    0.0000 O   0  0  0  0  0  0  0  0  0  0  0  0
    2.6166    1.8990    0.0000 O   0  0  0  0  0  0  0  0  0  0  0  0
    9.1448    0.7759    0.0000 O   0  0  0  0  0  0  0  0  0  0  0  0
    5.6005    0.5806    0.0000 O   0  0  0  0  0  0  0  0  0  0  0  0
    6.4666    2.0806    0.0000 N   0  0  0  0  0  0  0  0  0  0  0  0
    7.3326    0.5806    0.0000 N   0  0  0  0  0  0  0  0  0  0  0  0
   18.7284   -3.6155    0.0000 C   0  0  0  0  0  0  0  0  0  0  0  0
   18.3217   -4.5291    0.0000 C   0  0  0  0  0  0  0  0  0  0  0  0
   19.7230   -3.7200    0.0000 C   0  0  0  0  0  0  0  0  0  0  0  0
   19.0649   -5.1982    0.0000 C   0  0  0  0  0  0  0  0  0  0  0  0
   19.9309   -4.6982    0.0000 C   0  0  0  0  0  0  0  0  0  0  0  0
   18.2284   -2.7495    0.0000 C   0  0  0  0  0  0  0  0  0  0  0  0
    4.5179    3.7831    0.0000 C   0  0  1  0  0  0  0  0  0  0  0  0
    5.6005    2.5806    0.0000 C   0  0  1  0  0  0  0  0  0  0  0  0
    5.4960    3.5752    0.0000 C   0  0  0  0  0  0  0  0  0  0  0  0
    4.0179    2.9170    0.0000 C   0  0  1  0  0  0  0  0  0  0  0  0
    3.0233    2.8125    0.0000 C   0  0  0  0  0  0  0  0  0  0  0  0
   16.7284   -1.8835    0.0000 C   0  0  0  0  0  0  0  0  0  0  0  0
   15.7284   -1.8835    0.0000 C   0  0  0  0  0  0  0  0  0  0  0  0
   15.2284   -1.0174    0.0000 C   0  0  0  0  0  0  0  0  0  0  0  0
   14.2284   -1.0174    0.0000 C   0  0  0  0  0  0  0  0  0  0  0  0
    7.3326    2.5806    0.0000 C   0  0  0  0  0  0  0  0  0  0  0  0
   13.7284   -0.1514    0.0000 C   0  0  0  0  0  0  0  0  0  0  0  0
   12.7284   -0.1514    0.0000 C   0  0  0  0  0  0  0  0  0  0  0  0
   12.2284    0.7146    0.0000 C   0  0  0  0  0  0  0  0  0  0  0  0
    8.1986    2.0806    0.0000 C   0  0  0  0  0  0  0  0  0  0  0  0
    6.4666    1.0806    0.0000 C   0  0  0  0  0  0  0  0  0  0  0  0
   11.2284    0.7146    0.0000 C   0  0  0  0  0  0  0  0  0  0  0  0
   10.7284    1.5806    0.0000 C   0  0  0  0  0  0  0  0  0  0  0  0
    8.1986    1.0806    0.0000 C   0  0  0  0  0  0  0  0  0  0  0  0
    9.7284    1.5806    0.0000 C   0  0  0  0  0  0  0  0  0  0  0  0
    9.1448    2.3854    0.0000 C   0  0  0  0  0  0  0  0  0  0  0  0
   19.0661   -3.0955    0.0000 H   0  0  0  0  0  0  0  0  0  0  0  0
   17.7848   -4.2191    0.0000 H   0  0  0  0  0  0  0  0  0  0  0  0
   17.9573   -5.0307    0.0000 H   0  0  0  0  0  0  0  0  0  0  0  0
   20.3396   -3.6552    0.0000 H   0  0  0  0  0  0  0  0  0  0  0  0
   19.7230   -3.1000    0.0000 H   0  0  0  0  0  0  0  0  0  0  0  0
   18.6041   -5.6131    0.0000 H   0  0  0  0  0  0  0  0  0  0  0  0
   19.4293   -5.6998    0.0000 H   0  0  0  0  0  0  0  0  0  0  0  0
   20.1831   -5.2646    0.0000 H   0  0  0  0  0  0  0  0  0  0  0  0
   20.5205   -4.5066    0.0000 H   0  0  0  0  0  0  0  0  0  0  0  0
   18.8111   -2.5375    0.0000 H   0  0  0  0  0  0  0  0  0  0  0  0
   18.1208   -2.1389    0.0000 H   0  0  0  0  0  0  0  0  0  0  0  0
    4.9080    4.2649    0.0000 H   0  0  0  0  0  0  0  0  0  0  0  0
    5.5681    1.9615    0.0000 H   0  0  0  0  0  0  0  0  0  0  0  0
    6.1160    3.5752    0.0000 H   0  0  0  0  0  0  0  0  0  0  0  0
    5.5608    4.1918    0.0000 H   0  0  0  0  0  0  0  0  0  0  0  0
    3.7957    2.3382    0.0000 H   0  0  0  0  0  0  0  0  0  0  0  0
    3.0666    3.4310    0.0000 H   0  0  0  0  0  0  0  0  0  0  0  0
    2.4218    2.9625    0.0000 H   0  0  0  0  0  0  0  0  0  0  0  0
   17.3111   -1.6714    0.0000 H   0  0  0  0  0  0  0  0  0  0  0  0
   16.6208   -1.2729    0.0000 H   0  0  0  0  0  0  0  0  0  0  0  0
   15.1458   -2.0955    0.0000 H   0  0  0  0  0  0  0  0  0  0  0  0
   15.8361   -2.4940    0.0000 H   0  0  0  0  0  0  0  0  0  0  0  0
   15.8111   -0.8054    0.0000 H   0  0  0  0  0  0  0  0  0  0  0  0
   15.1208   -0.4069    0.0000 H   0  0  0  0  0  0  0  0  0  0  0  0
   13.6458   -1.2295    0.0000 H   0  0  0  0  0  0  0  0  0  0  0  0
   14.3361   -1.6280    0.0000 H   0  0  0  0  0  0  0  0  0  0  0  0
    7.3326    3.2006    0.0000 H   0  0  0  0  0  0  0  0  0  0  0  0
   14.3111    0.0606    0.0000 H   0  0  0  0  0  0  0  0  0  0  0  0
   13.6208    0.4592    0.0000 H   0  0  0  0  0  0  0  0  0  0  0  0
    4.4756    5.1982    0.0000 H   0  0  0  0  0  0  0  0  0  0  0  0
   12.1458   -0.3635    0.0000 H   0  0  0  0  0  0  0  0  0  0  0  0
   12.8361   -0.7620    0.0000 H   0  0  0  0  0  0  0  0  0  0  0  0
   12.8111    0.9267    0.0000 H   0  0  0  0  0  0  0  0  0  0  0  0
   12.1208    1.3252    0.0000 H   0  0  0  0  0  0  0  0  0  0  0  0
   10.6458    0.5026    0.0000 H   0  0  0  0  0  0  0  0  0  0  0  0
   11.3361    0.1040    0.0000 H   0  0  0  0  0  0  0  0  0  0  0  0
   11.3111    1.7927    0.0000 H   0  0  0  0  0  0  0  0  0  0  0  0
   10.6208    2.1912    0.0000 H   0  0  0  0  0  0  0  0  0  0  0  0
    9.3374    2.9747    0.0000 H   0  0  0  0  0  0  0  0  0  0  0  0
    2.0000    1.8342    0.0000 H   0  0  0  0  0  0  0  0  0  0  0  0
  1 16  1  0  0  0  0
  1 18  1  0  0  0  0
  2 14  1  0  0  0  0
  2 20  1  0  0  0  0
 15  3  1  1  0  0  0
  3 64  1  0  0  0  0
  4 19  1  0  0  0  0
  4 74  1  0  0  0  0
  5 32  1  0  0  0  0
  5 33  1  0  0  0  0
  6 29  2  0  0  0  0
 16  7  1  6  0  0  0
  7 24  1  0  0  0  0
  7 29  1  0  0  0  0
  8 29  1  0  0  0  0
  8 32  2  0  0  0  0
  9 10  1  0  0  0  0
  9 11  1  0  0  0  0
  9 14  1  0  0  0  0
  9 35  1  0  0  0  0
 10 12  1  0  0  0  0
 10 36  1  0  0  0  0
 10 37  1  0  0  0  0
 11 13  1  0  0  0  0
 11 38  1  0  0  0  0
 11 39  1  0  0  0  0
 12 13  1  0  0  0  0
 12 40  1  0  0  0  0
 12 41  1  0  0  0  0
 13 42  1  0  0  0  0
 13 43  1  0  0  0  0
 14 44  1  0  0  0  0
 14 45  1  0  0  0  0
 15 17  1  0  0  0  0
 15 18  1  0  0  0  0
 15 46  1  0  0  0  0
 16 17  1  0  0  0  0
 16 47  1  0  0  0  0
 17 48  1  0  0  0  0
 17 49  1  0  0  0  0
 18 19  1  6  0  0  0
 18 50  1  0  0  0  0
 19 51  1  0  0  0  0
 19 52  1  0  0  0  0
 20 21  1  0  0  0  0
 20 53  1  0  0  0  0
 20 54  1  0  0  0  0
 21 22  1  0  0  0  0
 21 55  1  0  0  0  0
 21 56  1  0  0  0  0
 22 23  1  0  0  0  0
 22 57  1  0  0  0  0
 22 58  1  0  0  0  0
 23 25  1  0  0  0  0
 23 59  1  0  0  0  0
 23 60  1  0  0  0  0
 24 28  2  0  0  0  0
 24 61  1  0  0  0  0
 25 26  1  0  0  0  0
 25 62  1  0  0  0  0
 25 63  1  0  0  0  0
 26 27  1  0  0  0  0
 26 65  1  0  0  0  0
 26 66  1  0  0  0  0
 27 30  1  0  0  0  0
 27 67  1  0  0  0  0
 27 68  1  0  0  0  0
 28 32  1  0  0  0  0
 28 34  1  0  0  0  0
 30 31  1  0  0  0  0
 30 69  1  0  0  0  0
 30 70  1  0  0  0  0
 31 33  1  0  0  0  0
 31 71  1  0  0  0  0
 31 72  1  0  0  0  0
 33 34  2  0  0  0  0
 34 73  1  0  0  0  0
M  END
> <PUBCHEM_COMPOUND_CID>
513143
> <PUBCHEM_COMPOUND_CANONICALIZED>
1
> <PUBCHEM_CACTVS_COMPLEXITY>
773
> <PUBCHEM_CACTVS_HBOND_ACCEPTOR>
6
> <PUBCHEM_CACTVS_HBOND_DONOR>
2
> <PUBCHEM_CACTVS_ROTATABLE_BOND>
14
> <PUBCHEM_CACTVS_SUBSKEYS>
AAADcfB7OAAAAAAAAAAAAAAAAAAAAaIEAAAgAAAAAAAAAEAAAAAAHgAACAAADRThgAYBAAMABgCoAiBmVAAACAAgIAAACAAoABiJFAIAoQAOQAAHxgILoAOw8KIOAAAAAAAAAAAAAAAAAAAAAAAAAAAAAA==
> <PUBCHEM_IUPAC_OPENEYE_NAME>
6-[9-(cyclopentylmethoxy)nonyl]-3-[(2R,4S,5R)-4-hydroxy-5-(hydroxymethyl)tetrahydrofuran-2-yl]furo[2,3-d]pyrimidin-2-one
> <PUBCHEM_IUPAC_CAS_NAME>
6-[9-(cyclopentylmethoxy)nonyl]-3-[(2R,4S,5R)-4-hydroxy-5-(hydroxymethyl)-2-oxolanyl]-2-furo[2,3-d]pyrimidinone
> <PUBCHEM_IUPAC_NAME_MARKUP>
6-[9-(cyclopentylmethoxy)nonyl]-3-[(2<I>R</I>,4<I>S</I>,5<I>R</I>)-4-hydroxy-5-(hydroxymethyl)oxolan-2-yl]furo[2,3-d]pyrimidin-2-one
> <PUBCHEM_IUPAC_NAME>
6-[9-(cyclopentylmethoxy)nonyl]-3-[(2R,4S,5R)-4-hydroxy-5-(hydroxymethyl)oxolan-2-yl]furo[2,3-d]pyrimidin-2-one
> <PUBCHEM_IUPAC_SYSTEMATIC_NAME>
6-[9-(cyclopentylmethoxy)nonyl]-3-[(2R,4S,5R)-5-(hydroxymethyl)-4-oxidanyl-oxolan-2-yl]furo[2,3-d]pyrimidin-2-one
> <PUBCHEM_IUPAC_TRADITIONAL_NAME>
6-[9-(cyclopentylmethoxy)nonyl]-3-[(2R,4S,5R)-4-hydroxy-5-methylol-tetrahydrofuran-2-yl]furo[2,3-d]pyrimidin-2-one
> <PUBCHEM_IUPAC_INCHI>
InChI=1S/C26H40N2O6/c29-17-23-22(30)15-24(34-23)28-16-20-14-21(33-25(20)27-26(28)31)12-6-4-2-1-3-5-9-13-32-18-19-10-7-8-11-19/h14,16,19,22-24,29-30H,1-13,15,17-18H2/t22-,23+,24+/m0/s1
> <PUBCHEM_IUPAC_INCHIKEY>
MNKOMFRXWAQJKH-RBZQAINGSA-N
> <PUBCHEM_XLOGP3_AA>
4.7
> <PUBCHEM_EXACT_MASS>
476.28863700
> <PUBCHEM_MOLECULAR_FORMULA>
C26H40N2O6
> <PUBCHEM_MOLECULAR_WEIGHT>
476.6
> <PUBCHEM_OPENEYE_CAN_SMILES>
C1CCC(C1)COCCCCCCCCCC2=CC3=CN(C(=O)N=C3O2)C4CC(C(O4)CO)O
> <PUBCHEM_OPENEYE_ISO_SMILES>
C1CCC(C1)COCCCCCCCCCC2=CC3=CN(C(=O)N=C3O2)[C@H]4C[C@@H]([C@H](O4)CO)O
> <PUBCHEM_CACTVS_TPSA>
101
> <PUBCHEM_MONOISOTOPIC_WEIGHT>
476.28863700
> <PUBCHEM_TOTAL_CHARGE>
0
> <PUBCHEM_HEAVY_ATOM_COUNT>
34
> <PUBCHEM_ATOM_DEF_STEREO_COUNT>
3
> <PUBCHEM_ATOM_UDEF_STEREO_COUNT>
0
> <PUBCHEM_BOND_DEF_STEREO_COUNT>
0
> <PUBCHEM_BOND_UDEF_STEREO_COUNT>
0
> <PUBCHEM_ISOTOPIC_ATOM_COUNT>
0
> <PUBCHEM_COMPONENT_COUNT>
1
> <PUBCHEM_CACTVS_TAUTO_COUNT>
-1
> <PUBCHEM_COORDINATE_TYPE>
1
5
255
> <PUBCHEM_BONDANNOTATIONS>
18  19  6
24  28  8
28  32  8
28  34  8
15  3  5
33  34  8
5  32  8
5  33  8
16  7  6
7  24  8
7  29  8
8  29  8
8  32  8
$$$$
