513177
  -OEChem-10302200282D
109112  0     1  0  0  0  0  0999 V2000
   14.6493    1.7244    0.0000 O   0  0  0  0  0  0  0  0  0  0  0  0
   12.2854    0.6719    0.0000 O   0  0  0  0  0  0  0  0  0  0  0  0
   12.3180    2.8472    0.0000 O   0  0  0  0  0  0  0  0  0  0  0  0
   13.6641   -0.7643    0.0000 O   0  0  0  0  0  0  0  0  0  0  0  0
   14.9337   -1.9424    0.0000 O   0  0  0  0  0  0  0  0  0  0  0  0
   15.6139   -1.2094    0.0000 O   0  0  0  0  0  0  0  0  0  0  0  0
   12.3037   -2.2304    0.0000 O   0  0  0  0  0  0  0  0  0  0  0  0
   16.0360    2.9286    0.0000 O   0  0  0  0  0  0  0  0  0  0  0  0
   11.2790    1.4613    0.0000 O   0  0  0  0  0  0  0  0  0  0  0  0
   12.8932   -4.1416    0.0000 O   0  0  0  0  0  0  0  0  0  0  0  0
   15.3665    6.3274    0.0000 O   0  0  0  0  0  0  0  0  0  0  0  0
   16.8836   -2.3875    0.0000 O   0  0  0  0  0  0  0  0  0  0  0  0
   16.9138   -5.8970    0.0000 O   0  0  0  0  0  0  0  0  0  0  0  0
   14.3969    3.4885    0.0000 N   0  0  0  0  0  0  0  0  0  0  0  0
   15.7012    4.6280    0.0000 N   0  0  0  0  0  0  0  0  0  0  0  0
   15.9993    0.4792    0.0000 N   0  0  0  0  0  0  0  0  0  0  0  0
   16.4982   -4.0761    0.0000 N   0  0  0  0  0  0  0  0  0  0  0  0
   18.5966   -5.7074    0.0000 N   0  0  0  0  0  0  0  0  0  0  0  0
   13.1031    1.2475    0.0000 C   0  0  2  0  0  0  0  0  0  0  0  0
   14.0495    0.9243    0.0000 C   0  0  1  0  0  0  0  0  0  0  0  0
   13.1181    2.2474    0.0000 C   0  0  2  0  0  0  0  0  0  0  0  0
   14.0737    2.5421    0.0000 C   0  0  1  0  0  0  0  0  0  0  0  0
   14.3442   -0.0313    0.0000 C   0  0  2  0  0  0  0  0  0  0  0  0
   15.3192   -0.2538    0.0000 C   0  0  0  0  0  0  0  0  0  0  0  0
   13.9588   -1.7199    0.0000 C   0  0  1  0  0  0  0  0  0  0  0  0
   13.2786   -2.4530    0.0000 C   0  0  2  0  0  0  0  0  0  0  0  0
   15.3780    3.6817    0.0000 C   0  0  0  0  0  0  0  0  0  0  0  0
   13.7389    4.2415    0.0000 C   0  0  0  0  0  0  0  0  0  0  0  0
   11.3984    2.4542    0.0000 C   0  0  0  0  0  0  0  0  0  0  0  0
   12.3751   -0.3241    0.0000 C   0  0  0  0  0  0  0  0  0  0  0  0
   13.5734   -3.4085    0.0000 C   0  0  2  0  0  0  0  0  0  0  0  0
   10.5983    3.0540    0.0000 C   0  0  0  0  0  0  0  0  0  0  0  0
   14.0622    5.1879    0.0000 C   0  0  0  0  0  0  0  0  0  0  0  0
    9.6788    2.6610    0.0000 C   0  0  0  0  0  0  0  0  0  0  0  0
   15.2285   -2.8980    0.0000 C   0  0  0  0  0  0  0  0  0  0  0  0
   14.5483   -3.6311    0.0000 C   0  0  0  0  0  0  0  0  0  0  0  0
   17.4731   -4.2986    0.0000 C   0  0  1  0  0  0  0  0  0  0  0  0
   18.0966   -3.5168    0.0000 C   0  0  0  0  0  0  0  0  0  0  0  0
   19.0966   -3.5168    0.0000 C   0  0  0  0  0  0  0  0  0  0  0  0
   15.0433    5.3811    0.0000 C   0  0  0  0  0  0  0  0  0  0  0  0
   19.7201   -4.2986    0.0000 C   0  0  0  0  0  0  0  0  0  0  0  0
    8.8786    3.2608    0.0000 C   0  0  0  0  0  0  0  0  0  0  0  0
   19.4976   -5.2736    0.0000 C   0  0  2  0  0  0  0  0  0  0  0  0
    7.9591    2.8678    0.0000 C   0  0  0  0  0  0  0  0  0  0  0  0
   16.2034   -3.1205    0.0000 C   0  0  0  0  0  0  0  0  0  0  0  0
   17.6956   -5.2736    0.0000 C   0  0  0  0  0  0  0  0  0  0  0  0
    7.1590    3.4676    0.0000 C   0  0  0  0  0  0  0  0  0  0  0  0
    6.2395    3.0746    0.0000 C   0  0  0  0  0  0  0  0  0  0  0  0
   20.2794   -5.8970    0.0000 C   0  0  0  0  0  0  0  0  0  0  0  0
    5.4393    3.6744    0.0000 C   0  0  0  0  0  0  0  0  0  0  0  0
    4.5198    3.2814    0.0000 C   0  0  0  0  0  0  0  0  0  0  0  0
    3.7197    3.8812    0.0000 C   0  0  0  0  0  0  0  0  0  0  0  0
    2.8001    3.4882    0.0000 C   0  0  0  0  0  0  0  0  0  0  0  0
    2.0000    4.0880    0.0000 C   0  0  0  0  0  0  0  0  0  0  0  0
   13.1910    0.6337    0.0000 H   0  0  0  0  0  0  0  0  0  0  0  0
   14.8869    0.7788    0.0000 H   0  0  0  0  0  0  0  0  0  0  0  0
   12.5615    1.9742    0.0000 H   0  0  0  0  0  0  0  0  0  0  0  0
   14.6874    2.6300    0.0000 H   0  0  0  0  0  0  0  0  0  0  0  0
   14.5270   -0.6238    0.0000 H   0  0  0  0  0  0  0  0  0  0  0  0
   13.3544   -1.5820    0.0000 H   0  0  0  0  0  0  0  0  0  0  0  0
   13.0959   -1.8605    0.0000 H   0  0  0  0  0  0  0  0  0  0  0  0
   13.1306    4.1217    0.0000 H   0  0  0  0  0  0  0  0  0  0  0  0
   11.7576   -0.3797    0.0000 H   0  0  0  0  0  0  0  0  0  0  0  0
   12.4306   -0.9416    0.0000 H   0  0  0  0  0  0  0  0  0  0  0  0
   12.9926   -0.2685    0.0000 H   0  0  0  0  0  0  0  0  0  0  0  0
   12.9689   -3.2706    0.0000 H   0  0  0  0  0  0  0  0  0  0  0  0
   11.0507    3.4780    0.0000 H   0  0  0  0  0  0  0  0  0  0  0  0
   10.2593    3.5731    0.0000 H   0  0  0  0  0  0  0  0  0  0  0  0
   16.3096    4.7479    0.0000 H   0  0  0  0  0  0  0  0  0  0  0  0
   13.6542    5.6548    0.0000 H   0  0  0  0  0  0  0  0  0  0  0  0
    9.2264    2.2370    0.0000 H   0  0  0  0  0  0  0  0  0  0  0  0
   10.0177    2.1418    0.0000 H   0  0  0  0  0  0  0  0  0  0  0  0
   16.6038    0.3413    0.0000 H   0  0  0  0  0  0  0  0  0  0  0  0
   15.8166    1.0717    0.0000 H   0  0  0  0  0  0  0  0  0  0  0  0
   14.7311   -4.2235    0.0000 H   0  0  0  0  0  0  0  0  0  0  0  0
   17.0347   -4.7370    0.0000 H   0  0  0  0  0  0  0  0  0  0  0  0
   18.2346   -2.9123    0.0000 H   0  0  0  0  0  0  0  0  0  0  0  0
   17.5380   -3.2478    0.0000 H   0  0  0  0  0  0  0  0  0  0  0  0
   19.6552   -3.2478    0.0000 H   0  0  0  0  0  0  0  0  0  0  0  0
   18.9586   -2.9123    0.0000 H   0  0  0  0  0  0  0  0  0  0  0  0
   20.2787   -4.5676    0.0000 H   0  0  0  0  0  0  0  0  0  0  0  0
   20.1066   -3.8139    0.0000 H   0  0  0  0  0  0  0  0  0  0  0  0
    9.3310    3.6848    0.0000 H   0  0  0  0  0  0  0  0  0  0  0  0
    8.5397    3.7799    0.0000 H   0  0  0  0  0  0  0  0  0  0  0  0
   19.4281   -5.8897    0.0000 H   0  0  0  0  0  0  0  0  0  0  0  0
    7.5067    2.4438    0.0000 H   0  0  0  0  0  0  0  0  0  0  0  0
    8.2981    2.3486    0.0000 H   0  0  0  0  0  0  0  0  0  0  0  0
   11.8820   -2.6849    0.0000 H   0  0  0  0  0  0  0  0  0  0  0  0
   16.0765   -4.5306    0.0000 H   0  0  0  0  0  0  0  0  0  0  0  0
   18.5966   -6.3274    0.0000 H   0  0  0  0  0  0  0  0  0  0  0  0
    7.6114    3.8916    0.0000 H   0  0  0  0  0  0  0  0  0  0  0  0
    6.8200    3.9867    0.0000 H   0  0  0  0  0  0  0  0  0  0  0  0
   13.0760   -4.7340    0.0000 H   0  0  0  0  0  0  0  0  0  0  0  0
    5.7871    2.6506    0.0000 H   0  0  0  0  0  0  0  0  0  0  0  0
    6.5784    2.5554    0.0000 H   0  0  0  0  0  0  0  0  0  0  0  0
   19.8928   -6.3818    0.0000 H   0  0  0  0  0  0  0  0  0  0  0  0
   20.7641   -6.2836    0.0000 H   0  0  0  0  0  0  0  0  0  0  0  0
   20.6660   -5.4123    0.0000 H   0  0  0  0  0  0  0  0  0  0  0  0
    5.8917    4.0984    0.0000 H   0  0  0  0  0  0  0  0  0  0  0  0
    5.1004    4.1935    0.0000 H   0  0  0  0  0  0  0  0  0  0  0  0
    4.0674    2.8574    0.0000 H   0  0  0  0  0  0  0  0  0  0  0  0
    4.8588    2.7622    0.0000 H   0  0  0  0  0  0  0  0  0  0  0  0
    4.1720    4.3052    0.0000 H   0  0  0  0  0  0  0  0  0  0  0  0
    3.3807    4.4003    0.0000 H   0  0  0  0  0  0  0  0  0  0  0  0
    2.3478    3.0642    0.0000 H   0  0  0  0  0  0  0  0  0  0  0  0
    3.1391    2.9690    0.0000 H   0  0  0  0  0  0  0  0  0  0  0  0
    2.3719    4.5841    0.0000 H   0  0  0  0  0  0  0  0  0  0  0  0
    1.5039    4.4599    0.0000 H   0  0  0  0  0  0  0  0  0  0  0  0
    1.6281    3.5919    0.0000 H   0  0  0  0  0  0  0  0  0  0  0  0
  1 20  1  0  0  0  0
  1 22  1  0  0  0  0
 19  2  1  1  0  0  0
  2 30  1  0  0  0  0
 21  3  1  1  0  0  0
  3 29  1  0  0  0  0
 23  4  1  6  0  0  0
 25  4  1  1  0  0  0
  5 25  1  0  0  0  0
  5 35  1  0  0  0  0
  6 24  2  0  0  0  0
 26  7  1  6  0  0  0
  7 88  1  0  0  0  0
  8 27  2  0  0  0  0
  9 29  2  0  0  0  0
 31 10  1  6  0  0  0
 10 93  1  0  0  0  0
 11 40  2  0  0  0  0
 12 45  2  0  0  0  0
 13 46  2  0  0  0  0
 22 14  1  6  0  0  0
 14 27  1  0  0  0  0
 14 28  1  0  0  0  0
 15 27  1  0  0  0  0
 15 40  1  0  0  0  0
 15 69  1  0  0  0  0
 16 24  1  0  0  0  0
 16 73  1  0  0  0  0
 16 74  1  0  0  0  0
 37 17  1  1  0  0  0
 17 45  1  0  0  0  0
 17 89  1  0  0  0  0
 18 43  1  0  0  0  0
 18 46  1  0  0  0  0
 18 90  1  0  0  0  0
 19 20  1  0  0  0  0
 19 21  1  0  0  0  0
 19 55  1  0  0  0  0
 20 23  1  0  0  0  0
 20 56  1  1  0  0  0
 21 22  1  0  0  0  0
 21 57  1  0  0  0  0
 22 58  1  0  0  0  0
 23 24  1  0  0  0  0
 23 59  1  0  0  0  0
 25 26  1  0  0  0  0
 25 60  1  0  0  0  0
 26 31  1  0  0  0  0
 26 61  1  0  0  0  0
 28 33  2  0  0  0  0
 28 62  1  0  0  0  0
 29 32  1  0  0  0  0
 30 63  1  0  0  0  0
 30 64  1  0  0  0  0
 30 65  1  0  0  0  0
 31 36  1  0  0  0  0
 31 66  1  0  0  0  0
 32 34  1  0  0  0  0
 32 67  1  0  0  0  0
 32 68  1  0  0  0  0
 33 40  1  0  0  0  0
 33 70  1  0  0  0  0
 34 42  1  0  0  0  0
 34 71  1  0  0  0  0
 34 72  1  0  0  0  0
 35 36  2  0  0  0  0
 35 45  1  0  0  0  0
 36 75  1  0  0  0  0
 37 38  1  0  0  0  0
 37 46  1  0  0  0  0
 37 76  1  0  0  0  0
 38 39  1  0  0  0  0
 38 77  1  0  0  0  0
 38 78  1  0  0  0  0
 39 41  1  0  0  0  0
 39 79  1  0  0  0  0
 39 80  1  0  0  0  0
 41 43  1  0  0  0  0
 41 81  1  0  0  0  0
 41 82  1  0  0  0  0
 42 44  1  0  0  0  0
 42 83  1  0  0  0  0
 42 84  1  0  0  0  0
 43 49  1  6  0  0  0
 43 85  1  0  0  0  0
 44 47  1  0  0  0  0
 44 86  1  0  0  0  0
 44 87  1  0  0  0  0
 47 48  1  0  0  0  0
 47 91  1  0  0  0  0
 47 92  1  0  0  0  0
 48 50  1  0  0  0  0
 48 94  1  0  0  0  0
 48 95  1  0  0  0  0
 49 96  1  0  0  0  0
 49 97  1  0  0  0  0
 49 98  1  0  0  0  0
 50 51  1  0  0  0  0
 50 99  1  0  0  0  0
 50100  1  0  0  0  0
 51 52  1  0  0  0  0
 51101  1  0  0  0  0
 51102  1  0  0  0  0
 52 53  1  0  0  0  0
 52103  1  0  0  0  0
 52104  1  0  0  0  0
 53 54  1  0  0  0  0
 53105  1  0  0  0  0
 53106  1  0  0  0  0
 54107  1  0  0  0  0
 54108  1  0  0  0  0
 54109  1  0  0  0  0
M  END
> <PUBCHEM_COMPOUND_CID>
513177
> <PUBCHEM_COMPOUND_CANONICALIZED>
1
> <PUBCHEM_CACTVS_COMPLEXITY>
1410
> <PUBCHEM_CACTVS_HBOND_ACCEPTOR>
13
> <PUBCHEM_CACTVS_HBOND_DONOR>
6
> <PUBCHEM_CACTVS_ROTATABLE_BOND>
20
> <PUBCHEM_CACTVS_SUBSKEYS>
AAADcfB/vAAAAAAAAAAAAAAAAAAAASAAAAAgQAAABYAAAAAAAAAAHgAQCAAACDzxgAcDCAPABgCIACHWWAKACAAgIgAICIHIAEiTVBYAgCQ/UAAP9yKfEcP6/K7AAAAAAAAAAAAAAAAAAAAAAAAAAAAAAA==
> <PUBCHEM_IUPAC_OPENEYE_NAME>
[(2R,3R,4R,5S)-5-[(1R)-2-amino-1-[[(2S,3S,4S)-3,4-dihydroxy-6-[[(3S,7S)-7-methyl-2-oxo-azepan-3-yl]carbamoyl]-3,4-dihydro-2H-pyran-2-yl]oxy]-2-oxo-ethyl]-2-(2,4-dioxopyrimidin-1-yl)-4-methoxy-tetrahydrofuran-3-yl] dodecanoate
> <PUBCHEM_IUPAC_CAS_NAME>
dodecanoic acid [(2R,3R,4R,5S)-5-[(1R)-2-amino-1-[[(2S,3S,4S)-3,4-dihydroxy-6-[[[(3S,7S)-7-methyl-2-oxo-3-azepanyl]amino]-oxomethyl]-3,4-dihydro-2H-pyran-2-yl]oxy]-2-oxoethyl]-2-(2,4-dioxo-1-pyrimidinyl)-4-methoxy-3-oxolanyl] ester
> <PUBCHEM_IUPAC_NAME_MARKUP>
[(2<I>R</I>,3<I>R</I>,4<I>R</I>,5<I>S</I>)-5-[(1<I>R</I>)-2-amino-1-[[(2<I>S</I>,3<I>S</I>,4<I>S</I>)-3,4-dihydroxy-6-[[(3<I>S</I>,7<I>S</I>)-7-methyl-2-oxoazepan-3-yl]carbamoyl]-3,4-dihydro-2<I>H</I>-pyran-2-yl]oxy]-2-oxoethyl]-2-(2,4-dioxopyrimidin-1-yl)-4-methoxyoxolan-3-yl] dodecanoate
> <PUBCHEM_IUPAC_NAME>
[(2R,3R,4R,5S)-5-[(1R)-2-amino-1-[[(2S,3S,4S)-3,4-dihydroxy-6-[[(3S,7S)-7-methyl-2-oxoazepan-3-yl]carbamoyl]-3,4-dihydro-2H-pyran-2-yl]oxy]-2-oxoethyl]-2-(2,4-dioxopyrimidin-1-yl)-4-methoxyoxolan-3-yl] dodecanoate
> <PUBCHEM_IUPAC_SYSTEMATIC_NAME>
[(2R,3R,4R,5S)-5-[(1R)-2-azanyl-1-[[(2S,3S,4S)-6-[[(3S,7S)-7-methyl-2-oxidanylidene-azepan-3-yl]carbamoyl]-3,4-bis(oxidanyl)-3,4-dihydro-2H-pyran-2-yl]oxy]-2-oxidanylidene-ethyl]-2-[2,4-bis(oxidanylidene)pyrimidin-1-yl]-4-methoxy-oxolan-3-yl] dodecanoate
> <PUBCHEM_IUPAC_TRADITIONAL_NAME>
lauric acid [(2R,3R,4R,5S)-5-[(1R)-2-amino-1-[[(2S,3S,4S)-3,4-dihydroxy-6-[[(3S,7S)-2-keto-7-methyl-azepan-3-yl]carbamoyl]-3,4-dihydro-2H-pyran-2-yl]oxy]-2-keto-ethyl]-2-(2,4-diketopyrimidin-1-yl)-4-methoxy-tetrahydrofuran-3-yl] ester
> <PUBCHEM_IUPAC_INCHI>
InChI=1S/C36H55N5O13/c1-4-5-6-7-8-9-10-11-12-16-25(44)52-30-27(50-3)28(53-34(30)41-18-17-24(43)40-36(41)49)29(31(37)46)54-35-26(45)22(42)19-23(51-35)33(48)39-21-15-13-14-20(2)38-32(21)47/h17-22,26-30,34-35,42,45H,4-16H2,1-3H3,(H2,37,46)(H,38,47)(H,39,48)(H,40,43,49)/t20-,21-,22-,26-,27+,28-,29+,30+,34+,35+/m0/s1
> <PUBCHEM_IUPAC_INCHIKEY>
HUGRTNHITJQNAB-FBNKPQRPSA-N
> <PUBCHEM_XLOGP3_AA>
2.1
> <PUBCHEM_EXACT_MASS>
765.37963683
> <PUBCHEM_MOLECULAR_FORMULA>
C36H55N5O13
> <PUBCHEM_MOLECULAR_WEIGHT>
765.8
> <PUBCHEM_OPENEYE_CAN_SMILES>
CCCCCCCCCCCC(=O)OC1C(C(OC1N2C=CC(=O)NC2=O)C(C(=O)N)OC3C(C(C=C(O3)C(=O)NC4CCCC(NC4=O)C)O)O)OC
> <PUBCHEM_OPENEYE_ISO_SMILES>
CCCCCCCCCCCC(=O)O[C@@H]1[C@@H]([C@H](O[C@H]1N2C=CC(=O)NC2=O)[C@H](C(=O)N)O[C@@H]3[C@H]([C@H](C=C(O3)C(=O)N[C@H]4CCC[C@@H](NC4=O)C)O)O)OC
> <PUBCHEM_CACTVS_TPSA>
254
> <PUBCHEM_MONOISOTOPIC_WEIGHT>
765.37963683
> <PUBCHEM_TOTAL_CHARGE>
0
> <PUBCHEM_HEAVY_ATOM_COUNT>
54
> <PUBCHEM_ATOM_DEF_STEREO_COUNT>
10
> <PUBCHEM_ATOM_UDEF_STEREO_COUNT>
0
> <PUBCHEM_BOND_DEF_STEREO_COUNT>
0
> <PUBCHEM_BOND_UDEF_STEREO_COUNT>
0
> <PUBCHEM_ISOTOPIC_ATOM_COUNT>
0
> <PUBCHEM_COMPONENT_COUNT>
1
> <PUBCHEM_CACTVS_TAUTO_COUNT>
-1
> <PUBCHEM_COORDINATE_TYPE>
1
5
255
> <PUBCHEM_BONDANNOTATIONS>
31  10  6
22  14  6
14  27  8
14  28  8
15  27  8
15  40  8
37  17  5
19  2  5
20  56  5
28  33  8
21  3  5
33  40  8
23  4  6
25  4  5
43  49  6
26  7  6
$$$$
