513155
  -OEChem-10302200282D
 71 74  0     1  0  0  0  0  0999 V2000
   11.9644   -0.2306    0.0000 O   0  0  0  0  0  0  0  0  0  0  0  0
   12.2867    1.7339    0.0000 O   0  0  0  0  0  0  0  0  0  0  0  0
    8.2172   -1.6413    0.0000 O   0  0  0  0  0  0  0  0  0  0  0  0
    4.8291   -0.4083    0.0000 O   0  0  0  0  0  0  0  0  0  0  0  0
    2.2512   -1.0038    0.0000 O   0  0  0  0  0  0  0  0  0  0  0  0
   10.7044    1.0294    0.0000 N   0  0  0  0  0  0  0  0  0  0  0  0
    8.4013    0.0810    0.0000 N   0  0  0  0  0  0  0  0  0  0  0  0
    6.2286   -1.4288    0.0000 N   0  0  0  0  0  0  0  0  0  0  0  0
    4.6450   -2.1305    0.0000 N   0  0  0  0  0  0  0  0  0  0  0  0
   10.2044   -0.5094    0.0000 C   0  0  0  0  0  0  0  0  0  0  0  0
    9.3953    0.0784    0.0000 C   0  0  2  0  0  0  0  0  0  0  0  0
    9.7044    1.0294    0.0000 C   0  0  2  0  0  0  0  0  0  0  0  0
   10.9115   -1.2165    0.0000 C   0  0  0  0  0  0  0  0  0  0  0  0
    9.4972   -1.2165    0.0000 C   0  0  0  0  0  0  0  0  0  0  0  0
   10.2044   -1.9236    0.0000 C   0  0  0  0  0  0  0  0  0  0  0  0
   11.0134    0.0784    0.0000 C   0  0  0  0  0  0  0  0  0  0  0  0
    8.8986    1.6117    0.0000 C   0  0  0  0  0  0  0  0  0  0  0  0
    8.0949    1.0267    0.0000 C   0  0  0  0  0  0  0  0  0  0  0  0
   11.2921    1.8385    0.0000 C   0  0  0  0  0  0  0  0  0  0  0  0
   10.8854    2.7520    0.0000 C   0  0  0  0  0  0  0  0  0  0  0  0
    7.8121   -0.7270    0.0000 C   0  0  0  0  0  0  0  0  0  0  0  0
   10.9899    3.7465    0.0000 C   0  0  0  0  0  0  0  0  0  0  0  0
   10.0764    3.3398    0.0000 C   0  0  0  0  0  0  0  0  0  0  0  0
    6.8177   -0.6208    0.0000 C   0  0  2  0  0  0  0  0  0  0  0  0
    6.4126    0.2935    0.0000 C   0  0  0  0  0  0  0  0  0  0  0  0
    5.4182    0.3997    0.0000 C   0  0  0  0  0  0  0  0  0  0  0  0
    7.0018    1.1015    0.0000 C   0  0  0  0  0  0  0  0  0  0  0  0
    5.2342   -1.3225    0.0000 C   0  0  0  0  0  0  0  0  0  0  0  0
    3.6507   -2.0243    0.0000 C   0  0  1  0  0  0  0  0  0  0  0  0
    3.0615   -2.8323    0.0000 C   0  0  0  0  0  0  0  0  0  0  0  0
    3.2455   -1.1100    0.0000 C   0  0  0  0  0  0  0  0  0  0  0  0
    2.0672   -2.7260    0.0000 C   0  0  0  0  0  0  0  0  0  0  0  0
    3.4667   -3.7465    0.0000 C   0  0  0  0  0  0  0  0  0  0  0  0
    9.1316   -0.7297    0.0000 H   0  0  0  0  0  0  0  0  0  0  0  0
    9.9660    1.8382    0.0000 H   0  0  0  0  0  0  0  0  0  0  0  0
   11.3499   -1.6549    0.0000 H   0  0  0  0  0  0  0  0  0  0  0  0
   11.3499   -0.7781    0.0000 H   0  0  0  0  0  0  0  0  0  0  0  0
    9.0588   -0.7781    0.0000 H   0  0  0  0  0  0  0  0  0  0  0  0
    9.0588   -1.6549    0.0000 H   0  0  0  0  0  0  0  0  0  0  0  0
    9.7660   -2.3620    0.0000 H   0  0  0  0  0  0  0  0  0  0  0  0
   10.6428   -2.3620    0.0000 H   0  0  0  0  0  0  0  0  0  0  0  0
    9.3125    2.0732    0.0000 H   0  0  0  0  0  0  0  0  0  0  0  0
    8.4831    2.0718    0.0000 H   0  0  0  0  0  0  0  0  0  0  0  0
    7.7847    1.5635    0.0000 H   0  0  0  0  0  0  0  0  0  0  0  0
    7.5284    0.7746    0.0000 H   0  0  0  0  0  0  0  0  0  0  0  0
   10.4036    2.3618    0.0000 H   0  0  0  0  0  0  0  0  0  0  0  0
   11.6084    3.7898    0.0000 H   0  0  0  0  0  0  0  0  0  0  0  0
   10.8399    4.3481    0.0000 H   0  0  0  0  0  0  0  0  0  0  0  0
    9.7297    3.8538    0.0000 H   0  0  0  0  0  0  0  0  0  0  0  0
    9.6304    2.9091    0.0000 H   0  0  0  0  0  0  0  0  0  0  0  0
    6.2012   -0.5549    0.0000 H   0  0  0  0  0  0  0  0  0  0  0  0
    7.0291    0.2276    0.0000 H   0  0  0  0  0  0  0  0  0  0  0  0
    6.4798   -1.9956    0.0000 H   0  0  0  0  0  0  0  0  0  0  0  0
    5.4841    1.0162    0.0000 H   0  0  0  0  0  0  0  0  0  0  0  0
    4.8018    0.4656    0.0000 H   0  0  0  0  0  0  0  0  0  0  0  0
    5.3524   -0.2168    0.0000 H   0  0  0  0  0  0  0  0  0  0  0  0
    7.5027    0.7362    0.0000 H   0  0  0  0  0  0  0  0  0  0  0  0
    7.3671    1.6024    0.0000 H   0  0  0  0  0  0  0  0  0  0  0  0
    6.5008    1.4668    0.0000 H   0  0  0  0  0  0  0  0  0  0  0  0
    4.8962   -2.6974    0.0000 H   0  0  0  0  0  0  0  0  0  0  0  0
    4.0160   -1.5233    0.0000 H   0  0  0  0  0  0  0  0  0  0  0  0
    2.6962   -3.3332    0.0000 H   0  0  0  0  0  0  0  0  0  0  0  0
    3.8474   -0.9611    0.0000 H   0  0  0  0  0  0  0  0  0  0  0  0
    3.2034   -0.4915    0.0000 H   0  0  0  0  0  0  0  0  0  0  0  0
    2.1330   -2.1095    0.0000 H   0  0  0  0  0  0  0  0  0  0  0  0
    1.4507   -2.6602    0.0000 H   0  0  0  0  0  0  0  0  0  0  0  0
    2.0013   -3.3425    0.0000 H   0  0  0  0  0  0  0  0  0  0  0  0
    2.8998   -3.9977    0.0000 H   0  0  0  0  0  0  0  0  0  0  0  0
    3.7179   -4.3134    0.0000 H   0  0  0  0  0  0  0  0  0  0  0  0
    4.0335   -3.4953    0.0000 H   0  0  0  0  0  0  0  0  0  0  0  0
    2.0000   -0.4370    0.0000 H   0  0  0  0  0  0  0  0  0  0  0  0
  1 16  2  0  0  0  0
  2 19  2  0  0  0  0
  3 21  2  0  0  0  0
  4 28  2  0  0  0  0
  5 31  1  0  0  0  0
  5 71  1  0  0  0  0
  6 12  1  0  0  0  0
  6 16  1  0  0  0  0
  6 19  1  0  0  0  0
  7 11  1  0  0  0  0
  7 18  1  0  0  0  0
  7 21  1  0  0  0  0
 24  8  1  1  0  0  0
  8 28  1  0  0  0  0
  8 53  1  0  0  0  0
  9 28  1  0  0  0  0
 29  9  1  1  0  0  0
  9 60  1  0  0  0  0
 10 11  1  0  0  0  0
 10 13  1  0  0  0  0
 10 14  1  0  0  0  0
 10 16  1  0  0  0  0
 11 12  1  0  0  0  0
 11 34  1  6  0  0  0
 12 17  1  0  0  0  0
 12 35  1  1  0  0  0
 13 15  1  0  0  0  0
 13 36  1  0  0  0  0
 13 37  1  0  0  0  0
 14 15  1  0  0  0  0
 14 38  1  0  0  0  0
 14 39  1  0  0  0  0
 15 40  1  0  0  0  0
 15 41  1  0  0  0  0
 17 18  1  0  0  0  0
 17 42  1  0  0  0  0
 17 43  1  0  0  0  0
 18 44  1  0  0  0  0
 18 45  1  0  0  0  0
 19 20  1  0  0  0  0
 20 22  1  0  0  0  0
 20 23  1  0  0  0  0
 20 46  1  0  0  0  0
 21 24  1  0  0  0  0
 22 23  1  0  0  0  0
 22 47  1  0  0  0  0
 22 48  1  0  0  0  0
 23 49  1  0  0  0  0
 23 50  1  0  0  0  0
 24 25  1  0  0  0  0
 24 51  1  0  0  0  0
 25 26  1  0  0  0  0
 25 27  1  0  0  0  0
 25 52  1  0  0  0  0
 26 54  1  0  0  0  0
 26 55  1  0  0  0  0
 26 56  1  0  0  0  0
 27 57  1  0  0  0  0
 27 58  1  0  0  0  0
 27 59  1  0  0  0  0
 29 30  1  0  0  0  0
 29 31  1  0  0  0  0
 29 61  1  0  0  0  0
 30 32  1  0  0  0  0
 30 33  1  0  0  0  0
 30 62  1  0  0  0  0
 31 63  1  0  0  0  0
 31 64  1  0  0  0  0
 32 65  1  0  0  0  0
 32 66  1  0  0  0  0
 32 67  1  0  0  0  0
 33 68  1  0  0  0  0
 33 69  1  0  0  0  0
 33 70  1  0  0  0  0
M  END
> <PUBCHEM_COMPOUND_CID>
513155
> <PUBCHEM_COMPOUND_CANONICALIZED>
1
> <PUBCHEM_CACTVS_COMPLEXITY>
820
> <PUBCHEM_CACTVS_HBOND_ACCEPTOR>
5
> <PUBCHEM_CACTVS_HBOND_DONOR>
3
> <PUBCHEM_CACTVS_ROTATABLE_BOND>
7
> <PUBCHEM_CACTVS_SUBSKEYS>
AAADcfB7uAAAAAAAAAAAAAAAGABgAWLAAAAAAAAAAAAWAAAAAAAAHgAQCAAADyjhgAYDAAPAAgAIAAEQEAAAAAAAAAAAAIGIAACCUBoAwCAUQAAMFiKQAAEciIAPAAAAAAAAAAAAAAAAAAAAAAAAAAAAAA==
> <PUBCHEM_IUPAC_OPENEYE_NAME>
1-[(1S)-1-[(3aS,6aR)-4-(cyclopropanecarbonyl)-5-oxo-spiro[2,3,3a,6a-tetrahydropyrrolo[3,2-b]pyrrole-6,1'-cyclobutane]-1-carbonyl]-2-methyl-propyl]-3-[(1S)-1-(hydroxymethyl)-2-methyl-propyl]urea
> <PUBCHEM_IUPAC_CAS_NAME>
1-[(2S)-1-[(3aS,6aR)-4-[cyclopropyl(oxo)methyl]-5-oxo-1-spiro[2,3,3a,6a-tetrahydropyrrolo[3,2-b]pyrrole-6,1'-cyclobutane]yl]-3-methyl-1-oxobutan-2-yl]-3-[(2S)-1-hydroxy-3-methylbutan-2-yl]urea
> <PUBCHEM_IUPAC_NAME_MARKUP>
1-[(2<I>S</I>)-1-[(3<I>a</I><I>S</I>,6<I>a</I><I>R</I>)-4-(cyclopropanecarbonyl)-5-oxospiro[2,3,3<I>a</I>,6<I>a</I>-tetrahydropyrrolo[3,2-b]pyrrole-6,1&apos;-cyclobutane]-1-yl]-3-methyl-1-oxobutan-2-yl]-3-[(2<I>S</I>)-1-hydroxy-3-methylbutan-2-yl]urea
> <PUBCHEM_IUPAC_NAME>
1-[(2S)-1-[(3aS,6aR)-4-(cyclopropanecarbonyl)-5-oxospiro[2,3,3a,6a-tetrahydropyrrolo[3,2-b]pyrrole-6,1'-cyclobutane]-1-yl]-3-methyl-1-oxobutan-2-yl]-3-[(2S)-1-hydroxy-3-methylbutan-2-yl]urea
> <PUBCHEM_IUPAC_SYSTEMATIC_NAME>
1-[(2S)-1-[(3aS,6aR)-4-cyclopropylcarbonyl-5-oxidanylidene-spiro[2,3,3a,6a-tetrahydropyrrolo[3,2-b]pyrrole-6,1'-cyclobutane]-1-yl]-3-methyl-1-oxidanylidene-butan-2-yl]-3-[(2S)-3-methyl-1-oxidanyl-butan-2-yl]urea
> <PUBCHEM_IUPAC_TRADITIONAL_NAME>
1-[(1S)-1-[(3aS,6aR)-4-(cyclopropanecarbonyl)-5-keto-spiro[2,3,3a,6a-tetrahydropyrrolo[3,2-b]pyrrole-6,1'-cyclobutane]-1-carbonyl]-2-methyl-propyl]-3-[(1S)-2-methyl-1-methylol-propyl]urea
> <PUBCHEM_IUPAC_INCHI>
InChI=1S/C24H38N4O5/c1-13(2)16(12-29)25-23(33)26-18(14(3)4)21(31)27-11-8-17-19(27)24(9-5-10-24)22(32)28(17)20(30)15-6-7-15/h13-19,29H,5-12H2,1-4H3,(H2,25,26,33)/t16-,17+,18+,19+/m1/s1
> <PUBCHEM_IUPAC_INCHIKEY>
GLHMFBVRSWJNQV-XWSJACJDSA-N
> <PUBCHEM_XLOGP3_AA>
1.6
> <PUBCHEM_EXACT_MASS>
462.28422033
> <PUBCHEM_MOLECULAR_FORMULA>
C24H38N4O5
> <PUBCHEM_MOLECULAR_WEIGHT>
462.6
> <PUBCHEM_OPENEYE_CAN_SMILES>
CC(C)C(CO)NC(=O)NC(C(C)C)C(=O)N1CCC2C1C3(CCC3)C(=O)N2C(=O)C4CC4
> <PUBCHEM_OPENEYE_ISO_SMILES>
CC(C)[C@@H](CO)NC(=O)N[C@@H](C(C)C)C(=O)N1CC[C@H]2[C@H]1C3(CCC3)C(=O)N2C(=O)C4CC4
> <PUBCHEM_CACTVS_TPSA>
119
> <PUBCHEM_MONOISOTOPIC_WEIGHT>
462.28422033
> <PUBCHEM_TOTAL_CHARGE>
0
> <PUBCHEM_HEAVY_ATOM_COUNT>
33
> <PUBCHEM_ATOM_DEF_STEREO_COUNT>
4
> <PUBCHEM_ATOM_UDEF_STEREO_COUNT>
0
> <PUBCHEM_BOND_DEF_STEREO_COUNT>
0
> <PUBCHEM_BOND_UDEF_STEREO_COUNT>
0
> <PUBCHEM_ISOTOPIC_ATOM_COUNT>
0
> <PUBCHEM_COMPONENT_COUNT>
1
> <PUBCHEM_CACTVS_TAUTO_COUNT>
-1
> <PUBCHEM_COORDINATE_TYPE>
1
5
255
> <PUBCHEM_BONDANNOTATIONS>
11  34  6
12  35  5
24  8  5
29  9  5
$$$$
