513188
  -OEChem-10302200282D
 98101  0     1  0  0  0  0  0999 V2000
   11.2100    1.7244    0.0000 O   0  0  0  0  0  0  0  0  0  0  0  0
    8.8786    2.8472    0.0000 O   0  0  0  0  0  0  0  0  0  0  0  0
    8.8461    0.6719    0.0000 O   0  0  0  0  0  0  0  0  0  0  0  0
   10.2247   -0.7643    0.0000 O   0  0  0  0  0  0  0  0  0  0  0  0
   11.4944   -1.9424    0.0000 O   0  0  0  0  0  0  0  0  0  0  0  0
   12.1746   -1.2094    0.0000 O   0  0  0  0  0  0  0  0  0  0  0  0
    8.8644   -2.2304    0.0000 O   0  0  0  0  0  0  0  0  0  0  0  0
   12.5966    2.9286    0.0000 O   0  0  0  0  0  0  0  0  0  0  0  0
    9.4539   -4.1416    0.0000 O   0  0  0  0  0  0  0  0  0  0  0  0
   11.9272    6.3274    0.0000 O   0  0  0  0  0  0  0  0  0  0  0  0
   13.4443   -2.3875    0.0000 O   0  0  0  0  0  0  0  0  0  0  0  0
   13.4745   -5.8970    0.0000 O   0  0  0  0  0  0  0  0  0  0  0  0
   10.9576    3.4885    0.0000 N   0  0  0  0  0  0  0  0  0  0  0  0
   12.2619    4.6280    0.0000 N   0  0  0  0  0  0  0  0  0  0  0  0
   12.5600    0.4792    0.0000 N   0  0  0  0  0  0  0  0  0  0  0  0
   13.0589   -4.0761    0.0000 N   0  0  0  0  0  0  0  0  0  0  0  0
   15.1573   -5.7074    0.0000 N   0  0  0  0  0  0  0  0  0  0  0  0
    9.6638    1.2475    0.0000 C   0  0  2  0  0  0  0  0  0  0  0  0
   10.6101    0.9243    0.0000 C   0  0  1  0  0  0  0  0  0  0  0  0
    9.6788    2.2474    0.0000 C   0  0  2  0  0  0  0  0  0  0  0  0
   10.6344    2.5421    0.0000 C   0  0  1  0  0  0  0  0  0  0  0  0
   10.9049   -0.0313    0.0000 C   0  0  2  0  0  0  0  0  0  0  0  0
    7.9591    2.4542    0.0000 C   0  0  0  0  0  0  0  0  0  0  0  0
   11.8798   -0.2538    0.0000 C   0  0  0  0  0  0  0  0  0  0  0  0
   10.5195   -1.7199    0.0000 C   0  0  1  0  0  0  0  0  0  0  0  0
   11.9387    3.6817    0.0000 C   0  0  0  0  0  0  0  0  0  0  0  0
   10.2996    4.2415    0.0000 C   0  0  0  0  0  0  0  0  0  0  0  0
    9.8393   -2.4530    0.0000 C   0  0  2  0  0  0  0  0  0  0  0  0
    7.1590    3.0540    0.0000 C   0  0  0  0  0  0  0  0  0  0  0  0
    7.9387    1.0922    0.0000 C   0  0  0  0  0  0  0  0  0  0  0  0
   10.1341   -3.4085    0.0000 C   0  0  2  0  0  0  0  0  0  0  0  0
    6.2395    2.6610    0.0000 C   0  0  0  0  0  0  0  0  0  0  0  0
   10.6228    5.1879    0.0000 C   0  0  0  0  0  0  0  0  0  0  0  0
   11.7892   -2.8980    0.0000 C   0  0  0  0  0  0  0  0  0  0  0  0
    5.4393    3.2608    0.0000 C   0  0  0  0  0  0  0  0  0  0  0  0
   14.0338   -4.2986    0.0000 C   0  0  1  0  0  0  0  0  0  0  0  0
   11.1090   -3.6311    0.0000 C   0  0  0  0  0  0  0  0  0  0  0  0
   14.6573   -3.5168    0.0000 C   0  0  0  0  0  0  0  0  0  0  0  0
   15.6573   -3.5168    0.0000 C   0  0  0  0  0  0  0  0  0  0  0  0
   16.2808   -4.2986    0.0000 C   0  0  0  0  0  0  0  0  0  0  0  0
   11.6040    5.3811    0.0000 C   0  0  0  0  0  0  0  0  0  0  0  0
   16.0582   -5.2736    0.0000 C   0  0  2  0  0  0  0  0  0  0  0  0
    4.5198    2.8678    0.0000 C   0  0  0  0  0  0  0  0  0  0  0  0
   12.7641   -3.1205    0.0000 C   0  0  0  0  0  0  0  0  0  0  0  0
   14.2563   -5.2736    0.0000 C   0  0  0  0  0  0  0  0  0  0  0  0
    3.7197    3.4676    0.0000 C   0  0  0  0  0  0  0  0  0  0  0  0
   16.8401   -5.8970    0.0000 C   0  0  0  0  0  0  0  0  0  0  0  0
    2.8001    3.0746    0.0000 C   0  0  0  0  0  0  0  0  0  0  0  0
    2.0000    3.6744    0.0000 C   0  0  0  0  0  0  0  0  0  0  0  0
    9.7516    0.6337    0.0000 H   0  0  0  0  0  0  0  0  0  0  0  0
   11.4476    0.7788    0.0000 H   0  0  0  0  0  0  0  0  0  0  0  0
    9.1222    1.9742    0.0000 H   0  0  0  0  0  0  0  0  0  0  0  0
   11.2481    2.6300    0.0000 H   0  0  0  0  0  0  0  0  0  0  0  0
   11.0877   -0.6238    0.0000 H   0  0  0  0  0  0  0  0  0  0  0  0
    7.5067    2.0302    0.0000 H   0  0  0  0  0  0  0  0  0  0  0  0
    8.2981    1.9350    0.0000 H   0  0  0  0  0  0  0  0  0  0  0  0
    9.9150   -1.5820    0.0000 H   0  0  0  0  0  0  0  0  0  0  0  0
    9.6913    4.1217    0.0000 H   0  0  0  0  0  0  0  0  0  0  0  0
    9.6566   -1.8605    0.0000 H   0  0  0  0  0  0  0  0  0  0  0  0
    7.6114    3.4780    0.0000 H   0  0  0  0  0  0  0  0  0  0  0  0
    6.8200    3.5731    0.0000 H   0  0  0  0  0  0  0  0  0  0  0  0
    8.1994    1.6548    0.0000 H   0  0  0  0  0  0  0  0  0  0  0  0
    7.3762    1.3529    0.0000 H   0  0  0  0  0  0  0  0  0  0  0  0
    7.6781    0.5297    0.0000 H   0  0  0  0  0  0  0  0  0  0  0  0
   10.3168   -4.0010    0.0000 H   0  0  0  0  0  0  0  0  0  0  0  0
    5.7871    2.2370    0.0000 H   0  0  0  0  0  0  0  0  0  0  0  0
    6.5784    2.1418    0.0000 H   0  0  0  0  0  0  0  0  0  0  0  0
   12.8702    4.7479    0.0000 H   0  0  0  0  0  0  0  0  0  0  0  0
   10.2149    5.6548    0.0000 H   0  0  0  0  0  0  0  0  0  0  0  0
   13.1645    0.3413    0.0000 H   0  0  0  0  0  0  0  0  0  0  0  0
   12.3773    1.0717    0.0000 H   0  0  0  0  0  0  0  0  0  0  0  0
   13.8290   -3.7134    0.0000 H   0  0  0  0  0  0  0  0  0  0  0  0
    5.8917    3.6848    0.0000 H   0  0  0  0  0  0  0  0  0  0  0  0
    5.1004    3.7799    0.0000 H   0  0  0  0  0  0  0  0  0  0  0  0
   11.2917   -4.2235    0.0000 H   0  0  0  0  0  0  0  0  0  0  0  0
   14.7952   -2.9123    0.0000 H   0  0  0  0  0  0  0  0  0  0  0  0
   14.0987   -3.2478    0.0000 H   0  0  0  0  0  0  0  0  0  0  0  0
   16.2159   -3.2478    0.0000 H   0  0  0  0  0  0  0  0  0  0  0  0
   15.5193   -2.9123    0.0000 H   0  0  0  0  0  0  0  0  0  0  0  0
   16.8394   -4.5676    0.0000 H   0  0  0  0  0  0  0  0  0  0  0  0
   16.6673   -3.8139    0.0000 H   0  0  0  0  0  0  0  0  0  0  0  0
   15.9888   -5.8897    0.0000 H   0  0  0  0  0  0  0  0  0  0  0  0
    4.0674    2.4438    0.0000 H   0  0  0  0  0  0  0  0  0  0  0  0
    4.8588    2.3486    0.0000 H   0  0  0  0  0  0  0  0  0  0  0  0
   12.6371   -4.5306    0.0000 H   0  0  0  0  0  0  0  0  0  0  0  0
    8.4427   -2.6849    0.0000 H   0  0  0  0  0  0  0  0  0  0  0  0
   15.1573   -6.3274    0.0000 H   0  0  0  0  0  0  0  0  0  0  0  0
    4.1720    3.8916    0.0000 H   0  0  0  0  0  0  0  0  0  0  0  0
    3.3807    3.9867    0.0000 H   0  0  0  0  0  0  0  0  0  0  0  0
    9.6366   -4.7340    0.0000 H   0  0  0  0  0  0  0  0  0  0  0  0
   16.4535   -6.3818    0.0000 H   0  0  0  0  0  0  0  0  0  0  0  0
   17.3248   -6.2836    0.0000 H   0  0  0  0  0  0  0  0  0  0  0  0
   17.2266   -5.4123    0.0000 H   0  0  0  0  0  0  0  0  0  0  0  0
    2.3478    2.6506    0.0000 H   0  0  0  0  0  0  0  0  0  0  0  0
    3.1391    2.5554    0.0000 H   0  0  0  0  0  0  0  0  0  0  0  0
    2.3719    4.1705    0.0000 H   0  0  0  0  0  0  0  0  0  0  0  0
    1.5039    4.0463    0.0000 H   0  0  0  0  0  0  0  0  0  0  0  0
    1.6281    3.1783    0.0000 H   0  0  0  0  0  0  0  0  0  0  0  0
  1 19  1  0  0  0  0
  1 21  1  0  0  0  0
 20  2  1  1  0  0  0
  2 23  1  0  0  0  0
 18  3  1  1  0  0  0
  3 30  1  0  0  0  0
 22  4  1  6  0  0  0
 25  4  1  1  0  0  0
  5 25  1  0  0  0  0
  5 34  1  0  0  0  0
  6 24  2  0  0  0  0
 28  7  1  6  0  0  0
  7 86  1  0  0  0  0
  8 26  2  0  0  0  0
 31  9  1  6  0  0  0
  9 90  1  0  0  0  0
 10 41  2  0  0  0  0
 11 44  2  0  0  0  0
 12 45  2  0  0  0  0
 21 13  1  6  0  0  0
 13 26  1  0  0  0  0
 13 27  1  0  0  0  0
 14 26  1  0  0  0  0
 14 41  1  0  0  0  0
 14 68  1  0  0  0  0
 15 24  1  0  0  0  0
 15 70  1  0  0  0  0
 15 71  1  0  0  0  0
 36 16  1  1  0  0  0
 16 44  1  0  0  0  0
 16 85  1  0  0  0  0
 17 42  1  0  0  0  0
 17 45  1  0  0  0  0
 17 87  1  0  0  0  0
 18 19  1  0  0  0  0
 18 20  1  0  0  0  0
 18 50  1  0  0  0  0
 19 22  1  0  0  0  0
 19 51  1  1  0  0  0
 20 21  1  0  0  0  0
 20 52  1  0  0  0  0
 21 53  1  0  0  0  0
 22 24  1  0  0  0  0
 22 54  1  0  0  0  0
 23 29  1  0  0  0  0
 23 55  1  0  0  0  0
 23 56  1  0  0  0  0
 25 28  1  0  0  0  0
 25 57  1  0  0  0  0
 27 33  2  0  0  0  0
 27 58  1  0  0  0  0
 28 31  1  0  0  0  0
 28 59  1  0  0  0  0
 29 32  1  0  0  0  0
 29 60  1  0  0  0  0
 29 61  1  0  0  0  0
 30 62  1  0  0  0  0
 30 63  1  0  0  0  0
 30 64  1  0  0  0  0
 31 37  1  0  0  0  0
 31 65  1  0  0  0  0
 32 35  1  0  0  0  0
 32 66  1  0  0  0  0
 32 67  1  0  0  0  0
 33 41  1  0  0  0  0
 33 69  1  0  0  0  0
 34 37  2  0  0  0  0
 34 44  1  0  0  0  0
 35 43  1  0  0  0  0
 35 73  1  0  0  0  0
 35 74  1  0  0  0  0
 36 38  1  0  0  0  0
 36 45  1  0  0  0  0
 36 72  1  0  0  0  0
 37 75  1  0  0  0  0
 38 39  1  0  0  0  0
 38 76  1  0  0  0  0
 38 77  1  0  0  0  0
 39 40  1  0  0  0  0
 39 78  1  0  0  0  0
 39 79  1  0  0  0  0
 40 42  1  0  0  0  0
 40 80  1  0  0  0  0
 40 81  1  0  0  0  0
 42 47  1  6  0  0  0
 42 82  1  0  0  0  0
 43 46  1  0  0  0  0
 43 83  1  0  0  0  0
 43 84  1  0  0  0  0
 46 48  1  0  0  0  0
 46 88  1  0  0  0  0
 46 89  1  0  0  0  0
 47 91  1  0  0  0  0
 47 92  1  0  0  0  0
 47 93  1  0  0  0  0
 48 49  1  0  0  0  0
 48 94  1  0  0  0  0
 48 95  1  0  0  0  0
 49 96  1  0  0  0  0
 49 97  1  0  0  0  0
 49 98  1  0  0  0  0
M  END
> <PUBCHEM_COMPOUND_CID>
513188
> <PUBCHEM_COMPOUND_CANONICALIZED>
1
> <PUBCHEM_CACTVS_COMPLEXITY>
1260
> <PUBCHEM_CACTVS_HBOND_ACCEPTOR>
12
> <PUBCHEM_CACTVS_HBOND_DONOR>
6
> <PUBCHEM_CACTVS_ROTATABLE_BOND>
16
> <PUBCHEM_CACTVS_SUBSKEYS>
AAADcfB/vAAAAAAAAAAAAAAAAAAAASAAAAAgQAAABYAAAAAAAAAAHgAQCAAACDzxgAcDCAPABgCIACFWUAKACAAgIgAICIHIAEiTVBYAgCQ/UAAP9yKfEcP6/K7AAAAAAAAAAAAAAAAAAAAAAAAAAAAAAA==
> <PUBCHEM_IUPAC_OPENEYE_NAME>
(2S,3S,4S)-2-[(1R)-2-amino-1-[(2S,3R,4R,5R)-5-(2,4-dioxopyrimidin-1-yl)-3-methoxy-4-octoxy-tetrahydrofuran-2-yl]-2-oxo-ethoxy]-3,4-dihydroxy-N-[(3S,7S)-7-methyl-2-oxo-azepan-3-yl]-3,4-dihydro-2H-pyran-6-carboxamide
> <PUBCHEM_IUPAC_CAS_NAME>
(2S,3S,4S)-2-[(1R)-2-amino-1-[(2S,3R,4R,5R)-5-(2,4-dioxo-1-pyrimidinyl)-3-methoxy-4-octoxy-2-oxolanyl]-2-oxoethoxy]-3,4-dihydroxy-N-[(3S,7S)-7-methyl-2-oxo-3-azepanyl]-3,4-dihydro-2H-pyran-6-carboxamide
> <PUBCHEM_IUPAC_NAME_MARKUP>
(2<I>S</I>,3<I>S</I>,4<I>S</I>)-2-[(1<I>R</I>)-2-amino-1-[(2<I>S</I>,3<I>R</I>,4<I>R</I>,5<I>R</I>)-5-(2,4-dioxopyrimidin-1-yl)-3-methoxy-4-octoxyoxolan-2-yl]-2-oxoethoxy]-3,4-dihydroxy-<I>N</I>-[(3<I>S</I>,7<I>S</I>)-7-methyl-2-oxoazepan-3-yl]-3,4-dihydro-2<I>H</I>-pyran-6-carboxamide
> <PUBCHEM_IUPAC_NAME>
(2S,3S,4S)-2-[(1R)-2-amino-1-[(2S,3R,4R,5R)-5-(2,4-dioxopyrimidin-1-yl)-3-methoxy-4-octoxyoxolan-2-yl]-2-oxoethoxy]-3,4-dihydroxy-N-[(3S,7S)-7-methyl-2-oxoazepan-3-yl]-3,4-dihydro-2H-pyran-6-carboxamide
> <PUBCHEM_IUPAC_SYSTEMATIC_NAME>
(2S,3S,4S)-2-[(1R)-2-azanyl-1-[(2S,3R,4R,5R)-5-[2,4-bis(oxidanylidene)pyrimidin-1-yl]-3-methoxy-4-octoxy-oxolan-2-yl]-2-oxidanylidene-ethoxy]-N-[(3S,7S)-7-methyl-2-oxidanylidene-azepan-3-yl]-3,4-bis(oxidanyl)-3,4-dihydro-2H-pyran-6-carboxamide
> <PUBCHEM_IUPAC_TRADITIONAL_NAME>
(2S,3S,4S)-2-[(1R)-2-amino-1-[(2S,3R,4R,5R)-5-(2,4-diketopyrimidin-1-yl)-3-methoxy-4-octoxy-tetrahydrofuran-2-yl]-2-keto-ethoxy]-3,4-dihydroxy-N-[(3S,7S)-2-keto-7-methyl-azepan-3-yl]-3,4-dihydro-2H-pyran-6-carboxamide
> <PUBCHEM_IUPAC_INCHI>
InChI=1S/C32H49N5O12/c1-4-5-6-7-8-9-15-46-26-23(45-3)24(48-30(26)37-14-13-21(39)36-32(37)44)25(27(33)41)49-31-22(40)19(38)16-20(47-31)29(43)35-18-12-10-11-17(2)34-28(18)42/h13-14,16-19,22-26,30-31,38,40H,4-12,15H2,1-3H3,(H2,33,41)(H,34,42)(H,35,43)(H,36,39,44)/t17-,18-,19-,22-,23+,24-,25+,26+,30+,31+/m0/s1
> <PUBCHEM_IUPAC_INCHIKEY>
IFMPLFWTPOJSSA-JJZAUXFRSA-N
> <PUBCHEM_XLOGP3_AA>
0.3
> <PUBCHEM_EXACT_MASS>
695.33777202
> <PUBCHEM_MOLECULAR_FORMULA>
C32H49N5O12
> <PUBCHEM_MOLECULAR_WEIGHT>
695.8
> <PUBCHEM_OPENEYE_CAN_SMILES>
CCCCCCCCOC1C(C(OC1N2C=CC(=O)NC2=O)C(C(=O)N)OC3C(C(C=C(O3)C(=O)NC4CCCC(NC4=O)C)O)O)OC
> <PUBCHEM_OPENEYE_ISO_SMILES>
CCCCCCCCO[C@@H]1[C@@H]([C@H](O[C@H]1N2C=CC(=O)NC2=O)[C@H](C(=O)N)O[C@@H]3[C@H]([C@H](C=C(O3)C(=O)N[C@H]4CCC[C@@H](NC4=O)C)O)O)OC
> <PUBCHEM_CACTVS_TPSA>
237
> <PUBCHEM_MONOISOTOPIC_WEIGHT>
695.33777202
> <PUBCHEM_TOTAL_CHARGE>
0
> <PUBCHEM_HEAVY_ATOM_COUNT>
49
> <PUBCHEM_ATOM_DEF_STEREO_COUNT>
10
> <PUBCHEM_ATOM_UDEF_STEREO_COUNT>
0
> <PUBCHEM_BOND_DEF_STEREO_COUNT>
0
> <PUBCHEM_BOND_UDEF_STEREO_COUNT>
0
> <PUBCHEM_ISOTOPIC_ATOM_COUNT>
0
> <PUBCHEM_COMPONENT_COUNT>
1
> <PUBCHEM_CACTVS_TAUTO_COUNT>
-1
> <PUBCHEM_COORDINATE_TYPE>
1
5
255
> <PUBCHEM_BONDANNOTATIONS>
21  13  6
13  26  8
13  27  8
14  26  8
14  41  8
36  16  5
19  51  5
20  2  5
27  33  8
18  3  5
33  41  8
22  4  6
25  4  5
42  47  6
28  7  6
31  9  6
$$$$
