513121
  -OEChem-10302200282D
 34 35  0     1  0  0  0  0  0999 V2000
    2.0000   -1.0341    0.0000 Cl  0  0  0  0  0  0  0  0  0  0  0  0
    2.0000   -3.0341    0.0000 Cl  0  0  0  0  0  0  0  0  0  0  0  0
    6.8335   -0.0727    0.0000 O   0  0  0  0  0  0  0  0  0  0  0  0
    5.4978    1.4159    0.0000 O   0  0  0  0  0  0  0  0  0  0  0  0
    8.4333    2.0346    0.0000 O   0  0  0  0  0  0  0  0  0  0  0  0
    6.7870    2.5727    0.0000 O   0  0  0  0  0  0  0  0  0  0  0  0
    5.5443   -1.2294    0.0000 N   0  0  0  0  0  0  0  0  0  0  0  0
    5.5443   -2.8389    0.0000 N   0  0  0  0  0  0  0  0  0  0  0  0
    5.8550   -0.2789    0.0000 C   0  0  3  0  0  0  0  0  0  0  0  0
    7.1441    0.8779    0.0000 C   0  0  0  0  0  0  0  0  0  0  0  0
    4.5981   -1.5341    0.0000 C   0  0  0  0  0  0  0  0  0  0  0  0
    5.1871    0.4654    0.0000 C   0  0  0  0  0  0  0  0  0  0  0  0
    4.5981   -2.5341    0.0000 C   0  0  0  0  0  0  0  0  0  0  0  0
    6.1279   -2.0341    0.0000 C   0  0  0  0  0  0  0  0  0  0  0  0
    8.1226    1.0841    0.0000 C   0  0  0  0  0  0  0  0  0  0  0  0
    6.4763    1.6222    0.0000 C   0  0  0  0  0  0  0  0  0  0  0  0
    3.7320   -1.0341    0.0000 C   0  0  0  0  0  0  0  0  0  0  0  0
    3.7320   -3.0341    0.0000 C   0  0  0  0  0  0  0  0  0  0  0  0
    2.8660   -1.5341    0.0000 C   0  0  0  0  0  0  0  0  0  0  0  0
    2.8660   -2.5341    0.0000 C   0  0  0  0  0  0  0  0  0  0  0  0
    6.0476    0.3104    0.0000 H   0  0  0  0  0  0  0  0  0  0  0  0
    6.5374    0.7500    0.0000 H   0  0  0  0  0  0  0  0  0  0  0  0
    4.6402    0.7574    0.0000 H   0  0  0  0  0  0  0  0  0  0  0  0
    4.8046   -0.0225    0.0000 H   0  0  0  0  0  0  0  0  0  0  0  0
    6.7479   -2.0341    0.0000 H   0  0  0  0  0  0  0  0  0  0  0  0
    8.1432    0.4644    0.0000 H   0  0  0  0  0  0  0  0  0  0  0  0
    8.7364    0.9967    0.0000 H   0  0  0  0  0  0  0  0  0  0  0  0
    5.9294    1.9142    0.0000 H   0  0  0  0  0  0  0  0  0  0  0  0
    6.0937    1.1342    0.0000 H   0  0  0  0  0  0  0  0  0  0  0  0
    3.7320   -0.4141    0.0000 H   0  0  0  0  0  0  0  0  0  0  0  0
    3.7320   -3.6541    0.0000 H   0  0  0  0  0  0  0  0  0  0  0  0
    5.0837    1.8774    0.0000 H   0  0  0  0  0  0  0  0  0  0  0  0
    9.0400    2.1625    0.0000 H   0  0  0  0  0  0  0  0  0  0  0  0
    6.3729    3.0341    0.0000 H   0  0  0  0  0  0  0  0  0  0  0  0
  1 19  1  0  0  0  0
  2 20  1  0  0  0  0
  3  9  1  0  0  0  0
  3 10  1  0  0  0  0
  4 12  1  0  0  0  0
  4 32  1  0  0  0  0
  5 15  1  0  0  0  0
  5 33  1  0  0  0  0
  6 16  1  0  0  0  0
  6 34  1  0  0  0  0
  7  9  1  0  0  0  0
  7 11  1  0  0  0  0
  7 14  1  0  0  0  0
  8 13  1  0  0  0  0
  8 14  2  0  0  0  0
  9 12  1  0  0  0  0
  9 21  1  0  0  0  0
 10 15  1  0  0  0  0
 10 16  1  0  0  0  0
 10 22  1  0  0  0  0
 11 13  1  0  0  0  0
 11 17  2  0  0  0  0
 12 23  1  0  0  0  0
 12 24  1  0  0  0  0
 13 18  2  0  0  0  0
 14 25  1  0  0  0  0
 15 26  1  0  0  0  0
 15 27  1  0  0  0  0
 16 28  1  0  0  0  0
 16 29  1  0  0  0  0
 17 19  1  0  0  0  0
 17 30  1  0  0  0  0
 18 20  1  0  0  0  0
 18 31  1  0  0  0  0
 19 20  2  0  0  0  0
M  END
> <PUBCHEM_COMPOUND_CID>
513121
> <PUBCHEM_COMPOUND_CANONICALIZED>
1
> <PUBCHEM_CACTVS_COMPLEXITY>
309
> <PUBCHEM_CACTVS_HBOND_ACCEPTOR>
5
> <PUBCHEM_CACTVS_HBOND_DONOR>
3
> <PUBCHEM_CACTVS_ROTATABLE_BOND>
6
> <PUBCHEM_CACTVS_SUBSKEYS>
AAADccBzOAAGAAAAAAAAAAAAAAAAAWAAAAAwAAAAAAAAAFgB8AAAHgIACAAACB7hliY10LcMFgCgASRjZACCgC0xF6AB2mA4dpiLeKLBmpGeYAhpgALbyCcQAAAAAABAAAIAACQAAIAABAAASAAAAAAAAA==
> <PUBCHEM_IUPAC_OPENEYE_NAME>
2-[1-(5,6-dichlorobenzimidazol-1-yl)-2-hydroxy-ethoxy]propane-1,3-diol
> <PUBCHEM_IUPAC_CAS_NAME>
2-[1-(5,6-dichloro-1-benzimidazolyl)-2-hydroxyethoxy]propane-1,3-diol
> <PUBCHEM_IUPAC_NAME_MARKUP>
2-[1-(5,6-dichlorobenzimidazol-1-yl)-2-hydroxyethoxy]propane-1,3-diol
> <PUBCHEM_IUPAC_NAME>
2-[1-(5,6-dichlorobenzimidazol-1-yl)-2-hydroxyethoxy]propane-1,3-diol
> <PUBCHEM_IUPAC_SYSTEMATIC_NAME>
2-[1-[5,6-bis(chloranyl)benzimidazol-1-yl]-2-oxidanyl-ethoxy]propane-1,3-diol
> <PUBCHEM_IUPAC_TRADITIONAL_NAME>
2-[1-(5,6-dichlorobenzimidazol-1-yl)-2-hydroxy-ethoxy]propane-1,3-diol
> <PUBCHEM_IUPAC_INCHI>
InChI=1S/C12H14Cl2N2O4/c13-8-1-10-11(2-9(8)14)16(6-15-10)12(5-19)20-7(3-17)4-18/h1-2,6-7,12,17-19H,3-5H2
> <PUBCHEM_IUPAC_INCHIKEY>
GMXFMCJLZWFXLS-UHFFFAOYSA-N
> <PUBCHEM_XLOGP3_AA>
0.6
> <PUBCHEM_EXACT_MASS>
320.0330623
> <PUBCHEM_MOLECULAR_FORMULA>
C12H14Cl2N2O4
> <PUBCHEM_MOLECULAR_WEIGHT>
321.15
> <PUBCHEM_OPENEYE_CAN_SMILES>
C1=C2C(=CC(=C1Cl)Cl)N(C=N2)C(CO)OC(CO)CO
> <PUBCHEM_OPENEYE_ISO_SMILES>
C1=C2C(=CC(=C1Cl)Cl)N(C=N2)C(CO)OC(CO)CO
> <PUBCHEM_CACTVS_TPSA>
87.7
> <PUBCHEM_MONOISOTOPIC_WEIGHT>
320.0330623
> <PUBCHEM_TOTAL_CHARGE>
0
> <PUBCHEM_HEAVY_ATOM_COUNT>
20
> <PUBCHEM_ATOM_DEF_STEREO_COUNT>
0
> <PUBCHEM_ATOM_UDEF_STEREO_COUNT>
1
> <PUBCHEM_BOND_DEF_STEREO_COUNT>
0
> <PUBCHEM_BOND_UDEF_STEREO_COUNT>
0
> <PUBCHEM_ISOTOPIC_ATOM_COUNT>
0
> <PUBCHEM_COMPONENT_COUNT>
1
> <PUBCHEM_CACTVS_TAUTO_COUNT>
-1
> <PUBCHEM_COORDINATE_TYPE>
1
5
255
> <PUBCHEM_BONDANNOTATIONS>
11  13  8
11  17  8
13  18  8
17  19  8
18  20  8
19  20  8
7  11  8
7  14  8
8  13  8
8  14  8
9  12  3
$$$$
