513153
  -OEChem-10302200282D
 83 87  0     1  0  0  0  0  0999 V2000
   15.4695    0.0140    0.0000 O   0  0  0  0  0  0  0  0  0  0  0  0
   15.7917    1.9786    0.0000 O   0  0  0  0  0  0  0  0  0  0  0  0
   11.7223   -1.3966    0.0000 O   0  0  0  0  0  0  0  0  0  0  0  0
    8.3341   -0.1637    0.0000 O   0  0  0  0  0  0  0  0  0  0  0  0
    5.5722   -2.4814    0.0000 O   0  0  0  0  0  0  0  0  0  0  0  0
    6.9717   -3.5019    0.0000 O   0  0  0  0  0  0  0  0  0  0  0  0
   14.2094    1.2741    0.0000 N   0  0  0  0  0  0  0  0  0  0  0  0
   11.9063    0.3256    0.0000 N   0  0  0  0  0  0  0  0  0  0  0  0
    9.7336   -1.1842    0.0000 N   0  0  0  0  0  0  0  0  0  0  0  0
    8.1501   -1.8859    0.0000 N   0  0  0  0  0  0  0  0  0  0  0  0
   13.7094   -0.2648    0.0000 C   0  0  0  0  0  0  0  0  0  0  0  0
   12.9004    0.3230    0.0000 C   0  0  2  0  0  0  0  0  0  0  0  0
   13.2094    1.2741    0.0000 C   0  0  2  0  0  0  0  0  0  0  0  0
   14.4165   -0.9719    0.0000 C   0  0  0  0  0  0  0  0  0  0  0  0
   13.0023   -0.9719    0.0000 C   0  0  0  0  0  0  0  0  0  0  0  0
   13.7094   -1.6790    0.0000 C   0  0  0  0  0  0  0  0  0  0  0  0
   14.5184    0.3230    0.0000 C   0  0  0  0  0  0  0  0  0  0  0  0
   12.4037    1.8563    0.0000 C   0  0  0  0  0  0  0  0  0  0  0  0
   11.5999    1.2713    0.0000 C   0  0  0  0  0  0  0  0  0  0  0  0
   14.7972    2.0831    0.0000 C   0  0  0  0  0  0  0  0  0  0  0  0
   14.3904    2.9966    0.0000 C   0  0  0  0  0  0  0  0  0  0  0  0
   11.3171   -0.4824    0.0000 C   0  0  0  0  0  0  0  0  0  0  0  0
   14.4950    3.9912    0.0000 C   0  0  0  0  0  0  0  0  0  0  0  0
   13.5814    3.5844    0.0000 C   0  0  0  0  0  0  0  0  0  0  0  0
   10.3228   -0.3762    0.0000 C   0  0  2  0  0  0  0  0  0  0  0  0
    9.9176    0.5381    0.0000 C   0  0  0  0  0  0  0  0  0  0  0  0
    8.9233    0.6443    0.0000 C   0  0  0  0  0  0  0  0  0  0  0  0
   10.5068    1.3461    0.0000 C   0  0  0  0  0  0  0  0  0  0  0  0
    8.7392   -1.0779    0.0000 C   0  0  0  0  0  0  0  0  0  0  0  0
    7.1557   -1.7797    0.0000 C   0  0  1  0  0  0  0  0  0  0  0  0
    6.7506   -0.8654    0.0000 C   0  0  0  0  0  0  0  0  0  0  0  0
    6.5665   -2.5876    0.0000 C   0  0  0  0  0  0  0  0  0  0  0  0
    5.7562   -0.7592    0.0000 C   0  0  0  0  0  0  0  0  0  0  0  0
    7.3398   -0.0574    0.0000 C   0  0  0  0  0  0  0  0  0  0  0  0
    4.9830   -3.2894    0.0000 C   0  0  0  0  0  0  0  0  0  0  0  0
    3.9887   -3.1832    0.0000 C   0  0  0  0  0  0  0  0  0  0  0  0
    3.5835   -2.2689    0.0000 C   0  0  0  0  0  0  0  0  0  0  0  0
    3.3995   -3.9912    0.0000 C   0  0  0  0  0  0  0  0  0  0  0  0
    2.5892   -2.1627    0.0000 C   0  0  0  0  0  0  0  0  0  0  0  0
    2.4052   -3.8849    0.0000 C   0  0  0  0  0  0  0  0  0  0  0  0
    2.0000   -2.9707    0.0000 C   0  0  0  0  0  0  0  0  0  0  0  0
   12.6367   -0.4850    0.0000 H   0  0  0  0  0  0  0  0  0  0  0  0
   13.4710    2.0828    0.0000 H   0  0  0  0  0  0  0  0  0  0  0  0
   14.8549   -1.4103    0.0000 H   0  0  0  0  0  0  0  0  0  0  0  0
   14.8549   -0.5335    0.0000 H   0  0  0  0  0  0  0  0  0  0  0  0
   12.5639   -0.5335    0.0000 H   0  0  0  0  0  0  0  0  0  0  0  0
   12.5639   -1.4103    0.0000 H   0  0  0  0  0  0  0  0  0  0  0  0
   13.2710   -2.1174    0.0000 H   0  0  0  0  0  0  0  0  0  0  0  0
   14.1478   -2.1174    0.0000 H   0  0  0  0  0  0  0  0  0  0  0  0
   12.8176    2.3179    0.0000 H   0  0  0  0  0  0  0  0  0  0  0  0
   11.9881    2.3164    0.0000 H   0  0  0  0  0  0  0  0  0  0  0  0
   11.2898    1.8081    0.0000 H   0  0  0  0  0  0  0  0  0  0  0  0
   11.0335    1.0193    0.0000 H   0  0  0  0  0  0  0  0  0  0  0  0
   15.0028    3.0936    0.0000 H   0  0  0  0  0  0  0  0  0  0  0  0
   15.1135    4.0344    0.0000 H   0  0  0  0  0  0  0  0  0  0  0  0
   14.3450    4.5927    0.0000 H   0  0  0  0  0  0  0  0  0  0  0  0
   13.2347    4.0984    0.0000 H   0  0  0  0  0  0  0  0  0  0  0  0
   13.1354    3.1537    0.0000 H   0  0  0  0  0  0  0  0  0  0  0  0
   10.5740   -0.9430    0.0000 H   0  0  0  0  0  0  0  0  0  0  0  0
   10.5341    0.4722    0.0000 H   0  0  0  0  0  0  0  0  0  0  0  0
    9.9848   -1.7510    0.0000 H   0  0  0  0  0  0  0  0  0  0  0  0
    8.9892    1.2608    0.0000 H   0  0  0  0  0  0  0  0  0  0  0  0
    8.3068    0.7102    0.0000 H   0  0  0  0  0  0  0  0  0  0  0  0
    8.8574    0.0278    0.0000 H   0  0  0  0  0  0  0  0  0  0  0  0
   11.0078    0.9808    0.0000 H   0  0  0  0  0  0  0  0  0  0  0  0
   10.8721    1.8470    0.0000 H   0  0  0  0  0  0  0  0  0  0  0  0
   10.0058    1.7114    0.0000 H   0  0  0  0  0  0  0  0  0  0  0  0
    8.4013   -2.4527    0.0000 H   0  0  0  0  0  0  0  0  0  0  0  0
    7.4069   -2.3465    0.0000 H   0  0  0  0  0  0  0  0  0  0  0  0
    7.3671   -0.9313    0.0000 H   0  0  0  0  0  0  0  0  0  0  0  0
    5.8221   -0.1427    0.0000 H   0  0  0  0  0  0  0  0  0  0  0  0
    5.1397   -0.6933    0.0000 H   0  0  0  0  0  0  0  0  0  0  0  0
    5.6904   -1.3756    0.0000 H   0  0  0  0  0  0  0  0  0  0  0  0
    7.8407   -0.4227    0.0000 H   0  0  0  0  0  0  0  0  0  0  0  0
    7.7050    0.4436    0.0000 H   0  0  0  0  0  0  0  0  0  0  0  0
    6.8388    0.3079    0.0000 H   0  0  0  0  0  0  0  0  0  0  0  0
    4.8111   -3.8851    0.0000 H   0  0  0  0  0  0  0  0  0  0  0  0
    5.5398   -3.5622    0.0000 H   0  0  0  0  0  0  0  0  0  0  0  0
    3.9488   -1.7680    0.0000 H   0  0  0  0  0  0  0  0  0  0  0  0
    3.6507   -4.5580    0.0000 H   0  0  0  0  0  0  0  0  0  0  0  0
    2.3380   -1.5958    0.0000 H   0  0  0  0  0  0  0  0  0  0  0  0
    2.0399   -4.3859    0.0000 H   0  0  0  0  0  0  0  0  0  0  0  0
    1.3835   -2.9048    0.0000 H   0  0  0  0  0  0  0  0  0  0  0  0
  1 17  2  0  0  0  0
  2 20  2  0  0  0  0
  3 22  2  0  0  0  0
  4 29  2  0  0  0  0
  5 32  1  0  0  0  0
  5 35  1  0  0  0  0
  6 32  2  0  0  0  0
  7 13  1  0  0  0  0
  7 17  1  0  0  0  0
  7 20  1  0  0  0  0
  8 12  1  0  0  0  0
  8 19  1  0  0  0  0
  8 22  1  0  0  0  0
 25  9  1  1  0  0  0
  9 29  1  0  0  0  0
  9 61  1  0  0  0  0
 10 29  1  0  0  0  0
 30 10  1  6  0  0  0
 10 68  1  0  0  0  0
 11 12  1  0  0  0  0
 11 14  1  0  0  0  0
 11 15  1  0  0  0  0
 11 17  1  0  0  0  0
 12 13  1  0  0  0  0
 12 42  1  6  0  0  0
 13 18  1  0  0  0  0
 13 43  1  1  0  0  0
 14 16  1  0  0  0  0
 14 44  1  0  0  0  0
 14 45  1  0  0  0  0
 15 16  1  0  0  0  0
 15 46  1  0  0  0  0
 15 47  1  0  0  0  0
 16 48  1  0  0  0  0
 16 49  1  0  0  0  0
 18 19  1  0  0  0  0
 18 50  1  0  0  0  0
 18 51  1  0  0  0  0
 19 52  1  0  0  0  0
 19 53  1  0  0  0  0
 20 21  1  0  0  0  0
 21 23  1  0  0  0  0
 21 24  1  0  0  0  0
 21 54  1  0  0  0  0
 22 25  1  0  0  0  0
 23 24  1  0  0  0  0
 23 55  1  0  0  0  0
 23 56  1  0  0  0  0
 24 57  1  0  0  0  0
 24 58  1  0  0  0  0
 25 26  1  0  0  0  0
 25 59  1  0  0  0  0
 26 27  1  0  0  0  0
 26 28  1  0  0  0  0
 26 60  1  0  0  0  0
 27 62  1  0  0  0  0
 27 63  1  0  0  0  0
 27 64  1  0  0  0  0
 28 65  1  0  0  0  0
 28 66  1  0  0  0  0
 28 67  1  0  0  0  0
 30 31  1  0  0  0  0
 30 32  1  0  0  0  0
 30 69  1  0  0  0  0
 31 33  1  0  0  0  0
 31 34  1  0  0  0  0
 31 70  1  0  0  0  0
 33 71  1  0  0  0  0
 33 72  1  0  0  0  0
 33 73  1  0  0  0  0
 34 74  1  0  0  0  0
 34 75  1  0  0  0  0
 34 76  1  0  0  0  0
 35 36  1  0  0  0  0
 35 77  1  0  0  0  0
 35 78  1  0  0  0  0
 36 37  2  0  0  0  0
 36 38  1  0  0  0  0
 37 39  1  0  0  0  0
 37 79  1  0  0  0  0
 38 40  2  0  0  0  0
 38 80  1  0  0  0  0
 39 41  2  0  0  0  0
 39 81  1  0  0  0  0
 40 41  1  0  0  0  0
 40 82  1  0  0  0  0
 41 83  1  0  0  0  0
M  END
> <PUBCHEM_COMPOUND_CID>
513153
> <PUBCHEM_COMPOUND_CANONICALIZED>
1
> <PUBCHEM_CACTVS_COMPLEXITY>
1050
> <PUBCHEM_CACTVS_HBOND_ACCEPTOR>
6
> <PUBCHEM_CACTVS_HBOND_DONOR>
2
> <PUBCHEM_CACTVS_ROTATABLE_BOND>
10
> <PUBCHEM_CACTVS_SUBSKEYS>
AAADcfB7uAAAAAAAAAAAAAAAGABgAWLAAAAwAAAAAAAWAAABAAAAHgAQAAAADyjhmAYzCIPABACIAiHSGAACAAAgAAAIiIGICIiKZjqA8TiXMAAs1iOYqAecyKAPAAAAAAAAAAAAAAAAAAAAAAAAAAAAAA==
> <PUBCHEM_IUPAC_OPENEYE_NAME>
benzyl (2S)-2-[[(1S)-1-[(3aS,6aR)-4-(cyclopropanecarbonyl)-5-oxo-spiro[2,3,3a,6a-tetrahydropyrrolo[3,2-b]pyrrole-6,1'-cyclobutane]-1-carbonyl]-2-methyl-propyl]carbamoylamino]-3-methyl-butanoate
> <PUBCHEM_IUPAC_CAS_NAME>
(2S)-2-[[[[(2S)-1-[(3aS,6aR)-4-[cyclopropyl(oxo)methyl]-5-oxo-1-spiro[2,3,3a,6a-tetrahydropyrrolo[3,2-b]pyrrole-6,1'-cyclobutane]yl]-3-methyl-1-oxobutan-2-yl]amino]-oxomethyl]amino]-3-methylbutanoic acid (phenylmethyl) ester
> <PUBCHEM_IUPAC_NAME_MARKUP>
benzyl (2<I>S</I>)-2-[[(2<I>S</I>)-1-[(3<I>a</I><I>S</I>,6<I>a</I><I>R</I>)-4-(cyclopropanecarbonyl)-5-oxospiro[2,3,3<I>a</I>,6<I>a</I>-tetrahydropyrrolo[3,2-b]pyrrole-6,1&apos;-cyclobutane]-1-yl]-3-methyl-1-oxobutan-2-yl]carbamoylamino]-3-methylbutanoate
> <PUBCHEM_IUPAC_NAME>
benzyl (2S)-2-[[(2S)-1-[(3aS,6aR)-4-(cyclopropanecarbonyl)-5-oxospiro[2,3,3a,6a-tetrahydropyrrolo[3,2-b]pyrrole-6,1'-cyclobutane]-1-yl]-3-methyl-1-oxobutan-2-yl]carbamoylamino]-3-methylbutanoate
> <PUBCHEM_IUPAC_SYSTEMATIC_NAME>
(phenylmethyl) (2S)-2-[[(2S)-1-[(3aS,6aR)-4-cyclopropylcarbonyl-5-oxidanylidene-spiro[2,3,3a,6a-tetrahydropyrrolo[3,2-b]pyrrole-6,1'-cyclobutane]-1-yl]-3-methyl-1-oxidanylidene-butan-2-yl]carbamoylamino]-3-methyl-butanoate
> <PUBCHEM_IUPAC_TRADITIONAL_NAME>
(2S)-2-[[(1S)-1-[(3aS,6aR)-4-(cyclopropanecarbonyl)-5-keto-spiro[2,3,3a,6a-tetrahydropyrrolo[3,2-b]pyrrole-6,1'-cyclobutane]-1-carbonyl]-2-methyl-propyl]carbamoylamino]-3-methyl-butyric acid benzyl ester
> <PUBCHEM_IUPAC_INCHI>
InChI=1S/C31H42N4O6/c1-18(2)23(32-30(40)33-24(19(3)4)28(38)41-17-20-9-6-5-7-10-20)27(37)34-16-13-22-25(34)31(14-8-15-31)29(39)35(22)26(36)21-11-12-21/h5-7,9-10,18-19,21-25H,8,11-17H2,1-4H3,(H2,32,33,40)/t22-,23-,24-,25-/m0/s1
> <PUBCHEM_IUPAC_INCHIKEY>
YIZAYCZHAYGQDR-QORCZRPOSA-N
> <PUBCHEM_XLOGP3_AA>
3.6
> <PUBCHEM_EXACT_MASS>
566.31043507
> <PUBCHEM_MOLECULAR_FORMULA>
C31H42N4O6
> <PUBCHEM_MOLECULAR_WEIGHT>
566.7
> <PUBCHEM_OPENEYE_CAN_SMILES>
CC(C)C(C(=O)N1CCC2C1C3(CCC3)C(=O)N2C(=O)C4CC4)NC(=O)NC(C(C)C)C(=O)OCC5=CC=CC=C5
> <PUBCHEM_OPENEYE_ISO_SMILES>
CC(C)[C@@H](C(=O)N1CC[C@H]2[C@H]1C3(CCC3)C(=O)N2C(=O)C4CC4)NC(=O)N[C@@H](C(C)C)C(=O)OCC5=CC=CC=C5
> <PUBCHEM_CACTVS_TPSA>
125
> <PUBCHEM_MONOISOTOPIC_WEIGHT>
566.31043507
> <PUBCHEM_TOTAL_CHARGE>
0
> <PUBCHEM_HEAVY_ATOM_COUNT>
41
> <PUBCHEM_ATOM_DEF_STEREO_COUNT>
4
> <PUBCHEM_ATOM_UDEF_STEREO_COUNT>
0
> <PUBCHEM_BOND_DEF_STEREO_COUNT>
0
> <PUBCHEM_BOND_UDEF_STEREO_COUNT>
0
> <PUBCHEM_ISOTOPIC_ATOM_COUNT>
0
> <PUBCHEM_COMPONENT_COUNT>
1
> <PUBCHEM_CACTVS_TAUTO_COUNT>
-1
> <PUBCHEM_COORDINATE_TYPE>
1
5
255
> <PUBCHEM_BONDANNOTATIONS>
30  10  6
12  42  6
13  43  5
36  37  8
36  38  8
37  39  8
38  40  8
39  41  8
40  41  8
25  9  5
$$$$
