513196
  -OEChem-10302200282D
 62 63  0     1  0  0  0  0  0999 V2000
    8.2857   -0.9778    0.0000 O   0  0  0  0  0  0  0  0  0  0  0  0
    4.5576   -0.5572    0.0000 O   0  0  0  0  0  0  0  0  0  0  0  0
    6.3177   -0.2784    0.0000 O   0  0  0  0  0  0  0  0  0  0  0  0
   10.0458   -1.2566    0.0000 O   0  0  0  0  0  0  0  0  0  0  0  0
    7.1979   -3.3257    0.0000 O   0  0  0  0  0  0  0  0  0  0  0  0
    9.3735   -3.3257    0.0000 O   0  0  0  0  0  0  0  0  0  0  0  0
    5.6454    1.7906    0.0000 O   0  0  0  0  0  0  0  0  0  0  0  0
    3.4699    1.7906    0.0000 O   0  0  0  0  0  0  0  0  0  0  0  0
    2.5897   -1.2566    0.0000 N   0  0  0  0  0  0  0  0  0  0  0  0
    7.4767   -1.5656    0.0000 C   0  0  1  0  0  0  0  0  0  0  0  0
    7.7857   -2.5167    0.0000 C   0  0  2  0  0  0  0  0  0  0  0  0
    8.7857   -2.5167    0.0000 C   0  0  1  0  0  0  0  0  0  0  0  0
    5.0576    0.9816    0.0000 C   0  0  2  0  0  0  0  0  0  0  0  0
    5.3667    0.0306    0.0000 C   0  0  2  0  0  0  0  0  0  0  0  0
    4.0576    0.9816    0.0000 C   0  0  1  0  0  0  0  0  0  0  0  0
    3.7486    0.0306    0.0000 C   0  0  1  0  0  0  0  0  0  0  0  0
    9.0947   -1.5656    0.0000 C   0  0  2  0  0  0  0  0  0  0  0  0
    6.5256   -1.2566    0.0000 C   0  0  0  0  0  0  0  0  0  0  0  0
    2.7976   -0.2784    0.0000 C   0  0  0  0  0  0  0  0  0  0  0  0
   10.2537   -0.2784    0.0000 C   0  0  0  0  0  0  0  0  0  0  0  0
   11.2047    0.0306    0.0000 C   0  0  0  0  0  0  0  0  0  0  0  0
   11.4127    1.0087    0.0000 C   0  0  0  0  0  0  0  0  0  0  0  0
   12.3637    1.3177    0.0000 C   0  0  0  0  0  0  0  0  0  0  0  0
   12.5716    2.2959    0.0000 C   0  0  0  0  0  0  0  0  0  0  0  0
   13.5227    2.6049    0.0000 C   0  0  0  0  0  0  0  0  0  0  0  0
   13.7306    3.5831    0.0000 C   0  0  0  0  0  0  0  0  0  0  0  0
   14.6816    3.8921    0.0000 C   0  0  0  0  0  0  0  0  0  0  0  0
    7.3797   -0.9532    0.0000 H   0  0  0  0  0  0  0  0  0  0  0  0
    7.1733   -2.4197    0.0000 H   0  0  0  0  0  0  0  0  0  0  0  0
    8.5042   -3.0691    0.0000 H   0  0  0  0  0  0  0  0  0  0  0  0
    5.6700    0.8846    0.0000 H   0  0  0  0  0  0  0  0  0  0  0  0
    5.4636   -0.5818    0.0000 H   0  0  0  0  0  0  0  0  0  0  0  0
    4.3391    1.5341    0.0000 H   0  0  0  0  0  0  0  0  0  0  0  0
    3.6516   -0.5818    0.0000 H   0  0  0  0  0  0  0  0  0  0  0  0
    9.1917   -0.9532    0.0000 H   0  0  0  0  0  0  0  0  0  0  0  0
    5.9060   -1.2782    0.0000 H   0  0  0  0  0  0  0  0  0  0  0  0
    6.4393   -1.8706    0.0000 H   0  0  0  0  0  0  0  0  0  0  0  0
    2.7113    0.3355    0.0000 H   0  0  0  0  0  0  0  0  0  0  0  0
    2.1779   -0.2568    0.0000 H   0  0  0  0  0  0  0  0  0  0  0  0
    7.4501   -3.8921    0.0000 H   0  0  0  0  0  0  0  0  0  0  0  0
   10.1674    0.3355    0.0000 H   0  0  0  0  0  0  0  0  0  0  0  0
    9.6341   -0.2568    0.0000 H   0  0  0  0  0  0  0  0  0  0  0  0
    9.9901   -3.2609    0.0000 H   0  0  0  0  0  0  0  0  0  0  0  0
    6.2620    1.7258    0.0000 H   0  0  0  0  0  0  0  0  0  0  0  0
    3.7220    2.3570    0.0000 H   0  0  0  0  0  0  0  0  0  0  0  0
   11.2910   -0.5834    0.0000 H   0  0  0  0  0  0  0  0  0  0  0  0
   11.8244    0.0089    0.0000 H   0  0  0  0  0  0  0  0  0  0  0  0
   11.3264    1.6227    0.0000 H   0  0  0  0  0  0  0  0  0  0  0  0
   10.7930    1.0304    0.0000 H   0  0  0  0  0  0  0  0  0  0  0  0
    2.0000   -1.4482    0.0000 H   0  0  0  0  0  0  0  0  0  0  0  0
    3.0504   -1.6714    0.0000 H   0  0  0  0  0  0  0  0  0  0  0  0
   12.4500    0.7038    0.0000 H   0  0  0  0  0  0  0  0  0  0  0  0
   12.9833    1.2961    0.0000 H   0  0  0  0  0  0  0  0  0  0  0  0
   12.4853    2.9099    0.0000 H   0  0  0  0  0  0  0  0  0  0  0  0
   11.9520    2.3175    0.0000 H   0  0  0  0  0  0  0  0  0  0  0  0
   13.6090    1.9909    0.0000 H   0  0  0  0  0  0  0  0  0  0  0  0
   14.1423    2.5833    0.0000 H   0  0  0  0  0  0  0  0  0  0  0  0
   13.6443    4.1970    0.0000 H   0  0  0  0  0  0  0  0  0  0  0  0
   13.1110    3.6047    0.0000 H   0  0  0  0  0  0  0  0  0  0  0  0
   14.8732    3.3024    0.0000 H   0  0  0  0  0  0  0  0  0  0  0  0
   15.2713    4.0837    0.0000 H   0  0  0  0  0  0  0  0  0  0  0  0
   14.4901    4.4817    0.0000 H   0  0  0  0  0  0  0  0  0  0  0  0
  1 10  1  0  0  0  0
  1 17  1  0  0  0  0
  2 14  1  0  0  0  0
  2 16  1  0  0  0  0
 14  3  1  1  0  0  0
  3 18  1  0  0  0  0
 17  4  1  6  0  0  0
  4 20  1  0  0  0  0
 11  5  1  6  0  0  0
  5 40  1  0  0  0  0
 12  6  1  1  0  0  0
  6 43  1  0  0  0  0
 13  7  1  6  0  0  0
  7 44  1  0  0  0  0
 15  8  1  1  0  0  0
  8 45  1  0  0  0  0
  9 19  1  0  0  0  0
  9 50  1  0  0  0  0
  9 51  1  0  0  0  0
 10 11  1  0  0  0  0
 10 18  1  1  0  0  0
 10 28  1  0  0  0  0
 11 12  1  0  0  0  0
 11 29  1  0  0  0  0
 12 17  1  0  0  0  0
 12 30  1  0  0  0  0
 13 14  1  0  0  0  0
 13 15  1  0  0  0  0
 13 31  1  0  0  0  0
 14 32  1  0  0  0  0
 15 16  1  0  0  0  0
 15 33  1  0  0  0  0
 16 19  1  6  0  0  0
 16 34  1  0  0  0  0
 17 35  1  0  0  0  0
 18 36  1  0  0  0  0
 18 37  1  0  0  0  0
 19 38  1  0  0  0  0
 19 39  1  0  0  0  0
 20 21  1  0  0  0  0
 20 41  1  0  0  0  0
 20 42  1  0  0  0  0
 21 22  1  0  0  0  0
 21 46  1  0  0  0  0
 21 47  1  0  0  0  0
 22 23  1  0  0  0  0
 22 48  1  0  0  0  0
 22 49  1  0  0  0  0
 23 24  1  0  0  0  0
 23 52  1  0  0  0  0
 23 53  1  0  0  0  0
 24 25  1  0  0  0  0
 24 54  1  0  0  0  0
 24 55  1  0  0  0  0
 25 26  1  0  0  0  0
 25 56  1  0  0  0  0
 25 57  1  0  0  0  0
 26 27  1  0  0  0  0
 26 58  1  0  0  0  0
 26 59  1  0  0  0  0
 27 60  1  0  0  0  0
 27 61  1  0  0  0  0
 27 62  1  0  0  0  0
M  END
> <PUBCHEM_COMPOUND_CID>
513196
> <PUBCHEM_COMPOUND_CANONICALIZED>
1
> <PUBCHEM_CACTVS_COMPLEXITY>
415
> <PUBCHEM_CACTVS_HBOND_ACCEPTOR>
9
> <PUBCHEM_CACTVS_HBOND_DONOR>
5
> <PUBCHEM_CACTVS_ROTATABLE_BOND>
12
> <PUBCHEM_CACTVS_SUBSKEYS>
AAADcfB6PAAAAAAAAAAAAAAAAAAAASJAAAAAAAAAAAAAAAAAAAAAHgAQCAAACBTxgAcCCABABgAAAAAAAAAAAAAAAAAAAIAAAAATEAIAgAAjQAAHEAAHAAHw8KgAAAAAAAAAAAAAAAAAAAAAAAAAAAAAAA==
> <PUBCHEM_IUPAC_OPENEYE_NAME>
(2R,3S,4S,5S)-2-(aminomethyl)-5-[[(2R,3S,4S,5S)-3,4-dihydroxy-5-octoxy-tetrahydrofuran-2-yl]methoxy]tetrahydrofuran-3,4-diol
> <PUBCHEM_IUPAC_CAS_NAME>
(2R,3S,4S,5S)-2-(aminomethyl)-5-[[(2R,3S,4S,5S)-3,4-dihydroxy-5-octoxy-2-oxolanyl]methoxy]oxolane-3,4-diol
> <PUBCHEM_IUPAC_NAME_MARKUP>
(2<I>R</I>,3<I>S</I>,4<I>S</I>,5<I>S</I>)-2-(aminomethyl)-5-[[(2<I>R</I>,3<I>S</I>,4<I>S</I>,5<I>S</I>)-3,4-dihydroxy-5-octoxyoxolan-2-yl]methoxy]oxolane-3,4-diol
> <PUBCHEM_IUPAC_NAME>
(2R,3S,4S,5S)-2-(aminomethyl)-5-[[(2R,3S,4S,5S)-3,4-dihydroxy-5-octoxyoxolan-2-yl]methoxy]oxolane-3,4-diol
> <PUBCHEM_IUPAC_SYSTEMATIC_NAME>
(2R,3S,4S,5S)-2-(aminomethyl)-5-[[(2R,3S,4S,5S)-5-octoxy-3,4-bis(oxidanyl)oxolan-2-yl]methoxy]oxolane-3,4-diol
> <PUBCHEM_IUPAC_TRADITIONAL_NAME>
(2R,3S,4S,5S)-2-(aminomethyl)-5-[[(2R,3S,4S,5S)-3,4-dihydroxy-5-octoxy-tetrahydrofuran-2-yl]methoxy]tetrahydrofuran-3,4-diol
> <PUBCHEM_IUPAC_INCHI>
InChI=1S/C18H35NO8/c1-2-3-4-5-6-7-8-24-17-16(23)14(21)12(27-17)10-25-18-15(22)13(20)11(9-19)26-18/h11-18,20-23H,2-10,19H2,1H3/t11-,12-,13-,14-,15+,16+,17+,18+/m1/s1
> <PUBCHEM_IUPAC_INCHIKEY>
YXRLYKOCYQVYFD-MSGXSSGNSA-N
> <PUBCHEM_XLOGP3_AA>
0.2
> <PUBCHEM_EXACT_MASS>
393.23626707
> <PUBCHEM_MOLECULAR_FORMULA>
C18H35NO8
> <PUBCHEM_MOLECULAR_WEIGHT>
393.5
> <PUBCHEM_OPENEYE_CAN_SMILES>
CCCCCCCCOC1C(C(C(O1)COC2C(C(C(O2)CN)O)O)O)O
> <PUBCHEM_OPENEYE_ISO_SMILES>
CCCCCCCCO[C@@H]1[C@H]([C@@H]([C@H](O1)CO[C@@H]2[C@H]([C@@H]([C@H](O2)CN)O)O)O)O
> <PUBCHEM_CACTVS_TPSA>
144
> <PUBCHEM_MONOISOTOPIC_WEIGHT>
393.23626707
> <PUBCHEM_TOTAL_CHARGE>
0
> <PUBCHEM_HEAVY_ATOM_COUNT>
27
> <PUBCHEM_ATOM_DEF_STEREO_COUNT>
8
> <PUBCHEM_ATOM_UDEF_STEREO_COUNT>
0
> <PUBCHEM_BOND_DEF_STEREO_COUNT>
0
> <PUBCHEM_BOND_UDEF_STEREO_COUNT>
0
> <PUBCHEM_ISOTOPIC_ATOM_COUNT>
0
> <PUBCHEM_COMPONENT_COUNT>
1
> <PUBCHEM_CACTVS_TAUTO_COUNT>
-1
> <PUBCHEM_COORDINATE_TYPE>
1
5
255
> <PUBCHEM_BONDANNOTATIONS>
10  18  5
16  19  6
14  3  5
17  4  6
11  5  6
12  6  5
13  7  6
15  8  5
$$$$
