513182
  -OEChem-10302200282D
 98101  0     1  0  0  0  0  0999 V2000
   12.1295    1.7244    0.0000 O   0  0  0  0  0  0  0  0  0  0  0  0
    9.7656    0.6719    0.0000 O   0  0  0  0  0  0  0  0  0  0  0  0
    9.7982    2.8472    0.0000 O   0  0  0  0  0  0  0  0  0  0  0  0
   11.1443   -0.7643    0.0000 O   0  0  0  0  0  0  0  0  0  0  0  0
   12.4139   -1.9424    0.0000 O   0  0  0  0  0  0  0  0  0  0  0  0
   13.0941   -1.2094    0.0000 O   0  0  0  0  0  0  0  0  0  0  0  0
    9.7839   -2.2304    0.0000 O   0  0  0  0  0  0  0  0  0  0  0  0
    8.0785    3.0540    0.0000 O   0  0  0  0  0  0  0  0  0  0  0  0
   13.5162    2.9286    0.0000 O   0  0  0  0  0  0  0  0  0  0  0  0
   10.3734   -4.1416    0.0000 O   0  0  0  0  0  0  0  0  0  0  0  0
    8.7592    1.4613    0.0000 O   0  0  0  0  0  0  0  0  0  0  0  0
   12.8467    6.3274    0.0000 O   0  0  0  0  0  0  0  0  0  0  0  0
   14.3940   -5.8970    0.0000 O   0  0  0  0  0  0  0  0  0  0  0  0
   14.3638   -2.3875    0.0000 O   0  0  0  0  0  0  0  0  0  0  0  0
   11.8771    3.4885    0.0000 N   0  0  0  0  0  0  0  0  0  0  0  0
   13.1814    4.6280    0.0000 N   0  0  0  0  0  0  0  0  0  0  0  0
   13.4795    0.4792    0.0000 N   0  0  0  0  0  0  0  0  0  0  0  0
   13.9784   -4.0761    0.0000 N   0  0  0  0  0  0  0  0  0  0  0  0
   16.0768   -5.7074    0.0000 N   0  0  0  0  0  0  0  0  0  0  0  0
   11.5297    0.9243    0.0000 C   0  0  1  0  0  0  0  0  0  0  0  0
   10.5833    1.2475    0.0000 C   0  0  2  0  0  0  0  0  0  0  0  0
   10.5983    2.2474    0.0000 C   0  0  2  0  0  0  0  0  0  0  0  0
   11.5539    2.5421    0.0000 C   0  0  1  0  0  0  0  0  0  0  0  0
   11.8244   -0.0313    0.0000 C   0  0  2  0  0  0  0  0  0  0  0  0
   11.4390   -1.7199    0.0000 C   0  0  1  0  0  0  0  0  0  0  0  0
   12.7994   -0.2538    0.0000 C   0  0  0  0  0  0  0  0  0  0  0  0
   10.7588   -2.4530    0.0000 C   0  0  2  0  0  0  0  0  0  0  0  0
   12.8582    3.6817    0.0000 C   0  0  0  0  0  0  0  0  0  0  0  0
   11.2192    4.2415    0.0000 C   0  0  0  0  0  0  0  0  0  0  0  0
    9.8553   -0.3241    0.0000 C   0  0  0  0  0  0  0  0  0  0  0  0
   11.0536   -3.4085    0.0000 C   0  0  2  0  0  0  0  0  0  0  0  0
    8.8786    2.4542    0.0000 C   0  0  0  0  0  0  0  0  0  0  0  0
   14.9533   -4.2986    0.0000 C   0  0  1  0  0  0  0  0  0  0  0  0
   12.7087   -2.8980    0.0000 C   0  0  0  0  0  0  0  0  0  0  0  0
   15.5768   -3.5168    0.0000 C   0  0  0  0  0  0  0  0  0  0  0  0
   11.5424    5.1879    0.0000 C   0  0  0  0  0  0  0  0  0  0  0  0
   16.5768   -3.5168    0.0000 C   0  0  0  0  0  0  0  0  0  0  0  0
   12.0285   -3.6311    0.0000 C   0  0  0  0  0  0  0  0  0  0  0  0
   17.2003   -4.2986    0.0000 C   0  0  0  0  0  0  0  0  0  0  0  0
   16.9778   -5.2736    0.0000 C   0  0  2  0  0  0  0  0  0  0  0  0
   12.5235    5.3811    0.0000 C   0  0  0  0  0  0  0  0  0  0  0  0
   15.1758   -5.2736    0.0000 C   0  0  0  0  0  0  0  0  0  0  0  0
   13.6836   -3.1205    0.0000 C   0  0  0  0  0  0  0  0  0  0  0  0
   17.7596   -5.8970    0.0000 C   0  0  0  0  0  0  0  0  0  0  0  0
    7.1590    2.6610    0.0000 C   0  0  0  0  0  0  0  0  0  0  0  0
    6.3588    3.2608    0.0000 C   0  0  0  0  0  0  0  0  0  0  0  0
    5.4393    2.8678    0.0000 C   0  0  0  0  0  0  0  0  0  0  0  0
    4.6392    3.4676    0.0000 C   0  0  0  0  0  0  0  0  0  0  0  0
    3.7197    3.0746    0.0000 C   0  0  0  0  0  0  0  0  0  0  0  0
    2.9195    3.6744    0.0000 C   0  0  0  0  0  0  0  0  0  0  0  0
    2.0000    3.2814    0.0000 C   0  0  0  0  0  0  0  0  0  0  0  0
   12.3671    0.7788    0.0000 H   0  0  0  0  0  0  0  0  0  0  0  0
   10.6712    0.6337    0.0000 H   0  0  0  0  0  0  0  0  0  0  0  0
   10.0417    1.9742    0.0000 H   0  0  0  0  0  0  0  0  0  0  0  0
   12.1676    2.6300    0.0000 H   0  0  0  0  0  0  0  0  0  0  0  0
   12.0072   -0.6238    0.0000 H   0  0  0  0  0  0  0  0  0  0  0  0
   10.8346   -1.5820    0.0000 H   0  0  0  0  0  0  0  0  0  0  0  0
   10.5761   -1.8605    0.0000 H   0  0  0  0  0  0  0  0  0  0  0  0
   10.6108    4.1217    0.0000 H   0  0  0  0  0  0  0  0  0  0  0  0
    9.2378   -0.3797    0.0000 H   0  0  0  0  0  0  0  0  0  0  0  0
    9.9108   -0.9416    0.0000 H   0  0  0  0  0  0  0  0  0  0  0  0
   10.4728   -0.2685    0.0000 H   0  0  0  0  0  0  0  0  0  0  0  0
   11.2363   -4.0010    0.0000 H   0  0  0  0  0  0  0  0  0  0  0  0
   14.7485   -3.7134    0.0000 H   0  0  0  0  0  0  0  0  0  0  0  0
   15.7148   -2.9123    0.0000 H   0  0  0  0  0  0  0  0  0  0  0  0
   15.0182   -3.2478    0.0000 H   0  0  0  0  0  0  0  0  0  0  0  0
   17.1354   -3.2478    0.0000 H   0  0  0  0  0  0  0  0  0  0  0  0
   16.4388   -2.9123    0.0000 H   0  0  0  0  0  0  0  0  0  0  0  0
   13.7898    4.7479    0.0000 H   0  0  0  0  0  0  0  0  0  0  0  0
   11.1344    5.6548    0.0000 H   0  0  0  0  0  0  0  0  0  0  0  0
   12.2113   -4.2235    0.0000 H   0  0  0  0  0  0  0  0  0  0  0  0
   17.7589   -4.5676    0.0000 H   0  0  0  0  0  0  0  0  0  0  0  0
   17.5868   -3.8139    0.0000 H   0  0  0  0  0  0  0  0  0  0  0  0
   14.0840    0.3413    0.0000 H   0  0  0  0  0  0  0  0  0  0  0  0
   13.2968    1.0717    0.0000 H   0  0  0  0  0  0  0  0  0  0  0  0
   16.9083   -5.8897    0.0000 H   0  0  0  0  0  0  0  0  0  0  0  0
   13.5567   -4.5306    0.0000 H   0  0  0  0  0  0  0  0  0  0  0  0
   16.0768   -6.3274    0.0000 H   0  0  0  0  0  0  0  0  0  0  0  0
    9.3622   -2.6849    0.0000 H   0  0  0  0  0  0  0  0  0  0  0  0
   17.3730   -6.3818    0.0000 H   0  0  0  0  0  0  0  0  0  0  0  0
   18.2443   -6.2836    0.0000 H   0  0  0  0  0  0  0  0  0  0  0  0
   18.1462   -5.4123    0.0000 H   0  0  0  0  0  0  0  0  0  0  0  0
   10.5562   -4.7340    0.0000 H   0  0  0  0  0  0  0  0  0  0  0  0
    6.7066    2.2370    0.0000 H   0  0  0  0  0  0  0  0  0  0  0  0
    7.4980    2.1418    0.0000 H   0  0  0  0  0  0  0  0  0  0  0  0
    6.8112    3.6848    0.0000 H   0  0  0  0  0  0  0  0  0  0  0  0
    6.0199    3.7799    0.0000 H   0  0  0  0  0  0  0  0  0  0  0  0
    4.9869    2.4438    0.0000 H   0  0  0  0  0  0  0  0  0  0  0  0
    5.7783    2.3486    0.0000 H   0  0  0  0  0  0  0  0  0  0  0  0
    5.0916    3.8916    0.0000 H   0  0  0  0  0  0  0  0  0  0  0  0
    4.3002    3.9867    0.0000 H   0  0  0  0  0  0  0  0  0  0  0  0
    3.2673    2.6506    0.0000 H   0  0  0  0  0  0  0  0  0  0  0  0
    4.0586    2.5554    0.0000 H   0  0  0  0  0  0  0  0  0  0  0  0
    3.3719    4.0984    0.0000 H   0  0  0  0  0  0  0  0  0  0  0  0
    2.5806    4.1935    0.0000 H   0  0  0  0  0  0  0  0  0  0  0  0
    1.7563    3.8515    0.0000 H   0  0  0  0  0  0  0  0  0  0  0  0
    1.4299    3.0377    0.0000 H   0  0  0  0  0  0  0  0  0  0  0  0
    2.2437    2.7112    0.0000 H   0  0  0  0  0  0  0  0  0  0  0  0
  1 20  1  0  0  0  0
  1 23  1  0  0  0  0
 21  2  1  1  0  0  0
  2 30  1  0  0  0  0
 22  3  1  1  0  0  0
  3 32  1  0  0  0  0
 24  4  1  6  0  0  0
 25  4  1  1  0  0  0
  5 25  1  0  0  0  0
  5 34  1  0  0  0  0
  6 26  2  0  0  0  0
 27  7  1  6  0  0  0
  7 79  1  0  0  0  0
  8 32  1  0  0  0  0
  8 45  1  0  0  0  0
  9 28  2  0  0  0  0
 31 10  1  6  0  0  0
 10 83  1  0  0  0  0
 11 32  2  0  0  0  0
 12 41  2  0  0  0  0
 13 42  2  0  0  0  0
 14 43  2  0  0  0  0
 23 15  1  6  0  0  0
 15 28  1  0  0  0  0
 15 29  1  0  0  0  0
 16 28  1  0  0  0  0
 16 41  1  0  0  0  0
 16 69  1  0  0  0  0
 17 26  1  0  0  0  0
 17 74  1  0  0  0  0
 17 75  1  0  0  0  0
 33 18  1  1  0  0  0
 18 43  1  0  0  0  0
 18 77  1  0  0  0  0
 19 40  1  0  0  0  0
 19 42  1  0  0  0  0
 19 78  1  0  0  0  0
 20 21  1  0  0  0  0
 20 24  1  0  0  0  0
 20 52  1  1  0  0  0
 21 22  1  0  0  0  0
 21 53  1  0  0  0  0
 22 23  1  0  0  0  0
 22 54  1  0  0  0  0
 23 55  1  0  0  0  0
 24 26  1  0  0  0  0
 24 56  1  0  0  0  0
 25 27  1  0  0  0  0
 25 57  1  0  0  0  0
 27 31  1  0  0  0  0
 27 58  1  0  0  0  0
 29 36  2  0  0  0  0
 29 59  1  0  0  0  0
 30 60  1  0  0  0  0
 30 61  1  0  0  0  0
 30 62  1  0  0  0  0
 31 38  1  0  0  0  0
 31 63  1  0  0  0  0
 33 35  1  0  0  0  0
 33 42  1  0  0  0  0
 33 64  1  0  0  0  0
 34 38  2  0  0  0  0
 34 43  1  0  0  0  0
 35 37  1  0  0  0  0
 35 65  1  0  0  0  0
 35 66  1  0  0  0  0
 36 41  1  0  0  0  0
 36 70  1  0  0  0  0
 37 39  1  0  0  0  0
 37 67  1  0  0  0  0
 37 68  1  0  0  0  0
 38 71  1  0  0  0  0
 39 40  1  0  0  0  0
 39 72  1  0  0  0  0
 39 73  1  0  0  0  0
 40 44  1  6  0  0  0
 40 76  1  0  0  0  0
 44 80  1  0  0  0  0
 44 81  1  0  0  0  0
 44 82  1  0  0  0  0
 45 46  1  0  0  0  0
 45 84  1  0  0  0  0
 45 85  1  0  0  0  0
 46 47  1  0  0  0  0
 46 86  1  0  0  0  0
 46 87  1  0  0  0  0
 47 48  1  0  0  0  0
 47 88  1  0  0  0  0
 47 89  1  0  0  0  0
 48 49  1  0  0  0  0
 48 90  1  0  0  0  0
 48 91  1  0  0  0  0
 49 50  1  0  0  0  0
 49 92  1  0  0  0  0
 49 93  1  0  0  0  0
 50 51  1  0  0  0  0
 50 94  1  0  0  0  0
 50 95  1  0  0  0  0
 51 96  1  0  0  0  0
 51 97  1  0  0  0  0
 51 98  1  0  0  0  0
M  END
> <PUBCHEM_COMPOUND_CID>
513182
> <PUBCHEM_COMPOUND_CANONICALIZED>
1
> <PUBCHEM_CACTVS_COMPLEXITY>
1360
> <PUBCHEM_CACTVS_HBOND_ACCEPTOR>
14
> <PUBCHEM_CACTVS_HBOND_DONOR>
6
> <PUBCHEM_CACTVS_ROTATABLE_BOND>
17
> <PUBCHEM_CACTVS_SUBSKEYS>
AAADcfB/vAAAAAAAAAAAAAAAAAAAASAAAAAgQAAABYAAAAAAAAAAHgAQCAAACDzxgAcDCAPABgCIACFWWAKACAAgIgAICIHIAEiTVBYAgCQ/UAAP9yKfEcP6/C7AAAAAAAAAAAAAAAAAAAAAAAAAAAAAAA==
> <PUBCHEM_IUPAC_OPENEYE_NAME>
[(2R,3R,4R,5S)-5-[(1R)-2-amino-1-[[(2S,3S,4S)-3,4-dihydroxy-6-[[(3S,7S)-7-methyl-2-oxo-azepan-3-yl]carbamoyl]-3,4-dihydro-2H-pyran-2-yl]oxy]-2-oxo-ethyl]-2-(2,4-dioxopyrimidin-1-yl)-4-methoxy-tetrahydrofuran-3-yl] heptyl carbonate
> <PUBCHEM_IUPAC_CAS_NAME>
carbonic acid [(2R,3R,4R,5S)-5-[(1R)-2-amino-1-[[(2S,3S,4S)-3,4-dihydroxy-6-[[[(3S,7S)-7-methyl-2-oxo-3-azepanyl]amino]-oxomethyl]-3,4-dihydro-2H-pyran-2-yl]oxy]-2-oxoethyl]-2-(2,4-dioxo-1-pyrimidinyl)-4-methoxy-3-oxolanyl] heptyl ester
> <PUBCHEM_IUPAC_NAME_MARKUP>
[(2<I>R</I>,3<I>R</I>,4<I>R</I>,5<I>S</I>)-5-[(1<I>R</I>)-2-amino-1-[[(2<I>S</I>,3<I>S</I>,4<I>S</I>)-3,4-dihydroxy-6-[[(3<I>S</I>,7<I>S</I>)-7-methyl-2-oxoazepan-3-yl]carbamoyl]-3,4-dihydro-2<I>H</I>-pyran-2-yl]oxy]-2-oxoethyl]-2-(2,4-dioxopyrimidin-1-yl)-4-methoxyoxolan-3-yl] heptyl carbonate
> <PUBCHEM_IUPAC_NAME>
[(2R,3R,4R,5S)-5-[(1R)-2-amino-1-[[(2S,3S,4S)-3,4-dihydroxy-6-[[(3S,7S)-7-methyl-2-oxoazepan-3-yl]carbamoyl]-3,4-dihydro-2H-pyran-2-yl]oxy]-2-oxoethyl]-2-(2,4-dioxopyrimidin-1-yl)-4-methoxyoxolan-3-yl] heptyl carbonate
> <PUBCHEM_IUPAC_SYSTEMATIC_NAME>
[(2R,3R,4R,5S)-5-[(1R)-2-azanyl-1-[[(2S,3S,4S)-6-[[(3S,7S)-7-methyl-2-oxidanylidene-azepan-3-yl]carbamoyl]-3,4-bis(oxidanyl)-3,4-dihydro-2H-pyran-2-yl]oxy]-2-oxidanylidene-ethyl]-2-[2,4-bis(oxidanylidene)pyrimidin-1-yl]-4-methoxy-oxolan-3-yl] heptyl carbonate
> <PUBCHEM_IUPAC_TRADITIONAL_NAME>
carbonic acid [(2R,3R,4R,5S)-5-[(1R)-2-amino-1-[[(2S,3S,4S)-3,4-dihydroxy-6-[[(3S,7S)-2-keto-7-methyl-azepan-3-yl]carbamoyl]-3,4-dihydro-2H-pyran-2-yl]oxy]-2-keto-ethyl]-2-(2,4-diketopyrimidin-1-yl)-4-methoxy-tetrahydrofuran-3-yl] heptyl ester
> <PUBCHEM_IUPAC_INCHI>
InChI=1S/C32H47N5O14/c1-4-5-6-7-8-14-47-32(45)51-25-22(46-3)23(49-29(25)37-13-12-20(39)36-31(37)44)24(26(33)41)50-30-21(40)18(38)15-19(48-30)28(43)35-17-11-9-10-16(2)34-27(17)42/h12-13,15-18,21-25,29-30,38,40H,4-11,14H2,1-3H3,(H2,33,41)(H,34,42)(H,35,43)(H,36,39,44)/t16-,17-,18-,21-,22+,23-,24+,25+,29+,30+/m0/s1
> <PUBCHEM_IUPAC_INCHIKEY>
ZYAMHJKNNUSVLZ-LPCMJTKNSA-N
> <PUBCHEM_XLOGP3_AA>
0.2
> <PUBCHEM_EXACT_MASS>
725.31195119
> <PUBCHEM_MOLECULAR_FORMULA>
C32H47N5O14
> <PUBCHEM_MOLECULAR_WEIGHT>
725.7
> <PUBCHEM_OPENEYE_CAN_SMILES>
CCCCCCCOC(=O)OC1C(C(OC1N2C=CC(=O)NC2=O)C(C(=O)N)OC3C(C(C=C(O3)C(=O)NC4CCCC(NC4=O)C)O)O)OC
> <PUBCHEM_OPENEYE_ISO_SMILES>
CCCCCCCOC(=O)O[C@@H]1[C@@H]([C@H](O[C@H]1N2C=CC(=O)NC2=O)[C@H](C(=O)N)O[C@@H]3[C@H]([C@H](C=C(O3)C(=O)N[C@H]4CCC[C@@H](NC4=O)C)O)O)OC
> <PUBCHEM_CACTVS_TPSA>
264
> <PUBCHEM_MONOISOTOPIC_WEIGHT>
725.31195119
> <PUBCHEM_TOTAL_CHARGE>
0
> <PUBCHEM_HEAVY_ATOM_COUNT>
51
> <PUBCHEM_ATOM_DEF_STEREO_COUNT>
10
> <PUBCHEM_ATOM_UDEF_STEREO_COUNT>
0
> <PUBCHEM_BOND_DEF_STEREO_COUNT>
0
> <PUBCHEM_BOND_UDEF_STEREO_COUNT>
0
> <PUBCHEM_ISOTOPIC_ATOM_COUNT>
0
> <PUBCHEM_COMPONENT_COUNT>
1
> <PUBCHEM_CACTVS_TAUTO_COUNT>
-1
> <PUBCHEM_COORDINATE_TYPE>
1
5
255
> <PUBCHEM_BONDANNOTATIONS>
31  10  6
23  15  6
15  28  8
15  29  8
16  28  8
16  41  8
33  18  5
21  2  5
20  52  5
29  36  8
22  3  5
36  41  8
24  4  6
25  4  5
40  44  6
27  7  6
$$$$
