513181
  -OEChem-10302200282D
124127  0     1  0  0  0  0  0999 V2000
   19.0081    1.7244    0.0000 O   0  0  0  0  0  0  0  0  0  0  0  0
   16.6443    0.6719    0.0000 O   0  0  0  0  0  0  0  0  0  0  0  0
   16.6768    2.8472    0.0000 O   0  0  0  0  0  0  0  0  0  0  0  0
   18.0229   -0.7643    0.0000 O   0  0  0  0  0  0  0  0  0  0  0  0
   19.2926   -1.9424    0.0000 O   0  0  0  0  0  0  0  0  0  0  0  0
   19.9728   -1.2094    0.0000 O   0  0  0  0  0  0  0  0  0  0  0  0
   16.6626   -2.2304    0.0000 O   0  0  0  0  0  0  0  0  0  0  0  0
   20.3948    2.9286    0.0000 O   0  0  0  0  0  0  0  0  0  0  0  0
   15.6379    1.4613    0.0000 O   0  0  0  0  0  0  0  0  0  0  0  0
   17.2521   -4.1416    0.0000 O   0  0  0  0  0  0  0  0  0  0  0  0
   19.7254    6.3274    0.0000 O   0  0  0  0  0  0  0  0  0  0  0  0
   21.2424   -2.3875    0.0000 O   0  0  0  0  0  0  0  0  0  0  0  0
   21.2726   -5.8970    0.0000 O   0  0  0  0  0  0  0  0  0  0  0  0
   18.7557    3.4885    0.0000 N   0  0  0  0  0  0  0  0  0  0  0  0
   20.0601    4.6280    0.0000 N   0  0  0  0  0  0  0  0  0  0  0  0
   20.3582    0.4792    0.0000 N   0  0  0  0  0  0  0  0  0  0  0  0
   20.8570   -4.0761    0.0000 N   0  0  0  0  0  0  0  0  0  0  0  0
   22.9554   -5.7074    0.0000 N   0  0  0  0  0  0  0  0  0  0  0  0
   17.4620    1.2475    0.0000 C   0  0  2  0  0  0  0  0  0  0  0  0
   18.4083    0.9243    0.0000 C   0  0  1  0  0  0  0  0  0  0  0  0
   17.4770    2.2474    0.0000 C   0  0  2  0  0  0  0  0  0  0  0  0
   18.4325    2.5421    0.0000 C   0  0  1  0  0  0  0  0  0  0  0  0
   18.7031   -0.0313    0.0000 C   0  0  2  0  0  0  0  0  0  0  0  0
   19.6780   -0.2538    0.0000 C   0  0  0  0  0  0  0  0  0  0  0  0
   18.3177   -1.7199    0.0000 C   0  0  1  0  0  0  0  0  0  0  0  0
   19.7369    3.6817    0.0000 C   0  0  0  0  0  0  0  0  0  0  0  0
   18.0978    4.2415    0.0000 C   0  0  0  0  0  0  0  0  0  0  0  0
   17.6375   -2.4530    0.0000 C   0  0  2  0  0  0  0  0  0  0  0  0
   15.7573    2.4542    0.0000 C   0  0  0  0  0  0  0  0  0  0  0  0
   16.7339   -0.3241    0.0000 C   0  0  0  0  0  0  0  0  0  0  0  0
   17.9322   -3.4085    0.0000 C   0  0  2  0  0  0  0  0  0  0  0  0
   14.9572    3.0540    0.0000 C   0  0  0  0  0  0  0  0  0  0  0  0
   18.4210    5.1879    0.0000 C   0  0  0  0  0  0  0  0  0  0  0  0
   14.0376    2.6610    0.0000 C   0  0  0  0  0  0  0  0  0  0  0  0
   19.5873   -2.8980    0.0000 C   0  0  0  0  0  0  0  0  0  0  0  0
   18.9072   -3.6311    0.0000 C   0  0  0  0  0  0  0  0  0  0  0  0
   13.2375    3.2608    0.0000 C   0  0  0  0  0  0  0  0  0  0  0  0
   19.4022    5.3811    0.0000 C   0  0  0  0  0  0  0  0  0  0  0  0
   21.8320   -4.2986    0.0000 C   0  0  1  0  0  0  0  0  0  0  0  0
   22.4554   -3.5168    0.0000 C   0  0  0  0  0  0  0  0  0  0  0  0
   12.3180    2.8678    0.0000 C   0  0  0  0  0  0  0  0  0  0  0  0
   23.4554   -3.5168    0.0000 C   0  0  0  0  0  0  0  0  0  0  0  0
   24.0789   -4.2986    0.0000 C   0  0  0  0  0  0  0  0  0  0  0  0
   23.8564   -5.2736    0.0000 C   0  0  2  0  0  0  0  0  0  0  0  0
   11.5178    3.4676    0.0000 C   0  0  0  0  0  0  0  0  0  0  0  0
   20.5623   -3.1205    0.0000 C   0  0  0  0  0  0  0  0  0  0  0  0
   10.5983    3.0746    0.0000 C   0  0  0  0  0  0  0  0  0  0  0  0
   22.0545   -5.2736    0.0000 C   0  0  0  0  0  0  0  0  0  0  0  0
    9.7982    3.6744    0.0000 C   0  0  0  0  0  0  0  0  0  0  0  0
    8.8786    3.2814    0.0000 C   0  0  0  0  0  0  0  0  0  0  0  0
    8.0785    3.8812    0.0000 C   0  0  0  0  0  0  0  0  0  0  0  0
   24.6382   -5.8970    0.0000 C   0  0  0  0  0  0  0  0  0  0  0  0
    7.1590    3.4882    0.0000 C   0  0  0  0  0  0  0  0  0  0  0  0
    6.3588    4.0880    0.0000 C   0  0  0  0  0  0  0  0  0  0  0  0
    5.4393    3.6950    0.0000 C   0  0  0  0  0  0  0  0  0  0  0  0
    4.6392    4.2948    0.0000 C   0  0  0  0  0  0  0  0  0  0  0  0
    3.7197    3.9018    0.0000 C   0  0  0  0  0  0  0  0  0  0  0  0
    2.9195    4.5016    0.0000 C   0  0  0  0  0  0  0  0  0  0  0  0
    2.0000    4.1086    0.0000 C   0  0  0  0  0  0  0  0  0  0  0  0
   16.9138    1.5372    0.0000 H   0  0  0  0  0  0  0  0  0  0  0  0
   19.2458    0.7788    0.0000 H   0  0  0  0  0  0  0  0  0  0  0  0
   16.9204    1.9742    0.0000 H   0  0  0  0  0  0  0  0  0  0  0  0
   19.0463    2.6300    0.0000 H   0  0  0  0  0  0  0  0  0  0  0  0
   18.8858   -0.6238    0.0000 H   0  0  0  0  0  0  0  0  0  0  0  0
   17.7132   -1.5820    0.0000 H   0  0  0  0  0  0  0  0  0  0  0  0
   17.4895    4.1217    0.0000 H   0  0  0  0  0  0  0  0  0  0  0  0
   17.4547   -1.8605    0.0000 H   0  0  0  0  0  0  0  0  0  0  0  0
   16.1164   -0.3797    0.0000 H   0  0  0  0  0  0  0  0  0  0  0  0
   16.7895   -0.9416    0.0000 H   0  0  0  0  0  0  0  0  0  0  0  0
   17.3514   -0.2685    0.0000 H   0  0  0  0  0  0  0  0  0  0  0  0
   17.3278   -3.2706    0.0000 H   0  0  0  0  0  0  0  0  0  0  0  0
   15.4095    3.4780    0.0000 H   0  0  0  0  0  0  0  0  0  0  0  0
   14.6182    3.5731    0.0000 H   0  0  0  0  0  0  0  0  0  0  0  0
   20.6684    4.7479    0.0000 H   0  0  0  0  0  0  0  0  0  0  0  0
   18.0131    5.6548    0.0000 H   0  0  0  0  0  0  0  0  0  0  0  0
   13.5852    2.2370    0.0000 H   0  0  0  0  0  0  0  0  0  0  0  0
   14.3766    2.1418    0.0000 H   0  0  0  0  0  0  0  0  0  0  0  0
   20.9626    0.3413    0.0000 H   0  0  0  0  0  0  0  0  0  0  0  0
   20.1754    1.0717    0.0000 H   0  0  0  0  0  0  0  0  0  0  0  0
   19.0899   -4.2235    0.0000 H   0  0  0  0  0  0  0  0  0  0  0  0
   13.6899    3.6848    0.0000 H   0  0  0  0  0  0  0  0  0  0  0  0
   12.8985    3.7799    0.0000 H   0  0  0  0  0  0  0  0  0  0  0  0
   21.3935   -4.7370    0.0000 H   0  0  0  0  0  0  0  0  0  0  0  0
   22.5934   -2.9123    0.0000 H   0  0  0  0  0  0  0  0  0  0  0  0
   21.8968   -3.2478    0.0000 H   0  0  0  0  0  0  0  0  0  0  0  0
   11.8656    2.4438    0.0000 H   0  0  0  0  0  0  0  0  0  0  0  0
   12.6569    2.3486    0.0000 H   0  0  0  0  0  0  0  0  0  0  0  0
   24.0140   -3.2478    0.0000 H   0  0  0  0  0  0  0  0  0  0  0  0
   23.3175   -2.9123    0.0000 H   0  0  0  0  0  0  0  0  0  0  0  0
   24.6375   -4.5676    0.0000 H   0  0  0  0  0  0  0  0  0  0  0  0
   24.4655   -3.8139    0.0000 H   0  0  0  0  0  0  0  0  0  0  0  0
   23.7870   -5.8897    0.0000 H   0  0  0  0  0  0  0  0  0  0  0  0
   16.2409   -2.6849    0.0000 H   0  0  0  0  0  0  0  0  0  0  0  0
   11.9702    3.8916    0.0000 H   0  0  0  0  0  0  0  0  0  0  0  0
   11.1789    3.9867    0.0000 H   0  0  0  0  0  0  0  0  0  0  0  0
   20.4353   -4.5306    0.0000 H   0  0  0  0  0  0  0  0  0  0  0  0
   10.1459    2.6506    0.0000 H   0  0  0  0  0  0  0  0  0  0  0  0
   10.9373    2.5554    0.0000 H   0  0  0  0  0  0  0  0  0  0  0  0
   22.9554   -6.3274    0.0000 H   0  0  0  0  0  0  0  0  0  0  0  0
   10.2506    4.0984    0.0000 H   0  0  0  0  0  0  0  0  0  0  0  0
    9.4592    4.1935    0.0000 H   0  0  0  0  0  0  0  0  0  0  0  0
   17.4348   -4.7340    0.0000 H   0  0  0  0  0  0  0  0  0  0  0  0
    8.4263    2.8574    0.0000 H   0  0  0  0  0  0  0  0  0  0  0  0
    9.2176    2.7622    0.0000 H   0  0  0  0  0  0  0  0  0  0  0  0
    8.5309    4.3052    0.0000 H   0  0  0  0  0  0  0  0  0  0  0  0
    7.7395    4.4003    0.0000 H   0  0  0  0  0  0  0  0  0  0  0  0
   24.2517   -6.3818    0.0000 H   0  0  0  0  0  0  0  0  0  0  0  0
   25.1230   -6.2836    0.0000 H   0  0  0  0  0  0  0  0  0  0  0  0
   25.0248   -5.4123    0.0000 H   0  0  0  0  0  0  0  0  0  0  0  0
    6.7066    3.0642    0.0000 H   0  0  0  0  0  0  0  0  0  0  0  0
    7.4980    2.9690    0.0000 H   0  0  0  0  0  0  0  0  0  0  0  0
    6.8112    4.5120    0.0000 H   0  0  0  0  0  0  0  0  0  0  0  0
    6.0199    4.6071    0.0000 H   0  0  0  0  0  0  0  0  0  0  0  0
    4.9869    3.2710    0.0000 H   0  0  0  0  0  0  0  0  0  0  0  0
    5.7783    3.1758    0.0000 H   0  0  0  0  0  0  0  0  0  0  0  0
    5.0916    4.7187    0.0000 H   0  0  0  0  0  0  0  0  0  0  0  0
    4.3002    4.8139    0.0000 H   0  0  0  0  0  0  0  0  0  0  0  0
    3.2673    3.4778    0.0000 H   0  0  0  0  0  0  0  0  0  0  0  0
    4.0586    3.3826    0.0000 H   0  0  0  0  0  0  0  0  0  0  0  0
    3.3719    4.9255    0.0000 H   0  0  0  0  0  0  0  0  0  0  0  0
    2.5806    5.0207    0.0000 H   0  0  0  0  0  0  0  0  0  0  0  0
    1.7563    4.6786    0.0000 H   0  0  0  0  0  0  0  0  0  0  0  0
    1.4299    3.8649    0.0000 H   0  0  0  0  0  0  0  0  0  0  0  0
    2.2437    3.5384    0.0000 H   0  0  0  0  0  0  0  0  0  0  0  0
  1 20  1  0  0  0  0
  1 22  1  0  0  0  0
 19  2  1  1  0  0  0
  2 30  1  0  0  0  0
 21  3  1  1  0  0  0
  3 29  1  0  0  0  0
 23  4  1  6  0  0  0
 25  4  1  1  0  0  0
  5 25  1  0  0  0  0
  5 35  1  0  0  0  0
  6 24  2  0  0  0  0
 28  7  1  6  0  0  0
  7 93  1  0  0  0  0
  8 26  2  0  0  0  0
  9 29  2  0  0  0  0
 31 10  1  6  0  0  0
 10102  1  0  0  0  0
 11 38  2  0  0  0  0
 12 46  2  0  0  0  0
 13 48  2  0  0  0  0
 22 14  1  6  0  0  0
 14 26  1  0  0  0  0
 14 27  1  0  0  0  0
 15 26  1  0  0  0  0
 15 38  1  0  0  0  0
 15 74  1  0  0  0  0
 16 24  1  0  0  0  0
 16 78  1  0  0  0  0
 16 79  1  0  0  0  0
 39 17  1  1  0  0  0
 17 46  1  0  0  0  0
 17 96  1  0  0  0  0
 18 44  1  0  0  0  0
 18 48  1  0  0  0  0
 18 99  1  0  0  0  0
 19 20  1  0  0  0  0
 19 21  1  0  0  0  0
 19 60  1  0  0  0  0
 20 23  1  0  0  0  0
 20 61  1  1  0  0  0
 21 22  1  0  0  0  0
 21 62  1  0  0  0  0
 22 63  1  0  0  0  0
 23 24  1  0  0  0  0
 23 64  1  0  0  0  0
 25 28  1  0  0  0  0
 25 65  1  0  0  0  0
 27 33  2  0  0  0  0
 27 66  1  0  0  0  0
 28 31  1  0  0  0  0
 28 67  1  0  0  0  0
 29 32  1  0  0  0  0
 30 68  1  0  0  0  0
 30 69  1  0  0  0  0
 30 70  1  0  0  0  0
 31 36  1  0  0  0  0
 31 71  1  0  0  0  0
 32 34  1  0  0  0  0
 32 72  1  0  0  0  0
 32 73  1  0  0  0  0
 33 38  1  0  0  0  0
 33 75  1  0  0  0  0
 34 37  1  0  0  0  0
 34 76  1  0  0  0  0
 34 77  1  0  0  0  0
 35 36  2  0  0  0  0
 35 46  1  0  0  0  0
 36 80  1  0  0  0  0
 37 41  1  0  0  0  0
 37 81  1  0  0  0  0
 37 82  1  0  0  0  0
 39 40  1  0  0  0  0
 39 48  1  0  0  0  0
 39 83  1  0  0  0  0
 40 42  1  0  0  0  0
 40 84  1  0  0  0  0
 40 85  1  0  0  0  0
 41 45  1  0  0  0  0
 41 86  1  0  0  0  0
 41 87  1  0  0  0  0
 42 43  1  0  0  0  0
 42 88  1  0  0  0  0
 42 89  1  0  0  0  0
 43 44  1  0  0  0  0
 43 90  1  0  0  0  0
 43 91  1  0  0  0  0
 44 52  1  6  0  0  0
 44 92  1  0  0  0  0
 45 47  1  0  0  0  0
 45 94  1  0  0  0  0
 45 95  1  0  0  0  0
 47 49  1  0  0  0  0
 47 97  1  0  0  0  0
 47 98  1  0  0  0  0
 49 50  1  0  0  0  0
 49100  1  0  0  0  0
 49101  1  0  0  0  0
 50 51  1  0  0  0  0
 50103  1  0  0  0  0
 50104  1  0  0  0  0
 51 53  1  0  0  0  0
 51105  1  0  0  0  0
 51106  1  0  0  0  0
 52107  1  0  0  0  0
 52108  1  0  0  0  0
 52109  1  0  0  0  0
 53 54  1  0  0  0  0
 53110  1  0  0  0  0
 53111  1  0  0  0  0
 54 55  1  0  0  0  0
 54112  1  0  0  0  0
 54113  1  0  0  0  0
 55 56  1  0  0  0  0
 55114  1  0  0  0  0
 55115  1  0  0  0  0
 56 57  1  0  0  0  0
 56116  1  0  0  0  0
 56117  1  0  0  0  0
 57 58  1  0  0  0  0
 57118  1  0  0  0  0
 57119  1  0  0  0  0
 58 59  1  0  0  0  0
 58120  1  0  0  0  0
 58121  1  0  0  0  0
 59122  1  0  0  0  0
 59123  1  0  0  0  0
 59124  1  0  0  0  0
M  END
> <PUBCHEM_COMPOUND_CID>
513181
> <PUBCHEM_COMPOUND_CANONICALIZED>
1
> <PUBCHEM_CACTVS_COMPLEXITY>
1490
> <PUBCHEM_CACTVS_HBOND_ACCEPTOR>
13
> <PUBCHEM_CACTVS_HBOND_DONOR>
6
> <PUBCHEM_CACTVS_ROTATABLE_BOND>
25
> <PUBCHEM_CACTVS_SUBSKEYS>
AAADcfB/vAAAAAAAAAAAAAAAAAAAASAAAAAgQAAABYAAAAAAAAAAHgAQCAAACDzxgAcDCAPABgCIACHWWAKACAAgIgAICIHIAEiTVBYAgCQ/UAAP9yKfEcP6/K7AAAAAAAAAAAAAAAAAAAAAAAAAAAAAAA==
> <PUBCHEM_IUPAC_OPENEYE_NAME>
[(2R,3R,4R,5S)-5-[(1R)-2-amino-1-[[(2S,3S,4S)-3,4-dihydroxy-6-[[(3S,7S)-7-methyl-2-oxo-azepan-3-yl]carbamoyl]-3,4-dihydro-2H-pyran-2-yl]oxy]-2-oxo-ethyl]-2-(2,4-dioxopyrimidin-1-yl)-4-methoxy-tetrahydrofuran-3-yl] heptadecanoate
> <PUBCHEM_IUPAC_CAS_NAME>
heptadecanoic acid [(2R,3R,4R,5S)-5-[(1R)-2-amino-1-[[(2S,3S,4S)-3,4-dihydroxy-6-[[[(3S,7S)-7-methyl-2-oxo-3-azepanyl]amino]-oxomethyl]-3,4-dihydro-2H-pyran-2-yl]oxy]-2-oxoethyl]-2-(2,4-dioxo-1-pyrimidinyl)-4-methoxy-3-oxolanyl] ester
> <PUBCHEM_IUPAC_NAME_MARKUP>
[(2<I>R</I>,3<I>R</I>,4<I>R</I>,5<I>S</I>)-5-[(1<I>R</I>)-2-amino-1-[[(2<I>S</I>,3<I>S</I>,4<I>S</I>)-3,4-dihydroxy-6-[[(3<I>S</I>,7<I>S</I>)-7-methyl-2-oxoazepan-3-yl]carbamoyl]-3,4-dihydro-2<I>H</I>-pyran-2-yl]oxy]-2-oxoethyl]-2-(2,4-dioxopyrimidin-1-yl)-4-methoxyoxolan-3-yl] heptadecanoate
> <PUBCHEM_IUPAC_NAME>
[(2R,3R,4R,5S)-5-[(1R)-2-amino-1-[[(2S,3S,4S)-3,4-dihydroxy-6-[[(3S,7S)-7-methyl-2-oxoazepan-3-yl]carbamoyl]-3,4-dihydro-2H-pyran-2-yl]oxy]-2-oxoethyl]-2-(2,4-dioxopyrimidin-1-yl)-4-methoxyoxolan-3-yl] heptadecanoate
> <PUBCHEM_IUPAC_SYSTEMATIC_NAME>
[(2R,3R,4R,5S)-5-[(1R)-2-azanyl-1-[[(2S,3S,4S)-6-[[(3S,7S)-7-methyl-2-oxidanylidene-azepan-3-yl]carbamoyl]-3,4-bis(oxidanyl)-3,4-dihydro-2H-pyran-2-yl]oxy]-2-oxidanylidene-ethyl]-2-[2,4-bis(oxidanylidene)pyrimidin-1-yl]-4-methoxy-oxolan-3-yl] heptadecanoate
> <PUBCHEM_IUPAC_TRADITIONAL_NAME>
heptadecanoic acid [(2R,3R,4R,5S)-5-[(1R)-2-amino-1-[[(2S,3S,4S)-3,4-dihydroxy-6-[[(3S,7S)-2-keto-7-methyl-azepan-3-yl]carbamoyl]-3,4-dihydro-2H-pyran-2-yl]oxy]-2-keto-ethyl]-2-(2,4-diketopyrimidin-1-yl)-4-methoxy-tetrahydrofuran-3-yl] ester
> <PUBCHEM_IUPAC_INCHI>
InChI=1S/C41H65N5O13/c1-4-5-6-7-8-9-10-11-12-13-14-15-16-17-21-30(49)57-35-32(55-3)33(58-39(35)46-23-22-29(48)45-41(46)54)34(36(42)51)59-40-31(50)27(47)24-28(56-40)38(53)44-26-20-18-19-25(2)43-37(26)52/h22-27,31-35,39-40,47,50H,4-21H2,1-3H3,(H2,42,51)(H,43,52)(H,44,53)(H,45,48,54)/t25-,26-,27-,31-,32+,33-,34+,35+,39+,40+/m0/s1
> <PUBCHEM_IUPAC_INCHIKEY>
TUMUUHDMIBNGAU-PEMXHOLYSA-N
> <PUBCHEM_XLOGP3_AA>
4.8
> <PUBCHEM_EXACT_MASS>
835.45788714
> <PUBCHEM_MOLECULAR_FORMULA>
C41H65N5O13
> <PUBCHEM_MOLECULAR_WEIGHT>
836.0
> <PUBCHEM_OPENEYE_CAN_SMILES>
CCCCCCCCCCCCCCCCC(=O)OC1C(C(OC1N2C=CC(=O)NC2=O)C(C(=O)N)OC3C(C(C=C(O3)C(=O)NC4CCCC(NC4=O)C)O)O)OC
> <PUBCHEM_OPENEYE_ISO_SMILES>
CCCCCCCCCCCCCCCCC(=O)O[C@@H]1[C@@H]([C@H](O[C@H]1N2C=CC(=O)NC2=O)[C@H](C(=O)N)O[C@@H]3[C@H]([C@H](C=C(O3)C(=O)N[C@H]4CCC[C@@H](NC4=O)C)O)O)OC
> <PUBCHEM_CACTVS_TPSA>
254
> <PUBCHEM_MONOISOTOPIC_WEIGHT>
835.45788714
> <PUBCHEM_TOTAL_CHARGE>
0
> <PUBCHEM_HEAVY_ATOM_COUNT>
59
> <PUBCHEM_ATOM_DEF_STEREO_COUNT>
10
> <PUBCHEM_ATOM_UDEF_STEREO_COUNT>
0
> <PUBCHEM_BOND_DEF_STEREO_COUNT>
0
> <PUBCHEM_BOND_UDEF_STEREO_COUNT>
0
> <PUBCHEM_ISOTOPIC_ATOM_COUNT>
0
> <PUBCHEM_COMPONENT_COUNT>
1
> <PUBCHEM_CACTVS_TAUTO_COUNT>
-1
> <PUBCHEM_COORDINATE_TYPE>
1
5
255
> <PUBCHEM_BONDANNOTATIONS>
31  10  6
22  14  6
14  26  8
14  27  8
15  26  8
15  38  8
39  17  5
19  2  5
20  61  5
27  33  8
21  3  5
33  38  8
23  4  6
25  4  5
44  52  6
28  7  6
$$$$
