513191
  -OEChem-10302200282D
 84 87  0     1  0  0  0  0  0999 V2000
    9.8988   -0.9712    0.0000 O   0  0  0  0  0  0  0  0  0  0  0  0
   10.9157    1.4082    0.0000 O   0  0  0  0  0  0  0  0  0  0  0  0
   12.3714   -0.2086    0.0000 O   0  0  0  0  0  0  0  0  0  0  0  0
    8.9282    1.5233    0.0000 O   0  0  0  0  0  0  0  0  0  0  0  0
    7.1962    1.5233    0.0000 O   0  0  0  0  0  0  0  0  0  0  0  0
    7.1962    0.5233    0.0000 O   0  0  0  0  0  0  0  0  0  0  0  0
    8.9282    3.5233    0.0000 O   0  0  0  0  0  0  0  0  0  0  0  0
    9.7013   -2.7972    0.0000 O   0  0  0  0  0  0  0  0  0  0  0  0
   12.1904    1.5140    0.0000 O   0  0  0  0  0  0  0  0  0  0  0  0
    7.1962    4.5233    0.0000 O   0  0  0  0  0  0  0  0  0  0  0  0
   12.5039   -4.8333    0.0000 O   0  0  0  0  0  0  0  0  0  0  0  0
    5.4641    0.5233    0.0000 O   0  0  0  0  0  0  0  0  0  0  0  0
   11.2836   -2.0927    0.0000 N   0  0  0  0  0  0  0  0  0  0  0  0
   11.1026   -3.8152    0.0000 N   0  0  0  0  0  0  0  0  0  0  0  0
    8.0622   -0.9767    0.0000 N   0  0  0  0  0  0  0  0  0  0  0  0
    4.5981    2.0233    0.0000 N   0  0  0  0  0  0  0  0  0  0  0  0
   10.7078    0.4300    0.0000 C   0  0  2  0  0  0  0  0  0  0  0  0
    9.7942    0.0233    0.0000 C   0  0  1  0  0  0  0  0  0  0  0  0
   11.3769   -0.3131    0.0000 C   0  0  2  0  0  0  0  0  0  0  0  0
   10.8769   -1.1791    0.0000 C   0  0  1  0  0  0  0  0  0  0  0  0
    8.9282    0.5233    0.0000 C   0  0  2  0  0  0  0  0  0  0  0  0
    8.0622    0.0233    0.0000 C   0  0  0  0  0  0  0  0  0  0  0  0
    8.0622    2.0233    0.0000 C   0  0  1  0  0  0  0  0  0  0  0  0
   10.6959   -2.9017    0.0000 C   0  0  0  0  0  0  0  0  0  0  0  0
   12.2782   -2.1972    0.0000 C   0  0  0  0  0  0  0  0  0  0  0  0
    8.0622    3.0233    0.0000 C   0  0  2  0  0  0  0  0  0  0  0  0
   12.7782    0.7050    0.0000 C   0  0  0  0  0  0  0  0  0  0  0  0
   10.1725    2.0773    0.0000 C   0  0  0  0  0  0  0  0  0  0  0  0
    7.1962    3.5233    0.0000 C   0  0  2  0  0  0  0  0  0  0  0  0
   13.7727    0.8095    0.0000 C   0  0  0  0  0  0  0  0  0  0  0  0
   12.6849   -3.1108    0.0000 C   0  0  0  0  0  0  0  0  0  0  0  0
   14.1794    1.7230    0.0000 C   0  0  0  0  0  0  0  0  0  0  0  0
    6.3301    3.0233    0.0000 C   0  0  0  0  0  0  0  0  0  0  0  0
   12.0971   -3.9198    0.0000 C   0  0  0  0  0  0  0  0  0  0  0  0
    6.3301    2.0233    0.0000 C   0  0  0  0  0  0  0  0  0  0  0  0
   15.1739    1.8276    0.0000 C   0  0  0  0  0  0  0  0  0  0  0  0
   15.5807    2.7411    0.0000 C   0  0  0  0  0  0  0  0  0  0  0  0
    5.4641    1.5233    0.0000 C   0  0  0  0  0  0  0  0  0  0  0  0
   16.5752    2.8456    0.0000 C   0  0  0  0  0  0  0  0  0  0  0  0
   16.9819    3.7592    0.0000 C   0  0  0  0  0  0  0  0  0  0  0  0
    3.7320    1.5233    0.0000 C   0  0  0  0  0  0  0  0  0  0  0  0
    3.7320    0.5233    0.0000 C   0  0  0  0  0  0  0  0  0  0  0  0
    2.8660    2.0233    0.0000 C   0  0  0  0  0  0  0  0  0  0  0  0
    2.8660    0.0233    0.0000 C   0  0  0  0  0  0  0  0  0  0  0  0
    2.0000    1.5233    0.0000 C   0  0  0  0  0  0  0  0  0  0  0  0
    2.0000    0.5233    0.0000 C   0  0  0  0  0  0  0  0  0  0  0  0
   11.3066    0.5905    0.0000 H   0  0  0  0  0  0  0  0  0  0  0  0
    9.0814   -0.4396    0.0000 H   0  0  0  0  0  0  0  0  0  0  0  0
   11.7146   -0.8331    0.0000 H   0  0  0  0  0  0  0  0  0  0  0  0
   10.4867   -1.6610    0.0000 H   0  0  0  0  0  0  0  0  0  0  0  0
    9.4651    0.8333    0.0000 H   0  0  0  0  0  0  0  0  0  0  0  0
    8.0622    1.4033    0.0000 H   0  0  0  0  0  0  0  0  0  0  0  0
   12.6426   -1.6956    0.0000 H   0  0  0  0  0  0  0  0  0  0  0  0
    8.0622    3.6433    0.0000 H   0  0  0  0  0  0  0  0  0  0  0  0
   10.5874    2.5381    0.0000 H   0  0  0  0  0  0  0  0  0  0  0  0
    9.7118    2.4922    0.0000 H   0  0  0  0  0  0  0  0  0  0  0  0
    9.7577    1.6166    0.0000 H   0  0  0  0  0  0  0  0  0  0  0  0
    6.6592    3.8333    0.0000 H   0  0  0  0  0  0  0  0  0  0  0  0
   13.7294    0.1910    0.0000 H   0  0  0  0  0  0  0  0  0  0  0  0
   14.3743    0.6595    0.0000 H   0  0  0  0  0  0  0  0  0  0  0  0
   10.7382   -4.3168    0.0000 H   0  0  0  0  0  0  0  0  0  0  0  0
   13.3015   -3.1756    0.0000 H   0  0  0  0  0  0  0  0  0  0  0  0
    7.5252   -1.2867    0.0000 H   0  0  0  0  0  0  0  0  0  0  0  0
    8.5991   -1.2867    0.0000 H   0  0  0  0  0  0  0  0  0  0  0  0
   14.2227    2.3415    0.0000 H   0  0  0  0  0  0  0  0  0  0  0  0
   13.5778    1.8730    0.0000 H   0  0  0  0  0  0  0  0  0  0  0  0
    5.7932    3.3333    0.0000 H   0  0  0  0  0  0  0  0  0  0  0  0
   15.1307    1.2091    0.0000 H   0  0  0  0  0  0  0  0  0  0  0  0
   15.7755    1.6776    0.0000 H   0  0  0  0  0  0  0  0  0  0  0  0
    8.9282    4.1433    0.0000 H   0  0  0  0  0  0  0  0  0  0  0  0
   15.6239    3.3596    0.0000 H   0  0  0  0  0  0  0  0  0  0  0  0
   14.9791    2.8911    0.0000 H   0  0  0  0  0  0  0  0  0  0  0  0
    6.6592    4.8333    0.0000 H   0  0  0  0  0  0  0  0  0  0  0  0
   16.5320    2.2272    0.0000 H   0  0  0  0  0  0  0  0  0  0  0  0
   17.1768    2.6957    0.0000 H   0  0  0  0  0  0  0  0  0  0  0  0
    4.5981    2.6433    0.0000 H   0  0  0  0  0  0  0  0  0  0  0  0
   17.5483    3.5070    0.0000 H   0  0  0  0  0  0  0  0  0  0  0  0
   17.2341    4.3256    0.0000 H   0  0  0  0  0  0  0  0  0  0  0  0
   16.4155    4.0114    0.0000 H   0  0  0  0  0  0  0  0  0  0  0  0
    4.2690    0.2133    0.0000 H   0  0  0  0  0  0  0  0  0  0  0  0
    2.8660    2.6433    0.0000 H   0  0  0  0  0  0  0  0  0  0  0  0
    2.8660   -0.5967    0.0000 H   0  0  0  0  0  0  0  0  0  0  0  0
    1.4631    1.8333    0.0000 H   0  0  0  0  0  0  0  0  0  0  0  0
    1.4631    0.2133    0.0000 H   0  0  0  0  0  0  0  0  0  0  0  0
  1 18  1  0  0  0  0
  1 20  1  0  0  0  0
 17  2  1  1  0  0  0
  2 28  1  0  0  0  0
 19  3  1  1  0  0  0
  3 27  1  0  0  0  0
 21  4  1  6  0  0  0
 23  4  1  1  0  0  0
  5 23  1  0  0  0  0
  5 35  1  0  0  0  0
  6 22  2  0  0  0  0
 26  7  1  6  0  0  0
  7 70  1  0  0  0  0
  8 24  2  0  0  0  0
  9 27  2  0  0  0  0
 29 10  1  6  0  0  0
 10 73  1  0  0  0  0
 11 34  2  0  0  0  0
 12 38  2  0  0  0  0
 20 13  1  6  0  0  0
 13 24  1  0  0  0  0
 13 25  1  0  0  0  0
 14 24  1  0  0  0  0
 14 34  1  0  0  0  0
 14 61  1  0  0  0  0
 15 22  1  0  0  0  0
 15 63  1  0  0  0  0
 15 64  1  0  0  0  0
 16 38  1  0  0  0  0
 16 41  1  0  0  0  0
 16 76  1  0  0  0  0
 17 18  1  0  0  0  0
 17 19  1  0  0  0  0
 17 47  1  0  0  0  0
 18 21  1  0  0  0  0
 18 48  1  1  0  0  0
 19 20  1  0  0  0  0
 19 49  1  0  0  0  0
 20 50  1  0  0  0  0
 21 22  1  0  0  0  0
 21 51  1  0  0  0  0
 23 26  1  0  0  0  0
 23 52  1  0  0  0  0
 25 31  2  0  0  0  0
 25 53  1  0  0  0  0
 26 29  1  0  0  0  0
 26 54  1  0  0  0  0
 27 30  1  0  0  0  0
 28 55  1  0  0  0  0
 28 56  1  0  0  0  0
 28 57  1  0  0  0  0
 29 33  1  0  0  0  0
 29 58  1  0  0  0  0
 30 32  1  0  0  0  0
 30 59  1  0  0  0  0
 30 60  1  0  0  0  0
 31 34  1  0  0  0  0
 31 62  1  0  0  0  0
 32 36  1  0  0  0  0
 32 65  1  0  0  0  0
 32 66  1  0  0  0  0
 33 35  2  0  0  0  0
 33 67  1  0  0  0  0
 35 38  1  0  0  0  0
 36 37  1  0  0  0  0
 36 68  1  0  0  0  0
 36 69  1  0  0  0  0
 37 39  1  0  0  0  0
 37 71  1  0  0  0  0
 37 72  1  0  0  0  0
 39 40  1  0  0  0  0
 39 74  1  0  0  0  0
 39 75  1  0  0  0  0
 40 77  1  0  0  0  0
 40 78  1  0  0  0  0
 40 79  1  0  0  0  0
 41 42  2  0  0  0  0
 41 43  1  0  0  0  0
 42 44  1  0  0  0  0
 42 80  1  0  0  0  0
 43 45  2  0  0  0  0
 43 81  1  0  0  0  0
 44 46  2  0  0  0  0
 44 82  1  0  0  0  0
 45 46  1  0  0  0  0
 45 83  1  0  0  0  0
 46 84  1  0  0  0  0
M  END
> <PUBCHEM_COMPOUND_CID>
513191
> <PUBCHEM_COMPOUND_CANONICALIZED>
1
> <PUBCHEM_CACTVS_COMPLEXITY>
1190
> <PUBCHEM_CACTVS_HBOND_ACCEPTOR>
12
> <PUBCHEM_CACTVS_HBOND_DONOR>
5
> <PUBCHEM_CACTVS_ROTATABLE_BOND>
15
> <PUBCHEM_CACTVS_SUBSKEYS>
AAADcfB7vAAAAAAAAAAAAAAAAAAAASAAAAAwQIAAAAAAAAABAAAAHgAQCAAACBzxkAczyIPABgCIACXWWAKCCAAhIgAIiAFIZMibNDbAkZWvcAhv9yLf2cf6/C7AAAAAAAAAAAAAAAAAAAAAAAAAAAAAAA==
> <PUBCHEM_IUPAC_OPENEYE_NAME>
[(2R,3R,4R,5S)-5-[(1R)-2-amino-1-[[(2S,3S,4S)-3,4-dihydroxy-6-(phenylcarbamoyl)-3,4-dihydro-2H-pyran-2-yl]oxy]-2-oxo-ethyl]-2-(2,4-dioxopyrimidin-1-yl)-4-methoxy-tetrahydrofuran-3-yl] heptanoate
> <PUBCHEM_IUPAC_CAS_NAME>
heptanoic acid [(2R,3R,4R,5S)-5-[(1R)-2-amino-1-[[(2S,3S,4S)-6-[anilino(oxo)methyl]-3,4-dihydroxy-3,4-dihydro-2H-pyran-2-yl]oxy]-2-oxoethyl]-2-(2,4-dioxo-1-pyrimidinyl)-4-methoxy-3-oxolanyl] ester
> <PUBCHEM_IUPAC_NAME_MARKUP>
[(2<I>R</I>,3<I>R</I>,4<I>R</I>,5<I>S</I>)-5-[(1<I>R</I>)-2-amino-1-[[(2<I>S</I>,3<I>S</I>,4<I>S</I>)-3,4-dihydroxy-6-(phenylcarbamoyl)-3,4-dihydro-2<I>H</I>-pyran-2-yl]oxy]-2-oxoethyl]-2-(2,4-dioxopyrimidin-1-yl)-4-methoxyoxolan-3-yl] heptanoate
> <PUBCHEM_IUPAC_NAME>
[(2R,3R,4R,5S)-5-[(1R)-2-amino-1-[[(2S,3S,4S)-3,4-dihydroxy-6-(phenylcarbamoyl)-3,4-dihydro-2H-pyran-2-yl]oxy]-2-oxoethyl]-2-(2,4-dioxopyrimidin-1-yl)-4-methoxyoxolan-3-yl] heptanoate
> <PUBCHEM_IUPAC_SYSTEMATIC_NAME>
[(2R,3R,4R,5S)-5-[(1R)-2-azanyl-1-[[(2S,3S,4S)-3,4-bis(oxidanyl)-6-(phenylcarbamoyl)-3,4-dihydro-2H-pyran-2-yl]oxy]-2-oxidanylidene-ethyl]-2-[2,4-bis(oxidanylidene)pyrimidin-1-yl]-4-methoxy-oxolan-3-yl] heptanoate
> <PUBCHEM_IUPAC_TRADITIONAL_NAME>
enanthic acid [(2R,3R,4R,5S)-5-[(1R)-2-amino-1-[[(2S,3S,4S)-3,4-dihydroxy-6-(phenylcarbamoyl)-3,4-dihydro-2H-pyran-2-yl]oxy]-2-keto-ethyl]-2-(2,4-diketopyrimidin-1-yl)-4-methoxy-tetrahydrofuran-3-yl] ester
> <PUBCHEM_IUPAC_INCHI>
InChI=1S/C30H38N4O12/c1-3-4-5-9-12-20(37)44-25-22(42-2)23(45-28(25)34-14-13-19(36)33-30(34)41)24(26(31)39)46-29-21(38)17(35)15-18(43-29)27(40)32-16-10-7-6-8-11-16/h6-8,10-11,13-15,17,21-25,28-29,35,38H,3-5,9,12H2,1-2H3,(H2,31,39)(H,32,40)(H,33,36,41)/t17-,21-,22+,23-,24+,25+,28+,29+/m0/s1
> <PUBCHEM_IUPAC_INCHIKEY>
NHABIOJFBIDEEY-SGUYKZJCSA-N
> <PUBCHEM_XLOGP3_AA>
0.3
> <PUBCHEM_EXACT_MASS>
646.24862266
> <PUBCHEM_MOLECULAR_FORMULA>
C30H38N4O12
> <PUBCHEM_MOLECULAR_WEIGHT>
646.6
> <PUBCHEM_OPENEYE_CAN_SMILES>
CCCCCCC(=O)OC1C(C(OC1N2C=CC(=O)NC2=O)C(C(=O)N)OC3C(C(C=C(O3)C(=O)NC4=CC=CC=C4)O)O)OC
> <PUBCHEM_OPENEYE_ISO_SMILES>
CCCCCCC(=O)O[C@@H]1[C@@H]([C@H](O[C@H]1N2C=CC(=O)NC2=O)[C@H](C(=O)N)O[C@@H]3[C@H]([C@H](C=C(O3)C(=O)NC4=CC=CC=C4)O)O)OC
> <PUBCHEM_CACTVS_TPSA>
225
> <PUBCHEM_MONOISOTOPIC_WEIGHT>
646.24862266
> <PUBCHEM_TOTAL_CHARGE>
0
> <PUBCHEM_HEAVY_ATOM_COUNT>
46
> <PUBCHEM_ATOM_DEF_STEREO_COUNT>
8
> <PUBCHEM_ATOM_UDEF_STEREO_COUNT>
0
> <PUBCHEM_BOND_DEF_STEREO_COUNT>
0
> <PUBCHEM_BOND_UDEF_STEREO_COUNT>
0
> <PUBCHEM_ISOTOPIC_ATOM_COUNT>
0
> <PUBCHEM_COMPONENT_COUNT>
1
> <PUBCHEM_CACTVS_TAUTO_COUNT>
-1
> <PUBCHEM_COORDINATE_TYPE>
1
5
255
> <PUBCHEM_BONDANNOTATIONS>
29  10  6
20  13  6
13  24  8
13  25  8
14  24  8
14  34  8
18  48  5
17  2  5
25  31  8
19  3  5
31  34  8
21  4  6
23  4  5
41  42  8
41  43  8
42  44  8
43  45  8
44  46  8
45  46  8
26  7  6
$$$$
