513237
  -OEChem-10302200282D
 68 71  0     1  0  0  0  0  0999 V2000
    7.2641   -0.8262    0.0000 P   0  0  3  0  0  0  0  0  0  0  0  0
    4.5981    1.6946    0.0000 F   0  0  0  0  0  0  0  0  0  0  0  0
    6.3580   -1.3400    0.0000 O   0  0  0  0  0  0  0  0  0  0  0  0
    7.2641    0.2155    0.0000 O   0  0  0  0  0  0  0  0  0  0  0  0
    8.2641   -0.8300    0.0000 O   0  0  0  0  0  0  0  0  0  0  0  0
   10.3583    0.8370    0.0000 O   0  0  0  0  0  0  0  0  0  0  0  0
    7.7608   -1.6941    0.0000 O   0  0  0  0  0  0  0  0  0  0  0  0
   11.1068    2.5141    0.0000 O   0  0  0  0  0  0  0  0  0  0  0  0
   14.5533    2.8629    0.0000 O   0  0  0  0  0  0  0  0  0  0  0  0
   12.1195    1.1089    0.0000 N   0  0  0  0  0  0  0  0  0  0  0  0
   12.8300    2.6885    0.0000 N   0  0  0  0  0  0  0  0  0  0  0  0
    4.5981   -2.3054    0.0000 C   0  0  0  0  0  0  0  0  0  0  0  0
    2.8660    0.6946    0.0000 C   0  0  0  0  0  0  0  0  0  0  0  0
    4.5981   -1.3054    0.0000 C   0  0  0  0  0  0  0  0  0  0  0  0
    3.7320    0.1946    0.0000 C   0  0  0  0  0  0  0  0  0  0  0  0
    5.4641   -0.8054    0.0000 C   0  0  0  0  0  0  0  0  0  0  0  0
    3.7320   -0.8054    0.0000 C   0  0  0  0  0  0  0  0  0  0  0  0
    5.4641    0.1946    0.0000 C   0  0  0  0  0  0  0  0  0  0  0  0
    4.5981    0.6946    0.0000 C   0  0  0  0  0  0  0  0  0  0  0  0
    4.5981   -3.3054    0.0000 C   0  0  0  0  0  0  0  0  0  0  0  0
    3.5981   -2.3054    0.0000 C   0  0  0  0  0  0  0  0  0  0  0  0
    5.5981   -2.3054    0.0000 C   0  0  0  0  0  0  0  0  0  0  0  0
    2.0000    1.1946    0.0000 C   0  0  0  0  0  0  0  0  0  0  0  0
    2.3660   -0.1714    0.0000 C   0  0  0  0  0  0  0  0  0  0  0  0
    3.3660    1.5607    0.0000 C   0  0  0  0  0  0  0  0  0  0  0  0
    6.3580    0.7293    0.0000 C   0  0  0  0  0  0  0  0  0  0  0  0
    9.7674    0.0302    0.0000 C   0  0  2  0  0  0  0  0  0  0  0  0
    8.7674    0.0341    0.0000 C   0  0  0  0  0  0  0  0  0  0  0  0
   11.3082    0.5243    0.0000 C   0  0  1  0  0  0  0  0  0  0  0  0
   10.3521   -0.7811    0.0000 C   0  0  0  0  0  0  0  0  0  0  0  0
   11.3043   -0.4757    0.0000 C   0  0  0  0  0  0  0  0  0  0  0  0
   13.0314    0.6987    0.0000 C   0  0  0  0  0  0  0  0  0  0  0  0
   12.0188    2.1038    0.0000 C   0  0  0  0  0  0  0  0  0  0  0  0
   13.8427    1.2833    0.0000 C   0  0  0  0  0  0  0  0  0  0  0  0
   13.7420    2.2783    0.0000 C   0  0  0  0  0  0  0  0  0  0  0  0
   14.7547    0.8731    0.0000 C   0  0  0  0  0  0  0  0  0  0  0  0
    3.1951   -1.1154    0.0000 H   0  0  0  0  0  0  0  0  0  0  0  0
    3.9781   -3.3054    0.0000 H   0  0  0  0  0  0  0  0  0  0  0  0
    4.5981   -3.9254    0.0000 H   0  0  0  0  0  0  0  0  0  0  0  0
    5.2181   -3.3054    0.0000 H   0  0  0  0  0  0  0  0  0  0  0  0
    3.5981   -1.6854    0.0000 H   0  0  0  0  0  0  0  0  0  0  0  0
    2.9781   -2.3054    0.0000 H   0  0  0  0  0  0  0  0  0  0  0  0
    3.5981   -2.9254    0.0000 H   0  0  0  0  0  0  0  0  0  0  0  0
    5.5981   -2.9254    0.0000 H   0  0  0  0  0  0  0  0  0  0  0  0
    6.2181   -2.3054    0.0000 H   0  0  0  0  0  0  0  0  0  0  0  0
    5.5981   -1.6854    0.0000 H   0  0  0  0  0  0  0  0  0  0  0  0
    2.3100    1.7316    0.0000 H   0  0  0  0  0  0  0  0  0  0  0  0
    1.4631    1.5046    0.0000 H   0  0  0  0  0  0  0  0  0  0  0  0
    1.6900    0.6577    0.0000 H   0  0  0  0  0  0  0  0  0  0  0  0
    1.8291    0.1386    0.0000 H   0  0  0  0  0  0  0  0  0  0  0  0
    2.0560   -0.7083    0.0000 H   0  0  0  0  0  0  0  0  0  0  0  0
    2.9030   -0.4814    0.0000 H   0  0  0  0  0  0  0  0  0  0  0  0
    3.9030    1.2507    0.0000 H   0  0  0  0  0  0  0  0  0  0  0  0
    3.6760    2.0976    0.0000 H   0  0  0  0  0  0  0  0  0  0  0  0
    2.8291    1.8707    0.0000 H   0  0  0  0  0  0  0  0  0  0  0  0
    6.7517    1.2083    0.0000 H   0  0  0  0  0  0  0  0  0  0  0  0
    5.9534    1.1991    0.0000 H   0  0  0  0  0  0  0  0  0  0  0  0
    9.4881    0.5837    0.0000 H   0  0  0  0  0  0  0  0  0  0  0  0
    8.8774    0.6442    0.0000 H   0  0  0  0  0  0  0  0  0  0  0  0
    8.1857    0.2484    0.0000 H   0  0  0  0  0  0  0  0  0  0  0  0
   11.8595    0.2407    0.0000 H   0  0  0  0  0  0  0  0  0  0  0  0
   10.1582   -1.3700    0.0000 H   0  0  0  0  0  0  0  0  0  0  0  0
   11.8045   -0.8421    0.0000 H   0  0  0  0  0  0  0  0  0  0  0  0
   13.0939    0.0818    0.0000 H   0  0  0  0  0  0  0  0  0  0  0  0
   12.7676    3.3054    0.0000 H   0  0  0  0  0  0  0  0  0  0  0  0
   14.5003    0.3077    0.0000 H   0  0  0  0  0  0  0  0  0  0  0  0
   15.3201    0.6187    0.0000 H   0  0  0  0  0  0  0  0  0  0  0  0
   15.0090    1.4385    0.0000 H   0  0  0  0  0  0  0  0  0  0  0  0
  1  3  1  0  0  0  0
  1  4  1  0  0  0  0
  1  5  1  0  0  0  0
  1  7  2  0  0  0  0
  2 19  1  0  0  0  0
  3 16  1  0  0  0  0
  4 26  1  0  0  0  0
  5 28  1  0  0  0  0
  6 27  1  0  0  0  0
  6 29  1  0  0  0  0
  8 33  2  0  0  0  0
  9 35  2  0  0  0  0
 29 10  1  1  0  0  0
 10 32  1  0  0  0  0
 10 33  1  0  0  0  0
 11 33  1  0  0  0  0
 11 35  1  0  0  0  0
 11 65  1  0  0  0  0
 12 14  1  0  0  0  0
 12 20  1  0  0  0  0
 12 21  1  0  0  0  0
 12 22  1  0  0  0  0
 13 15  1  0  0  0  0
 13 23  1  0  0  0  0
 13 24  1  0  0  0  0
 13 25  1  0  0  0  0
 14 16  1  0  0  0  0
 14 17  2  0  0  0  0
 15 17  1  0  0  0  0
 15 19  2  0  0  0  0
 16 18  2  0  0  0  0
 17 37  1  0  0  0  0
 18 19  1  0  0  0  0
 18 26  1  0  0  0  0
 20 38  1  0  0  0  0
 20 39  1  0  0  0  0
 20 40  1  0  0  0  0
 21 41  1  0  0  0  0
 21 42  1  0  0  0  0
 21 43  1  0  0  0  0
 22 44  1  0  0  0  0
 22 45  1  0  0  0  0
 22 46  1  0  0  0  0
 23 47  1  0  0  0  0
 23 48  1  0  0  0  0
 23 49  1  0  0  0  0
 24 50  1  0  0  0  0
 24 51  1  0  0  0  0
 24 52  1  0  0  0  0
 25 53  1  0  0  0  0
 25 54  1  0  0  0  0
 25 55  1  0  0  0  0
 26 56  1  0  0  0  0
 26 57  1  0  0  0  0
 27 28  1  1  0  0  0
 27 30  1  0  0  0  0
 27 58  1  0  0  0  0
 28 59  1  0  0  0  0
 28 60  1  0  0  0  0
 29 31  1  0  0  0  0
 29 61  1  0  0  0  0
 30 31  2  0  0  0  0
 30 62  1  0  0  0  0
 31 63  1  0  0  0  0
 32 34  2  0  0  0  0
 32 64  1  0  0  0  0
 34 35  1  0  0  0  0
 34 36  1  0  0  0  0
 36 66  1  0  0  0  0
 36 67  1  0  0  0  0
 36 68  1  0  0  0  0
M  END
> <PUBCHEM_COMPOUND_CID>
513237
> <PUBCHEM_COMPOUND_CANONICALIZED>
1
> <PUBCHEM_CACTVS_COMPLEXITY>
1000
> <PUBCHEM_CACTVS_HBOND_ACCEPTOR>
8
> <PUBCHEM_CACTVS_HBOND_DONOR>
1
> <PUBCHEM_CACTVS_ROTATABLE_BOND>
6
> <PUBCHEM_CACTVS_SUBSKEYS>
AAADcfB7OQIAAAAAAAAAAAAAAAAAAQAAAAA0QIAAAAAAAACRAAAAHwAQACAADhThmA4zBoPABRCIQiFWUICCAAAgIAAIiAEMCMiJJyKAMRKOMAAtxzMKqMeAwPAPoAACAAAIAABAAAQAABAAAAAAAAAAAA==
> <PUBCHEM_IUPAC_OPENEYE_NAME>
1-[(2R,5S)-5-[(6,8-ditert-butyl-5-fluoro-2-oxo-4H-1,3,2lambda5-benzodioxaphosphinin-2-yl)oxymethyl]-2,5-dihydrofuran-2-yl]-5-methyl-pyrimidine-2,4-dione
> <PUBCHEM_IUPAC_CAS_NAME>
1-[(2R,5S)-5-[(6,8-ditert-butyl-5-fluoro-2-oxo-4H-1,3,2lambda5-benzodioxaphosphorin-2-yl)oxymethyl]-2,5-dihydrofuran-2-yl]-5-methylpyrimidine-2,4-dione
> <PUBCHEM_IUPAC_NAME_MARKUP>
1-[(2<I>R</I>,5<I>S</I>)-5-[(6,8-di<I>tert</I>-butyl-5-fluoro-2-oxo-4<I>H</I>-1,3,2&lambda;<SUP>5</SUP>-benzodioxaphosphinin-2-yl)oxymethyl]-2,5-dihydrofuran-2-yl]-5-methylpyrimidine-2,4-dione
> <PUBCHEM_IUPAC_NAME>
1-[(2R,5S)-5-[(6,8-ditert-butyl-5-fluoro-2-oxo-4H-1,3,2lambda5-benzodioxaphosphinin-2-yl)oxymethyl]-2,5-dihydrofuran-2-yl]-5-methylpyrimidine-2,4-dione
> <PUBCHEM_IUPAC_SYSTEMATIC_NAME>
1-[(2R,5S)-5-[(6,8-ditert-butyl-5-fluoranyl-2-oxidanylidene-4H-1,3,2lambda5-benzodioxaphosphinin-2-yl)oxymethyl]-2,5-dihydrofuran-2-yl]-5-methyl-pyrimidine-2,4-dione
> <PUBCHEM_IUPAC_TRADITIONAL_NAME>
1-[(2R,5S)-5-[(6,8-ditert-butyl-5-fluoro-2-keto-4H-1,3,2lambda5-benzodioxaphosphorin-2-yl)oxymethyl]-2,5-dihydrofuran-2-yl]-5-methyl-pyrimidine-2,4-quinone
> <PUBCHEM_IUPAC_INCHI>
InChI=1S/C25H32FN2O7P/c1-14-11-28(23(30)27-22(14)29)19-9-8-15(34-19)12-32-36(31)33-13-16-20(26)17(24(2,3)4)10-18(21(16)35-36)25(5,6)7/h8-11,15,19H,12-13H2,1-7H3,(H,27,29,30)/t15-,19+,36?/m0/s1
> <PUBCHEM_IUPAC_INCHIKEY>
OFXDQYWUBQYOOZ-HPOUCBOBSA-N
> <PUBCHEM_XLOGP3_AA>
4
> <PUBCHEM_EXACT_MASS>
522.19311652
> <PUBCHEM_MOLECULAR_FORMULA>
C25H32FN2O7P
> <PUBCHEM_MOLECULAR_WEIGHT>
522.5
> <PUBCHEM_OPENEYE_CAN_SMILES>
CC1=CN(C(=O)NC1=O)C2C=CC(O2)COP3(=O)OCC4=C(O3)C(=CC(=C4F)C(C)(C)C)C(C)(C)C
> <PUBCHEM_OPENEYE_ISO_SMILES>
CC1=CN(C(=O)NC1=O)[C@H]2C=C[C@H](O2)COP3(=O)OCC4=C(O3)C(=CC(=C4F)C(C)(C)C)C(C)(C)C
> <PUBCHEM_CACTVS_TPSA>
103
> <PUBCHEM_MONOISOTOPIC_WEIGHT>
522.19311652
> <PUBCHEM_TOTAL_CHARGE>
0
> <PUBCHEM_HEAVY_ATOM_COUNT>
36
> <PUBCHEM_ATOM_DEF_STEREO_COUNT>
2
> <PUBCHEM_ATOM_UDEF_STEREO_COUNT>
1
> <PUBCHEM_BOND_DEF_STEREO_COUNT>
0
> <PUBCHEM_BOND_UDEF_STEREO_COUNT>
0
> <PUBCHEM_ISOTOPIC_ATOM_COUNT>
0
> <PUBCHEM_COMPONENT_COUNT>
1
> <PUBCHEM_CACTVS_TAUTO_COUNT>
-1
> <PUBCHEM_COORDINATE_TYPE>
1
5
255
> <PUBCHEM_BONDANNOTATIONS>
1  5  3
29  10  5
10  32  8
10  33  8
11  33  8
11  35  8
14  16  8
14  17  8
15  17  8
15  19  8
16  18  8
18  19  8
27  28  5
32  34  8
34  35  8
$$$$
