513279
  -OEChem-10302200282D
 35 36  0     1  0  0  0  0  0999 V2000
    7.6787    1.6314    0.0000 O   0  0  0  0  0  0  0  0  0  0  0  0
    9.8543    1.6314    0.0000 O   0  0  0  0  0  0  0  0  0  0  0  0
    6.6974   -1.3888    0.0000 O   0  0  0  0  0  0  0  0  0  0  0  0
    3.6942   -0.7978    0.0000 O   0  0  0  0  0  0  0  0  0  0  0  0
    4.2294    0.8495    0.0000 O   0  0  0  0  0  0  0  0  0  0  0  0
    8.7665   -0.7165    0.0000 N   0  0  0  0  0  0  0  0  0  0  0  0
    7.9575   -0.1287    0.0000 C   0  0  2  0  0  0  0  0  0  0  0  0
    8.2665    0.8224    0.0000 C   0  0  1  0  0  0  0  0  0  0  0  0
    9.2665    0.8224    0.0000 C   0  0  1  0  0  0  0  0  0  0  0  0
    9.5755   -0.1287    0.0000 C   0  0  0  0  0  0  0  0  0  0  0  0
    7.0064   -0.4377    0.0000 C   0  0  0  0  0  0  0  0  0  0  0  0
    6.1974    0.1501    0.0000 C   0  0  0  0  0  0  0  0  0  0  0  0
    5.3884   -0.4377    0.0000 C   0  0  0  0  0  0  0  0  0  0  0  0
    5.6974   -1.3888    0.0000 C   0  0  0  0  0  0  0  0  0  0  0  0
    5.1096   -2.1978    0.0000 C   0  0  0  0  0  0  0  0  0  0  0  0
    4.4374   -0.1287    0.0000 C   0  0  0  0  0  0  0  0  0  0  0  0
    2.7431   -0.4888    0.0000 C   0  0  0  0  0  0  0  0  0  0  0  0
    2.0000   -1.1579    0.0000 C   0  0  0  0  0  0  0  0  0  0  0  0
    7.8245   -0.9682    0.0000 H   0  0  0  0  0  0  0  0  0  0  0  0
    7.6541    0.7254    0.0000 H   0  0  0  0  0  0  0  0  0  0  0  0
    8.9850    1.3748    0.0000 H   0  0  0  0  0  0  0  0  0  0  0  0
    9.8855   -0.6656    0.0000 H   0  0  0  0  0  0  0  0  0  0  0  0
   10.1419    0.1235    0.0000 H   0  0  0  0  0  0  0  0  0  0  0  0
    8.7665   -1.3365    0.0000 H   0  0  0  0  0  0  0  0  0  0  0  0
    6.1974    0.7701    0.0000 H   0  0  0  0  0  0  0  0  0  0  0  0
    7.9309    2.1978    0.0000 H   0  0  0  0  0  0  0  0  0  0  0  0
   10.4709    1.5666    0.0000 H   0  0  0  0  0  0  0  0  0  0  0  0
    4.6080   -1.8334    0.0000 H   0  0  0  0  0  0  0  0  0  0  0  0
    4.7452   -2.6994    0.0000 H   0  0  0  0  0  0  0  0  0  0  0  0
    5.6112   -2.5622    0.0000 H   0  0  0  0  0  0  0  0  0  0  0  0
    3.0342    0.0586    0.0000 H   0  0  0  0  0  0  0  0  0  0  0  0
    2.2546   -0.1071    0.0000 H   0  0  0  0  0  0  0  0  0  0  0  0
    1.5851   -0.6972    0.0000 H   0  0  0  0  0  0  0  0  0  0  0  0
    1.5392   -1.5728    0.0000 H   0  0  0  0  0  0  0  0  0  0  0  0
    2.4149   -1.6187    0.0000 H   0  0  0  0  0  0  0  0  0  0  0  0
  8  1  1  6  0  0  0
  1 26  1  0  0  0  0
  9  2  1  6  0  0  0
  2 27  1  0  0  0  0
  3 11  1  0  0  0  0
  3 14  1  0  0  0  0
  4 16  1  0  0  0  0
  4 17  1  0  0  0  0
  5 16  2  0  0  0  0
  6  7  1  0  0  0  0
  6 10  1  0  0  0  0
  6 24  1  0  0  0  0
  7  8  1  0  0  0  0
  7 11  1  0  0  0  0
  7 19  1  6  0  0  0
  8  9  1  0  0  0  0
  8 20  1  0  0  0  0
  9 10  1  0  0  0  0
  9 21  1  0  0  0  0
 10 22  1  0  0  0  0
 10 23  1  0  0  0  0
 11 12  2  0  0  0  0
 12 13  1  0  0  0  0
 12 25  1  0  0  0  0
 13 14  2  0  0  0  0
 13 16  1  0  0  0  0
 14 15  1  0  0  0  0
 15 28  1  0  0  0  0
 15 29  1  0  0  0  0
 15 30  1  0  0  0  0
 17 18  1  0  0  0  0
 17 31  1  0  0  0  0
 17 32  1  0  0  0  0
 18 33  1  0  0  0  0
 18 34  1  0  0  0  0
 18 35  1  0  0  0  0
M  END
> <PUBCHEM_COMPOUND_CID>
513279
> <PUBCHEM_COMPOUND_CANONICALIZED>
1
> <PUBCHEM_CACTVS_COMPLEXITY>
311
> <PUBCHEM_CACTVS_HBOND_ACCEPTOR>
6
> <PUBCHEM_CACTVS_HBOND_DONOR>
3
> <PUBCHEM_CACTVS_ROTATABLE_BOND>
4
> <PUBCHEM_CACTVS_SUBSKEYS>
AAADceByOAAAAAAAAAAAAAAAAAAAAWJAAAAAAAAAAAAAAAABgAAAHgAQCAAADDzhmAYyDILABkCIAqDSCACCCAAkIAAAiIGODMgPNzaMtTuHWWjn8BGZqYfb2fOeAAAAAAAAAAAAAAAAAAAAAAAAAAAAAA==
> <PUBCHEM_IUPAC_OPENEYE_NAME>
ethyl 5-[(2R,3S,4R)-3,4-dihydroxypyrrolidin-2-yl]-2-methyl-furan-3-carboxylate
> <PUBCHEM_IUPAC_CAS_NAME>
5-[(2R,3S,4R)-3,4-dihydroxy-2-pyrrolidinyl]-2-methyl-3-furancarboxylic acid ethyl ester
> <PUBCHEM_IUPAC_NAME_MARKUP>
ethyl 5-[(2<I>R</I>,3<I>S</I>,4<I>R</I>)-3,4-dihydroxypyrrolidin-2-yl]-2-methylfuran-3-carboxylate
> <PUBCHEM_IUPAC_NAME>
ethyl 5-[(2R,3S,4R)-3,4-dihydroxypyrrolidin-2-yl]-2-methylfuran-3-carboxylate
> <PUBCHEM_IUPAC_SYSTEMATIC_NAME>
ethyl 5-[(2R,3S,4R)-3,4-bis(oxidanyl)pyrrolidin-2-yl]-2-methyl-furan-3-carboxylate
> <PUBCHEM_IUPAC_TRADITIONAL_NAME>
5-[(2R,3S,4R)-3,4-dihydroxypyrrolidin-2-yl]-2-methyl-furan-3-carboxylic acid ethyl ester
> <PUBCHEM_IUPAC_INCHI>
InChI=1S/C12H17NO5/c1-3-17-12(16)7-4-9(18-6(7)2)10-11(15)8(14)5-13-10/h4,8,10-11,13-15H,3,5H2,1-2H3/t8-,10+,11-/m1/s1
> <PUBCHEM_IUPAC_INCHIKEY>
HQEANUUDGAQVBA-DVVUODLYSA-N
> <PUBCHEM_XLOGP3_AA>
-0.4
> <PUBCHEM_EXACT_MASS>
255.11067264
> <PUBCHEM_MOLECULAR_FORMULA>
C12H17NO5
> <PUBCHEM_MOLECULAR_WEIGHT>
255.27
> <PUBCHEM_OPENEYE_CAN_SMILES>
CCOC(=O)C1=C(OC(=C1)C2C(C(CN2)O)O)C
> <PUBCHEM_OPENEYE_ISO_SMILES>
CCOC(=O)C1=C(OC(=C1)[C@H]2[C@@H]([C@@H](CN2)O)O)C
> <PUBCHEM_CACTVS_TPSA>
91.9
> <PUBCHEM_MONOISOTOPIC_WEIGHT>
255.11067264
> <PUBCHEM_TOTAL_CHARGE>
0
> <PUBCHEM_HEAVY_ATOM_COUNT>
18
> <PUBCHEM_ATOM_DEF_STEREO_COUNT>
3
> <PUBCHEM_ATOM_UDEF_STEREO_COUNT>
0
> <PUBCHEM_BOND_DEF_STEREO_COUNT>
0
> <PUBCHEM_BOND_UDEF_STEREO_COUNT>
0
> <PUBCHEM_ISOTOPIC_ATOM_COUNT>
0
> <PUBCHEM_COMPONENT_COUNT>
1
> <PUBCHEM_CACTVS_TAUTO_COUNT>
-1
> <PUBCHEM_COORDINATE_TYPE>
1
5
255
> <PUBCHEM_BONDANNOTATIONS>
8  1  6
11  12  8
12  13  8
13  14  8
9  2  6
3  11  8
3  14  8
7  19  6
$$$$
