513225
  -OEChem-10302200282D
 47 50  0     1  0  0  0  0  0999 V2000
    5.5321   -0.3331    0.0000 P   0  0  3  0  0  0  0  0  0  0  0  0
   13.0160   -0.3292    0.0000 F   0  0  0  0  0  0  0  0  0  0  0  0
    8.6198   -0.2761    0.0000 O   0  0  0  0  0  0  0  0  0  0  0  0
    8.3108    2.2930    0.0000 O   0  0  0  0  0  0  0  0  0  0  0  0
    6.5321   -0.3331    0.0000 O   0  0  0  0  0  0  0  0  0  0  0  0
    4.6660   -0.8331    0.0000 O   0  0  0  0  0  0  0  0  0  0  0  0
    5.5321    0.6669    0.0000 O   0  0  0  0  0  0  0  0  0  0  0  0
    9.3618   -1.9561    0.0000 O   0  0  0  0  0  0  0  0  0  0  0  0
    6.0321   -1.1991    0.0000 O   0  0  0  0  0  0  0  0  0  0  0  0
   12.8070   -2.3182    0.0000 O   0  0  0  0  0  0  0  0  0  0  0  0
   10.3799   -0.5548    0.0000 N   0  0  0  0  0  0  0  0  0  0  0  0
   11.0844   -2.1372    0.0000 N   0  0  0  0  0  0  0  0  0  0  0  0
    8.0321    0.5329    0.0000 C   0  0  1  0  0  0  0  0  0  0  0  0
    8.6198    1.3420    0.0000 C   0  0  2  0  0  0  0  0  0  0  0  0
    9.5709    1.0329    0.0000 C   0  0  0  0  0  0  0  0  0  0  0  0
    9.5709    0.0329    0.0000 C   0  0  1  0  0  0  0  0  0  0  0  0
    7.0321    0.5329    0.0000 C   0  0  0  0  0  0  0  0  0  0  0  0
   10.2754   -1.5494    0.0000 C   0  0  0  0  0  0  0  0  0  0  0  0
   11.2935   -0.1481    0.0000 C   0  0  0  0  0  0  0  0  0  0  0  0
   12.1025   -0.7359    0.0000 C   0  0  0  0  0  0  0  0  0  0  0  0
    3.8000   -0.3331    0.0000 C   0  0  0  0  0  0  0  0  0  0  0  0
    3.8000    0.6669    0.0000 C   0  0  0  0  0  0  0  0  0  0  0  0
    4.6660    1.1669    0.0000 C   0  0  0  0  0  0  0  0  0  0  0  0
   11.9980   -1.7304    0.0000 C   0  0  0  0  0  0  0  0  0  0  0  0
    2.9061   -0.8678    0.0000 C   0  0  0  0  0  0  0  0  0  0  0  0
    2.9061    1.2016    0.0000 C   0  0  0  0  0  0  0  0  0  0  0  0
    2.0000   -0.3539    0.0000 C   0  0  0  0  0  0  0  0  0  0  0  0
    2.0000    0.6877    0.0000 C   0  0  0  0  0  0  0  0  0  0  0  0
    2.9176   -1.8677    0.0000 C   0  0  0  0  0  0  0  0  0  0  0  0
    7.7506   -0.0195    0.0000 H   0  0  0  0  0  0  0  0  0  0  0  0
    8.0075    1.4389    0.0000 H   0  0  0  0  0  0  0  0  0  0  0  0
   10.1875    0.9681    0.0000 H   0  0  0  0  0  0  0  0  0  0  0  0
    9.6998    1.6394    0.0000 H   0  0  0  0  0  0  0  0  0  0  0  0
    9.4739   -0.5794    0.0000 H   0  0  0  0  0  0  0  0  0  0  0  0
    7.1397    1.1435    0.0000 H   0  0  0  0  0  0  0  0  0  0  0  0
    6.4494    0.7450    0.0000 H   0  0  0  0  0  0  0  0  0  0  0  0
    8.7257    2.7538    0.0000 H   0  0  0  0  0  0  0  0  0  0  0  0
   11.3583    0.4685    0.0000 H   0  0  0  0  0  0  0  0  0  0  0  0
   11.0196   -2.7538    0.0000 H   0  0  0  0  0  0  0  0  0  0  0  0
    5.0646    1.6419    0.0000 H   0  0  0  0  0  0  0  0  0  0  0  0
    4.2675    1.6419    0.0000 H   0  0  0  0  0  0  0  0  0  0  0  0
    2.9132    1.8215    0.0000 H   0  0  0  0  0  0  0  0  0  0  0  0
    1.4643   -0.6660    0.0000 H   0  0  0  0  0  0  0  0  0  0  0  0
    1.4643    0.9998    0.0000 H   0  0  0  0  0  0  0  0  0  0  0  0
    2.2977   -1.8748    0.0000 H   0  0  0  0  0  0  0  0  0  0  0  0
    2.9248   -2.4876    0.0000 H   0  0  0  0  0  0  0  0  0  0  0  0
    3.5376   -1.8605    0.0000 H   0  0  0  0  0  0  0  0  0  0  0  0
  1  5  1  0  0  0  0
  1  6  1  0  0  0  0
  1  7  1  0  0  0  0
  1  9  2  0  0  0  0
  2 20  1  0  0  0  0
  3 13  1  0  0  0  0
  3 16  1  0  0  0  0
 14  4  1  1  0  0  0
  4 37  1  0  0  0  0
  5 17  1  0  0  0  0
  6 21  1  0  0  0  0
  7 23  1  0  0  0  0
  8 18  2  0  0  0  0
 10 24  2  0  0  0  0
 16 11  1  6  0  0  0
 11 18  1  0  0  0  0
 11 19  1  0  0  0  0
 12 18  1  0  0  0  0
 12 24  1  0  0  0  0
 12 39  1  0  0  0  0
 13 14  1  0  0  0  0
 13 17  1  6  0  0  0
 13 30  1  0  0  0  0
 14 15  1  0  0  0  0
 14 31  1  0  0  0  0
 15 16  1  0  0  0  0
 15 32  1  0  0  0  0
 15 33  1  0  0  0  0
 16 34  1  0  0  0  0
 17 35  1  0  0  0  0
 17 36  1  0  0  0  0
 19 20  2  0  0  0  0
 19 38  1  0  0  0  0
 20 24  1  0  0  0  0
 21 22  1  0  0  0  0
 21 25  2  0  0  0  0
 22 23  1  0  0  0  0
 22 26  2  0  0  0  0
 23 40  1  0  0  0  0
 23 41  1  0  0  0  0
 25 27  1  0  0  0  0
 25 29  1  0  0  0  0
 26 28  1  0  0  0  0
 26 42  1  0  0  0  0
 27 28  2  0  0  0  0
 27 43  1  0  0  0  0
 28 44  1  0  0  0  0
 29 45  1  0  0  0  0
 29 46  1  0  0  0  0
 29 47  1  0  0  0  0
M  END
> <PUBCHEM_COMPOUND_CID>
513225
> <PUBCHEM_COMPOUND_CANONICALIZED>
1
> <PUBCHEM_CACTVS_COMPLEXITY>
764
> <PUBCHEM_CACTVS_HBOND_ACCEPTOR>
9
> <PUBCHEM_CACTVS_HBOND_DONOR>
2
> <PUBCHEM_CACTVS_ROTATABLE_BOND>
4
> <PUBCHEM_CACTVS_SUBSKEYS>
AAADceB7PQIAAAAAAAAAAAAAAAAAASAAAAA0QIAAAAAAAACRAAAAHwAQCCAADBThmAYzBoPABxCIQiFWUICCAAAgIAAIiAAMCMiJNyKAkRKOcAAvxzMLiMew8GIOAAACAAAIAAAAAAQAABAAAAAAAAAAAA==
> <PUBCHEM_IUPAC_OPENEYE_NAME>
5-fluoro-1-[(2R,4S,5R)-4-hydroxy-5-[(8-methyl-2-oxo-4H-1,3,2lambda5-benzodioxaphosphinin-2-yl)oxymethyl]tetrahydrofuran-2-yl]pyrimidine-2,4-dione
> <PUBCHEM_IUPAC_CAS_NAME>
5-fluoro-1-[(2R,4S,5R)-4-hydroxy-5-[(8-methyl-2-oxo-4H-1,3,2lambda5-benzodioxaphosphorin-2-yl)oxymethyl]-2-oxolanyl]pyrimidine-2,4-dione
> <PUBCHEM_IUPAC_NAME_MARKUP>
5-fluoro-1-[(2<I>R</I>,4<I>S</I>,5<I>R</I>)-4-hydroxy-5-[(8-methyl-2-oxo-4<I>H</I>-1,3,2&lambda;<SUP>5</SUP>-benzodioxaphosphinin-2-yl)oxymethyl]oxolan-2-yl]pyrimidine-2,4-dione
> <PUBCHEM_IUPAC_NAME>
5-fluoro-1-[(2R,4S,5R)-4-hydroxy-5-[(8-methyl-2-oxo-4H-1,3,2lambda5-benzodioxaphosphinin-2-yl)oxymethyl]oxolan-2-yl]pyrimidine-2,4-dione
> <PUBCHEM_IUPAC_SYSTEMATIC_NAME>
5-fluoranyl-1-[(2R,4S,5R)-5-[(8-methyl-2-oxidanylidene-4H-1,3,2lambda5-benzodioxaphosphinin-2-yl)oxymethyl]-4-oxidanyl-oxolan-2-yl]pyrimidine-2,4-dione
> <PUBCHEM_IUPAC_TRADITIONAL_NAME>
5-fluoro-1-[(2R,4S,5R)-4-hydroxy-5-[(2-keto-8-methyl-4H-1,3,2lambda5-benzodioxaphosphorin-2-yl)oxymethyl]tetrahydrofuran-2-yl]pyrimidine-2,4-quinone
> <PUBCHEM_IUPAC_INCHI>
InChI=1S/C17H18FN2O8P/c1-9-3-2-4-10-7-25-29(24,28-15(9)10)26-8-13-12(21)5-14(27-13)20-6-11(18)16(22)19-17(20)23/h2-4,6,12-14,21H,5,7-8H2,1H3,(H,19,22,23)/t12-,13+,14+,29?/m0/s1
> <PUBCHEM_IUPAC_INCHIKEY>
DBYXXPDVBXGZQA-XDBDKROASA-N
> <PUBCHEM_XLOGP3_AA>
0.2
> <PUBCHEM_EXACT_MASS>
428.07848070
> <PUBCHEM_MOLECULAR_FORMULA>
C17H18FN2O8P
> <PUBCHEM_MOLECULAR_WEIGHT>
428.3
> <PUBCHEM_OPENEYE_CAN_SMILES>
CC1=C2C(=CC=C1)COP(=O)(O2)OCC3C(CC(O3)N4C=C(C(=O)NC4=O)F)O
> <PUBCHEM_OPENEYE_ISO_SMILES>
CC1=C2C(=CC=C1)COP(=O)(O2)OC[C@@H]3[C@H](C[C@@H](O3)N4C=C(C(=O)NC4=O)F)O
> <PUBCHEM_CACTVS_TPSA>
124
> <PUBCHEM_MONOISOTOPIC_WEIGHT>
428.07848070
> <PUBCHEM_TOTAL_CHARGE>
0
> <PUBCHEM_HEAVY_ATOM_COUNT>
29
> <PUBCHEM_ATOM_DEF_STEREO_COUNT>
3
> <PUBCHEM_ATOM_UDEF_STEREO_COUNT>
1
> <PUBCHEM_BOND_DEF_STEREO_COUNT>
0
> <PUBCHEM_BOND_UDEF_STEREO_COUNT>
0
> <PUBCHEM_ISOTOPIC_ATOM_COUNT>
0
> <PUBCHEM_COMPONENT_COUNT>
1
> <PUBCHEM_CACTVS_TAUTO_COUNT>
-1
> <PUBCHEM_COORDINATE_TYPE>
1
5
255
> <PUBCHEM_BONDANNOTATIONS>
1  5  3
16  11  6
11  18  8
11  19  8
12  18  8
12  24  8
13  17  6
19  20  8
20  24  8
21  22  8
21  25  8
22  26  8
25  27  8
26  28  8
27  28  8
14  4  5
$$$$
