513200
  -OEChem-10302200282D
 64 67  0     1  0  0  0  0  0999 V2000
    7.4595    1.9958    0.0000 P   0  0  3  0  0  0  0  0  0  0  0  0
    6.6495    1.4094    0.0000 O   0  0  0  0  0  0  0  0  0  0  0  0
    6.8731    2.8058    0.0000 O   0  0  0  0  0  0  0  0  0  0  0  0
    8.0459    1.1857    0.0000 O   0  0  0  0  0  0  0  0  0  0  0  0
   10.9053    2.3519    0.0000 O   0  0  0  0  0  0  0  0  0  0  0  0
    9.8896    3.7549    0.0000 O   0  0  0  0  0  0  0  0  0  0  0  0
    4.6783   -2.4296    0.0000 N   0  0  0  0  0  0  0  0  0  0  0  0
    4.6783   -4.0391    0.0000 N   0  0  0  0  0  0  0  0  0  0  0  0
    2.8660   -2.2343    0.0000 N   0  0  0  0  0  0  0  0  0  0  0  0
    8.2695    2.5822    0.0000 N   0  0  0  0  0  0  0  0  0  0  0  0
    2.0000   -3.7343    0.0000 N   0  0  0  0  0  0  0  0  0  0  0  0
    2.8660   -5.2343    0.0000 N   0  0  0  0  0  0  0  0  0  0  0  0
    5.9422   -0.1717    0.0000 C   0  0  2  0  0  0  0  0  0  0  0  0
    4.9889   -1.4791    0.0000 C   0  0  1  0  0  0  0  0  0  0  0  0
    5.9405   -1.1717    0.0000 C   0  0  0  0  0  0  0  0  0  0  0  0
    4.9917    0.1390    0.0000 C   0  0  0  0  0  0  0  0  0  0  0  0
    4.4026   -0.6690    0.0000 C   0  0  0  0  0  0  0  0  0  0  0  0
    6.7523    0.4147    0.0000 C   0  0  0  0  0  0  0  0  0  0  0  0
    3.7320   -2.7343    0.0000 C   0  0  0  0  0  0  0  0  0  0  0  0
    5.2619   -3.2343    0.0000 C   0  0  0  0  0  0  0  0  0  0  0  0
    3.7320   -3.7343    0.0000 C   0  0  0  0  0  0  0  0  0  0  0  0
    2.8660   -4.2343    0.0000 C   0  0  0  0  0  0  0  0  0  0  0  0
    9.1824    2.1738    0.0000 C   0  0  1  0  0  0  0  0  0  0  0  0
    2.0000   -2.7343    0.0000 C   0  0  0  0  0  0  0  0  0  0  0  0
    9.2852    1.1791    0.0000 C   0  0  0  0  0  0  0  0  0  0  0  0
    9.9924    2.7602    0.0000 C   0  0  0  0  0  0  0  0  0  0  0  0
    7.2814    3.7186    0.0000 C   0  0  0  0  0  0  0  0  0  0  0  0
   11.7153    2.9383    0.0000 C   0  0  0  0  0  0  0  0  0  0  0  0
    6.6951    4.5287    0.0000 C   0  0  0  0  0  0  0  0  0  0  0  0
    8.2762    3.8214    0.0000 C   0  0  0  0  0  0  0  0  0  0  0  0
   12.6281    2.5300    0.0000 C   0  0  0  0  0  0  0  0  0  0  0  0
   11.6125    3.9330    0.0000 C   0  0  0  0  0  0  0  0  0  0  0  0
    7.1034    5.4415    0.0000 C   0  0  0  0  0  0  0  0  0  0  0  0
    8.6845    4.7343    0.0000 C   0  0  0  0  0  0  0  0  0  0  0  0
    8.0981    5.5443    0.0000 C   0  0  0  0  0  0  0  0  0  0  0  0
    6.4942   -0.4541    0.0000 H   0  0  0  0  0  0  0  0  0  0  0  0
    5.4266   -1.9182    0.0000 H   0  0  0  0  0  0  0  0  0  0  0  0
    6.0684   -1.7784    0.0000 H   0  0  0  0  0  0  0  0  0  0  0  0
    6.5572   -1.1080    0.0000 H   0  0  0  0  0  0  0  0  0  0  0  0
    4.8012    0.7289    0.0000 H   0  0  0  0  0  0  0  0  0  0  0  0
    3.7826   -0.6680    0.0000 H   0  0  0  0  0  0  0  0  0  0  0  0
    7.0231   -0.1430    0.0000 H   0  0  0  0  0  0  0  0  0  0  0  0
    7.3486    0.5845    0.0000 H   0  0  0  0  0  0  0  0  0  0  0  0
    5.8819   -3.2343    0.0000 H   0  0  0  0  0  0  0  0  0  0  0  0
    8.2058    3.1989    0.0000 H   0  0  0  0  0  0  0  0  0  0  0  0
    8.6802    1.8103    0.0000 H   0  0  0  0  0  0  0  0  0  0  0  0
    1.4631   -2.4243    0.0000 H   0  0  0  0  0  0  0  0  0  0  0  0
    8.6685    1.1154    0.0000 H   0  0  0  0  0  0  0  0  0  0  0  0
    9.3489    0.5624    0.0000 H   0  0  0  0  0  0  0  0  0  0  0  0
    9.9019    1.2429    0.0000 H   0  0  0  0  0  0  0  0  0  0  0  0
    2.3291   -5.5443    0.0000 H   0  0  0  0  0  0  0  0  0  0  0  0
    3.4030   -5.5443    0.0000 H   0  0  0  0  0  0  0  0  0  0  0  0
   11.1493    3.1914    0.0000 H   0  0  0  0  0  0  0  0  0  0  0  0
    6.0783    4.4649    0.0000 H   0  0  0  0  0  0  0  0  0  0  0  0
    8.6397    3.3192    0.0000 H   0  0  0  0  0  0  0  0  0  0  0  0
   12.3750    1.9640    0.0000 H   0  0  0  0  0  0  0  0  0  0  0  0
   13.1941    2.2768    0.0000 H   0  0  0  0  0  0  0  0  0  0  0  0
   12.8813    3.0959    0.0000 H   0  0  0  0  0  0  0  0  0  0  0  0
   12.2292    3.9967    0.0000 H   0  0  0  0  0  0  0  0  0  0  0  0
   11.5487    4.5497    0.0000 H   0  0  0  0  0  0  0  0  0  0  0  0
   10.9958    3.8692    0.0000 H   0  0  0  0  0  0  0  0  0  0  0  0
    6.7398    5.9437    0.0000 H   0  0  0  0  0  0  0  0  0  0  0  0
    9.3012    4.7980    0.0000 H   0  0  0  0  0  0  0  0  0  0  0  0
    8.3512    6.1103    0.0000 H   0  0  0  0  0  0  0  0  0  0  0  0
  1  2  1  0  0  0  0
  1  3  1  0  0  0  0
  1  4  2  0  0  0  0
  1 10  1  0  0  0  0
  2 18  1  0  0  0  0
  3 27  1  0  0  0  0
  5 26  1  0  0  0  0
  5 28  1  0  0  0  0
  6 26  2  0  0  0  0
 14  7  1  6  0  0  0
  7 19  1  0  0  0  0
  7 20  1  0  0  0  0
  8 20  2  0  0  0  0
  8 21  1  0  0  0  0
  9 19  2  0  0  0  0
  9 24  1  0  0  0  0
 23 10  1  6  0  0  0
 10 45  1  0  0  0  0
 11 22  1  0  0  0  0
 11 24  2  0  0  0  0
 12 22  1  0  0  0  0
 12 51  1  0  0  0  0
 12 52  1  0  0  0  0
 13 15  1  0  0  0  0
 13 16  1  0  0  0  0
 13 18  1  6  0  0  0
 13 36  1  0  0  0  0
 14 15  1  0  0  0  0
 14 17  1  0  0  0  0
 14 37  1  0  0  0  0
 15 38  1  0  0  0  0
 15 39  1  0  0  0  0
 16 17  2  0  0  0  0
 16 40  1  0  0  0  0
 17 41  1  0  0  0  0
 18 42  1  0  0  0  0
 18 43  1  0  0  0  0
 19 21  1  0  0  0  0
 20 44  1  0  0  0  0
 21 22  2  0  0  0  0
 23 25  1  0  0  0  0
 23 26  1  0  0  0  0
 23 46  1  0  0  0  0
 24 47  1  0  0  0  0
 25 48  1  0  0  0  0
 25 49  1  0  0  0  0
 25 50  1  0  0  0  0
 27 29  2  0  0  0  0
 27 30  1  0  0  0  0
 28 31  1  0  0  0  0
 28 32  1  0  0  0  0
 28 53  1  0  0  0  0
 29 33  1  0  0  0  0
 29 54  1  0  0  0  0
 30 34  2  0  0  0  0
 30 55  1  0  0  0  0
 31 56  1  0  0  0  0
 31 57  1  0  0  0  0
 31 58  1  0  0  0  0
 32 59  1  0  0  0  0
 32 60  1  0  0  0  0
 32 61  1  0  0  0  0
 33 35  2  0  0  0  0
 33 62  1  0  0  0  0
 34 35  1  0  0  0  0
 34 63  1  0  0  0  0
 35 64  1  0  0  0  0
M  END
> <PUBCHEM_COMPOUND_CID>
513200
> <PUBCHEM_COMPOUND_CANONICALIZED>
1
> <PUBCHEM_CACTVS_COMPLEXITY>
794
> <PUBCHEM_CACTVS_HBOND_ACCEPTOR>
10
> <PUBCHEM_CACTVS_HBOND_DONOR>
2
> <PUBCHEM_CACTVS_ROTATABLE_BOND>
11
> <PUBCHEM_CACTVS_SUBSKEYS>
AAADceB7uAIAAAAAAAAAAAAAAAAAAWIAAAA8QAAAAAAAAFgB/AAAHgAQgCAADTzhlwY3/r9MFRCoQSbzbICCgC0xMKAJ2KGuXJiKbiLA2VKXNAgs0BPIiCegQAAMAAAAAAAAAAAAAAAAAAAAAAAAAAAAAA==
> <PUBCHEM_IUPAC_OPENEYE_NAME>
isopropyl (2S)-2-[[[(1R,4S)-4-(6-aminopurin-9-yl)cyclopent-2-en-1-yl]methoxy-phenoxy-phosphoryl]amino]propanoate
> <PUBCHEM_IUPAC_CAS_NAME>
(2S)-2-[[[(1R,4S)-4-(6-aminopurin-9-yl)-1-cyclopent-2-enyl]methoxy-phenoxyphosphoryl]amino]propanoic acid propan-2-yl ester
> <PUBCHEM_IUPAC_NAME_MARKUP>
propan-2-yl (2<I>S</I>)-2-[[[(1<I>R</I>,4<I>S</I>)-4-(6-aminopurin-9-yl)cyclopent-2-en-1-yl]methoxy-phenoxyphosphoryl]amino]propanoate
> <PUBCHEM_IUPAC_NAME>
propan-2-yl (2S)-2-[[[(1R,4S)-4-(6-aminopurin-9-yl)cyclopent-2-en-1-yl]methoxy-phenoxyphosphoryl]amino]propanoate
> <PUBCHEM_IUPAC_SYSTEMATIC_NAME>
propan-2-yl (2S)-2-[[[(1R,4S)-4-(6-aminopurin-9-yl)cyclopent-2-en-1-yl]methoxy-phenoxy-phosphoryl]amino]propanoate
> <PUBCHEM_IUPAC_TRADITIONAL_NAME>
(2S)-2-[[[(1R,4S)-4-adenin-9-ylcyclopent-2-en-1-yl]methoxy-phenoxy-phosphoryl]amino]propionic acid isopropyl ester
> <PUBCHEM_IUPAC_INCHI>
InChI=1S/C23H29N6O5P/c1-15(2)33-23(30)16(3)28-35(31,34-19-7-5-4-6-8-19)32-12-17-9-10-18(11-17)29-14-27-20-21(24)25-13-26-22(20)29/h4-10,13-18H,11-12H2,1-3H3,(H,28,31)(H2,24,25,26)/t16-,17-,18+,35?/m0/s1
> <PUBCHEM_IUPAC_INCHIKEY>
JUNWQWHVKOYPQM-UHUSUXHDSA-N
> <PUBCHEM_XLOGP3_AA>
2.6
> <PUBCHEM_EXACT_MASS>
500.19370504
> <PUBCHEM_MOLECULAR_FORMULA>
C23H29N6O5P
> <PUBCHEM_MOLECULAR_WEIGHT>
500.5
> <PUBCHEM_OPENEYE_CAN_SMILES>
CC(C)OC(=O)C(C)NP(=O)(OCC1CC(C=C1)N2C=NC3=C(N=CN=C32)N)OC4=CC=CC=C4
> <PUBCHEM_OPENEYE_ISO_SMILES>
C[C@@H](C(=O)OC(C)C)NP(=O)(OC[C@@H]1C[C@@H](C=C1)N2C=NC3=C(N=CN=C32)N)OC4=CC=CC=C4
> <PUBCHEM_CACTVS_TPSA>
144
> <PUBCHEM_MONOISOTOPIC_WEIGHT>
500.19370504
> <PUBCHEM_TOTAL_CHARGE>
0
> <PUBCHEM_HEAVY_ATOM_COUNT>
35
> <PUBCHEM_ATOM_DEF_STEREO_COUNT>
3
> <PUBCHEM_ATOM_UDEF_STEREO_COUNT>
1
> <PUBCHEM_BOND_DEF_STEREO_COUNT>
0
> <PUBCHEM_BOND_UDEF_STEREO_COUNT>
0
> <PUBCHEM_ISOTOPIC_ATOM_COUNT>
0
> <PUBCHEM_COMPONENT_COUNT>
1
> <PUBCHEM_CACTVS_TAUTO_COUNT>
-1
> <PUBCHEM_COORDINATE_TYPE>
1
5
255
> <PUBCHEM_BONDANNOTATIONS>
1  10  3
23  10  6
11  22  8
11  24  8
13  18  6
19  21  8
21  22  8
27  29  8
27  30  8
29  33  8
30  34  8
33  35  8
34  35  8
14  7  6
7  19  8
7  20  8
8  20  8
8  21  8
9  19  8
9  24  8
$$$$
