513222
  -OEChem-10302200282D
 49 52  0     1  0  0  0  0  0999 V2000
    5.5321    0.3728    0.0000 P   0  0  3  0  0  0  0  0  0  0  0  0
    8.6198    0.4298    0.0000 O   0  0  0  0  0  0  0  0  0  0  0  0
    6.5321    0.3728    0.0000 O   0  0  0  0  0  0  0  0  0  0  0  0
    4.6660   -0.1272    0.0000 O   0  0  0  0  0  0  0  0  0  0  0  0
    5.5321    1.3728    0.0000 O   0  0  0  0  0  0  0  0  0  0  0  0
    9.3618   -1.2502    0.0000 O   0  0  0  0  0  0  0  0  0  0  0  0
    6.0321   -0.4932    0.0000 O   0  0  0  0  0  0  0  0  0  0  0  0
   12.8070   -1.6123    0.0000 O   0  0  0  0  0  0  0  0  0  0  0  0
   10.3799    0.1511    0.0000 N   0  0  0  0  0  0  0  0  0  0  0  0
   11.0844   -1.4312    0.0000 N   0  0  0  0  0  0  0  0  0  0  0  0
    8.0321    1.2388    0.0000 C   0  0  1  0  0  0  0  0  0  0  0  0
    8.6198    2.0479    0.0000 C   0  0  0  0  0  0  0  0  0  0  0  0
    9.5709    0.7388    0.0000 C   0  0  1  0  0  0  0  0  0  0  0  0
    9.5709    1.7388    0.0000 C   0  0  0  0  0  0  0  0  0  0  0  0
    7.0321    1.2388    0.0000 C   0  0  0  0  0  0  0  0  0  0  0  0
   11.2935    0.5578    0.0000 C   0  0  0  0  0  0  0  0  0  0  0  0
   10.2754   -0.8435    0.0000 C   0  0  0  0  0  0  0  0  0  0  0  0
   12.1025   -0.0300    0.0000 C   0  0  0  0  0  0  0  0  0  0  0  0
   11.9980   -1.0245    0.0000 C   0  0  0  0  0  0  0  0  0  0  0  0
    3.8000    0.3728    0.0000 C   0  0  0  0  0  0  0  0  0  0  0  0
    3.8000    1.3728    0.0000 C   0  0  0  0  0  0  0  0  0  0  0  0
    4.6660    1.8728    0.0000 C   0  0  0  0  0  0  0  0  0  0  0  0
   13.0160    0.3767    0.0000 C   0  0  0  0  0  0  0  0  0  0  0  0
    2.9061   -0.1618    0.0000 C   0  0  0  0  0  0  0  0  0  0  0  0
    2.9061    1.9075    0.0000 C   0  0  0  0  0  0  0  0  0  0  0  0
    2.0000    0.3520    0.0000 C   0  0  0  0  0  0  0  0  0  0  0  0
    2.0000    1.3936    0.0000 C   0  0  0  0  0  0  0  0  0  0  0  0
    2.9176   -1.1618    0.0000 C   0  0  0  0  0  0  0  0  0  0  0  0
    7.7506    0.6864    0.0000 H   0  0  0  0  0  0  0  0  0  0  0  0
    8.8720    2.6143    0.0000 H   0  0  0  0  0  0  0  0  0  0  0  0
    8.0829    2.3579    0.0000 H   0  0  0  0  0  0  0  0  0  0  0  0
    9.4739    0.1265    0.0000 H   0  0  0  0  0  0  0  0  0  0  0  0
   10.1875    1.6740    0.0000 H   0  0  0  0  0  0  0  0  0  0  0  0
    9.6998    2.3453    0.0000 H   0  0  0  0  0  0  0  0  0  0  0  0
    7.1397    1.8494    0.0000 H   0  0  0  0  0  0  0  0  0  0  0  0
    6.4494    1.4509    0.0000 H   0  0  0  0  0  0  0  0  0  0  0  0
   11.3583    1.1744    0.0000 H   0  0  0  0  0  0  0  0  0  0  0  0
   11.0196   -2.0479    0.0000 H   0  0  0  0  0  0  0  0  0  0  0  0
    5.0646    2.3478    0.0000 H   0  0  0  0  0  0  0  0  0  0  0  0
    4.2675    2.3478    0.0000 H   0  0  0  0  0  0  0  0  0  0  0  0
   13.2682   -0.1897    0.0000 H   0  0  0  0  0  0  0  0  0  0  0  0
   13.5824    0.6289    0.0000 H   0  0  0  0  0  0  0  0  0  0  0  0
   12.7639    0.9431    0.0000 H   0  0  0  0  0  0  0  0  0  0  0  0
    2.9132    2.5274    0.0000 H   0  0  0  0  0  0  0  0  0  0  0  0
    1.4643    0.0399    0.0000 H   0  0  0  0  0  0  0  0  0  0  0  0
    1.4643    1.7057    0.0000 H   0  0  0  0  0  0  0  0  0  0  0  0
    2.2977   -1.1690    0.0000 H   0  0  0  0  0  0  0  0  0  0  0  0
    2.9248   -1.7817    0.0000 H   0  0  0  0  0  0  0  0  0  0  0  0
    3.5376   -1.1546    0.0000 H   0  0  0  0  0  0  0  0  0  0  0  0
  1  3  1  0  0  0  0
  1  4  1  0  0  0  0
  1  5  1  0  0  0  0
  1  7  2  0  0  0  0
  2 11  1  0  0  0  0
  2 13  1  0  0  0  0
  3 15  1  0  0  0  0
  4 20  1  0  0  0  0
  5 22  1  0  0  0  0
  6 17  2  0  0  0  0
  8 19  2  0  0  0  0
 13  9  1  6  0  0  0
  9 16  1  0  0  0  0
  9 17  1  0  0  0  0
 10 17  1  0  0  0  0
 10 19  1  0  0  0  0
 10 38  1  0  0  0  0
 11 12  1  0  0  0  0
 11 15  1  6  0  0  0
 11 29  1  0  0  0  0
 12 14  1  0  0  0  0
 12 30  1  0  0  0  0
 12 31  1  0  0  0  0
 13 14  1  0  0  0  0
 13 32  1  0  0  0  0
 14 33  1  0  0  0  0
 14 34  1  0  0  0  0
 15 35  1  0  0  0  0
 15 36  1  0  0  0  0
 16 18  2  0  0  0  0
 16 37  1  0  0  0  0
 18 19  1  0  0  0  0
 18 23  1  0  0  0  0
 20 21  1  0  0  0  0
 20 24  2  0  0  0  0
 21 22  1  0  0  0  0
 21 25  2  0  0  0  0
 22 39  1  0  0  0  0
 22 40  1  0  0  0  0
 23 41  1  0  0  0  0
 23 42  1  0  0  0  0
 23 43  1  0  0  0  0
 24 26  1  0  0  0  0
 24 28  1  0  0  0  0
 25 27  1  0  0  0  0
 25 44  1  0  0  0  0
 26 27  2  0  0  0  0
 26 45  1  0  0  0  0
 27 46  1  0  0  0  0
 28 47  1  0  0  0  0
 28 48  1  0  0  0  0
 28 49  1  0  0  0  0
M  END
> <PUBCHEM_COMPOUND_CID>
513222
> <PUBCHEM_COMPOUND_CANONICALIZED>
1
> <PUBCHEM_CACTVS_COMPLEXITY>
727
> <PUBCHEM_CACTVS_HBOND_ACCEPTOR>
7
> <PUBCHEM_CACTVS_HBOND_DONOR>
1
> <PUBCHEM_CACTVS_ROTATABLE_BOND>
4
> <PUBCHEM_CACTVS_SUBSKEYS>
AAADceB7OAIAAAAAAAAAAAAAAAAAASAAAAA0QIAAAAAAAACRAAAAHgAQACAADBThmAYzBoPABRCIQiFWUICCAAAgIAAIiAEMCMiJJyKAkRKOMAAtxzMKiMew8GIOAAACAAAIAAAAAAQAABAAAAAAAAAAAA==
> <PUBCHEM_IUPAC_OPENEYE_NAME>
5-methyl-1-[(2R,5S)-5-[(8-methyl-2-oxo-4H-1,3,2lambda5-benzodioxaphosphinin-2-yl)oxymethyl]tetrahydrofuran-2-yl]pyrimidine-2,4-dione
> <PUBCHEM_IUPAC_CAS_NAME>
5-methyl-1-[(2R,5S)-5-[(8-methyl-2-oxo-4H-1,3,2lambda5-benzodioxaphosphorin-2-yl)oxymethyl]-2-oxolanyl]pyrimidine-2,4-dione
> <PUBCHEM_IUPAC_NAME_MARKUP>
5-methyl-1-[(2<I>R</I>,5<I>S</I>)-5-[(8-methyl-2-oxo-4<I>H</I>-1,3,2&lambda;<SUP>5</SUP>-benzodioxaphosphinin-2-yl)oxymethyl]oxolan-2-yl]pyrimidine-2,4-dione
> <PUBCHEM_IUPAC_NAME>
5-methyl-1-[(2R,5S)-5-[(8-methyl-2-oxo-4H-1,3,2lambda5-benzodioxaphosphinin-2-yl)oxymethyl]oxolan-2-yl]pyrimidine-2,4-dione
> <PUBCHEM_IUPAC_SYSTEMATIC_NAME>
5-methyl-1-[(2R,5S)-5-[(8-methyl-2-oxidanylidene-4H-1,3,2lambda5-benzodioxaphosphinin-2-yl)oxymethyl]oxolan-2-yl]pyrimidine-2,4-dione
> <PUBCHEM_IUPAC_TRADITIONAL_NAME>
1-[(2R,5S)-5-[(2-keto-8-methyl-4H-1,3,2lambda5-benzodioxaphosphorin-2-yl)oxymethyl]tetrahydrofuran-2-yl]-5-methyl-pyrimidine-2,4-quinone
> <PUBCHEM_IUPAC_INCHI>
InChI=1S/C18H21N2O7P/c1-11-4-3-5-13-9-24-28(23,27-16(11)13)25-10-14-6-7-15(26-14)20-8-12(2)17(21)19-18(20)22/h3-5,8,14-15H,6-7,9-10H2,1-2H3,(H,19,21,22)/t14-,15+,28?/m0/s1
> <PUBCHEM_IUPAC_INCHIKEY>
OZZXOUBEEJVMRP-BIGJLOMDSA-N
> <PUBCHEM_XLOGP3_AA>
1.2
> <PUBCHEM_EXACT_MASS>
408.10863801
> <PUBCHEM_MOLECULAR_FORMULA>
C18H21N2O7P
> <PUBCHEM_MOLECULAR_WEIGHT>
408.3
> <PUBCHEM_OPENEYE_CAN_SMILES>
CC1=C2C(=CC=C1)COP(=O)(O2)OCC3CCC(O3)N4C=C(C(=O)NC4=O)C
> <PUBCHEM_OPENEYE_ISO_SMILES>
CC1=C2C(=CC=C1)COP(=O)(O2)OC[C@@H]3CC[C@@H](O3)N4C=C(C(=O)NC4=O)C
> <PUBCHEM_CACTVS_TPSA>
103
> <PUBCHEM_MONOISOTOPIC_WEIGHT>
408.10863801
> <PUBCHEM_TOTAL_CHARGE>
0
> <PUBCHEM_HEAVY_ATOM_COUNT>
28
> <PUBCHEM_ATOM_DEF_STEREO_COUNT>
2
> <PUBCHEM_ATOM_UDEF_STEREO_COUNT>
1
> <PUBCHEM_BOND_DEF_STEREO_COUNT>
0
> <PUBCHEM_BOND_UDEF_STEREO_COUNT>
0
> <PUBCHEM_ISOTOPIC_ATOM_COUNT>
0
> <PUBCHEM_COMPONENT_COUNT>
1
> <PUBCHEM_CACTVS_TAUTO_COUNT>
-1
> <PUBCHEM_COORDINATE_TYPE>
1
5
255
> <PUBCHEM_BONDANNOTATIONS>
1  3  3
10  17  8
10  19  8
11  15  6
16  18  8
18  19  8
20  21  8
20  24  8
21  25  8
24  26  8
25  27  8
26  27  8
13  9  6
9  16  8
9  17  8
$$$$
