513270
  -OEChem-10302200282D
 25 26  0     1  0  0  0  0  0999 V2000
    6.6353   -0.5184    0.0000 O   0  0  0  0  0  0  0  0  0  0  0  0
    7.2566   -2.4194    0.0000 O   0  0  0  0  0  0  0  0  0  0  0  0
    4.6783   -0.1060    0.0000 N   0  0  0  0  0  0  0  0  0  0  0  0
    5.2619    0.6988    0.0000 N   0  0  0  0  0  0  0  0  0  0  0  0
    4.6783    1.5035    0.0000 N   0  0  0  0  0  0  0  0  0  0  0  0
    2.8660   -0.3012    0.0000 N   0  0  0  0  0  0  0  0  0  0  0  0
    2.0000    1.1988    0.0000 N   0  0  0  0  0  0  0  0  0  0  0  0
    2.8660    2.6988    0.0000 N   0  0  0  0  0  0  0  0  0  0  0  0
    4.9889   -1.0565    0.0000 C   0  0  0  0  0  0  0  0  0  0  0  0
    5.9674   -1.2627    0.0000 C   0  0  1  0  0  0  0  0  0  0  0  0
    3.7320    0.1988    0.0000 C   0  0  0  0  0  0  0  0  0  0  0  0
    6.2781   -2.2132    0.0000 C   0  0  0  0  0  0  0  0  0  0  0  0
    3.7320    1.1988    0.0000 C   0  0  0  0  0  0  0  0  0  0  0  0
    2.8660    1.6988    0.0000 C   0  0  0  0  0  0  0  0  0  0  0  0
    2.0000    0.1988    0.0000 C   0  0  0  0  0  0  0  0  0  0  0  0
    4.3751   -1.1438    0.0000 H   0  0  0  0  0  0  0  0  0  0  0  0
    4.9684   -1.6761    0.0000 H   0  0  0  0  0  0  0  0  0  0  0  0
    5.7748   -0.6734    0.0000 H   0  0  0  0  0  0  0  0  0  0  0  0
    5.6643   -2.3006    0.0000 H   0  0  0  0  0  0  0  0  0  0  0  0
    6.2575   -2.8329    0.0000 H   0  0  0  0  0  0  0  0  0  0  0  0
    7.2420   -0.6463    0.0000 H   0  0  0  0  0  0  0  0  0  0  0  0
    1.4631   -0.1112    0.0000 H   0  0  0  0  0  0  0  0  0  0  0  0
    7.4492   -3.0088    0.0000 H   0  0  0  0  0  0  0  0  0  0  0  0
    2.3291    3.0088    0.0000 H   0  0  0  0  0  0  0  0  0  0  0  0
    3.4030    3.0088    0.0000 H   0  0  0  0  0  0  0  0  0  0  0  0
 10  1  1  6  0  0  0
  1 21  1  0  0  0  0
  2 12  1  0  0  0  0
  2 23  1  0  0  0  0
  3  4  1  0  0  0  0
  3  9  1  0  0  0  0
  3 11  1  0  0  0  0
  4  5  2  0  0  0  0
  5 13  1  0  0  0  0
  6 11  2  0  0  0  0
  6 15  1  0  0  0  0
  7 14  1  0  0  0  0
  7 15  2  0  0  0  0
  8 14  1  0  0  0  0
  8 24  1  0  0  0  0
  8 25  1  0  0  0  0
  9 10  1  0  0  0  0
  9 16  1  0  0  0  0
  9 17  1  0  0  0  0
 10 12  1  0  0  0  0
 10 18  1  0  0  0  0
 11 13  1  0  0  0  0
 12 19  1  0  0  0  0
 12 20  1  0  0  0  0
 13 14  2  0  0  0  0
 15 22  1  0  0  0  0
M  END
> <PUBCHEM_COMPOUND_CID>
513270
> <PUBCHEM_COMPOUND_CANONICALIZED>
1
> <PUBCHEM_CACTVS_COMPLEXITY>
218
> <PUBCHEM_CACTVS_HBOND_ACCEPTOR>
7
> <PUBCHEM_CACTVS_HBOND_DONOR>
3
> <PUBCHEM_CACTVS_ROTATABLE_BOND>
3
> <PUBCHEM_CACTVS_SUBSKEYS>
AAADccBjsAAAAAAAAAAAAAAAAAAAAWAAAAAsAAAAAAAAAFgB+AAAHgAYCAAACBzhlwYF8L5IEgCiAQZhZACAhC8RkKAVUCAoVBCDWABASEAURAgKAALRACAAAAAAAAAAAAAAAAAAAAAAAAAAAAAAAAAAAA==
> <PUBCHEM_IUPAC_OPENEYE_NAME>
(2S)-3-(7-aminotriazolo[4,5-d]pyrimidin-3-yl)propane-1,2-diol
> <PUBCHEM_IUPAC_CAS_NAME>
(2S)-3-(7-amino-3-triazolo[4,5-d]pyrimidinyl)propane-1,2-diol
> <PUBCHEM_IUPAC_NAME_MARKUP>
(2<I>S</I>)-3-(7-aminotriazolo[4,5-d]pyrimidin-3-yl)propane-1,2-diol
> <PUBCHEM_IUPAC_NAME>
(2S)-3-(7-aminotriazolo[4,5-d]pyrimidin-3-yl)propane-1,2-diol
> <PUBCHEM_IUPAC_SYSTEMATIC_NAME>
(2S)-3-(7-azanyl-[1,2,3]triazolo[4,5-d]pyrimidin-3-yl)propane-1,2-diol
> <PUBCHEM_IUPAC_TRADITIONAL_NAME>
(2S)-3-(7-aminotriazolo[4,5-d]pyrimidin-3-yl)propane-1,2-diol
> <PUBCHEM_IUPAC_INCHI>
InChI=1S/C7H10N6O2/c8-6-5-7(10-3-9-6)13(12-11-5)1-4(15)2-14/h3-4,14-15H,1-2H2,(H2,8,9,10)/t4-/m0/s1
> <PUBCHEM_IUPAC_INCHIKEY>
WACOQYKKQMIQCA-BYPYZUCNSA-N
> <PUBCHEM_XLOGP3_AA>
-2
> <PUBCHEM_EXACT_MASS>
210.08652358
> <PUBCHEM_MOLECULAR_FORMULA>
C7H10N6O2
> <PUBCHEM_MOLECULAR_WEIGHT>
210.19
> <PUBCHEM_OPENEYE_CAN_SMILES>
C1=NC(=C2C(=N1)N(N=N2)CC(CO)O)N
> <PUBCHEM_OPENEYE_ISO_SMILES>
C1=NC(=C2C(=N1)N(N=N2)C[C@@H](CO)O)N
> <PUBCHEM_CACTVS_TPSA>
123
> <PUBCHEM_MONOISOTOPIC_WEIGHT>
210.08652358
> <PUBCHEM_TOTAL_CHARGE>
0
> <PUBCHEM_HEAVY_ATOM_COUNT>
15
> <PUBCHEM_ATOM_DEF_STEREO_COUNT>
1
> <PUBCHEM_ATOM_UDEF_STEREO_COUNT>
0
> <PUBCHEM_BOND_DEF_STEREO_COUNT>
0
> <PUBCHEM_BOND_UDEF_STEREO_COUNT>
0
> <PUBCHEM_ISOTOPIC_ATOM_COUNT>
0
> <PUBCHEM_COMPONENT_COUNT>
1
> <PUBCHEM_CACTVS_TAUTO_COUNT>
-1
> <PUBCHEM_COORDINATE_TYPE>
1
5
255
> <PUBCHEM_BONDANNOTATIONS>
10  1  6
11  13  8
13  14  8
3  11  8
3  4  8
4  5  8
5  13  8
6  11  8
6  15  8
7  14  8
7  15  8
$$$$
