513217
  -OEChem-10302200282D
 62 65  0     1  0  0  0  0  0999 V2000
    5.5481   -2.5439    0.0000 P   0  0  3  0  0  0  0  0  0  0  0  0
    5.8555   -1.5923    0.0000 O   0  0  0  0  0  0  0  0  0  0  0  0
    6.4997   -2.8512    0.0000 O   0  0  0  0  0  0  0  0  0  0  0  0
    4.5965   -2.2365    0.0000 O   0  0  0  0  0  0  0  0  0  0  0  0
    2.9778   -4.8662    0.0000 O   0  0  0  0  0  0  0  0  0  0  0  0
    2.6147   -3.1727    0.0000 O   0  0  0  0  0  0  0  0  0  0  0  0
    5.1790    2.6699    0.0000 N   0  0  0  0  0  0  0  0  0  0  0  0
    5.2407   -3.4954    0.0000 N   0  0  0  0  0  0  0  0  0  0  0  0
    3.3667    2.4746    0.0000 N   0  0  0  0  0  0  0  0  0  0  0  0
    2.5007    3.9746    0.0000 N   0  0  0  0  0  0  0  0  0  0  0  0
    3.3667    5.4746    0.0000 N   0  0  0  0  0  0  0  0  0  0  0  0
    5.4896    1.7193    0.0000 C   0  0  2  0  0  0  0  0  0  0  0  0
    5.4924    0.1013    0.0000 C   0  0  1  0  0  0  0  0  0  0  0  0
    4.9032    0.9093    0.0000 C   0  0  0  0  0  0  0  0  0  0  0  0
    6.4412    1.4120    0.0000 C   0  0  0  0  0  0  0  0  0  0  0  0
    6.4430    0.4120    0.0000 C   0  0  0  0  0  0  0  0  0  0  0  0
    5.1851   -0.8503    0.0000 C   0  0  0  0  0  0  0  0  0  0  0  0
    4.2327    2.9746    0.0000 C   0  0  0  0  0  0  0  0  0  0  0  0
    5.7626    3.4746    0.0000 C   0  0  0  0  0  0  0  0  0  0  0  0
    4.2327    3.9746    0.0000 C   0  0  0  0  0  0  0  0  0  0  0  0
    5.1790    4.2793    0.0000 C   0  0  0  0  0  0  0  0  0  0  0  0
    4.2629   -3.7050    0.0000 C   0  0  0  0  0  0  0  0  0  0  0  0
    3.3667    4.4746    0.0000 C   0  0  0  0  0  0  0  0  0  0  0  0
    4.4726   -4.6828    0.0000 C   0  0  0  0  0  0  0  0  0  0  0  0
    4.0533   -2.7273    0.0000 C   0  0  0  0  0  0  0  0  0  0  0  0
    3.2852   -3.9147    0.0000 C   0  0  0  0  0  0  0  0  0  0  0  0
    2.5007    2.9746    0.0000 C   0  0  0  0  0  0  0  0  0  0  0  0
    6.7093   -3.8290    0.0000 C   0  0  0  0  0  0  0  0  0  0  0  0
    7.6609   -4.1364    0.0000 C   0  0  0  0  0  0  0  0  0  0  0  0
    5.9673   -4.4994    0.0000 C   0  0  0  0  0  0  0  0  0  0  0  0
    2.0000   -5.0758    0.0000 C   0  0  0  0  0  0  0  0  0  0  0  0
    7.8705   -5.1142    0.0000 C   0  0  0  0  0  0  0  0  0  0  0  0
    6.1769   -5.4772    0.0000 C   0  0  0  0  0  0  0  0  0  0  0  0
    7.1285   -5.7846    0.0000 C   0  0  0  0  0  0  0  0  0  0  0  0
    4.8771    1.8153    0.0000 H   0  0  0  0  0  0  0  0  0  0  0  0
    4.8802    0.0033    0.0000 H   0  0  0  0  0  0  0  0  0  0  0  0
    4.4418    1.3234    0.0000 H   0  0  0  0  0  0  0  0  0  0  0  0
    4.4432    0.4936    0.0000 H   0  0  0  0  0  0  0  0  0  0  0  0
    6.9422    1.7773    0.0000 H   0  0  0  0  0  0  0  0  0  0  0  0
    6.9452    0.0484    0.0000 H   0  0  0  0  0  0  0  0  0  0  0  0
    4.6371   -0.5602    0.0000 H   0  0  0  0  0  0  0  0  0  0  0  0
    4.8042   -1.3395    0.0000 H   0  0  0  0  0  0  0  0  0  0  0  0
    6.3826    3.4746    0.0000 H   0  0  0  0  0  0  0  0  0  0  0  0
    5.3716    4.8686    0.0000 H   0  0  0  0  0  0  0  0  0  0  0  0
    5.6564   -3.9555    0.0000 H   0  0  0  0  0  0  0  0  0  0  0  0
    3.8663   -4.8128    0.0000 H   0  0  0  0  0  0  0  0  0  0  0  0
    4.6025   -5.2891    0.0000 H   0  0  0  0  0  0  0  0  0  0  0  0
    5.0788   -4.5529    0.0000 H   0  0  0  0  0  0  0  0  0  0  0  0
    4.6596   -2.5973    0.0000 H   0  0  0  0  0  0  0  0  0  0  0  0
    3.9234   -2.1210    0.0000 H   0  0  0  0  0  0  0  0  0  0  0  0
    3.4471   -2.8572    0.0000 H   0  0  0  0  0  0  0  0  0  0  0  0
    1.9638    2.6646    0.0000 H   0  0  0  0  0  0  0  0  0  0  0  0
    2.8298    5.7846    0.0000 H   0  0  0  0  0  0  0  0  0  0  0  0
    3.9036    5.7846    0.0000 H   0  0  0  0  0  0  0  0  0  0  0  0
    8.1209   -3.7207    0.0000 H   0  0  0  0  0  0  0  0  0  0  0  0
    5.3773   -4.3089    0.0000 H   0  0  0  0  0  0  0  0  0  0  0  0
    1.8700   -4.4696    0.0000 H   0  0  0  0  0  0  0  0  0  0  0  0
    1.3938   -5.2058    0.0000 H   0  0  0  0  0  0  0  0  0  0  0  0
    2.1300   -5.6821    0.0000 H   0  0  0  0  0  0  0  0  0  0  0  0
    8.4605   -5.3047    0.0000 H   0  0  0  0  0  0  0  0  0  0  0  0
    5.7169   -5.8929    0.0000 H   0  0  0  0  0  0  0  0  0  0  0  0
    7.2585   -6.3908    0.0000 H   0  0  0  0  0  0  0  0  0  0  0  0
  1  2  1  0  0  0  0
  1  3  1  0  0  0  0
  1  4  2  0  0  0  0
  1  8  1  0  0  0  0
  2 17  1  0  0  0  0
  3 28  1  0  0  0  0
  5 26  1  0  0  0  0
  5 31  1  0  0  0  0
  6 26  2  0  0  0  0
 12  7  1  1  0  0  0
  7 18  1  0  0  0  0
  7 19  1  0  0  0  0
  8 22  1  0  0  0  0
  8 45  1  0  0  0  0
  9 18  2  0  0  0  0
  9 27  1  0  0  0  0
 10 23  1  0  0  0  0
 10 27  2  0  0  0  0
 11 23  1  0  0  0  0
 11 53  1  0  0  0  0
 11 54  1  0  0  0  0
 12 14  1  0  0  0  0
 12 15  1  0  0  0  0
 12 35  1  0  0  0  0
 13 14  1  0  0  0  0
 13 16  1  0  0  0  0
 13 17  1  1  0  0  0
 13 36  1  0  0  0  0
 14 37  1  0  0  0  0
 14 38  1  0  0  0  0
 15 16  2  0  0  0  0
 15 39  1  0  0  0  0
 16 40  1  0  0  0  0
 17 41  1  0  0  0  0
 17 42  1  0  0  0  0
 18 20  1  0  0  0  0
 19 21  2  0  0  0  0
 19 43  1  0  0  0  0
 20 21  1  0  0  0  0
 20 23  2  0  0  0  0
 21 44  1  0  0  0  0
 22 24  1  0  0  0  0
 22 25  1  0  0  0  0
 22 26  1  0  0  0  0
 24 46  1  0  0  0  0
 24 47  1  0  0  0  0
 24 48  1  0  0  0  0
 25 49  1  0  0  0  0
 25 50  1  0  0  0  0
 25 51  1  0  0  0  0
 27 52  1  0  0  0  0
 28 29  2  0  0  0  0
 28 30  1  0  0  0  0
 29 32  1  0  0  0  0
 29 55  1  0  0  0  0
 30 33  2  0  0  0  0
 30 56  1  0  0  0  0
 31 57  1  0  0  0  0
 31 58  1  0  0  0  0
 31 59  1  0  0  0  0
 32 34  2  0  0  0  0
 32 60  1  0  0  0  0
 33 34  1  0  0  0  0
 33 61  1  0  0  0  0
 34 62  1  0  0  0  0
M  END
> <PUBCHEM_COMPOUND_CID>
513217
> <PUBCHEM_COMPOUND_CANONICALIZED>
1
> <PUBCHEM_CACTVS_COMPLEXITY>
790
> <PUBCHEM_CACTVS_HBOND_ACCEPTOR>
9
> <PUBCHEM_CACTVS_HBOND_DONOR>
2
> <PUBCHEM_CACTVS_ROTATABLE_BOND>
10
> <PUBCHEM_CACTVS_SUBSKEYS>
AAADceB7uAIAAAAAAAAAAAAAAAAAAWIAAAA8QAAAAAAAAFgB/AAAHgAQgCAADazhmwY/vt9MFRCoQjL3bICCgCkxIqAJ2CG+bJiKLuLA2dOFNAhs0BPIyCegQAAMAAAAAAAAAAAAAAAAAAAAAAAAAAAAAA==
> <PUBCHEM_IUPAC_OPENEYE_NAME>
methyl 2-[[[(1S,4R)-4-(4-aminopyrrolo[2,3-d]pyrimidin-7-yl)cyclopent-2-en-1-yl]methoxy-phenoxy-phosphoryl]amino]-2-methyl-propanoate
> <PUBCHEM_IUPAC_CAS_NAME>
2-[[[(1S,4R)-4-(4-amino-7-pyrrolo[2,3-d]pyrimidinyl)-1-cyclopent-2-enyl]methoxy-phenoxyphosphoryl]amino]-2-methylpropanoic acid methyl ester
> <PUBCHEM_IUPAC_NAME_MARKUP>
methyl 2-[[[(1<I>S</I>,4<I>R</I>)-4-(4-aminopyrrolo[2,3-d]pyrimidin-7-yl)cyclopent-2-en-1-yl]methoxy-phenoxyphosphoryl]amino]-2-methylpropanoate
> <PUBCHEM_IUPAC_NAME>
methyl 2-[[[(1S,4R)-4-(4-aminopyrrolo[2,3-d]pyrimidin-7-yl)cyclopent-2-en-1-yl]methoxy-phenoxyphosphoryl]amino]-2-methylpropanoate
> <PUBCHEM_IUPAC_SYSTEMATIC_NAME>
methyl 2-[[[(1S,4R)-4-(4-azanylpyrrolo[2,3-d]pyrimidin-7-yl)cyclopent-2-en-1-yl]methoxy-phenoxy-phosphoryl]amino]-2-methyl-propanoate
> <PUBCHEM_IUPAC_TRADITIONAL_NAME>
2-[[[(1S,4R)-4-(4-aminopyrrolo[2,3-d]pyrimidin-7-yl)cyclopent-2-en-1-yl]methoxy-phenoxy-phosphoryl]amino]-2-methyl-propionic acid methyl ester
> <PUBCHEM_IUPAC_INCHI>
InChI=1S/C23H28N5O5P/c1-23(2,22(29)31-3)27-34(30,33-18-7-5-4-6-8-18)32-14-16-9-10-17(13-16)28-12-11-19-20(24)25-15-26-21(19)28/h4-12,15-17H,13-14H2,1-3H3,(H,27,30)(H2,24,25,26)/t16-,17+,34?/m1/s1
> <PUBCHEM_IUPAC_INCHIKEY>
XQDIVVRIYQPDNN-PPICWETGSA-N
> <PUBCHEM_XLOGP3_AA>
2.6
> <PUBCHEM_EXACT_MASS>
485.18280601
> <PUBCHEM_MOLECULAR_FORMULA>
C23H28N5O5P
> <PUBCHEM_MOLECULAR_WEIGHT>
485.5
> <PUBCHEM_OPENEYE_CAN_SMILES>
CC(C)(C(=O)OC)NP(=O)(OCC1CC(C=C1)N2C=CC3=C(N=CN=C32)N)OC4=CC=CC=C4
> <PUBCHEM_OPENEYE_ISO_SMILES>
CC(C)(C(=O)OC)NP(=O)(OC[C@H]1C[C@H](C=C1)N2C=CC3=C(N=CN=C32)N)OC4=CC=CC=C4
> <PUBCHEM_CACTVS_TPSA>
131
> <PUBCHEM_MONOISOTOPIC_WEIGHT>
485.18280601
> <PUBCHEM_TOTAL_CHARGE>
0
> <PUBCHEM_HEAVY_ATOM_COUNT>
34
> <PUBCHEM_ATOM_DEF_STEREO_COUNT>
2
> <PUBCHEM_ATOM_UDEF_STEREO_COUNT>
1
> <PUBCHEM_BOND_DEF_STEREO_COUNT>
0
> <PUBCHEM_BOND_UDEF_STEREO_COUNT>
0
> <PUBCHEM_ISOTOPIC_ATOM_COUNT>
0
> <PUBCHEM_COMPONENT_COUNT>
1
> <PUBCHEM_CACTVS_TAUTO_COUNT>
-1
> <PUBCHEM_COORDINATE_TYPE>
1
5
255
> <PUBCHEM_BONDANNOTATIONS>
1  8  3
10  23  8
10  27  8
13  17  5
18  20  8
19  21  8
20  21  8
20  23  8
28  29  8
28  30  8
29  32  8
30  33  8
32  34  8
33  34  8
12  7  5
7  18  8
7  19  8
9  18  8
9  27  8
$$$$
