513261
  -OEChem-10302200282D
 34 35  0     1  0  0  0  0  0999 V2000
    8.9702    2.6502    0.0000 P   0  0  0  0  0  0  0  0  0  0  0  0
    7.6811    1.4934    0.0000 O   0  0  0  0  0  0  0  0  0  0  0  0
    9.2809    3.6007    0.0000 O   0  0  0  0  0  0  0  0  0  0  0  0
    9.9208    2.3395    0.0000 O   0  0  0  0  0  0  0  0  0  0  0  0
    8.0197    2.9608    0.0000 O   0  0  0  0  0  0  0  0  0  0  0  0
    6.0812   -0.6138    0.0000 N   0  0  0  0  0  0  0  0  0  0  0  0
    6.6648   -1.4186    0.0000 N   0  0  0  0  0  0  0  0  0  0  0  0
    6.0812   -2.2233    0.0000 N   0  0  0  0  0  0  0  0  0  0  0  0
    4.2690   -0.4186    0.0000 N   0  0  0  0  0  0  0  0  0  0  0  0
    3.4030   -1.9186    0.0000 N   0  0  0  0  0  0  0  0  0  0  0  0
    4.2690   -3.4186    0.0000 N   0  0  0  0  0  0  0  0  0  0  0  0
    2.5369   -0.4186    0.0000 N   0  0  0  0  0  0  0  0  0  0  0  0
    7.3704    0.5429    0.0000 C   0  0  1  0  0  0  0  0  0  0  0  0
    6.3919    0.3367    0.0000 C   0  0  0  0  0  0  0  0  0  0  0  0
    8.0382   -0.2014    0.0000 C   0  0  0  0  0  0  0  0  0  0  0  0
    5.1350   -0.9186    0.0000 C   0  0  0  0  0  0  0  0  0  0  0  0
    8.6596    1.6997    0.0000 C   0  0  0  0  0  0  0  0  0  0  0  0
    5.1350   -1.9186    0.0000 C   0  0  0  0  0  0  0  0  0  0  0  0
    4.2690   -2.4186    0.0000 C   0  0  0  0  0  0  0  0  0  0  0  0
    3.4030   -0.9186    0.0000 C   0  0  0  0  0  0  0  0  0  0  0  0
    7.9771    0.6708    0.0000 H   0  0  0  0  0  0  0  0  0  0  0  0
    6.3713    0.9564    0.0000 H   0  0  0  0  0  0  0  0  0  0  0  0
    5.7781    0.4240    0.0000 H   0  0  0  0  0  0  0  0  0  0  0  0
    7.5768   -0.6154    0.0000 H   0  0  0  0  0  0  0  0  0  0  0  0
    8.4523   -0.6629    0.0000 H   0  0  0  0  0  0  0  0  0  0  0  0
    8.4997    0.2127    0.0000 H   0  0  0  0  0  0  0  0  0  0  0  0
    8.6801    1.0800    0.0000 H   0  0  0  0  0  0  0  0  0  0  0  0
    9.2734    1.6123    0.0000 H   0  0  0  0  0  0  0  0  0  0  0  0
    3.7320   -3.7286    0.0000 H   0  0  0  0  0  0  0  0  0  0  0  0
    4.8059   -3.7286    0.0000 H   0  0  0  0  0  0  0  0  0  0  0  0
    9.8876    3.7286    0.0000 H   0  0  0  0  0  0  0  0  0  0  0  0
   10.0486    1.7328    0.0000 H   0  0  0  0  0  0  0  0  0  0  0  0
    2.0000   -0.7286    0.0000 H   0  0  0  0  0  0  0  0  0  0  0  0
    2.5369    0.2014    0.0000 H   0  0  0  0  0  0  0  0  0  0  0  0
  1  3  1  0  0  0  0
  1  4  1  0  0  0  0
  1  5  2  0  0  0  0
  1 17  1  0  0  0  0
 13  2  1  6  0  0  0
  2 17  1  0  0  0  0
  3 31  1  0  0  0  0
  4 32  1  0  0  0  0
  6  7  1  0  0  0  0
  6 14  1  0  0  0  0
  6 16  1  0  0  0  0
  7  8  2  0  0  0  0
  8 18  1  0  0  0  0
  9 16  2  0  0  0  0
  9 20  1  0  0  0  0
 10 19  1  0  0  0  0
 10 20  2  0  0  0  0
 11 19  1  0  0  0  0
 11 29  1  0  0  0  0
 11 30  1  0  0  0  0
 12 20  1  0  0  0  0
 12 33  1  0  0  0  0
 12 34  1  0  0  0  0
 13 14  1  0  0  0  0
 13 15  1  0  0  0  0
 13 21  1  0  0  0  0
 14 22  1  0  0  0  0
 14 23  1  0  0  0  0
 15 24  1  0  0  0  0
 15 25  1  0  0  0  0
 15 26  1  0  0  0  0
 16 18  1  0  0  0  0
 17 27  1  0  0  0  0
 17 28  1  0  0  0  0
 18 19  2  0  0  0  0
M  END
> <PUBCHEM_COMPOUND_CID>
513261
> <PUBCHEM_COMPOUND_CANONICALIZED>
1
> <PUBCHEM_CACTVS_COMPLEXITY>
382
> <PUBCHEM_CACTVS_HBOND_ACCEPTOR>
10
> <PUBCHEM_CACTVS_HBOND_DONOR>
4
> <PUBCHEM_CACTVS_ROTATABLE_BOND>
5
> <PUBCHEM_CACTVS_SUBSKEYS>
AAADccBzuAIAAAAAAAAAAAAAAAAAAWAAAAAsAAAAAAAAAFgB+AAAHggYCCAACBzhlwYD8L5IFBCiQQZgZICAhC8BkKAVUCAoVBCCSABASEAVBAgIAALQACAAAAAAAAAAAAAAAAAAAAAAAAAAAAAAAAAAAA==
> <PUBCHEM_IUPAC_OPENEYE_NAME>
[(1R)-2-(5,7-diaminotriazolo[4,5-d]pyrimidin-3-yl)-1-methyl-ethoxy]methylphosphonic acid
> <PUBCHEM_IUPAC_CAS_NAME>
[(2R)-1-(5,7-diamino-3-triazolo[4,5-d]pyrimidinyl)propan-2-yl]oxymethylphosphonic acid
> <PUBCHEM_IUPAC_NAME_MARKUP>
[(2<I>R</I>)-1-(5,7-diaminotriazolo[4,5-d]pyrimidin-3-yl)propan-2-yl]oxymethylphosphonic acid
> <PUBCHEM_IUPAC_NAME>
[(2R)-1-(5,7-diaminotriazolo[4,5-d]pyrimidin-3-yl)propan-2-yl]oxymethylphosphonic acid
> <PUBCHEM_IUPAC_SYSTEMATIC_NAME>
[(2R)-1-[5,7-bis(azanyl)-[1,2,3]triazolo[4,5-d]pyrimidin-3-yl]propan-2-yl]oxymethylphosphonic acid
> <PUBCHEM_IUPAC_TRADITIONAL_NAME>
[(1R)-2-(5,7-diaminotriazolo[4,5-d]pyrimidin-3-yl)-1-methyl-ethoxy]methylphosphonic acid
> <PUBCHEM_IUPAC_INCHI>
InChI=1S/C8H14N7O4P/c1-4(19-3-20(16,17)18)2-15-7-5(13-14-15)6(9)11-8(10)12-7/h4H,2-3H2,1H3,(H2,16,17,18)(H4,9,10,11,12)/t4-/m1/s1
> <PUBCHEM_IUPAC_INCHIKEY>
DKORZWSWXIJHMK-SCSAIBSYSA-N
> <PUBCHEM_XLOGP3_AA>
-2.5
> <PUBCHEM_EXACT_MASS>
303.08448895
> <PUBCHEM_MOLECULAR_FORMULA>
C8H14N7O4P
> <PUBCHEM_MOLECULAR_WEIGHT>
303.22
> <PUBCHEM_OPENEYE_CAN_SMILES>
CC(CN1C2=NC(=NC(=C2N=N1)N)N)OCP(=O)(O)O
> <PUBCHEM_OPENEYE_ISO_SMILES>
C[C@H](CN1C2=NC(=NC(=C2N=N1)N)N)OCP(=O)(O)O
> <PUBCHEM_CACTVS_TPSA>
175
> <PUBCHEM_MONOISOTOPIC_WEIGHT>
303.08448895
> <PUBCHEM_TOTAL_CHARGE>
0
> <PUBCHEM_HEAVY_ATOM_COUNT>
20
> <PUBCHEM_ATOM_DEF_STEREO_COUNT>
1
> <PUBCHEM_ATOM_UDEF_STEREO_COUNT>
0
> <PUBCHEM_BOND_DEF_STEREO_COUNT>
0
> <PUBCHEM_BOND_UDEF_STEREO_COUNT>
0
> <PUBCHEM_ISOTOPIC_ATOM_COUNT>
0
> <PUBCHEM_COMPONENT_COUNT>
1
> <PUBCHEM_CACTVS_TAUTO_COUNT>
-1
> <PUBCHEM_COORDINATE_TYPE>
1
5
255
> <PUBCHEM_BONDANNOTATIONS>
10  19  8
10  20  8
16  18  8
18  19  8
13  2  6
6  16  8
6  7  8
7  8  8
8  18  8
9  16  8
9  20  8
$$$$
