513232
  -OEChem-10302200282D
 56 59  0     1  0  0  0  0  0999 V2000
    2.9176    1.1839    0.0000 Cl  0  0  0  0  0  0  0  0  0  0  0  0
    5.5321   -1.3507    0.0000 P   0  0  3  0  0  0  0  0  0  0  0  0
    8.6198   -1.2937    0.0000 O   0  0  0  0  0  0  0  0  0  0  0  0
    5.5321   -0.3507    0.0000 O   0  0  0  0  0  0  0  0  0  0  0  0
    6.5321   -1.3507    0.0000 O   0  0  0  0  0  0  0  0  0  0  0  0
    4.6660   -1.8507    0.0000 O   0  0  0  0  0  0  0  0  0  0  0  0
    6.0321   -2.2167    0.0000 O   0  0  0  0  0  0  0  0  0  0  0  0
    5.5321    2.6493    0.0000 O   0  0  0  0  0  0  0  0  0  0  0  0
   11.3980   -0.1712    0.0000 O   0  0  0  0  0  0  0  0  0  0  0  0
    6.3981    1.1493    0.0000 O   0  0  0  0  0  0  0  0  0  0  0  0
   12.8070   -3.3358    0.0000 O   0  0  0  0  0  0  0  0  0  0  0  0
   10.3799   -1.5725    0.0000 N   0  0  0  0  0  0  0  0  0  0  0  0
   12.1025   -1.7535    0.0000 N   0  0  0  0  0  0  0  0  0  0  0  0
    8.0321   -0.4847    0.0000 C   0  0  2  0  0  0  0  0  0  0  0  0
    9.5709   -0.9847    0.0000 C   0  0  1  0  0  0  0  0  0  0  0  0
    4.6660    0.1493    0.0000 C   0  0  3  0  0  0  0  0  0  0  0  0
    7.0321   -0.4847    0.0000 C   0  0  0  0  0  0  0  0  0  0  0  0
    3.8000   -0.3507    0.0000 C   0  0  0  0  0  0  0  0  0  0  0  0
    8.6198    0.3243    0.0000 C   0  0  0  0  0  0  0  0  0  0  0  0
    9.5709    0.0153    0.0000 C   0  0  0  0  0  0  0  0  0  0  0  0
    4.6660    1.1493    0.0000 C   0  0  0  0  0  0  0  0  0  0  0  0
    3.8000   -1.3507    0.0000 C   0  0  0  0  0  0  0  0  0  0  0  0
    2.9061    0.1840    0.0000 C   0  0  0  0  0  0  0  0  0  0  0  0
   10.2754   -2.5670    0.0000 C   0  0  0  0  0  0  0  0  0  0  0  0
   11.2935   -1.1657    0.0000 C   0  0  0  0  0  0  0  0  0  0  0  0
    2.9061   -1.8854    0.0000 C   0  0  0  0  0  0  0  0  0  0  0  0
   11.0844   -3.1548    0.0000 C   0  0  0  0  0  0  0  0  0  0  0  0
    5.5321    1.6493    0.0000 C   0  0  0  0  0  0  0  0  0  0  0  0
    2.0000   -0.3299    0.0000 C   0  0  0  0  0  0  0  0  0  0  0  0
    2.0000   -1.3715    0.0000 C   0  0  0  0  0  0  0  0  0  0  0  0
   11.9980   -2.7480    0.0000 C   0  0  0  0  0  0  0  0  0  0  0  0
   10.9799   -4.1493    0.0000 C   0  0  0  0  0  0  0  0  0  0  0  0
    6.3981    3.1493    0.0000 C   0  0  0  0  0  0  0  0  0  0  0  0
    6.3981    4.1493    0.0000 C   0  0  0  0  0  0  0  0  0  0  0  0
    7.7506   -1.0371    0.0000 H   0  0  0  0  0  0  0  0  0  0  0  0
    9.4739   -1.5970    0.0000 H   0  0  0  0  0  0  0  0  0  0  0  0
    5.2030    0.4593    0.0000 H   0  0  0  0  0  0  0  0  0  0  0  0
    7.1397    0.1259    0.0000 H   0  0  0  0  0  0  0  0  0  0  0  0
    6.4494   -0.2726    0.0000 H   0  0  0  0  0  0  0  0  0  0  0  0
    8.4282    0.9140    0.0000 H   0  0  0  0  0  0  0  0  0  0  0  0
   10.0725    0.3797    0.0000 H   0  0  0  0  0  0  0  0  0  0  0  0
    4.4540    1.7319    0.0000 H   0  0  0  0  0  0  0  0  0  0  0  0
    4.0555    1.0416    0.0000 H   0  0  0  0  0  0  0  0  0  0  0  0
    9.7090   -2.8192    0.0000 H   0  0  0  0  0  0  0  0  0  0  0  0
    2.9132   -2.5053    0.0000 H   0  0  0  0  0  0  0  0  0  0  0  0
    1.4643   -0.0178    0.0000 H   0  0  0  0  0  0  0  0  0  0  0  0
    1.4643   -1.6836    0.0000 H   0  0  0  0  0  0  0  0  0  0  0  0
   12.6689   -1.5013    0.0000 H   0  0  0  0  0  0  0  0  0  0  0  0
   10.3633   -4.0845    0.0000 H   0  0  0  0  0  0  0  0  0  0  0  0
   10.9151   -4.7659    0.0000 H   0  0  0  0  0  0  0  0  0  0  0  0
   11.5965   -4.2141    0.0000 H   0  0  0  0  0  0  0  0  0  0  0  0
    6.6101    2.5667    0.0000 H   0  0  0  0  0  0  0  0  0  0  0  0
    7.0087    3.2570    0.0000 H   0  0  0  0  0  0  0  0  0  0  0  0
    7.0181    4.1493    0.0000 H   0  0  0  0  0  0  0  0  0  0  0  0
    6.3981    4.7693    0.0000 H   0  0  0  0  0  0  0  0  0  0  0  0
    5.7781    4.1493    0.0000 H   0  0  0  0  0  0  0  0  0  0  0  0
  1 23  1  0  0  0  0
  2  4  1  0  0  0  0
  2  5  1  0  0  0  0
  2  6  1  0  0  0  0
  2  7  2  0  0  0  0
  3 14  1  0  0  0  0
  3 15  1  0  0  0  0
  4 16  1  0  0  0  0
  5 17  1  0  0  0  0
  6 22  1  0  0  0  0
  8 28  1  0  0  0  0
  8 33  1  0  0  0  0
  9 25  2  0  0  0  0
 10 28  2  0  0  0  0
 11 31  2  0  0  0  0
 15 12  1  6  0  0  0
 12 24  1  0  0  0  0
 12 25  1  0  0  0  0
 13 25  1  0  0  0  0
 13 31  1  0  0  0  0
 13 48  1  0  0  0  0
 14 17  1  6  0  0  0
 14 19  1  0  0  0  0
 14 35  1  0  0  0  0
 15 20  1  0  0  0  0
 15 36  1  0  0  0  0
 16 18  1  0  0  0  0
 16 21  1  0  0  0  0
 16 37  1  0  0  0  0
 17 38  1  0  0  0  0
 17 39  1  0  0  0  0
 18 22  2  0  0  0  0
 18 23  1  0  0  0  0
 19 20  2  0  0  0  0
 19 40  1  0  0  0  0
 20 41  1  0  0  0  0
 21 28  1  0  0  0  0
 21 42  1  0  0  0  0
 21 43  1  0  0  0  0
 22 26  1  0  0  0  0
 23 29  2  0  0  0  0
 24 27  2  0  0  0  0
 24 44  1  0  0  0  0
 26 30  2  0  0  0  0
 26 45  1  0  0  0  0
 27 31  1  0  0  0  0
 27 32  1  0  0  0  0
 29 30  1  0  0  0  0
 29 46  1  0  0  0  0
 30 47  1  0  0  0  0
 32 49  1  0  0  0  0
 32 50  1  0  0  0  0
 32 51  1  0  0  0  0
 33 34  1  0  0  0  0
 33 52  1  0  0  0  0
 33 53  1  0  0  0  0
 34 54  1  0  0  0  0
 34 55  1  0  0  0  0
 34 56  1  0  0  0  0
M  END
> <PUBCHEM_COMPOUND_CID>
513232
> <PUBCHEM_COMPOUND_CANONICALIZED>
1
> <PUBCHEM_CACTVS_COMPLEXITY>
941
> <PUBCHEM_CACTVS_HBOND_ACCEPTOR>
9
> <PUBCHEM_CACTVS_HBOND_DONOR>
1
> <PUBCHEM_CACTVS_ROTATABLE_BOND>
8
> <PUBCHEM_CACTVS_SUBSKEYS>
AAADceB7PAIEAAAAAAAAAAAAAAAAAQAAAAA0QIAAAAAAAACRAAAAHgIQACAADBbhmCYzDoPABRCIQiHWWICCAAAgJQAIiAEOCsiJJzaBMxKOMAAt5zMKqMeI7KzOAAAAAQAJAAAAAAACABIAAAAAAAAAAA==
> <PUBCHEM_IUPAC_OPENEYE_NAME>
ethyl 2-[5-chloro-2-[[(2S,5R)-5-(5-methyl-2,4-dioxo-pyrimidin-1-yl)-2,5-dihydrofuran-2-yl]methoxy]-2-oxo-4H-1,3,2lambda5-benzodioxaphosphinin-4-yl]acetate
> <PUBCHEM_IUPAC_CAS_NAME>
2-[5-chloro-2-[[(2S,5R)-5-(5-methyl-2,4-dioxo-1-pyrimidinyl)-2,5-dihydrofuran-2-yl]methoxy]-2-oxo-4H-1,3,2lambda5-benzodioxaphosphorin-4-yl]acetic acid ethyl ester
> <PUBCHEM_IUPAC_NAME_MARKUP>
ethyl 2-[5-chloro-2-[[(2<I>S</I>,5<I>R</I>)-5-(5-methyl-2,4-dioxopyrimidin-1-yl)-2,5-dihydrofuran-2-yl]methoxy]-2-oxo-4<I>H</I>-1,3,2&lambda;<SUP>5</SUP>-benzodioxaphosphinin-4-yl]acetate
> <PUBCHEM_IUPAC_NAME>
ethyl 2-[5-chloro-2-[[(2S,5R)-5-(5-methyl-2,4-dioxopyrimidin-1-yl)-2,5-dihydrofuran-2-yl]methoxy]-2-oxo-4H-1,3,2lambda5-benzodioxaphosphinin-4-yl]acetate
> <PUBCHEM_IUPAC_SYSTEMATIC_NAME>
ethyl 2-[5-chloranyl-2-[[(2S,5R)-5-[5-methyl-2,4-bis(oxidanylidene)pyrimidin-1-yl]-2,5-dihydrofuran-2-yl]methoxy]-2-oxidanylidene-4H-1,3,2lambda5-benzodioxaphosphinin-4-yl]ethanoate
> <PUBCHEM_IUPAC_TRADITIONAL_NAME>
2-[5-chloro-2-[[(2S,5R)-5-(2,4-diketo-5-methyl-pyrimidin-1-yl)-2,5-dihydrofuran-2-yl]methoxy]-2-keto-4H-1,3,2lambda5-benzodioxaphosphorin-4-yl]acetic acid ethyl ester
> <PUBCHEM_IUPAC_INCHI>
InChI=1S/C21H22ClN2O9P/c1-3-29-18(25)9-16-19-14(22)5-4-6-15(19)32-34(28,33-16)30-11-13-7-8-17(31-13)24-10-12(2)20(26)23-21(24)27/h4-8,10,13,16-17H,3,9,11H2,1-2H3,(H,23,26,27)/t13-,16?,17+,34?/m0/s1
> <PUBCHEM_IUPAC_INCHIKEY>
YOLJQHZMNWACNZ-XNVRKGIBSA-N
> <PUBCHEM_XLOGP3_AA>
1.4
> <PUBCHEM_EXACT_MASS>
512.0751450
> <PUBCHEM_MOLECULAR_FORMULA>
C21H22ClN2O9P
> <PUBCHEM_MOLECULAR_WEIGHT>
512.8
> <PUBCHEM_OPENEYE_CAN_SMILES>
CCOC(=O)CC1C2=C(C=CC=C2Cl)OP(=O)(O1)OCC3C=CC(O3)N4C=C(C(=O)NC4=O)C
> <PUBCHEM_OPENEYE_ISO_SMILES>
CCOC(=O)CC1C2=C(C=CC=C2Cl)OP(=O)(O1)OC[C@@H]3C=C[C@@H](O3)N4C=C(C(=O)NC4=O)C
> <PUBCHEM_CACTVS_TPSA>
130
> <PUBCHEM_MONOISOTOPIC_WEIGHT>
512.0751450
> <PUBCHEM_TOTAL_CHARGE>
0
> <PUBCHEM_HEAVY_ATOM_COUNT>
34
> <PUBCHEM_ATOM_DEF_STEREO_COUNT>
2
> <PUBCHEM_ATOM_UDEF_STEREO_COUNT>
2
> <PUBCHEM_BOND_DEF_STEREO_COUNT>
0
> <PUBCHEM_BOND_UDEF_STEREO_COUNT>
0
> <PUBCHEM_ISOTOPIC_ATOM_COUNT>
0
> <PUBCHEM_COMPONENT_COUNT>
1
> <PUBCHEM_CACTVS_TAUTO_COUNT>
-1
> <PUBCHEM_COORDINATE_TYPE>
1
5
255
> <PUBCHEM_BONDANNOTATIONS>
15  12  6
12  24  8
12  25  8
13  25  8
13  31  8
14  17  6
16  21  3
18  22  8
18  23  8
2  5  3
22  26  8
23  29  8
24  27  8
26  30  8
27  31  8
29  30  8
$$$$
