513203
  -OEChem-10302200282D
 61 64  0     1  0  0  0  0  0999 V2000
    7.4595    1.9958    0.0000 P   0  0  3  0  0  0  0  0  0  0  0  0
    6.6495    1.4094    0.0000 O   0  0  0  0  0  0  0  0  0  0  0  0
    6.8731    2.8058    0.0000 O   0  0  0  0  0  0  0  0  0  0  0  0
    8.0459    1.1857    0.0000 O   0  0  0  0  0  0  0  0  0  0  0  0
   10.9053    2.3519    0.0000 O   0  0  0  0  0  0  0  0  0  0  0  0
   10.1980    0.7708    0.0000 O   0  0  0  0  0  0  0  0  0  0  0  0
    4.6783   -2.4296    0.0000 N   0  0  0  0  0  0  0  0  0  0  0  0
    8.2695    2.5822    0.0000 N   0  0  0  0  0  0  0  0  0  0  0  0
    4.6783   -4.0391    0.0000 N   0  0  0  0  0  0  0  0  0  0  0  0
    2.8660   -2.2343    0.0000 N   0  0  0  0  0  0  0  0  0  0  0  0
    2.0000   -3.7343    0.0000 N   0  0  0  0  0  0  0  0  0  0  0  0
    2.8660   -5.2343    0.0000 N   0  0  0  0  0  0  0  0  0  0  0  0
    5.9422   -0.1717    0.0000 C   0  0  2  0  0  0  0  0  0  0  0  0
    4.9889   -1.4791    0.0000 C   0  0  1  0  0  0  0  0  0  0  0  0
    5.9405   -1.1717    0.0000 C   0  0  0  0  0  0  0  0  0  0  0  0
    4.9917    0.1390    0.0000 C   0  0  0  0  0  0  0  0  0  0  0  0
    4.4026   -0.6690    0.0000 C   0  0  0  0  0  0  0  0  0  0  0  0
    6.7523    0.4147    0.0000 C   0  0  0  0  0  0  0  0  0  0  0  0
    3.7320   -2.7343    0.0000 C   0  0  0  0  0  0  0  0  0  0  0  0
    5.2619   -3.2343    0.0000 C   0  0  0  0  0  0  0  0  0  0  0  0
    9.1824    2.1738    0.0000 C   0  0  0  0  0  0  0  0  0  0  0  0
    3.7320   -3.7343    0.0000 C   0  0  0  0  0  0  0  0  0  0  0  0
    9.5907    3.0867    0.0000 C   0  0  0  0  0  0  0  0  0  0  0  0
    8.7741    1.2610    0.0000 C   0  0  0  0  0  0  0  0  0  0  0  0
    2.8660   -4.2343    0.0000 C   0  0  0  0  0  0  0  0  0  0  0  0
   10.0952    1.7655    0.0000 C   0  0  0  0  0  0  0  0  0  0  0  0
    2.0000   -2.7343    0.0000 C   0  0  0  0  0  0  0  0  0  0  0  0
    7.2814    3.7186    0.0000 C   0  0  0  0  0  0  0  0  0  0  0  0
    6.6951    4.5287    0.0000 C   0  0  0  0  0  0  0  0  0  0  0  0
    8.2762    3.8214    0.0000 C   0  0  0  0  0  0  0  0  0  0  0  0
   11.8181    1.9436    0.0000 C   0  0  0  0  0  0  0  0  0  0  0  0
    7.1034    5.4415    0.0000 C   0  0  0  0  0  0  0  0  0  0  0  0
    8.6845    4.7343    0.0000 C   0  0  0  0  0  0  0  0  0  0  0  0
    8.0981    5.5443    0.0000 C   0  0  0  0  0  0  0  0  0  0  0  0
    6.4942   -0.4541    0.0000 H   0  0  0  0  0  0  0  0  0  0  0  0
    5.4266   -1.9182    0.0000 H   0  0  0  0  0  0  0  0  0  0  0  0
    6.0684   -1.7784    0.0000 H   0  0  0  0  0  0  0  0  0  0  0  0
    6.5572   -1.1080    0.0000 H   0  0  0  0  0  0  0  0  0  0  0  0
    4.8012    0.7289    0.0000 H   0  0  0  0  0  0  0  0  0  0  0  0
    3.7826   -0.6680    0.0000 H   0  0  0  0  0  0  0  0  0  0  0  0
    7.0231   -0.1430    0.0000 H   0  0  0  0  0  0  0  0  0  0  0  0
    7.3486    0.5845    0.0000 H   0  0  0  0  0  0  0  0  0  0  0  0
    5.8819   -3.2343    0.0000 H   0  0  0  0  0  0  0  0  0  0  0  0
    8.2058    3.1989    0.0000 H   0  0  0  0  0  0  0  0  0  0  0  0
   10.1567    2.8335    0.0000 H   0  0  0  0  0  0  0  0  0  0  0  0
    9.8439    3.6526    0.0000 H   0  0  0  0  0  0  0  0  0  0  0  0
    9.0247    3.3398    0.0000 H   0  0  0  0  0  0  0  0  0  0  0  0
    8.2081    1.5142    0.0000 H   0  0  0  0  0  0  0  0  0  0  0  0
    8.5209    0.6950    0.0000 H   0  0  0  0  0  0  0  0  0  0  0  0
    9.3400    1.0078    0.0000 H   0  0  0  0  0  0  0  0  0  0  0  0
    1.4631   -2.4243    0.0000 H   0  0  0  0  0  0  0  0  0  0  0  0
    2.3291   -5.5443    0.0000 H   0  0  0  0  0  0  0  0  0  0  0  0
    3.4030   -5.5443    0.0000 H   0  0  0  0  0  0  0  0  0  0  0  0
    6.0783    4.4649    0.0000 H   0  0  0  0  0  0  0  0  0  0  0  0
    8.6397    3.3192    0.0000 H   0  0  0  0  0  0  0  0  0  0  0  0
   11.5649    1.3776    0.0000 H   0  0  0  0  0  0  0  0  0  0  0  0
   12.3841    1.6904    0.0000 H   0  0  0  0  0  0  0  0  0  0  0  0
   12.0713    2.5096    0.0000 H   0  0  0  0  0  0  0  0  0  0  0  0
    6.7398    5.9437    0.0000 H   0  0  0  0  0  0  0  0  0  0  0  0
    9.3012    4.7980    0.0000 H   0  0  0  0  0  0  0  0  0  0  0  0
    8.3512    6.1103    0.0000 H   0  0  0  0  0  0  0  0  0  0  0  0
  1  2  1  0  0  0  0
  1  3  1  0  0  0  0
  1  4  2  0  0  0  0
  1  8  1  0  0  0  0
  2 18  1  0  0  0  0
  3 28  1  0  0  0  0
  5 26  1  0  0  0  0
  5 31  1  0  0  0  0
  6 26  2  0  0  0  0
 14  7  1  6  0  0  0
  7 19  1  0  0  0  0
  7 20  1  0  0  0  0
  8 21  1  0  0  0  0
  8 44  1  0  0  0  0
  9 20  2  0  0  0  0
  9 22  1  0  0  0  0
 10 19  2  0  0  0  0
 10 27  1  0  0  0  0
 11 25  1  0  0  0  0
 11 27  2  0  0  0  0
 12 25  1  0  0  0  0
 12 52  1  0  0  0  0
 12 53  1  0  0  0  0
 13 15  1  0  0  0  0
 13 16  1  0  0  0  0
 13 18  1  6  0  0  0
 13 35  1  0  0  0  0
 14 15  1  0  0  0  0
 14 17  1  0  0  0  0
 14 36  1  0  0  0  0
 15 37  1  0  0  0  0
 15 38  1  0  0  0  0
 16 17  2  0  0  0  0
 16 39  1  0  0  0  0
 17 40  1  0  0  0  0
 18 41  1  0  0  0  0
 18 42  1  0  0  0  0
 19 22  1  0  0  0  0
 20 43  1  0  0  0  0
 21 23  1  0  0  0  0
 21 24  1  0  0  0  0
 21 26  1  0  0  0  0
 22 25  2  0  0  0  0
 23 45  1  0  0  0  0
 23 46  1  0  0  0  0
 23 47  1  0  0  0  0
 24 48  1  0  0  0  0
 24 49  1  0  0  0  0
 24 50  1  0  0  0  0
 27 51  1  0  0  0  0
 28 29  2  0  0  0  0
 28 30  1  0  0  0  0
 29 32  1  0  0  0  0
 29 54  1  0  0  0  0
 30 33  2  0  0  0  0
 30 55  1  0  0  0  0
 31 56  1  0  0  0  0
 31 57  1  0  0  0  0
 31 58  1  0  0  0  0
 32 34  2  0  0  0  0
 32 59  1  0  0  0  0
 33 34  1  0  0  0  0
 33 60  1  0  0  0  0
 34 61  1  0  0  0  0
M  END
> <PUBCHEM_COMPOUND_CID>
513203
> <PUBCHEM_COMPOUND_CANONICALIZED>
1
> <PUBCHEM_CACTVS_COMPLEXITY>
792
> <PUBCHEM_CACTVS_HBOND_ACCEPTOR>
10
> <PUBCHEM_CACTVS_HBOND_DONOR>
2
> <PUBCHEM_CACTVS_ROTATABLE_BOND>
10
> <PUBCHEM_CACTVS_SUBSKEYS>
AAADceB7uAIAAAAAAAAAAAAAAAAAAWIAAAA8QAAAAAAAAFgB/AAAHgAQgCAADazhlwY3/r9MFRCoQSbzbICCgC0xMKAJ2CGuXJiKbiLA2VKVNAgs0BPIiCegQAAMAAAAAAAAAAAAAAAAAAAAAAAAAAAAAA==
> <PUBCHEM_IUPAC_OPENEYE_NAME>
methyl 2-[[[(1R,4S)-4-(6-aminopurin-9-yl)cyclopent-2-en-1-yl]methoxy-phenoxy-phosphoryl]amino]-2-methyl-propanoate
> <PUBCHEM_IUPAC_CAS_NAME>
2-[[[(1R,4S)-4-(6-aminopurin-9-yl)-1-cyclopent-2-enyl]methoxy-phenoxyphosphoryl]amino]-2-methylpropanoic acid methyl ester
> <PUBCHEM_IUPAC_NAME_MARKUP>
methyl 2-[[[(1<I>R</I>,4<I>S</I>)-4-(6-aminopurin-9-yl)cyclopent-2-en-1-yl]methoxy-phenoxyphosphoryl]amino]-2-methylpropanoate
> <PUBCHEM_IUPAC_NAME>
methyl 2-[[[(1R,4S)-4-(6-aminopurin-9-yl)cyclopent-2-en-1-yl]methoxy-phenoxyphosphoryl]amino]-2-methylpropanoate
> <PUBCHEM_IUPAC_SYSTEMATIC_NAME>
methyl 2-[[[(1R,4S)-4-(6-aminopurin-9-yl)cyclopent-2-en-1-yl]methoxy-phenoxy-phosphoryl]amino]-2-methyl-propanoate
> <PUBCHEM_IUPAC_TRADITIONAL_NAME>
2-[[[(1R,4S)-4-adenin-9-ylcyclopent-2-en-1-yl]methoxy-phenoxy-phosphoryl]amino]-2-methyl-propionic acid methyl ester
> <PUBCHEM_IUPAC_INCHI>
InChI=1S/C22H27N6O5P/c1-22(2,21(29)31-3)27-34(30,33-17-7-5-4-6-8-17)32-12-15-9-10-16(11-15)28-14-26-18-19(23)24-13-25-20(18)28/h4-10,13-16H,11-12H2,1-3H3,(H,27,30)(H2,23,24,25)/t15-,16+,34?/m0/s1
> <PUBCHEM_IUPAC_INCHIKEY>
AWYVUAVSFSFVLE-AJIGYJTRSA-N
> <PUBCHEM_XLOGP3_AA>
2
> <PUBCHEM_EXACT_MASS>
486.17805498
> <PUBCHEM_MOLECULAR_FORMULA>
C22H27N6O5P
> <PUBCHEM_MOLECULAR_WEIGHT>
486.5
> <PUBCHEM_OPENEYE_CAN_SMILES>
CC(C)(C(=O)OC)NP(=O)(OCC1CC(C=C1)N2C=NC3=C(N=CN=C32)N)OC4=CC=CC=C4
> <PUBCHEM_OPENEYE_ISO_SMILES>
CC(C)(C(=O)OC)NP(=O)(OC[C@@H]1C[C@@H](C=C1)N2C=NC3=C(N=CN=C32)N)OC4=CC=CC=C4
> <PUBCHEM_CACTVS_TPSA>
144
> <PUBCHEM_MONOISOTOPIC_WEIGHT>
486.17805498
> <PUBCHEM_TOTAL_CHARGE>
0
> <PUBCHEM_HEAVY_ATOM_COUNT>
34
> <PUBCHEM_ATOM_DEF_STEREO_COUNT>
2
> <PUBCHEM_ATOM_UDEF_STEREO_COUNT>
1
> <PUBCHEM_BOND_DEF_STEREO_COUNT>
0
> <PUBCHEM_BOND_UDEF_STEREO_COUNT>
0
> <PUBCHEM_ISOTOPIC_ATOM_COUNT>
0
> <PUBCHEM_COMPONENT_COUNT>
1
> <PUBCHEM_CACTVS_TAUTO_COUNT>
-1
> <PUBCHEM_COORDINATE_TYPE>
1
5
255
> <PUBCHEM_BONDANNOTATIONS>
1  8  3
10  19  8
10  27  8
11  25  8
11  27  8
13  18  6
19  22  8
22  25  8
28  29  8
28  30  8
29  32  8
30  33  8
32  34  8
33  34  8
14  7  6
7  19  8
7  20  8
9  20  8
9  22  8
$$$$
