513337
  -OEChem-10302200282D
 80 79  0     1  0  0  0  0  0999 V2000
    8.5991   -0.6550    0.0000 O   0  0  0  0  0  0  0  0  0  0  0  0
   12.9292   -0.1550    0.0000 O   0  0  0  0  0  0  0  0  0  0  0  0
    4.2690   -0.1550    0.0000 O   0  0  0  0  0  0  0  0  0  0  0  0
    7.7331    0.8450    0.0000 O   0  0  0  0  0  0  0  0  0  0  0  0
   12.0632   -1.6550    0.0000 O   0  0  0  0  0  0  0  0  0  0  0  0
    2.5369   -0.1550    0.0000 O   0  0  0  0  0  0  0  0  0  0  0  0
    3.4030   -1.6550    0.0000 O   0  0  0  0  0  0  0  0  0  0  0  0
   11.1972   -0.1550    0.0000 N   0  0  0  0  0  0  0  0  0  0  0  0
    6.8671   -0.6550    0.0000 N   0  0  0  0  0  0  0  0  0  0  0  0
   15.5273   -0.6550    0.0000 N   0  0  0  0  0  0  0  0  0  0  0  0
    8.5991   -4.6550    0.0000 N   0  0  0  0  0  0  0  0  0  0  0  0
    4.2690    3.8450    0.0000 N   0  0  0  0  0  0  0  0  0  0  0  0
   16.3933    2.8450    0.0000 N   0  0  0  0  0  0  0  0  0  0  0  0
   17.2594    4.3450    0.0000 N   0  0  0  0  0  0  0  0  0  0  0  0
   15.5273    4.3450    0.0000 N   0  0  0  0  0  0  0  0  0  0  0  0
   10.3312   -0.6550    0.0000 C   0  0  2  0  0  0  0  0  0  0  0  0
   10.3312   -1.6550    0.0000 C   0  0  0  0  0  0  0  0  0  0  0  0
    6.0010   -0.1550    0.0000 C   0  0  2  0  0  0  0  0  0  0  0  0
    9.4651   -2.1550    0.0000 C   0  0  0  0  0  0  0  0  0  0  0  0
    6.0010    0.8450    0.0000 C   0  0  0  0  0  0  0  0  0  0  0  0
    5.1350    1.3450    0.0000 C   0  0  0  0  0  0  0  0  0  0  0  0
    9.4651   -0.1550    0.0000 C   0  0  0  0  0  0  0  0  0  0  0  0
    9.4651   -3.1550    0.0000 C   0  0  0  0  0  0  0  0  0  0  0  0
    5.1350    2.3450    0.0000 C   0  0  0  0  0  0  0  0  0  0  0  0
    5.1350   -0.6550    0.0000 C   0  0  0  0  0  0  0  0  0  0  0  0
   14.6613   -0.1550    0.0000 C   0  0  1  0  0  0  0  0  0  0  0  0
   14.6613    0.8450    0.0000 C   0  0  0  0  0  0  0  0  0  0  0  0
    8.5991   -3.6550    0.0000 C   0  0  0  0  0  0  0  0  0  0  0  0
   13.7953   -0.6550    0.0000 C   0  0  0  0  0  0  0  0  0  0  0  0
    4.2690    2.8450    0.0000 C   0  0  0  0  0  0  0  0  0  0  0  0
    7.7331   -0.1550    0.0000 C   0  0  0  0  0  0  0  0  0  0  0  0
   15.5273    1.3450    0.0000 C   0  0  0  0  0  0  0  0  0  0  0  0
   12.0632   -0.6550    0.0000 C   0  0  0  0  0  0  0  0  0  0  0  0
   15.5273    2.3450    0.0000 C   0  0  0  0  0  0  0  0  0  0  0  0
    3.4030   -0.6550    0.0000 C   0  0  0  0  0  0  0  0  0  0  0  0
   16.3933    3.8450    0.0000 C   0  0  0  0  0  0  0  0  0  0  0  0
   10.8681   -0.9650    0.0000 H   0  0  0  0  0  0  0  0  0  0  0  0
   10.5432   -2.2376    0.0000 H   0  0  0  0  0  0  0  0  0  0  0  0
   10.9417   -1.5473    0.0000 H   0  0  0  0  0  0  0  0  0  0  0  0
    6.5380    0.1550    0.0000 H   0  0  0  0  0  0  0  0  0  0  0  0
    9.2531   -1.5724    0.0000 H   0  0  0  0  0  0  0  0  0  0  0  0
    8.8546   -2.2627    0.0000 H   0  0  0  0  0  0  0  0  0  0  0  0
    6.6116    0.7373    0.0000 H   0  0  0  0  0  0  0  0  0  0  0  0
    6.2131    1.4276    0.0000 H   0  0  0  0  0  0  0  0  0  0  0  0
    4.5244    1.4527    0.0000 H   0  0  0  0  0  0  0  0  0  0  0  0
    4.9230    0.7624    0.0000 H   0  0  0  0  0  0  0  0  0  0  0  0
    9.8637    0.3199    0.0000 H   0  0  0  0  0  0  0  0  0  0  0  0
    9.0666    0.3199    0.0000 H   0  0  0  0  0  0  0  0  0  0  0  0
    9.6772   -3.7376    0.0000 H   0  0  0  0  0  0  0  0  0  0  0  0
   10.0757   -3.0473    0.0000 H   0  0  0  0  0  0  0  0  0  0  0  0
    5.7456    2.2373    0.0000 H   0  0  0  0  0  0  0  0  0  0  0  0
    5.3471    2.9276    0.0000 H   0  0  0  0  0  0  0  0  0  0  0  0
   11.1972    0.4650    0.0000 H   0  0  0  0  0  0  0  0  0  0  0  0
    4.7365   -1.1300    0.0000 H   0  0  0  0  0  0  0  0  0  0  0  0
    5.5335   -1.1300    0.0000 H   0  0  0  0  0  0  0  0  0  0  0  0
    6.8671   -1.2750    0.0000 H   0  0  0  0  0  0  0  0  0  0  0  0
   14.6613   -0.7750    0.0000 H   0  0  0  0  0  0  0  0  0  0  0  0
   14.4492    1.4276    0.0000 H   0  0  0  0  0  0  0  0  0  0  0  0
   14.0507    0.7373    0.0000 H   0  0  0  0  0  0  0  0  0  0  0  0
    8.3871   -3.0724    0.0000 H   0  0  0  0  0  0  0  0  0  0  0  0
    7.9885   -3.7627    0.0000 H   0  0  0  0  0  0  0  0  0  0  0  0
   13.3967   -1.1300    0.0000 H   0  0  0  0  0  0  0  0  0  0  0  0
   14.1938   -1.1300    0.0000 H   0  0  0  0  0  0  0  0  0  0  0  0
    3.6584    2.9527    0.0000 H   0  0  0  0  0  0  0  0  0  0  0  0
    4.0569    2.2624    0.0000 H   0  0  0  0  0  0  0  0  0  0  0  0
   15.7394    0.7624    0.0000 H   0  0  0  0  0  0  0  0  0  0  0  0
   16.1379    1.4527    0.0000 H   0  0  0  0  0  0  0  0  0  0  0  0
   15.3153    2.9276    0.0000 H   0  0  0  0  0  0  0  0  0  0  0  0
   14.9167    2.2373    0.0000 H   0  0  0  0  0  0  0  0  0  0  0  0
   16.0643   -0.3450    0.0000 H   0  0  0  0  0  0  0  0  0  0  0  0
   15.5273   -1.2750    0.0000 H   0  0  0  0  0  0  0  0  0  0  0  0
    8.0622   -4.9650    0.0000 H   0  0  0  0  0  0  0  0  0  0  0  0
    9.1360   -4.9650    0.0000 H   0  0  0  0  0  0  0  0  0  0  0  0
    3.7320    4.1550    0.0000 H   0  0  0  0  0  0  0  0  0  0  0  0
    4.8059    4.1550    0.0000 H   0  0  0  0  0  0  0  0  0  0  0  0
    2.0000   -0.4650    0.0000 H   0  0  0  0  0  0  0  0  0  0  0  0
   17.2594    4.9650    0.0000 H   0  0  0  0  0  0  0  0  0  0  0  0
   17.7963    4.0350    0.0000 H   0  0  0  0  0  0  0  0  0  0  0  0
   15.5273    4.9650    0.0000 H   0  0  0  0  0  0  0  0  0  0  0  0
   14.9904    4.0350    0.0000 H   0  0  0  0  0  0  0  0  0  0  0  0
  1 22  1  0  0  0  0
  1 31  1  0  0  0  0
  2 29  1  0  0  0  0
  2 33  1  0  0  0  0
  3 25  1  0  0  0  0
  3 35  1  0  0  0  0
  4 31  2  0  0  0  0
  5 33  2  0  0  0  0
  6 35  1  0  0  0  0
  6 76  1  0  0  0  0
  7 35  2  0  0  0  0
 16  8  1  6  0  0  0
  8 33  1  0  0  0  0
  8 53  1  0  0  0  0
 18  9  1  1  0  0  0
  9 31  1  0  0  0  0
  9 56  1  0  0  0  0
 26 10  1  6  0  0  0
 10 70  1  0  0  0  0
 10 71  1  0  0  0  0
 11 28  1  0  0  0  0
 11 72  1  0  0  0  0
 11 73  1  0  0  0  0
 12 30  1  0  0  0  0
 12 74  1  0  0  0  0
 12 75  1  0  0  0  0
 13 34  1  0  0  0  0
 13 36  2  0  0  0  0
 14 36  1  0  0  0  0
 14 77  1  0  0  0  0
 14 78  1  0  0  0  0
 15 36  1  0  0  0  0
 15 79  1  0  0  0  0
 15 80  1  0  0  0  0
 16 17  1  0  0  0  0
 16 22  1  0  0  0  0
 16 37  1  0  0  0  0
 17 19  1  0  0  0  0
 17 38  1  0  0  0  0
 17 39  1  0  0  0  0
 18 20  1  0  0  0  0
 18 25  1  0  0  0  0
 18 40  1  0  0  0  0
 19 23  1  0  0  0  0
 19 41  1  0  0  0  0
 19 42  1  0  0  0  0
 20 21  1  0  0  0  0
 20 43  1  0  0  0  0
 20 44  1  0  0  0  0
 21 24  1  0  0  0  0
 21 45  1  0  0  0  0
 21 46  1  0  0  0  0
 22 47  1  0  0  0  0
 22 48  1  0  0  0  0
 23 28  1  0  0  0  0
 23 49  1  0  0  0  0
 23 50  1  0  0  0  0
 24 30  1  0  0  0  0
 24 51  1  0  0  0  0
 24 52  1  0  0  0  0
 25 54  1  0  0  0  0
 25 55  1  0  0  0  0
 26 27  1  0  0  0  0
 26 29  1  0  0  0  0
 26 57  1  0  0  0  0
 27 32  1  0  0  0  0
 27 58  1  0  0  0  0
 27 59  1  0  0  0  0
 28 60  1  0  0  0  0
 28 61  1  0  0  0  0
 29 62  1  0  0  0  0
 29 63  1  0  0  0  0
 30 64  1  0  0  0  0
 30 65  1  0  0  0  0
 32 34  1  0  0  0  0
 32 66  1  0  0  0  0
 32 67  1  0  0  0  0
 34 68  1  0  0  0  0
 34 69  1  0  0  0  0
M  END
> <PUBCHEM_COMPOUND_CID>
513337
> <PUBCHEM_COMPOUND_CANONICALIZED>
1
> <PUBCHEM_CACTVS_COMPLEXITY>
650
> <PUBCHEM_CACTVS_HBOND_ACCEPTOR>
11
> <PUBCHEM_CACTVS_HBOND_DONOR>
8
> <PUBCHEM_CACTVS_ROTATABLE_BOND>
23
> <PUBCHEM_CACTVS_SUBSKEYS>
AAADcfB7+AAAAAAAAAAAAAAAAAAAAAAAAAAAAAAAAAAAAAAAAAAAHgAQCAAACCjhgAYBCALABgAoAAAAPAAAAAEAAAAAAIAIAAESAAIAgAANAAAEFgAUAAGQUAAAAAAAAAAAAAAAAAAAAAAAAAAAAAAAAA==
> <PUBCHEM_IUPAC_OPENEYE_NAME>
[(2R)-6-amino-2-[[(2R)-6-amino-2-[[(2S)-2-amino-5-guanidino-pentoxy]carbonylamino]hexoxy]carbonylamino]hexyl] hydrogen carbonate
> <PUBCHEM_IUPAC_CAS_NAME>
carbonic acid [(2R)-6-amino-2-[[[(2R)-6-amino-2-[[[(2S)-2-amino-5-(diaminomethylideneamino)pentoxy]-oxomethyl]amino]hexoxy]-oxomethyl]amino]hexyl] ester
> <PUBCHEM_IUPAC_NAME_MARKUP>
[(2<I>R</I>)-6-amino-2-[[(2<I>R</I>)-6-amino-2-[[(2<I>S</I>)-2-amino-5-(diaminomethylideneamino)pentoxy]carbonylamino]hexoxy]carbonylamino]hexyl] hydrogen carbonate
> <PUBCHEM_IUPAC_NAME>
[(2R)-6-amino-2-[[(2R)-6-amino-2-[[(2S)-2-amino-5-(diaminomethylideneamino)pentoxy]carbonylamino]hexoxy]carbonylamino]hexyl] hydrogen carbonate
> <PUBCHEM_IUPAC_SYSTEMATIC_NAME>
[(2R)-6-azanyl-2-[[(2R)-6-azanyl-2-[[(2S)-2-azanyl-5-[bis(azanyl)methylideneamino]pentoxy]carbonylamino]hexoxy]carbonylamino]hexyl] hydrogen carbonate
> <PUBCHEM_IUPAC_TRADITIONAL_NAME>
carbonic acid [(2R)-6-amino-2-[[(2R)-6-amino-2-[[(2S)-2-amino-5-guanidino-pentoxy]carbonylamino]hexoxy]carbonylamino]hexyl] ester
> <PUBCHEM_IUPAC_INCHI>
InChI=1S/C21H44N8O7/c22-9-3-1-7-16(28-19(30)34-12-15(24)6-5-11-27-18(25)26)13-35-20(31)29-17(8-2-4-10-23)14-36-21(32)33/h15-17H,1-14,22-24H2,(H,28,30)(H,29,31)(H,32,33)(H4,25,26,27)/t15-,16+,17+/m0/s1
> <PUBCHEM_IUPAC_INCHIKEY>
CIUALRYBFZGZHF-GVDBMIGSSA-N
> <PUBCHEM_XLOGP3_AA>
-4
> <PUBCHEM_EXACT_MASS>
520.33329577
> <PUBCHEM_MOLECULAR_FORMULA>
C21H44N8O7
> <PUBCHEM_MOLECULAR_WEIGHT>
520.6
> <PUBCHEM_OPENEYE_CAN_SMILES>
C(CCN)CC(COC(=O)NC(CCCCN)COC(=O)O)NC(=O)OCC(CCCN=C(N)N)N
> <PUBCHEM_OPENEYE_ISO_SMILES>
C(CCN)C[C@H](COC(=O)N[C@H](CCCCN)COC(=O)O)NC(=O)OC[C@H](CCCN=C(N)N)N
> <PUBCHEM_CACTVS_TPSA>
266
> <PUBCHEM_MONOISOTOPIC_WEIGHT>
520.33329577
> <PUBCHEM_TOTAL_CHARGE>
0
> <PUBCHEM_HEAVY_ATOM_COUNT>
36
> <PUBCHEM_ATOM_DEF_STEREO_COUNT>
3
> <PUBCHEM_ATOM_UDEF_STEREO_COUNT>
0
> <PUBCHEM_BOND_DEF_STEREO_COUNT>
0
> <PUBCHEM_BOND_UDEF_STEREO_COUNT>
0
> <PUBCHEM_ISOTOPIC_ATOM_COUNT>
0
> <PUBCHEM_COMPONENT_COUNT>
1
> <PUBCHEM_CACTVS_TAUTO_COUNT>
-1
> <PUBCHEM_COORDINATE_TYPE>
1
5
255
> <PUBCHEM_BONDANNOTATIONS>
26  10  6
16  8  6
18  9  5
$$$$
