513373
  -OEChem-10302200282D
 85 84  0     1  0  0  0  0  0999 V2000
   11.1972    2.5600    0.0000 O   0  0  0  0  0  0  0  0  0  0  0  0
    4.2690    2.5600    0.0000 O   0  0  0  0  0  0  0  0  0  0  0  0
    7.7331    1.5600    0.0000 O   0  0  0  0  0  0  0  0  0  0  0  0
   10.3312    4.0600    0.0000 O   0  0  0  0  0  0  0  0  0  0  0  0
    2.5369    2.5600    0.0000 O   0  0  0  0  0  0  0  0  0  0  0  0
    3.4030    4.0600    0.0000 O   0  0  0  0  0  0  0  0  0  0  0  0
    9.4651    2.5600    0.0000 N   0  0  0  0  0  0  0  0  0  0  0  0
    6.8671    3.0600    0.0000 N   0  0  0  0  0  0  0  0  0  0  0  0
   13.7953    3.0600    0.0000 N   0  0  0  0  0  0  0  0  0  0  0  0
    3.4030    0.0600    0.0000 N   0  0  0  0  0  0  0  0  0  0  0  0
    6.0010   -3.4400    0.0000 N   0  0  0  0  0  0  0  0  0  0  0  0
   14.6613   -0.4400    0.0000 N   0  0  0  0  0  0  0  0  0  0  0  0
   15.5273   -1.9400    0.0000 N   0  0  0  0  0  0  0  0  0  0  0  0
   13.7953   -1.9400    0.0000 N   0  0  0  0  0  0  0  0  0  0  0  0
    6.0010    2.5600    0.0000 C   0  0  2  0  0  0  0  0  0  0  0  0
    6.0010    1.5600    0.0000 C   0  0  0  0  0  0  0  0  0  0  0  0
    8.5991    1.0600    0.0000 C   0  0  0  0  0  0  0  0  0  0  0  0
    8.5991    0.0600    0.0000 C   0  0  0  0  0  0  0  0  0  0  0  0
    9.4651    1.5600    0.0000 C   0  0  0  0  0  0  0  0  0  0  0  0
    7.7331   -0.4400    0.0000 C   0  0  0  0  0  0  0  0  0  0  0  0
    5.1350    1.0600    0.0000 C   0  0  0  0  0  0  0  0  0  0  0  0
    7.7331   -1.4400    0.0000 C   0  0  0  0  0  0  0  0  0  0  0  0
    8.5991    3.0600    0.0000 C   0  0  0  0  0  0  0  0  0  0  0  0
    5.1350    3.0600    0.0000 C   0  0  0  0  0  0  0  0  0  0  0  0
    5.1350    0.0600    0.0000 C   0  0  0  0  0  0  0  0  0  0  0  0
    7.7331    2.5600    0.0000 C   0  0  0  0  0  0  0  0  0  0  0  0
    6.8671   -1.9400    0.0000 C   0  0  0  0  0  0  0  0  0  0  0  0
   12.9292    2.5600    0.0000 C   0  0  1  0  0  0  0  0  0  0  0  0
   12.9292    1.5600    0.0000 C   0  0  0  0  0  0  0  0  0  0  0  0
   10.3312    3.0600    0.0000 C   0  0  0  0  0  0  0  0  0  0  0  0
   12.0632    3.0600    0.0000 C   0  0  0  0  0  0  0  0  0  0  0  0
    4.2690   -0.4400    0.0000 C   0  0  0  0  0  0  0  0  0  0  0  0
    6.8671   -2.9400    0.0000 C   0  0  0  0  0  0  0  0  0  0  0  0
   13.7953    1.0600    0.0000 C   0  0  0  0  0  0  0  0  0  0  0  0
   13.7953    0.0600    0.0000 C   0  0  0  0  0  0  0  0  0  0  0  0
    3.4030    3.0600    0.0000 C   0  0  0  0  0  0  0  0  0  0  0  0
   14.6613   -1.4400    0.0000 C   0  0  0  0  0  0  0  0  0  0  0  0
    6.5380    2.2500    0.0000 H   0  0  0  0  0  0  0  0  0  0  0  0
    6.2131    0.9774    0.0000 H   0  0  0  0  0  0  0  0  0  0  0  0
    6.6116    1.6677    0.0000 H   0  0  0  0  0  0  0  0  0  0  0  0
    8.3871    1.6426    0.0000 H   0  0  0  0  0  0  0  0  0  0  0  0
    7.9885    0.9523    0.0000 H   0  0  0  0  0  0  0  0  0  0  0  0
    8.8112   -0.5226    0.0000 H   0  0  0  0  0  0  0  0  0  0  0  0
    9.2097    0.1677    0.0000 H   0  0  0  0  0  0  0  0  0  0  0  0
    9.6772    0.9774    0.0000 H   0  0  0  0  0  0  0  0  0  0  0  0
   10.0757    1.6677    0.0000 H   0  0  0  0  0  0  0  0  0  0  0  0
    7.5210    0.1426    0.0000 H   0  0  0  0  0  0  0  0  0  0  0  0
    7.1225   -0.5477    0.0000 H   0  0  0  0  0  0  0  0  0  0  0  0
    4.9230    1.6426    0.0000 H   0  0  0  0  0  0  0  0  0  0  0  0
    4.5244    0.9523    0.0000 H   0  0  0  0  0  0  0  0  0  0  0  0
    7.9451   -2.0226    0.0000 H   0  0  0  0  0  0  0  0  0  0  0  0
    8.3437   -1.3323    0.0000 H   0  0  0  0  0  0  0  0  0  0  0  0
    8.9976    3.5350    0.0000 H   0  0  0  0  0  0  0  0  0  0  0  0
    8.2006    3.5350    0.0000 H   0  0  0  0  0  0  0  0  0  0  0  0
    6.8671    3.6800    0.0000 H   0  0  0  0  0  0  0  0  0  0  0  0
    5.5335    3.5350    0.0000 H   0  0  0  0  0  0  0  0  0  0  0  0
    4.7365    3.5350    0.0000 H   0  0  0  0  0  0  0  0  0  0  0  0
    5.3471   -0.5226    0.0000 H   0  0  0  0  0  0  0  0  0  0  0  0
    5.7456    0.1677    0.0000 H   0  0  0  0  0  0  0  0  0  0  0  0
    6.6550   -1.3574    0.0000 H   0  0  0  0  0  0  0  0  0  0  0  0
    6.2565   -2.0477    0.0000 H   0  0  0  0  0  0  0  0  0  0  0  0
   12.9292    3.1800    0.0000 H   0  0  0  0  0  0  0  0  0  0  0  0
   12.3187    1.6677    0.0000 H   0  0  0  0  0  0  0  0  0  0  0  0
   12.7172    0.9774    0.0000 H   0  0  0  0  0  0  0  0  0  0  0  0
   12.4617    3.5350    0.0000 H   0  0  0  0  0  0  0  0  0  0  0  0
   11.6647    3.5350    0.0000 H   0  0  0  0  0  0  0  0  0  0  0  0
    3.8705   -0.9149    0.0000 H   0  0  0  0  0  0  0  0  0  0  0  0
    4.6675   -0.9149    0.0000 H   0  0  0  0  0  0  0  0  0  0  0  0
    7.0791   -3.5226    0.0000 H   0  0  0  0  0  0  0  0  0  0  0  0
    7.4776   -2.8323    0.0000 H   0  0  0  0  0  0  0  0  0  0  0  0
   14.4058    0.9523    0.0000 H   0  0  0  0  0  0  0  0  0  0  0  0
   14.0073    1.6426    0.0000 H   0  0  0  0  0  0  0  0  0  0  0  0
   13.1847    0.1677    0.0000 H   0  0  0  0  0  0  0  0  0  0  0  0
   13.5832   -0.5226    0.0000 H   0  0  0  0  0  0  0  0  0  0  0  0
   14.3322    2.7500    0.0000 H   0  0  0  0  0  0  0  0  0  0  0  0
   13.7953    3.6800    0.0000 H   0  0  0  0  0  0  0  0  0  0  0  0
    2.8660   -0.2500    0.0000 H   0  0  0  0  0  0  0  0  0  0  0  0
    3.4030    0.6800    0.0000 H   0  0  0  0  0  0  0  0  0  0  0  0
    6.0010   -4.0600    0.0000 H   0  0  0  0  0  0  0  0  0  0  0  0
    5.4641   -3.1300    0.0000 H   0  0  0  0  0  0  0  0  0  0  0  0
    2.0000    2.8700    0.0000 H   0  0  0  0  0  0  0  0  0  0  0  0
   15.5273   -2.5600    0.0000 H   0  0  0  0  0  0  0  0  0  0  0  0
   16.0643   -1.6300    0.0000 H   0  0  0  0  0  0  0  0  0  0  0  0
   13.7953   -2.5600    0.0000 H   0  0  0  0  0  0  0  0  0  0  0  0
   13.2583   -1.6300    0.0000 H   0  0  0  0  0  0  0  0  0  0  0  0
  1 30  1  0  0  0  0
  1 31  1  0  0  0  0
  2 24  1  0  0  0  0
  2 36  1  0  0  0  0
  3 26  2  0  0  0  0
  4 30  2  0  0  0  0
  5 36  1  0  0  0  0
  5 81  1  0  0  0  0
  6 36  2  0  0  0  0
  7 19  1  0  0  0  0
  7 23  1  0  0  0  0
  7 30  1  0  0  0  0
 15  8  1  6  0  0  0
  8 26  1  0  0  0  0
  8 55  1  0  0  0  0
 28  9  1  1  0  0  0
  9 75  1  0  0  0  0
  9 76  1  0  0  0  0
 10 32  1  0  0  0  0
 10 77  1  0  0  0  0
 10 78  1  0  0  0  0
 11 33  1  0  0  0  0
 11 79  1  0  0  0  0
 11 80  1  0  0  0  0
 12 35  1  0  0  0  0
 12 37  2  0  0  0  0
 13 37  1  0  0  0  0
 13 82  1  0  0  0  0
 13 83  1  0  0  0  0
 14 37  1  0  0  0  0
 14 84  1  0  0  0  0
 14 85  1  0  0  0  0
 15 16  1  0  0  0  0
 15 24  1  0  0  0  0
 15 38  1  0  0  0  0
 16 21  1  0  0  0  0
 16 39  1  0  0  0  0
 16 40  1  0  0  0  0
 17 18  1  0  0  0  0
 17 19  1  0  0  0  0
 17 41  1  0  0  0  0
 17 42  1  0  0  0  0
 18 20  1  0  0  0  0
 18 43  1  0  0  0  0
 18 44  1  0  0  0  0
 19 45  1  0  0  0  0
 19 46  1  0  0  0  0
 20 22  1  0  0  0  0
 20 47  1  0  0  0  0
 20 48  1  0  0  0  0
 21 25  1  0  0  0  0
 21 49  1  0  0  0  0
 21 50  1  0  0  0  0
 22 27  1  0  0  0  0
 22 51  1  0  0  0  0
 22 52  1  0  0  0  0
 23 26  1  0  0  0  0
 23 53  1  0  0  0  0
 23 54  1  0  0  0  0
 24 56  1  0  0  0  0
 24 57  1  0  0  0  0
 25 32  1  0  0  0  0
 25 58  1  0  0  0  0
 25 59  1  0  0  0  0
 27 33  1  0  0  0  0
 27 60  1  0  0  0  0
 27 61  1  0  0  0  0
 28 29  1  0  0  0  0
 28 31  1  0  0  0  0
 28 62  1  0  0  0  0
 29 34  1  0  0  0  0
 29 63  1  0  0  0  0
 29 64  1  0  0  0  0
 31 65  1  0  0  0  0
 31 66  1  0  0  0  0
 32 67  1  0  0  0  0
 32 68  1  0  0  0  0
 33 69  1  0  0  0  0
 33 70  1  0  0  0  0
 34 35  1  0  0  0  0
 34 71  1  0  0  0  0
 34 72  1  0  0  0  0
 35 73  1  0  0  0  0
 35 74  1  0  0  0  0
M  END
> <PUBCHEM_COMPOUND_CID>
513373
> <PUBCHEM_COMPOUND_CANONICALIZED>
1
> <PUBCHEM_CACTVS_COMPLEXITY>
663
> <PUBCHEM_CACTVS_HBOND_ACCEPTOR>
10
> <PUBCHEM_CACTVS_HBOND_DONOR>
7
> <PUBCHEM_CACTVS_ROTATABLE_BOND>
24
> <PUBCHEM_CACTVS_SUBSKEYS>
AAADcfB7+AAAAAAAAAAAAAAAAAAAAAAAAAAAAAAAAAAAAAAAAAAAHgAQCAAACCjhgAYBCAPABgAoAAEQPAAAAAEAAAAAAICIAAASQAIAgCAdAAAEFgCUAAGQ0AAAAAAAAAAAAAAAAAAAAAAAAAAAAAAAAA==
> <PUBCHEM_IUPAC_OPENEYE_NAME>
[(2R)-6-amino-2-[[2-[[(2S)-2-amino-5-guanidino-pentoxy]carbonyl-(7-aminoheptyl)amino]acetyl]amino]hexyl] hydrogen carbonate
> <PUBCHEM_IUPAC_CAS_NAME>
carbonic acid [(2R)-6-amino-2-[[2-[[[(2S)-2-amino-5-(diaminomethylideneamino)pentoxy]-oxomethyl]-(7-aminoheptyl)amino]-1-oxoethyl]amino]hexyl] ester
> <PUBCHEM_IUPAC_NAME_MARKUP>
[(2<I>R</I>)-6-amino-2-[[2-[[(2<I>S</I>)-2-amino-5-(diaminomethylideneamino)pentoxy]carbonyl-(7-aminoheptyl)amino]acetyl]amino]hexyl] hydrogen carbonate
> <PUBCHEM_IUPAC_NAME>
[(2R)-6-amino-2-[[2-[[(2S)-2-amino-5-(diaminomethylideneamino)pentoxy]carbonyl-(7-aminoheptyl)amino]acetyl]amino]hexyl] hydrogen carbonate
> <PUBCHEM_IUPAC_SYSTEMATIC_NAME>
[(2R)-6-azanyl-2-[2-[[(2S)-2-azanyl-5-[bis(azanyl)methylideneamino]pentoxy]carbonyl-(7-azanylheptyl)amino]ethanoylamino]hexyl] hydrogen carbonate
> <PUBCHEM_IUPAC_TRADITIONAL_NAME>
carbonic acid [(2R)-6-amino-2-[[2-[[(2S)-2-amino-5-guanidino-pentoxy]carbonyl-(7-aminoheptyl)amino]acetyl]amino]hexyl] ester
> <PUBCHEM_IUPAC_INCHI>
InChI=1S/C23H48N8O6/c24-11-5-2-1-3-7-14-31(22(33)36-16-18(26)9-8-13-29-21(27)28)15-20(32)30-19(10-4-6-12-25)17-37-23(34)35/h18-19H,1-17,24-26H2,(H,30,32)(H,34,35)(H4,27,28,29)/t18-,19+/m0/s1
> <PUBCHEM_IUPAC_INCHIKEY>
QAOGMFLJTHIHHQ-RBUKOAKNSA-N
> <PUBCHEM_XLOGP3_AA>
-3.3
> <PUBCHEM_EXACT_MASS>
532.36968128
> <PUBCHEM_MOLECULAR_FORMULA>
C23H48N8O6
> <PUBCHEM_MOLECULAR_WEIGHT>
532.7
> <PUBCHEM_OPENEYE_CAN_SMILES>
C(CCCN)CCCN(CC(=O)NC(CCCCN)COC(=O)O)C(=O)OCC(CCCN=C(N)N)N
> <PUBCHEM_OPENEYE_ISO_SMILES>
C(CCCN)CCCN(CC(=O)N[C@H](CCCCN)COC(=O)O)C(=O)OC[C@H](CCCN=C(N)N)N
> <PUBCHEM_CACTVS_TPSA>
248
> <PUBCHEM_MONOISOTOPIC_WEIGHT>
532.36968128
> <PUBCHEM_TOTAL_CHARGE>
0
> <PUBCHEM_HEAVY_ATOM_COUNT>
37
> <PUBCHEM_ATOM_DEF_STEREO_COUNT>
2
> <PUBCHEM_ATOM_UDEF_STEREO_COUNT>
0
> <PUBCHEM_BOND_DEF_STEREO_COUNT>
0
> <PUBCHEM_BOND_UDEF_STEREO_COUNT>
0
> <PUBCHEM_ISOTOPIC_ATOM_COUNT>
0
> <PUBCHEM_COMPONENT_COUNT>
1
> <PUBCHEM_CACTVS_TAUTO_COUNT>
-1
> <PUBCHEM_COORDINATE_TYPE>
1
5
255
> <PUBCHEM_BONDANNOTATIONS>
15  8  6
28  9  5
$$$$
