513313
  -OEChem-10302200282D
 77 76  0     1  0  0  0  0  0999 V2000
   11.1972    1.8100    0.0000 O   0  0  0  0  0  0  0  0  0  0  0  0
    4.2690    1.8100    0.0000 O   0  0  0  0  0  0  0  0  0  0  0  0
    7.7331    0.8100    0.0000 O   0  0  0  0  0  0  0  0  0  0  0  0
   10.3312    3.3100    0.0000 O   0  0  0  0  0  0  0  0  0  0  0  0
    2.5369    1.8100    0.0000 O   0  0  0  0  0  0  0  0  0  0  0  0
    3.4030    3.3100    0.0000 O   0  0  0  0  0  0  0  0  0  0  0  0
    9.4651    1.8100    0.0000 N   0  0  0  0  0  0  0  0  0  0  0  0
    6.8671    2.3100    0.0000 N   0  0  0  0  0  0  0  0  0  0  0  0
   13.7953    2.3100    0.0000 N   0  0  0  0  0  0  0  0  0  0  0  0
    4.2690   -2.1900    0.0000 N   0  0  0  0  0  0  0  0  0  0  0  0
   14.6613   -2.1900    0.0000 N   0  0  0  0  0  0  0  0  0  0  0  0
    6.8671   -2.6900    0.0000 N   0  0  0  0  0  0  0  0  0  0  0  0
    6.0010    1.8100    0.0000 C   0  0  1  0  0  0  0  0  0  0  0  0
    6.0010    0.8100    0.0000 C   0  0  0  0  0  0  0  0  0  0  0  0
    5.1350    0.3100    0.0000 C   0  0  0  0  0  0  0  0  0  0  0  0
   12.9292    1.8100    0.0000 C   0  0  2  0  0  0  0  0  0  0  0  0
    9.4651    0.8100    0.0000 C   0  0  0  0  0  0  0  0  0  0  0  0
   12.9292    0.8100    0.0000 C   0  0  0  0  0  0  0  0  0  0  0  0
    8.5991    0.3100    0.0000 C   0  0  0  0  0  0  0  0  0  0  0  0
    5.1350    2.3100    0.0000 C   0  0  0  0  0  0  0  0  0  0  0  0
    5.1350   -0.6900    0.0000 C   0  0  0  0  0  0  0  0  0  0  0  0
    8.5991    2.3100    0.0000 C   0  0  0  0  0  0  0  0  0  0  0  0
   13.7953    0.3100    0.0000 C   0  0  0  0  0  0  0  0  0  0  0  0
    8.5991   -0.6900    0.0000 C   0  0  0  0  0  0  0  0  0  0  0  0
    7.7331    1.8100    0.0000 C   0  0  0  0  0  0  0  0  0  0  0  0
   12.0632    2.3100    0.0000 C   0  0  0  0  0  0  0  0  0  0  0  0
   13.7953   -0.6900    0.0000 C   0  0  0  0  0  0  0  0  0  0  0  0
    7.7331   -1.1900    0.0000 C   0  0  0  0  0  0  0  0  0  0  0  0
    4.2690   -1.1900    0.0000 C   0  0  0  0  0  0  0  0  0  0  0  0
   10.3312    2.3100    0.0000 C   0  0  0  0  0  0  0  0  0  0  0  0
   14.6613   -1.1900    0.0000 C   0  0  0  0  0  0  0  0  0  0  0  0
    7.7331   -2.1900    0.0000 C   0  0  0  0  0  0  0  0  0  0  0  0
    3.4030    2.3100    0.0000 C   0  0  0  0  0  0  0  0  0  0  0  0
    6.5380    1.5000    0.0000 H   0  0  0  0  0  0  0  0  0  0  0  0
    6.2131    0.2274    0.0000 H   0  0  0  0  0  0  0  0  0  0  0  0
    6.6116    0.9177    0.0000 H   0  0  0  0  0  0  0  0  0  0  0  0
    4.9230    0.8926    0.0000 H   0  0  0  0  0  0  0  0  0  0  0  0
    4.5244    0.2023    0.0000 H   0  0  0  0  0  0  0  0  0  0  0  0
   12.9292    2.4300    0.0000 H   0  0  0  0  0  0  0  0  0  0  0  0
    9.6772    0.2274    0.0000 H   0  0  0  0  0  0  0  0  0  0  0  0
   10.0757    0.9177    0.0000 H   0  0  0  0  0  0  0  0  0  0  0  0
   12.3187    0.9177    0.0000 H   0  0  0  0  0  0  0  0  0  0  0  0
   12.7172    0.2274    0.0000 H   0  0  0  0  0  0  0  0  0  0  0  0
    8.3871    0.8926    0.0000 H   0  0  0  0  0  0  0  0  0  0  0  0
    7.9885    0.2023    0.0000 H   0  0  0  0  0  0  0  0  0  0  0  0
    6.8671    2.9300    0.0000 H   0  0  0  0  0  0  0  0  0  0  0  0
    5.5335    2.7849    0.0000 H   0  0  0  0  0  0  0  0  0  0  0  0
    4.7365    2.7849    0.0000 H   0  0  0  0  0  0  0  0  0  0  0  0
    5.3471   -1.2726    0.0000 H   0  0  0  0  0  0  0  0  0  0  0  0
    5.7456   -0.5823    0.0000 H   0  0  0  0  0  0  0  0  0  0  0  0
    8.9976    2.7849    0.0000 H   0  0  0  0  0  0  0  0  0  0  0  0
    8.2006    2.7849    0.0000 H   0  0  0  0  0  0  0  0  0  0  0  0
   14.4058    0.2023    0.0000 H   0  0  0  0  0  0  0  0  0  0  0  0
   14.0073    0.8926    0.0000 H   0  0  0  0  0  0  0  0  0  0  0  0
    8.8112   -1.2726    0.0000 H   0  0  0  0  0  0  0  0  0  0  0  0
    9.2097   -0.5823    0.0000 H   0  0  0  0  0  0  0  0  0  0  0  0
   12.4617    2.7849    0.0000 H   0  0  0  0  0  0  0  0  0  0  0  0
   11.6647    2.7849    0.0000 H   0  0  0  0  0  0  0  0  0  0  0  0
   13.1847   -0.5823    0.0000 H   0  0  0  0  0  0  0  0  0  0  0  0
   13.5832   -1.2726    0.0000 H   0  0  0  0  0  0  0  0  0  0  0  0
    7.5210   -0.6074    0.0000 H   0  0  0  0  0  0  0  0  0  0  0  0
    7.1225   -1.2977    0.0000 H   0  0  0  0  0  0  0  0  0  0  0  0
    4.0569   -0.6074    0.0000 H   0  0  0  0  0  0  0  0  0  0  0  0
    3.6584   -1.2977    0.0000 H   0  0  0  0  0  0  0  0  0  0  0  0
   15.2719   -1.2977    0.0000 H   0  0  0  0  0  0  0  0  0  0  0  0
   14.8733   -0.6074    0.0000 H   0  0  0  0  0  0  0  0  0  0  0  0
   14.3322    2.0000    0.0000 H   0  0  0  0  0  0  0  0  0  0  0  0
   13.7953    2.9300    0.0000 H   0  0  0  0  0  0  0  0  0  0  0  0
    7.9451   -2.7726    0.0000 H   0  0  0  0  0  0  0  0  0  0  0  0
    8.3437   -2.0823    0.0000 H   0  0  0  0  0  0  0  0  0  0  0  0
    3.7320   -2.5000    0.0000 H   0  0  0  0  0  0  0  0  0  0  0  0
    4.8059   -2.5000    0.0000 H   0  0  0  0  0  0  0  0  0  0  0  0
   15.1982   -2.5000    0.0000 H   0  0  0  0  0  0  0  0  0  0  0  0
   14.1244   -2.5000    0.0000 H   0  0  0  0  0  0  0  0  0  0  0  0
    6.8671   -3.3100    0.0000 H   0  0  0  0  0  0  0  0  0  0  0  0
    6.3301   -2.3800    0.0000 H   0  0  0  0  0  0  0  0  0  0  0  0
    2.0000    2.1200    0.0000 H   0  0  0  0  0  0  0  0  0  0  0  0
  1 26  1  0  0  0  0
  1 30  1  0  0  0  0
  2 20  1  0  0  0  0
  2 33  1  0  0  0  0
  3 25  2  0  0  0  0
  4 30  2  0  0  0  0
  5 33  1  0  0  0  0
  5 77  1  0  0  0  0
  6 33  2  0  0  0  0
  7 17  1  0  0  0  0
  7 22  1  0  0  0  0
  7 30  1  0  0  0  0
 13  8  1  1  0  0  0
  8 25  1  0  0  0  0
  8 46  1  0  0  0  0
 16  9  1  6  0  0  0
  9 67  1  0  0  0  0
  9 68  1  0  0  0  0
 10 29  1  0  0  0  0
 10 71  1  0  0  0  0
 10 72  1  0  0  0  0
 11 31  1  0  0  0  0
 11 73  1  0  0  0  0
 11 74  1  0  0  0  0
 12 32  1  0  0  0  0
 12 75  1  0  0  0  0
 12 76  1  0  0  0  0
 13 14  1  0  0  0  0
 13 20  1  0  0  0  0
 13 34  1  0  0  0  0
 14 15  1  0  0  0  0
 14 35  1  0  0  0  0
 14 36  1  0  0  0  0
 15 21  1  0  0  0  0
 15 37  1  0  0  0  0
 15 38  1  0  0  0  0
 16 18  1  0  0  0  0
 16 26  1  0  0  0  0
 16 39  1  0  0  0  0
 17 19  1  0  0  0  0
 17 40  1  0  0  0  0
 17 41  1  0  0  0  0
 18 23  1  0  0  0  0
 18 42  1  0  0  0  0
 18 43  1  0  0  0  0
 19 24  1  0  0  0  0
 19 44  1  0  0  0  0
 19 45  1  0  0  0  0
 20 47  1  0  0  0  0
 20 48  1  0  0  0  0
 21 29  1  0  0  0  0
 21 49  1  0  0  0  0
 21 50  1  0  0  0  0
 22 25  1  0  0  0  0
 22 51  1  0  0  0  0
 22 52  1  0  0  0  0
 23 27  1  0  0  0  0
 23 53  1  0  0  0  0
 23 54  1  0  0  0  0
 24 28  1  0  0  0  0
 24 55  1  0  0  0  0
 24 56  1  0  0  0  0
 26 57  1  0  0  0  0
 26 58  1  0  0  0  0
 27 31  1  0  0  0  0
 27 59  1  0  0  0  0
 27 60  1  0  0  0  0
 28 32  1  0  0  0  0
 28 61  1  0  0  0  0
 28 62  1  0  0  0  0
 29 63  1  0  0  0  0
 29 64  1  0  0  0  0
 31 65  1  0  0  0  0
 31 66  1  0  0  0  0
 32 69  1  0  0  0  0
 32 70  1  0  0  0  0
M  END
> <PUBCHEM_COMPOUND_CID>
513313
> <PUBCHEM_COMPOUND_CANONICALIZED>
1
> <PUBCHEM_CACTVS_COMPLEXITY>
539
> <PUBCHEM_CACTVS_HBOND_ACCEPTOR>
10
> <PUBCHEM_CACTVS_HBOND_DONOR>
6
> <PUBCHEM_CACTVS_ROTATABLE_BOND>
22
> <PUBCHEM_CACTVS_SUBSKEYS>
AAADcfB7uAAAAAAAAAAAAAAAAAAAAAAAAAAAAAAAAAAAAAAAAAAAHgAQCAAACCjhgAYACAPABgAIAAEQGAAAAAAAAAAAAICIAAASQAIAgCAdAAAEFgCUAAGQQAAAAAAAAAAAAAAAAAAAAAAAAAAAAAAAAA==
> <PUBCHEM_IUPAC_OPENEYE_NAME>
[(2S)-6-amino-2-[[2-[5-aminopentyl-[(2R)-2,6-diaminohexoxy]carbonyl-amino]acetyl]amino]hexyl] hydrogen carbonate
> <PUBCHEM_IUPAC_CAS_NAME>
carbonic acid [(2S)-6-amino-2-[[2-[5-aminopentyl-[[(2R)-2,6-diaminohexoxy]-oxomethyl]amino]-1-oxoethyl]amino]hexyl] ester
> <PUBCHEM_IUPAC_NAME_MARKUP>
[(2<I>S</I>)-6-amino-2-[[2-[5-aminopentyl-[(2<I>R</I>)-2,6-diaminohexoxy]carbonylamino]acetyl]amino]hexyl] hydrogen carbonate
> <PUBCHEM_IUPAC_NAME>
[(2S)-6-amino-2-[[2-[5-aminopentyl-[(2R)-2,6-diaminohexoxy]carbonylamino]acetyl]amino]hexyl] hydrogen carbonate
> <PUBCHEM_IUPAC_SYSTEMATIC_NAME>
[(2S)-6-azanyl-2-[2-[5-azanylpentyl-[(2R)-2,6-bis(azanyl)hexoxy]carbonyl-amino]ethanoylamino]hexyl] hydrogen carbonate
> <PUBCHEM_IUPAC_TRADITIONAL_NAME>
carbonic acid [(2S)-6-amino-2-[[2-[5-aminopentyl-[(2R)-2,6-diaminohexoxy]carbonyl-amino]acetyl]amino]hexyl] ester
> <PUBCHEM_IUPAC_INCHI>
InChI=1S/C21H44N6O6/c22-10-4-1-7-13-27(20(29)32-15-17(25)8-2-5-11-23)14-19(28)26-18(9-3-6-12-24)16-33-21(30)31/h17-18H,1-16,22-25H2,(H,26,28)(H,30,31)/t17-,18+/m1/s1
> <PUBCHEM_IUPAC_INCHIKEY>
VRHXVPVUDOUCSK-MSOLQXFVSA-N
> <PUBCHEM_XLOGP3_AA>
-3.3
> <PUBCHEM_EXACT_MASS>
476.33223314
> <PUBCHEM_MOLECULAR_FORMULA>
C21H44N6O6
> <PUBCHEM_MOLECULAR_WEIGHT>
476.6
> <PUBCHEM_OPENEYE_CAN_SMILES>
C(CCN)CCN(CC(=O)NC(CCCCN)COC(=O)O)C(=O)OCC(CCCCN)N
> <PUBCHEM_OPENEYE_ISO_SMILES>
C(CCN)CCN(CC(=O)N[C@@H](CCCCN)COC(=O)O)C(=O)OC[C@@H](CCCCN)N
> <PUBCHEM_CACTVS_TPSA>
209
> <PUBCHEM_MONOISOTOPIC_WEIGHT>
476.33223314
> <PUBCHEM_TOTAL_CHARGE>
0
> <PUBCHEM_HEAVY_ATOM_COUNT>
33
> <PUBCHEM_ATOM_DEF_STEREO_COUNT>
2
> <PUBCHEM_ATOM_UDEF_STEREO_COUNT>
0
> <PUBCHEM_BOND_DEF_STEREO_COUNT>
0
> <PUBCHEM_BOND_UDEF_STEREO_COUNT>
0
> <PUBCHEM_ISOTOPIC_ATOM_COUNT>
0
> <PUBCHEM_COMPONENT_COUNT>
1
> <PUBCHEM_CACTVS_TAUTO_COUNT>
-1
> <PUBCHEM_COORDINATE_TYPE>
1
5
255
> <PUBCHEM_BONDANNOTATIONS>
13  8  5
16  9  6
$$$$
