513317
  -OEChem-10302200282D
 82 81  0     1  0  0  0  0  0999 V2000
    4.2690    1.8100    0.0000 O   0  0  0  0  0  0  0  0  0  0  0  0
    7.7331    0.8100    0.0000 O   0  0  0  0  0  0  0  0  0  0  0  0
   10.3312    3.3100    0.0000 O   0  0  0  0  0  0  0  0  0  0  0  0
    2.5369    1.8100    0.0000 O   0  0  0  0  0  0  0  0  0  0  0  0
    3.4030    3.3100    0.0000 O   0  0  0  0  0  0  0  0  0  0  0  0
    9.4651    1.8100    0.0000 N   0  0  0  0  0  0  0  0  0  0  0  0
    6.8671    2.3100    0.0000 N   0  0  0  0  0  0  0  0  0  0  0  0
   12.0632    2.3100    0.0000 N   0  0  0  0  0  0  0  0  0  0  0  0
    4.2690   -2.1900    0.0000 N   0  0  0  0  0  0  0  0  0  0  0  0
    6.8671   -2.6900    0.0000 N   0  0  0  0  0  0  0  0  0  0  0  0
   18.9914    2.3100    0.0000 N   0  0  0  0  0  0  0  0  0  0  0  0
    6.0010    1.8100    0.0000 C   0  0  1  0  0  0  0  0  0  0  0  0
    6.0010    0.8100    0.0000 C   0  0  0  0  0  0  0  0  0  0  0  0
    5.1350    0.3100    0.0000 C   0  0  0  0  0  0  0  0  0  0  0  0
    9.4651    0.8100    0.0000 C   0  0  0  0  0  0  0  0  0  0  0  0
    8.5991    0.3100    0.0000 C   0  0  0  0  0  0  0  0  0  0  0  0
    8.5991    2.3100    0.0000 C   0  0  0  0  0  0  0  0  0  0  0  0
   14.6613    1.8100    0.0000 C   0  0  0  0  0  0  0  0  0  0  0  0
   13.7953    2.3100    0.0000 C   0  0  0  0  0  0  0  0  0  0  0  0
   15.5273    2.3100    0.0000 C   0  0  0  0  0  0  0  0  0  0  0  0
    5.1350    2.3100    0.0000 C   0  0  0  0  0  0  0  0  0  0  0  0
    5.1350   -0.6900    0.0000 C   0  0  0  0  0  0  0  0  0  0  0  0
    8.5991   -0.6900    0.0000 C   0  0  0  0  0  0  0  0  0  0  0  0
   12.9292    1.8100    0.0000 C   0  0  0  0  0  0  0  0  0  0  0  0
    7.7331    1.8100    0.0000 C   0  0  0  0  0  0  0  0  0  0  0  0
   16.3933    1.8100    0.0000 C   0  0  0  0  0  0  0  0  0  0  0  0
   10.3312    2.3100    0.0000 C   0  0  0  0  0  0  0  0  0  0  0  0
   11.1972    1.8100    0.0000 C   0  0  0  0  0  0  0  0  0  0  0  0
    7.7331   -1.1900    0.0000 C   0  0  0  0  0  0  0  0  0  0  0  0
   17.2594    2.3100    0.0000 C   0  0  0  0  0  0  0  0  0  0  0  0
    4.2690   -1.1900    0.0000 C   0  0  0  0  0  0  0  0  0  0  0  0
    7.7331   -2.1900    0.0000 C   0  0  0  0  0  0  0  0  0  0  0  0
   18.1254    1.8100    0.0000 C   0  0  0  0  0  0  0  0  0  0  0  0
    3.4030    2.3100    0.0000 C   0  0  0  0  0  0  0  0  0  0  0  0
    6.5380    1.5000    0.0000 H   0  0  0  0  0  0  0  0  0  0  0  0
    6.2131    0.2274    0.0000 H   0  0  0  0  0  0  0  0  0  0  0  0
    6.6116    0.9177    0.0000 H   0  0  0  0  0  0  0  0  0  0  0  0
    4.9230    0.8926    0.0000 H   0  0  0  0  0  0  0  0  0  0  0  0
    4.5244    0.2023    0.0000 H   0  0  0  0  0  0  0  0  0  0  0  0
    9.6772    0.2274    0.0000 H   0  0  0  0  0  0  0  0  0  0  0  0
   10.0757    0.9177    0.0000 H   0  0  0  0  0  0  0  0  0  0  0  0
    8.3871    0.8926    0.0000 H   0  0  0  0  0  0  0  0  0  0  0  0
    7.9885    0.2023    0.0000 H   0  0  0  0  0  0  0  0  0  0  0  0
    8.9976    2.7849    0.0000 H   0  0  0  0  0  0  0  0  0  0  0  0
    8.2006    2.7849    0.0000 H   0  0  0  0  0  0  0  0  0  0  0  0
   14.2628    1.3350    0.0000 H   0  0  0  0  0  0  0  0  0  0  0  0
   15.0598    1.3350    0.0000 H   0  0  0  0  0  0  0  0  0  0  0  0
    6.8671    2.9300    0.0000 H   0  0  0  0  0  0  0  0  0  0  0  0
   14.1938    2.7849    0.0000 H   0  0  0  0  0  0  0  0  0  0  0  0
   13.3967    2.7849    0.0000 H   0  0  0  0  0  0  0  0  0  0  0  0
   15.9258    2.7849    0.0000 H   0  0  0  0  0  0  0  0  0  0  0  0
   15.1288    2.7849    0.0000 H   0  0  0  0  0  0  0  0  0  0  0  0
    5.5335    2.7849    0.0000 H   0  0  0  0  0  0  0  0  0  0  0  0
    4.7365    2.7849    0.0000 H   0  0  0  0  0  0  0  0  0  0  0  0
    8.8112   -1.2726    0.0000 H   0  0  0  0  0  0  0  0  0  0  0  0
    9.2097   -0.5823    0.0000 H   0  0  0  0  0  0  0  0  0  0  0  0
    5.3471   -1.2726    0.0000 H   0  0  0  0  0  0  0  0  0  0  0  0
    5.7456   -0.5823    0.0000 H   0  0  0  0  0  0  0  0  0  0  0  0
   12.5307    1.3350    0.0000 H   0  0  0  0  0  0  0  0  0  0  0  0
   13.3278    1.3350    0.0000 H   0  0  0  0  0  0  0  0  0  0  0  0
   15.9948    1.3350    0.0000 H   0  0  0  0  0  0  0  0  0  0  0  0
   16.7919    1.3350    0.0000 H   0  0  0  0  0  0  0  0  0  0  0  0
   10.7987    1.3350    0.0000 H   0  0  0  0  0  0  0  0  0  0  0  0
   11.5957    1.3350    0.0000 H   0  0  0  0  0  0  0  0  0  0  0  0
    7.5210   -0.6074    0.0000 H   0  0  0  0  0  0  0  0  0  0  0  0
    7.1225   -1.2977    0.0000 H   0  0  0  0  0  0  0  0  0  0  0  0
   12.0632    2.9300    0.0000 H   0  0  0  0  0  0  0  0  0  0  0  0
   17.6579    2.7849    0.0000 H   0  0  0  0  0  0  0  0  0  0  0  0
   16.8608    2.7849    0.0000 H   0  0  0  0  0  0  0  0  0  0  0  0
    4.0569   -0.6074    0.0000 H   0  0  0  0  0  0  0  0  0  0  0  0
    3.6584   -1.2977    0.0000 H   0  0  0  0  0  0  0  0  0  0  0  0
    7.9451   -2.7726    0.0000 H   0  0  0  0  0  0  0  0  0  0  0  0
    8.3437   -2.0823    0.0000 H   0  0  0  0  0  0  0  0  0  0  0  0
   17.7269    1.3350    0.0000 H   0  0  0  0  0  0  0  0  0  0  0  0
   18.5239    1.3350    0.0000 H   0  0  0  0  0  0  0  0  0  0  0  0
    3.7320   -2.5000    0.0000 H   0  0  0  0  0  0  0  0  0  0  0  0
    4.8059   -2.5000    0.0000 H   0  0  0  0  0  0  0  0  0  0  0  0
    6.8671   -3.3100    0.0000 H   0  0  0  0  0  0  0  0  0  0  0  0
    6.3301   -2.3800    0.0000 H   0  0  0  0  0  0  0  0  0  0  0  0
   19.5284    2.0000    0.0000 H   0  0  0  0  0  0  0  0  0  0  0  0
   18.9914    2.9300    0.0000 H   0  0  0  0  0  0  0  0  0  0  0  0
    2.0000    2.1200    0.0000 H   0  0  0  0  0  0  0  0  0  0  0  0
  1 21  1  0  0  0  0
  1 34  1  0  0  0  0
  2 25  2  0  0  0  0
  3 27  2  0  0  0  0
  4 34  1  0  0  0  0
  4 82  1  0  0  0  0
  5 34  2  0  0  0  0
  6 15  1  0  0  0  0
  6 17  1  0  0  0  0
  6 27  1  0  0  0  0
 12  7  1  1  0  0  0
  7 25  1  0  0  0  0
  7 48  1  0  0  0  0
  8 24  1  0  0  0  0
  8 28  1  0  0  0  0
  8 67  1  0  0  0  0
  9 31  1  0  0  0  0
  9 76  1  0  0  0  0
  9 77  1  0  0  0  0
 10 32  1  0  0  0  0
 10 78  1  0  0  0  0
 10 79  1  0  0  0  0
 11 33  1  0  0  0  0
 11 80  1  0  0  0  0
 11 81  1  0  0  0  0
 12 13  1  0  0  0  0
 12 21  1  0  0  0  0
 12 35  1  0  0  0  0
 13 14  1  0  0  0  0
 13 36  1  0  0  0  0
 13 37  1  0  0  0  0
 14 22  1  0  0  0  0
 14 38  1  0  0  0  0
 14 39  1  0  0  0  0
 15 16  1  0  0  0  0
 15 40  1  0  0  0  0
 15 41  1  0  0  0  0
 16 23  1  0  0  0  0
 16 42  1  0  0  0  0
 16 43  1  0  0  0  0
 17 25  1  0  0  0  0
 17 44  1  0  0  0  0
 17 45  1  0  0  0  0
 18 19  1  0  0  0  0
 18 20  1  0  0  0  0
 18 46  1  0  0  0  0
 18 47  1  0  0  0  0
 19 24  1  0  0  0  0
 19 49  1  0  0  0  0
 19 50  1  0  0  0  0
 20 26  1  0  0  0  0
 20 51  1  0  0  0  0
 20 52  1  0  0  0  0
 21 53  1  0  0  0  0
 21 54  1  0  0  0  0
 22 31  1  0  0  0  0
 22 57  1  0  0  0  0
 22 58  1  0  0  0  0
 23 29  1  0  0  0  0
 23 55  1  0  0  0  0
 23 56  1  0  0  0  0
 24 59  1  0  0  0  0
 24 60  1  0  0  0  0
 26 30  1  0  0  0  0
 26 61  1  0  0  0  0
 26 62  1  0  0  0  0
 27 28  1  0  0  0  0
 28 63  1  0  0  0  0
 28 64  1  0  0  0  0
 29 32  1  0  0  0  0
 29 65  1  0  0  0  0
 29 66  1  0  0  0  0
 30 33  1  0  0  0  0
 30 68  1  0  0  0  0
 30 69  1  0  0  0  0
 31 70  1  0  0  0  0
 31 71  1  0  0  0  0
 32 72  1  0  0  0  0
 32 73  1  0  0  0  0
 33 74  1  0  0  0  0
 33 75  1  0  0  0  0
M  END
> <PUBCHEM_COMPOUND_CID>
513317
> <PUBCHEM_COMPOUND_CANONICALIZED>
1
> <PUBCHEM_CACTVS_COMPLEXITY>
538
> <PUBCHEM_CACTVS_HBOND_ACCEPTOR>
9
> <PUBCHEM_CACTVS_HBOND_DONOR>
6
> <PUBCHEM_CACTVS_ROTATABLE_BOND>
24
> <PUBCHEM_CACTVS_SUBSKEYS>
AAADcfB7uAAAAAAAAAAAAAAAAAAAAAAAAAAAAAAAAAAAAAAAAAAAHgAQCAAACCjhgAYACAPABgAIAAEQGAAAAAAAAAAAAICIAAASQAIAgCAVAAAEFgCUAAGQwAAAAAAAAAAAAAAAAAAAAAAAAAAAAAAAAA==
> <PUBCHEM_IUPAC_OPENEYE_NAME>
[(2S)-6-amino-2-[[2-[[2-(7-aminoheptylamino)acetyl]-(5-aminopentyl)amino]acetyl]amino]hexyl] hydrogen carbonate
> <PUBCHEM_IUPAC_CAS_NAME>
carbonic acid [(2S)-6-amino-2-[[2-[[2-(7-aminoheptylamino)-1-oxoethyl]-(5-aminopentyl)amino]-1-oxoethyl]amino]hexyl] ester
> <PUBCHEM_IUPAC_NAME_MARKUP>
[(2<I>S</I>)-6-amino-2-[[2-[[2-(7-aminoheptylamino)acetyl]-(5-aminopentyl)amino]acetyl]amino]hexyl] hydrogen carbonate
> <PUBCHEM_IUPAC_NAME>
[(2S)-6-amino-2-[[2-[[2-(7-aminoheptylamino)acetyl]-(5-aminopentyl)amino]acetyl]amino]hexyl] hydrogen carbonate
> <PUBCHEM_IUPAC_SYSTEMATIC_NAME>
[(2S)-6-azanyl-2-[2-[2-(7-azanylheptylamino)ethanoyl-(5-azanylpentyl)amino]ethanoylamino]hexyl] hydrogen carbonate
> <PUBCHEM_IUPAC_TRADITIONAL_NAME>
carbonic acid [(2S)-6-amino-2-[[2-[[2-(7-aminoheptylamino)acetyl]-(5-aminopentyl)amino]acetyl]amino]hexyl] ester
> <PUBCHEM_IUPAC_INCHI>
InChI=1S/C23H48N6O5/c24-12-6-2-1-3-9-15-27-17-22(31)29(16-10-4-7-13-25)18-21(30)28-20(11-5-8-14-26)19-34-23(32)33/h20,27H,1-19,24-26H2,(H,28,30)(H,32,33)/t20-/m0/s1
> <PUBCHEM_IUPAC_INCHIKEY>
PQPCEVILZJRAII-FQEVSTJZSA-N
> <PUBCHEM_XLOGP3_AA>
-2.3
> <PUBCHEM_EXACT_MASS>
488.36861865
> <PUBCHEM_MOLECULAR_FORMULA>
C23H48N6O5
> <PUBCHEM_MOLECULAR_WEIGHT>
488.7
> <PUBCHEM_OPENEYE_CAN_SMILES>
C(CCCN)CCCNCC(=O)N(CCCCCN)CC(=O)NC(CCCCN)COC(=O)O
> <PUBCHEM_OPENEYE_ISO_SMILES>
C(CCCN)CCCNCC(=O)N(CCCCCN)CC(=O)N[C@@H](CCCCN)COC(=O)O
> <PUBCHEM_CACTVS_TPSA>
186
> <PUBCHEM_MONOISOTOPIC_WEIGHT>
488.36861865
> <PUBCHEM_TOTAL_CHARGE>
0
> <PUBCHEM_HEAVY_ATOM_COUNT>
34
> <PUBCHEM_ATOM_DEF_STEREO_COUNT>
1
> <PUBCHEM_ATOM_UDEF_STEREO_COUNT>
0
> <PUBCHEM_BOND_DEF_STEREO_COUNT>
0
> <PUBCHEM_BOND_UDEF_STEREO_COUNT>
0
> <PUBCHEM_ISOTOPIC_ATOM_COUNT>
0
> <PUBCHEM_COMPONENT_COUNT>
1
> <PUBCHEM_CACTVS_TAUTO_COUNT>
-1
> <PUBCHEM_COORDINATE_TYPE>
1
5
255
> <PUBCHEM_BONDANNOTATIONS>
12  7  5
$$$$
