513325
  -OEChem-10302200282D
 82 81  0     1  0  0  0  0  0999 V2000
    4.2690    2.5600    0.0000 O   0  0  0  0  0  0  0  0  0  0  0  0
    7.7331    1.5600    0.0000 O   0  0  0  0  0  0  0  0  0  0  0  0
   10.3312    4.0600    0.0000 O   0  0  0  0  0  0  0  0  0  0  0  0
    2.5369    2.5600    0.0000 O   0  0  0  0  0  0  0  0  0  0  0  0
    3.4030    4.0600    0.0000 O   0  0  0  0  0  0  0  0  0  0  0  0
    9.4651    2.5600    0.0000 N   0  0  0  0  0  0  0  0  0  0  0  0
    6.8671    3.0600    0.0000 N   0  0  0  0  0  0  0  0  0  0  0  0
   12.0632    3.0600    0.0000 N   0  0  0  0  0  0  0  0  0  0  0  0
    3.4030    0.0600    0.0000 N   0  0  0  0  0  0  0  0  0  0  0  0
    6.0010   -3.4400    0.0000 N   0  0  0  0  0  0  0  0  0  0  0  0
   17.2594    3.0600    0.0000 N   0  0  0  0  0  0  0  0  0  0  0  0
    6.0010    2.5600    0.0000 C   0  0  1  0  0  0  0  0  0  0  0  0
    8.5991    1.0600    0.0000 C   0  0  0  0  0  0  0  0  0  0  0  0
    8.5991    0.0600    0.0000 C   0  0  0  0  0  0  0  0  0  0  0  0
    9.4651    1.5600    0.0000 C   0  0  0  0  0  0  0  0  0  0  0  0
    6.0010    1.5600    0.0000 C   0  0  0  0  0  0  0  0  0  0  0  0
    7.7331   -0.4400    0.0000 C   0  0  0  0  0  0  0  0  0  0  0  0
    5.1350    1.0600    0.0000 C   0  0  0  0  0  0  0  0  0  0  0  0
    8.5991    3.0600    0.0000 C   0  0  0  0  0  0  0  0  0  0  0  0
    7.7331   -1.4400    0.0000 C   0  0  0  0  0  0  0  0  0  0  0  0
    5.1350    3.0600    0.0000 C   0  0  0  0  0  0  0  0  0  0  0  0
    5.1350    0.0600    0.0000 C   0  0  0  0  0  0  0  0  0  0  0  0
    7.7331    2.5600    0.0000 C   0  0  0  0  0  0  0  0  0  0  0  0
    6.8671   -1.9400    0.0000 C   0  0  0  0  0  0  0  0  0  0  0  0
   10.3312    3.0600    0.0000 C   0  0  0  0  0  0  0  0  0  0  0  0
   11.1972    2.5600    0.0000 C   0  0  0  0  0  0  0  0  0  0  0  0
   12.9292    2.5600    0.0000 C   0  0  0  0  0  0  0  0  0  0  0  0
   13.7953    3.0600    0.0000 C   0  0  0  0  0  0  0  0  0  0  0  0
    4.2690   -0.4400    0.0000 C   0  0  0  0  0  0  0  0  0  0  0  0
   14.6613    2.5600    0.0000 C   0  0  0  0  0  0  0  0  0  0  0  0
    6.8671   -2.9400    0.0000 C   0  0  0  0  0  0  0  0  0  0  0  0
   15.5273    3.0600    0.0000 C   0  0  0  0  0  0  0  0  0  0  0  0
   16.3933    2.5600    0.0000 C   0  0  0  0  0  0  0  0  0  0  0  0
    3.4030    3.0600    0.0000 C   0  0  0  0  0  0  0  0  0  0  0  0
    6.5380    2.2500    0.0000 H   0  0  0  0  0  0  0  0  0  0  0  0
    8.3871    1.6426    0.0000 H   0  0  0  0  0  0  0  0  0  0  0  0
    7.9885    0.9523    0.0000 H   0  0  0  0  0  0  0  0  0  0  0  0
    8.8112   -0.5226    0.0000 H   0  0  0  0  0  0  0  0  0  0  0  0
    9.2097    0.1677    0.0000 H   0  0  0  0  0  0  0  0  0  0  0  0
    9.6772    0.9774    0.0000 H   0  0  0  0  0  0  0  0  0  0  0  0
   10.0757    1.6677    0.0000 H   0  0  0  0  0  0  0  0  0  0  0  0
    6.2131    0.9774    0.0000 H   0  0  0  0  0  0  0  0  0  0  0  0
    6.6116    1.6677    0.0000 H   0  0  0  0  0  0  0  0  0  0  0  0
    7.5210    0.1426    0.0000 H   0  0  0  0  0  0  0  0  0  0  0  0
    7.1225   -0.5477    0.0000 H   0  0  0  0  0  0  0  0  0  0  0  0
    4.9230    1.6426    0.0000 H   0  0  0  0  0  0  0  0  0  0  0  0
    4.5244    0.9523    0.0000 H   0  0  0  0  0  0  0  0  0  0  0  0
    8.9976    3.5350    0.0000 H   0  0  0  0  0  0  0  0  0  0  0  0
    8.2006    3.5350    0.0000 H   0  0  0  0  0  0  0  0  0  0  0  0
    7.9451   -2.0226    0.0000 H   0  0  0  0  0  0  0  0  0  0  0  0
    8.3437   -1.3323    0.0000 H   0  0  0  0  0  0  0  0  0  0  0  0
    6.8671    3.6800    0.0000 H   0  0  0  0  0  0  0  0  0  0  0  0
    5.5335    3.5350    0.0000 H   0  0  0  0  0  0  0  0  0  0  0  0
    4.7365    3.5350    0.0000 H   0  0  0  0  0  0  0  0  0  0  0  0
    5.3471   -0.5226    0.0000 H   0  0  0  0  0  0  0  0  0  0  0  0
    5.7456    0.1677    0.0000 H   0  0  0  0  0  0  0  0  0  0  0  0
    6.6550   -1.3574    0.0000 H   0  0  0  0  0  0  0  0  0  0  0  0
    6.2565   -2.0477    0.0000 H   0  0  0  0  0  0  0  0  0  0  0  0
   10.7987    2.0850    0.0000 H   0  0  0  0  0  0  0  0  0  0  0  0
   11.5957    2.0850    0.0000 H   0  0  0  0  0  0  0  0  0  0  0  0
   12.5307    2.0850    0.0000 H   0  0  0  0  0  0  0  0  0  0  0  0
   13.3278    2.0850    0.0000 H   0  0  0  0  0  0  0  0  0  0  0  0
   14.1938    3.5350    0.0000 H   0  0  0  0  0  0  0  0  0  0  0  0
   13.3967    3.5350    0.0000 H   0  0  0  0  0  0  0  0  0  0  0  0
    3.8705   -0.9149    0.0000 H   0  0  0  0  0  0  0  0  0  0  0  0
    4.6675   -0.9149    0.0000 H   0  0  0  0  0  0  0  0  0  0  0  0
   12.0632    3.6800    0.0000 H   0  0  0  0  0  0  0  0  0  0  0  0
   14.2628    2.0850    0.0000 H   0  0  0  0  0  0  0  0  0  0  0  0
   15.0598    2.0850    0.0000 H   0  0  0  0  0  0  0  0  0  0  0  0
    7.0791   -3.5226    0.0000 H   0  0  0  0  0  0  0  0  0  0  0  0
    7.4776   -2.8323    0.0000 H   0  0  0  0  0  0  0  0  0  0  0  0
   15.9258    3.5350    0.0000 H   0  0  0  0  0  0  0  0  0  0  0  0
   15.1288    3.5350    0.0000 H   0  0  0  0  0  0  0  0  0  0  0  0
   15.9948    2.0850    0.0000 H   0  0  0  0  0  0  0  0  0  0  0  0
   16.7919    2.0850    0.0000 H   0  0  0  0  0  0  0  0  0  0  0  0
    2.8660   -0.2500    0.0000 H   0  0  0  0  0  0  0  0  0  0  0  0
    3.4030    0.6800    0.0000 H   0  0  0  0  0  0  0  0  0  0  0  0
    6.0010   -4.0600    0.0000 H   0  0  0  0  0  0  0  0  0  0  0  0
    5.4641   -3.1300    0.0000 H   0  0  0  0  0  0  0  0  0  0  0  0
   17.7963    2.7500    0.0000 H   0  0  0  0  0  0  0  0  0  0  0  0
   17.2594    3.6800    0.0000 H   0  0  0  0  0  0  0  0  0  0  0  0
    2.0000    2.8700    0.0000 H   0  0  0  0  0  0  0  0  0  0  0  0
  1 21  1  0  0  0  0
  1 34  1  0  0  0  0
  2 23  2  0  0  0  0
  3 25  2  0  0  0  0
  4 34  1  0  0  0  0
  4 82  1  0  0  0  0
  5 34  2  0  0  0  0
  6 15  1  0  0  0  0
  6 19  1  0  0  0  0
  6 25  1  0  0  0  0
 12  7  1  1  0  0  0
  7 23  1  0  0  0  0
  7 52  1  0  0  0  0
  8 26  1  0  0  0  0
  8 27  1  0  0  0  0
  8 67  1  0  0  0  0
  9 29  1  0  0  0  0
  9 76  1  0  0  0  0
  9 77  1  0  0  0  0
 10 31  1  0  0  0  0
 10 78  1  0  0  0  0
 10 79  1  0  0  0  0
 11 33  1  0  0  0  0
 11 80  1  0  0  0  0
 11 81  1  0  0  0  0
 12 16  1  0  0  0  0
 12 21  1  0  0  0  0
 12 35  1  0  0  0  0
 13 14  1  0  0  0  0
 13 15  1  0  0  0  0
 13 36  1  0  0  0  0
 13 37  1  0  0  0  0
 14 17  1  0  0  0  0
 14 38  1  0  0  0  0
 14 39  1  0  0  0  0
 15 40  1  0  0  0  0
 15 41  1  0  0  0  0
 16 18  1  0  0  0  0
 16 42  1  0  0  0  0
 16 43  1  0  0  0  0
 17 20  1  0  0  0  0
 17 44  1  0  0  0  0
 17 45  1  0  0  0  0
 18 22  1  0  0  0  0
 18 46  1  0  0  0  0
 18 47  1  0  0  0  0
 19 23  1  0  0  0  0
 19 48  1  0  0  0  0
 19 49  1  0  0  0  0
 20 24  1  0  0  0  0
 20 50  1  0  0  0  0
 20 51  1  0  0  0  0
 21 53  1  0  0  0  0
 21 54  1  0  0  0  0
 22 29  1  0  0  0  0
 22 55  1  0  0  0  0
 22 56  1  0  0  0  0
 24 31  1  0  0  0  0
 24 57  1  0  0  0  0
 24 58  1  0  0  0  0
 25 26  1  0  0  0  0
 26 59  1  0  0  0  0
 26 60  1  0  0  0  0
 27 28  1  0  0  0  0
 27 61  1  0  0  0  0
 27 62  1  0  0  0  0
 28 30  1  0  0  0  0
 28 63  1  0  0  0  0
 28 64  1  0  0  0  0
 29 65  1  0  0  0  0
 29 66  1  0  0  0  0
 30 32  1  0  0  0  0
 30 68  1  0  0  0  0
 30 69  1  0  0  0  0
 31 70  1  0  0  0  0
 31 71  1  0  0  0  0
 32 33  1  0  0  0  0
 32 72  1  0  0  0  0
 32 73  1  0  0  0  0
 33 74  1  0  0  0  0
 33 75  1  0  0  0  0
M  END
> <PUBCHEM_COMPOUND_CID>
513325
> <PUBCHEM_COMPOUND_CANONICALIZED>
1
> <PUBCHEM_CACTVS_COMPLEXITY>
538
> <PUBCHEM_CACTVS_HBOND_ACCEPTOR>
9
> <PUBCHEM_CACTVS_HBOND_DONOR>
6
> <PUBCHEM_CACTVS_ROTATABLE_BOND>
24
> <PUBCHEM_CACTVS_SUBSKEYS>
AAADcfB7uAAAAAAAAAAAAAAAAAAAAAAAAAAAAAAAAAAAAAAAAAAAHgAQCAAACCjhgAYACAPABgAIAAEQGAAAAAAAAAAAAICIAAASQAIAgCAVAAAEFgCUAAGQwAAAAAAAAAAAAAAAAAAAAAAAAAAAAAAAAA==
> <PUBCHEM_IUPAC_OPENEYE_NAME>
[(2S)-6-amino-2-[[2-[7-aminoheptyl-[2-(5-aminopentylamino)acetyl]amino]acetyl]amino]hexyl] hydrogen carbonate
> <PUBCHEM_IUPAC_CAS_NAME>
carbonic acid [(2S)-6-amino-2-[[2-[7-aminoheptyl-[2-(5-aminopentylamino)-1-oxoethyl]amino]-1-oxoethyl]amino]hexyl] ester
> <PUBCHEM_IUPAC_NAME_MARKUP>
[(2<I>S</I>)-6-amino-2-[[2-[7-aminoheptyl-[2-(5-aminopentylamino)acetyl]amino]acetyl]amino]hexyl] hydrogen carbonate
> <PUBCHEM_IUPAC_NAME>
[(2S)-6-amino-2-[[2-[7-aminoheptyl-[2-(5-aminopentylamino)acetyl]amino]acetyl]amino]hexyl] hydrogen carbonate
> <PUBCHEM_IUPAC_SYSTEMATIC_NAME>
[(2S)-6-azanyl-2-[2-[7-azanylheptyl-[2-(5-azanylpentylamino)ethanoyl]amino]ethanoylamino]hexyl] hydrogen carbonate
> <PUBCHEM_IUPAC_TRADITIONAL_NAME>
carbonic acid [(2S)-6-amino-2-[[2-[7-aminoheptyl-[2-(5-aminopentylamino)acetyl]amino]acetyl]amino]hexyl] ester
> <PUBCHEM_IUPAC_INCHI>
InChI=1S/C23H48N6O5/c24-12-6-2-1-3-10-16-29(22(31)17-27-15-9-4-7-13-25)18-21(30)28-20(11-5-8-14-26)19-34-23(32)33/h20,27H,1-19,24-26H2,(H,28,30)(H,32,33)/t20-/m0/s1
> <PUBCHEM_IUPAC_INCHIKEY>
VZNPWRXDQKIOBV-FQEVSTJZSA-N
> <PUBCHEM_XLOGP3_AA>
-2.3
> <PUBCHEM_EXACT_MASS>
488.36861865
> <PUBCHEM_MOLECULAR_FORMULA>
C23H48N6O5
> <PUBCHEM_MOLECULAR_WEIGHT>
488.7
> <PUBCHEM_OPENEYE_CAN_SMILES>
C(CCCN)CCCN(CC(=O)NC(CCCCN)COC(=O)O)C(=O)CNCCCCCN
> <PUBCHEM_OPENEYE_ISO_SMILES>
C(CCCN)CCCN(CC(=O)N[C@@H](CCCCN)COC(=O)O)C(=O)CNCCCCCN
> <PUBCHEM_CACTVS_TPSA>
186
> <PUBCHEM_MONOISOTOPIC_WEIGHT>
488.36861865
> <PUBCHEM_TOTAL_CHARGE>
0
> <PUBCHEM_HEAVY_ATOM_COUNT>
34
> <PUBCHEM_ATOM_DEF_STEREO_COUNT>
1
> <PUBCHEM_ATOM_UDEF_STEREO_COUNT>
0
> <PUBCHEM_BOND_DEF_STEREO_COUNT>
0
> <PUBCHEM_BOND_UDEF_STEREO_COUNT>
0
> <PUBCHEM_ISOTOPIC_ATOM_COUNT>
0
> <PUBCHEM_COMPONENT_COUNT>
1
> <PUBCHEM_CACTVS_TAUTO_COUNT>
-1
> <PUBCHEM_COORDINATE_TYPE>
1
5
255
> <PUBCHEM_BONDANNOTATIONS>
12  7  5
$$$$
