513327
  -OEChem-10302200282D
 79 78  0     1  0  0  0  0  0999 V2000
    4.2690    2.5600    0.0000 O   0  0  0  0  0  0  0  0  0  0  0  0
    7.7331    1.5600    0.0000 O   0  0  0  0  0  0  0  0  0  0  0  0
   10.3312    4.0600    0.0000 O   0  0  0  0  0  0  0  0  0  0  0  0
    2.5369    2.5600    0.0000 O   0  0  0  0  0  0  0  0  0  0  0  0
    3.4030    4.0600    0.0000 O   0  0  0  0  0  0  0  0  0  0  0  0
    9.4651    2.5600    0.0000 N   0  0  0  0  0  0  0  0  0  0  0  0
    6.8671    3.0600    0.0000 N   0  0  0  0  0  0  0  0  0  0  0  0
   12.0632    3.0600    0.0000 N   0  0  0  0  0  0  0  0  0  0  0  0
    3.4030    0.0600    0.0000 N   0  0  0  0  0  0  0  0  0  0  0  0
    6.0010   -3.4400    0.0000 N   0  0  0  0  0  0  0  0  0  0  0  0
   16.3933    2.5600    0.0000 N   0  0  0  0  0  0  0  0  0  0  0  0
    6.0010    2.5600    0.0000 C   0  0  1  0  0  0  0  0  0  0  0  0
    8.5991    1.0600    0.0000 C   0  0  0  0  0  0  0  0  0  0  0  0
    8.5991    0.0600    0.0000 C   0  0  0  0  0  0  0  0  0  0  0  0
    6.0010    1.5600    0.0000 C   0  0  0  0  0  0  0  0  0  0  0  0
    9.4651    1.5600    0.0000 C   0  0  0  0  0  0  0  0  0  0  0  0
    7.7331   -0.4400    0.0000 C   0  0  0  0  0  0  0  0  0  0  0  0
    5.1350    1.0600    0.0000 C   0  0  0  0  0  0  0  0  0  0  0  0
    7.7331   -1.4400    0.0000 C   0  0  0  0  0  0  0  0  0  0  0  0
    8.5991    3.0600    0.0000 C   0  0  0  0  0  0  0  0  0  0  0  0
    5.1350    3.0600    0.0000 C   0  0  0  0  0  0  0  0  0  0  0  0
    5.1350    0.0600    0.0000 C   0  0  0  0  0  0  0  0  0  0  0  0
    7.7331    2.5600    0.0000 C   0  0  0  0  0  0  0  0  0  0  0  0
    6.8671   -1.9400    0.0000 C   0  0  0  0  0  0  0  0  0  0  0  0
   10.3312    3.0600    0.0000 C   0  0  0  0  0  0  0  0  0  0  0  0
   11.1972    2.5600    0.0000 C   0  0  0  0  0  0  0  0  0  0  0  0
    4.2690   -0.4400    0.0000 C   0  0  0  0  0  0  0  0  0  0  0  0
    6.8671   -2.9400    0.0000 C   0  0  0  0  0  0  0  0  0  0  0  0
   12.9292    2.5600    0.0000 C   0  0  0  0  0  0  0  0  0  0  0  0
   13.7953    3.0600    0.0000 C   0  0  0  0  0  0  0  0  0  0  0  0
   14.6613    2.5600    0.0000 C   0  0  0  0  0  0  0  0  0  0  0  0
   15.5273    3.0600    0.0000 C   0  0  0  0  0  0  0  0  0  0  0  0
    3.4030    3.0600    0.0000 C   0  0  0  0  0  0  0  0  0  0  0  0
    6.5380    2.2500    0.0000 H   0  0  0  0  0  0  0  0  0  0  0  0
    8.3871    1.6426    0.0000 H   0  0  0  0  0  0  0  0  0  0  0  0
    7.9885    0.9523    0.0000 H   0  0  0  0  0  0  0  0  0  0  0  0
    8.8112   -0.5226    0.0000 H   0  0  0  0  0  0  0  0  0  0  0  0
    9.2097    0.1677    0.0000 H   0  0  0  0  0  0  0  0  0  0  0  0
    6.2131    0.9774    0.0000 H   0  0  0  0  0  0  0  0  0  0  0  0
    6.6116    1.6677    0.0000 H   0  0  0  0  0  0  0  0  0  0  0  0
    9.6772    0.9774    0.0000 H   0  0  0  0  0  0  0  0  0  0  0  0
   10.0757    1.6677    0.0000 H   0  0  0  0  0  0  0  0  0  0  0  0
    7.5210    0.1426    0.0000 H   0  0  0  0  0  0  0  0  0  0  0  0
    7.1225   -0.5477    0.0000 H   0  0  0  0  0  0  0  0  0  0  0  0
    4.9230    1.6426    0.0000 H   0  0  0  0  0  0  0  0  0  0  0  0
    4.5244    0.9523    0.0000 H   0  0  0  0  0  0  0  0  0  0  0  0
    7.9451   -2.0226    0.0000 H   0  0  0  0  0  0  0  0  0  0  0  0
    8.3437   -1.3323    0.0000 H   0  0  0  0  0  0  0  0  0  0  0  0
    8.9976    3.5350    0.0000 H   0  0  0  0  0  0  0  0  0  0  0  0
    8.2006    3.5350    0.0000 H   0  0  0  0  0  0  0  0  0  0  0  0
    6.8671    3.6800    0.0000 H   0  0  0  0  0  0  0  0  0  0  0  0
    5.5335    3.5350    0.0000 H   0  0  0  0  0  0  0  0  0  0  0  0
    4.7365    3.5350    0.0000 H   0  0  0  0  0  0  0  0  0  0  0  0
    5.3471   -0.5226    0.0000 H   0  0  0  0  0  0  0  0  0  0  0  0
    5.7456    0.1677    0.0000 H   0  0  0  0  0  0  0  0  0  0  0  0
    6.6550   -1.3574    0.0000 H   0  0  0  0  0  0  0  0  0  0  0  0
    6.2565   -2.0477    0.0000 H   0  0  0  0  0  0  0  0  0  0  0  0
   10.7987    2.0850    0.0000 H   0  0  0  0  0  0  0  0  0  0  0  0
   11.5957    2.0850    0.0000 H   0  0  0  0  0  0  0  0  0  0  0  0
    3.8705   -0.9149    0.0000 H   0  0  0  0  0  0  0  0  0  0  0  0
    4.6675   -0.9149    0.0000 H   0  0  0  0  0  0  0  0  0  0  0  0
    7.0791   -3.5226    0.0000 H   0  0  0  0  0  0  0  0  0  0  0  0
    7.4776   -2.8323    0.0000 H   0  0  0  0  0  0  0  0  0  0  0  0
   12.5307    2.0850    0.0000 H   0  0  0  0  0  0  0  0  0  0  0  0
   13.3278    2.0850    0.0000 H   0  0  0  0  0  0  0  0  0  0  0  0
   12.0632    3.6800    0.0000 H   0  0  0  0  0  0  0  0  0  0  0  0
   14.1938    3.5350    0.0000 H   0  0  0  0  0  0  0  0  0  0  0  0
   13.3967    3.5350    0.0000 H   0  0  0  0  0  0  0  0  0  0  0  0
   14.2628    2.0850    0.0000 H   0  0  0  0  0  0  0  0  0  0  0  0
   15.0598    2.0850    0.0000 H   0  0  0  0  0  0  0  0  0  0  0  0
    2.8660   -0.2500    0.0000 H   0  0  0  0  0  0  0  0  0  0  0  0
    3.4030    0.6800    0.0000 H   0  0  0  0  0  0  0  0  0  0  0  0
    6.0010   -4.0600    0.0000 H   0  0  0  0  0  0  0  0  0  0  0  0
    5.4641   -3.1300    0.0000 H   0  0  0  0  0  0  0  0  0  0  0  0
   15.9258    3.5350    0.0000 H   0  0  0  0  0  0  0  0  0  0  0  0
   15.1288    3.5350    0.0000 H   0  0  0  0  0  0  0  0  0  0  0  0
   16.9303    2.8700    0.0000 H   0  0  0  0  0  0  0  0  0  0  0  0
   16.3933    1.9400    0.0000 H   0  0  0  0  0  0  0  0  0  0  0  0
    2.0000    2.8700    0.0000 H   0  0  0  0  0  0  0  0  0  0  0  0
  1 21  1  0  0  0  0
  1 33  1  0  0  0  0
  2 23  2  0  0  0  0
  3 25  2  0  0  0  0
  4 33  1  0  0  0  0
  4 79  1  0  0  0  0
  5 33  2  0  0  0  0
  6 16  1  0  0  0  0
  6 20  1  0  0  0  0
  6 25  1  0  0  0  0
 12  7  1  1  0  0  0
  7 23  1  0  0  0  0
  7 51  1  0  0  0  0
  8 26  1  0  0  0  0
  8 29  1  0  0  0  0
  8 66  1  0  0  0  0
  9 27  1  0  0  0  0
  9 71  1  0  0  0  0
  9 72  1  0  0  0  0
 10 28  1  0  0  0  0
 10 73  1  0  0  0  0
 10 74  1  0  0  0  0
 11 32  1  0  0  0  0
 11 77  1  0  0  0  0
 11 78  1  0  0  0  0
 12 15  1  0  0  0  0
 12 21  1  0  0  0  0
 12 34  1  0  0  0  0
 13 14  1  0  0  0  0
 13 16  1  0  0  0  0
 13 35  1  0  0  0  0
 13 36  1  0  0  0  0
 14 17  1  0  0  0  0
 14 37  1  0  0  0  0
 14 38  1  0  0  0  0
 15 18  1  0  0  0  0
 15 39  1  0  0  0  0
 15 40  1  0  0  0  0
 16 41  1  0  0  0  0
 16 42  1  0  0  0  0
 17 19  1  0  0  0  0
 17 43  1  0  0  0  0
 17 44  1  0  0  0  0
 18 22  1  0  0  0  0
 18 45  1  0  0  0  0
 18 46  1  0  0  0  0
 19 24  1  0  0  0  0
 19 47  1  0  0  0  0
 19 48  1  0  0  0  0
 20 23  1  0  0  0  0
 20 49  1  0  0  0  0
 20 50  1  0  0  0  0
 21 52  1  0  0  0  0
 21 53  1  0  0  0  0
 22 27  1  0  0  0  0
 22 54  1  0  0  0  0
 22 55  1  0  0  0  0
 24 28  1  0  0  0  0
 24 56  1  0  0  0  0
 24 57  1  0  0  0  0
 25 26  1  0  0  0  0
 26 58  1  0  0  0  0
 26 59  1  0  0  0  0
 27 60  1  0  0  0  0
 27 61  1  0  0  0  0
 28 62  1  0  0  0  0
 28 63  1  0  0  0  0
 29 30  1  0  0  0  0
 29 64  1  0  0  0  0
 29 65  1  0  0  0  0
 30 31  1  0  0  0  0
 30 67  1  0  0  0  0
 30 68  1  0  0  0  0
 31 32  1  0  0  0  0
 31 69  1  0  0  0  0
 31 70  1  0  0  0  0
 32 75  1  0  0  0  0
 32 76  1  0  0  0  0
M  END
> <PUBCHEM_COMPOUND_CID>
513327
> <PUBCHEM_COMPOUND_CANONICALIZED>
1
> <PUBCHEM_CACTVS_COMPLEXITY>
524
> <PUBCHEM_CACTVS_HBOND_ACCEPTOR>
9
> <PUBCHEM_CACTVS_HBOND_DONOR>
6
> <PUBCHEM_CACTVS_ROTATABLE_BOND>
23
> <PUBCHEM_CACTVS_SUBSKEYS>
AAADcfB7uAAAAAAAAAAAAAAAAAAAAAAAAAAAAAAAAAAAAAAAAAAAHgAQCAAACCjhgAYACAPABgAIAAEQGAAAAAAAAAAAAICIAAASQAIAgCAVAAAEFgCUAAGQwAAAAAAAAAAAAAAAAAAAAAAAAAAAAAAAAA==
> <PUBCHEM_IUPAC_OPENEYE_NAME>
[(2S)-6-amino-2-[[2-[[2-(4-aminobutylamino)acetyl]-(7-aminoheptyl)amino]acetyl]amino]hexyl] hydrogen carbonate
> <PUBCHEM_IUPAC_CAS_NAME>
carbonic acid [(2S)-6-amino-2-[[2-[[2-(4-aminobutylamino)-1-oxoethyl]-(7-aminoheptyl)amino]-1-oxoethyl]amino]hexyl] ester
> <PUBCHEM_IUPAC_NAME_MARKUP>
[(2<I>S</I>)-6-amino-2-[[2-[[2-(4-aminobutylamino)acetyl]-(7-aminoheptyl)amino]acetyl]amino]hexyl] hydrogen carbonate
> <PUBCHEM_IUPAC_NAME>
[(2S)-6-amino-2-[[2-[[2-(4-aminobutylamino)acetyl]-(7-aminoheptyl)amino]acetyl]amino]hexyl] hydrogen carbonate
> <PUBCHEM_IUPAC_SYSTEMATIC_NAME>
[(2S)-6-azanyl-2-[2-[2-(4-azanylbutylamino)ethanoyl-(7-azanylheptyl)amino]ethanoylamino]hexyl] hydrogen carbonate
> <PUBCHEM_IUPAC_TRADITIONAL_NAME>
carbonic acid [(2S)-6-amino-2-[[2-[[2-(4-aminobutylamino)acetyl]-(7-aminoheptyl)amino]acetyl]amino]hexyl] ester
> <PUBCHEM_IUPAC_INCHI>
InChI=1S/C22H46N6O5/c23-11-5-2-1-3-9-15-28(21(30)16-26-14-8-7-13-25)17-20(29)27-19(10-4-6-12-24)18-33-22(31)32/h19,26H,1-18,23-25H2,(H,27,29)(H,31,32)/t19-/m0/s1
> <PUBCHEM_IUPAC_INCHIKEY>
CCVXORRHQIAUFB-IBGZPJMESA-N
> <PUBCHEM_XLOGP3_AA>
-2.6
> <PUBCHEM_EXACT_MASS>
474.35296859
> <PUBCHEM_MOLECULAR_FORMULA>
C22H46N6O5
> <PUBCHEM_MOLECULAR_WEIGHT>
474.6
> <PUBCHEM_OPENEYE_CAN_SMILES>
C(CCCN)CCCN(CC(=O)NC(CCCCN)COC(=O)O)C(=O)CNCCCCN
> <PUBCHEM_OPENEYE_ISO_SMILES>
C(CCCN)CCCN(CC(=O)N[C@@H](CCCCN)COC(=O)O)C(=O)CNCCCCN
> <PUBCHEM_CACTVS_TPSA>
186
> <PUBCHEM_MONOISOTOPIC_WEIGHT>
474.35296859
> <PUBCHEM_TOTAL_CHARGE>
0
> <PUBCHEM_HEAVY_ATOM_COUNT>
33
> <PUBCHEM_ATOM_DEF_STEREO_COUNT>
1
> <PUBCHEM_ATOM_UDEF_STEREO_COUNT>
0
> <PUBCHEM_BOND_DEF_STEREO_COUNT>
0
> <PUBCHEM_BOND_UDEF_STEREO_COUNT>
0
> <PUBCHEM_ISOTOPIC_ATOM_COUNT>
0
> <PUBCHEM_COMPONENT_COUNT>
1
> <PUBCHEM_CACTVS_TAUTO_COUNT>
-1
> <PUBCHEM_COORDINATE_TYPE>
1
5
255
> <PUBCHEM_BONDANNOTATIONS>
12  7  5
$$$$
