513378
  -OEChem-10302200282D
 70 69  0     1  0  0  0  0  0999 V2000
   11.1972    0.2500    0.0000 O   0  0  0  0  0  0  0  0  0  0  0  0
    7.7331    1.2500    0.0000 O   0  0  0  0  0  0  0  0  0  0  0  0
    5.1350   -1.2500    0.0000 O   0  0  0  0  0  0  0  0  0  0  0  0
   12.9292    0.2500    0.0000 O   0  0  0  0  0  0  0  0  0  0  0  0
   12.0632   -1.2500    0.0000 O   0  0  0  0  0  0  0  0  0  0  0  0
    8.5991   -0.2500    0.0000 N   0  0  0  0  0  0  0  0  0  0  0  0
    6.0010    0.2500    0.0000 N   0  0  0  0  0  0  0  0  0  0  0  0
    3.4030   -0.2500    0.0000 N   0  0  0  0  0  0  0  0  0  0  0  0
    5.1350   -4.2500    0.0000 N   0  0  0  0  0  0  0  0  0  0  0  0
   11.1972    4.2500    0.0000 N   0  0  0  0  0  0  0  0  0  0  0  0
    2.5369    4.2500    0.0000 N   0  0  0  0  0  0  0  0  0  0  0  0
    6.8671   -0.2500    0.0000 C   0  0  1  0  0  0  0  0  0  0  0  0
    9.4651    0.2500    0.0000 C   0  0  2  0  0  0  0  0  0  0  0  0
    6.8671   -1.2500    0.0000 C   0  0  0  0  0  0  0  0  0  0  0  0
    9.4651    1.2500    0.0000 C   0  0  0  0  0  0  0  0  0  0  0  0
    6.0010   -1.7500    0.0000 C   0  0  0  0  0  0  0  0  0  0  0  0
   10.3312    1.7500    0.0000 C   0  0  0  0  0  0  0  0  0  0  0  0
    7.7331    0.2500    0.0000 C   0  0  0  0  0  0  0  0  0  0  0  0
    4.2690    0.2500    0.0000 C   0  0  2  0  0  0  0  0  0  0  0  0
   10.3312   -0.2500    0.0000 C   0  0  0  0  0  0  0  0  0  0  0  0
    4.2690    1.2500    0.0000 C   0  0  0  0  0  0  0  0  0  0  0  0
    6.0010   -2.7500    0.0000 C   0  0  0  0  0  0  0  0  0  0  0  0
   10.3312    2.7500    0.0000 C   0  0  0  0  0  0  0  0  0  0  0  0
    5.1350   -0.2500    0.0000 C   0  0  0  0  0  0  0  0  0  0  0  0
    3.4030    1.7500    0.0000 C   0  0  0  0  0  0  0  0  0  0  0  0
    3.4030    2.7500    0.0000 C   0  0  0  0  0  0  0  0  0  0  0  0
    5.1350   -3.2500    0.0000 C   0  0  0  0  0  0  0  0  0  0  0  0
   11.1972    3.2500    0.0000 C   0  0  0  0  0  0  0  0  0  0  0  0
    2.5369    3.2500    0.0000 C   0  0  0  0  0  0  0  0  0  0  0  0
   12.0632   -0.2500    0.0000 C   0  0  0  0  0  0  0  0  0  0  0  0
    6.3301   -0.5600    0.0000 H   0  0  0  0  0  0  0  0  0  0  0  0
    9.4651   -0.3700    0.0000 H   0  0  0  0  0  0  0  0  0  0  0  0
    7.0791   -1.8326    0.0000 H   0  0  0  0  0  0  0  0  0  0  0  0
    7.4776   -1.1423    0.0000 H   0  0  0  0  0  0  0  0  0  0  0  0
    9.2531    1.8326    0.0000 H   0  0  0  0  0  0  0  0  0  0  0  0
    8.8546    1.1423    0.0000 H   0  0  0  0  0  0  0  0  0  0  0  0
    5.7890   -1.1674    0.0000 H   0  0  0  0  0  0  0  0  0  0  0  0
    5.3905   -1.8577    0.0000 H   0  0  0  0  0  0  0  0  0  0  0  0
   10.5432    1.1674    0.0000 H   0  0  0  0  0  0  0  0  0  0  0  0
   10.9417    1.8577    0.0000 H   0  0  0  0  0  0  0  0  0  0  0  0
    8.5991   -0.8700    0.0000 H   0  0  0  0  0  0  0  0  0  0  0  0
    6.0010    0.8700    0.0000 H   0  0  0  0  0  0  0  0  0  0  0  0
    4.2690   -0.3700    0.0000 H   0  0  0  0  0  0  0  0  0  0  0  0
    9.9326   -0.7249    0.0000 H   0  0  0  0  0  0  0  0  0  0  0  0
   10.7297   -0.7249    0.0000 H   0  0  0  0  0  0  0  0  0  0  0  0
    4.8796    1.1423    0.0000 H   0  0  0  0  0  0  0  0  0  0  0  0
    4.4810    1.8326    0.0000 H   0  0  0  0  0  0  0  0  0  0  0  0
    6.2131   -3.3326    0.0000 H   0  0  0  0  0  0  0  0  0  0  0  0
    6.6116   -2.6423    0.0000 H   0  0  0  0  0  0  0  0  0  0  0  0
   10.1191    3.3326    0.0000 H   0  0  0  0  0  0  0  0  0  0  0  0
    9.7206    2.6423    0.0000 H   0  0  0  0  0  0  0  0  0  0  0  0
    2.7924    1.8577    0.0000 H   0  0  0  0  0  0  0  0  0  0  0  0
    3.1909    1.1674    0.0000 H   0  0  0  0  0  0  0  0  0  0  0  0
    4.0135    2.6423    0.0000 H   0  0  0  0  0  0  0  0  0  0  0  0
    3.6150    3.3326    0.0000 H   0  0  0  0  0  0  0  0  0  0  0  0
    4.9230   -2.6674    0.0000 H   0  0  0  0  0  0  0  0  0  0  0  0
    4.5244   -3.3577    0.0000 H   0  0  0  0  0  0  0  0  0  0  0  0
   11.4092    2.6674    0.0000 H   0  0  0  0  0  0  0  0  0  0  0  0
   11.8078    3.3577    0.0000 H   0  0  0  0  0  0  0  0  0  0  0  0
    2.8660    0.0600    0.0000 H   0  0  0  0  0  0  0  0  0  0  0  0
    3.4030   -0.8700    0.0000 H   0  0  0  0  0  0  0  0  0  0  0  0
    1.9264    3.3577    0.0000 H   0  0  0  0  0  0  0  0  0  0  0  0
    2.3249    2.6674    0.0000 H   0  0  0  0  0  0  0  0  0  0  0  0
    4.5981   -4.5600    0.0000 H   0  0  0  0  0  0  0  0  0  0  0  0
    5.6720   -4.5600    0.0000 H   0  0  0  0  0  0  0  0  0  0  0  0
   11.7341    4.5600    0.0000 H   0  0  0  0  0  0  0  0  0  0  0  0
   10.6603    4.5600    0.0000 H   0  0  0  0  0  0  0  0  0  0  0  0
    2.0000    4.5600    0.0000 H   0  0  0  0  0  0  0  0  0  0  0  0
    3.0739    4.5600    0.0000 H   0  0  0  0  0  0  0  0  0  0  0  0
   13.4662   -0.0600    0.0000 H   0  0  0  0  0  0  0  0  0  0  0  0
  1 20  1  0  0  0  0
  1 30  1  0  0  0  0
  2 18  2  0  0  0  0
  3 24  2  0  0  0  0
  4 30  1  0  0  0  0
  4 70  1  0  0  0  0
  5 30  2  0  0  0  0
 13  6  1  6  0  0  0
  6 18  1  0  0  0  0
  6 41  1  0  0  0  0
 12  7  1  6  0  0  0
  7 24  1  0  0  0  0
  7 42  1  0  0  0  0
 19  8  1  6  0  0  0
  8 60  1  0  0  0  0
  8 61  1  0  0  0  0
  9 27  1  0  0  0  0
  9 64  1  0  0  0  0
  9 65  1  0  0  0  0
 10 28  1  0  0  0  0
 10 66  1  0  0  0  0
 10 67  1  0  0  0  0
 11 29  1  0  0  0  0
 11 68  1  0  0  0  0
 11 69  1  0  0  0  0
 12 14  1  0  0  0  0
 12 18  1  0  0  0  0
 12 31  1  0  0  0  0
 13 15  1  0  0  0  0
 13 20  1  0  0  0  0
 13 32  1  0  0  0  0
 14 16  1  0  0  0  0
 14 33  1  0  0  0  0
 14 34  1  0  0  0  0
 15 17  1  0  0  0  0
 15 35  1  0  0  0  0
 15 36  1  0  0  0  0
 16 22  1  0  0  0  0
 16 37  1  0  0  0  0
 16 38  1  0  0  0  0
 17 23  1  0  0  0  0
 17 39  1  0  0  0  0
 17 40  1  0  0  0  0
 19 21  1  0  0  0  0
 19 24  1  0  0  0  0
 19 43  1  0  0  0  0
 20 44  1  0  0  0  0
 20 45  1  0  0  0  0
 21 25  1  0  0  0  0
 21 46  1  0  0  0  0
 21 47  1  0  0  0  0
 22 27  1  0  0  0  0
 22 48  1  0  0  0  0
 22 49  1  0  0  0  0
 23 28  1  0  0  0  0
 23 50  1  0  0  0  0
 23 51  1  0  0  0  0
 25 26  1  0  0  0  0
 25 52  1  0  0  0  0
 25 53  1  0  0  0  0
 26 29  1  0  0  0  0
 26 54  1  0  0  0  0
 26 55  1  0  0  0  0
 27 56  1  0  0  0  0
 27 57  1  0  0  0  0
 28 58  1  0  0  0  0
 28 59  1  0  0  0  0
 29 62  1  0  0  0  0
 29 63  1  0  0  0  0
M  END
> <PUBCHEM_COMPOUND_CID>
513378
> <PUBCHEM_COMPOUND_CANONICALIZED>
1
> <PUBCHEM_CACTVS_COMPLEXITY>
494
> <PUBCHEM_CACTVS_HBOND_ACCEPTOR>
9
> <PUBCHEM_CACTVS_HBOND_DONOR>
7
> <PUBCHEM_CACTVS_ROTATABLE_BOND>
19
> <PUBCHEM_CACTVS_SUBSKEYS>
AAADcfB7uAAAAAAAAAAAAAAAAAAAAAAAAAAAAAAAAAAAAAAAAAAAHgAQCAAACCjhgAYACALABgAIAAEQGAAAAAAAAAAAAIGIAAASQBIAgCAVAAAEFgCUAAGYSAAAAAAAAAAAAAAAAAAAAAAAAAAAAAAAAA==
> <PUBCHEM_IUPAC_OPENEYE_NAME>
[(2R)-6-amino-2-[[(2S)-6-amino-2-[[(2R)-2,6-diaminohexanoyl]amino]hexanoyl]amino]hexyl] hydrogen carbonate
> <PUBCHEM_IUPAC_CAS_NAME>
carbonic acid [(2R)-6-amino-2-[[(2S)-6-amino-2-[[(2R)-2,6-diamino-1-oxohexyl]amino]-1-oxohexyl]amino]hexyl] ester
> <PUBCHEM_IUPAC_NAME_MARKUP>
[(2<I>R</I>)-6-amino-2-[[(2<I>S</I>)-6-amino-2-[[(2<I>R</I>)-2,6-diaminohexanoyl]amino]hexanoyl]amino]hexyl] hydrogen carbonate
> <PUBCHEM_IUPAC_NAME>
[(2R)-6-amino-2-[[(2S)-6-amino-2-[[(2R)-2,6-diaminohexanoyl]amino]hexanoyl]amino]hexyl] hydrogen carbonate
> <PUBCHEM_IUPAC_SYSTEMATIC_NAME>
[(2R)-6-azanyl-2-[[(2S)-6-azanyl-2-[[(2R)-2,6-bis(azanyl)hexanoyl]amino]hexanoyl]amino]hexyl] hydrogen carbonate
> <PUBCHEM_IUPAC_TRADITIONAL_NAME>
carbonic acid [(2R)-6-amino-2-[[(2S)-6-amino-2-[[(2R)-2,6-diaminohexanoyl]amino]hexanoyl]amino]hexyl] ester
> <PUBCHEM_IUPAC_INCHI>
InChI=1S/C19H40N6O5/c20-10-4-1-7-14(13-30-19(28)29)24-18(27)16(9-3-6-12-22)25-17(26)15(23)8-2-5-11-21/h14-16H,1-13,20-23H2,(H,24,27)(H,25,26)(H,28,29)/t14-,15-,16+/m1/s1
> <PUBCHEM_IUPAC_INCHIKEY>
YZKXKPNZUVSZRA-OAGGEKHMSA-N
> <PUBCHEM_XLOGP3_AA>
-3.8
> <PUBCHEM_EXACT_MASS>
432.30601840
> <PUBCHEM_MOLECULAR_FORMULA>
C19H40N6O5
> <PUBCHEM_MOLECULAR_WEIGHT>
432.6
> <PUBCHEM_OPENEYE_CAN_SMILES>
C(CCN)CC(COC(=O)O)NC(=O)C(CCCCN)NC(=O)C(CCCCN)N
> <PUBCHEM_OPENEYE_ISO_SMILES>
C(CCN)C[C@H](COC(=O)O)NC(=O)[C@H](CCCCN)NC(=O)[C@@H](CCCCN)N
> <PUBCHEM_CACTVS_TPSA>
209
> <PUBCHEM_MONOISOTOPIC_WEIGHT>
432.30601840
> <PUBCHEM_TOTAL_CHARGE>
0
> <PUBCHEM_HEAVY_ATOM_COUNT>
30
> <PUBCHEM_ATOM_DEF_STEREO_COUNT>
3
> <PUBCHEM_ATOM_UDEF_STEREO_COUNT>
0
> <PUBCHEM_BOND_DEF_STEREO_COUNT>
0
> <PUBCHEM_BOND_UDEF_STEREO_COUNT>
0
> <PUBCHEM_ISOTOPIC_ATOM_COUNT>
0
> <PUBCHEM_COMPONENT_COUNT>
1
> <PUBCHEM_CACTVS_TAUTO_COUNT>
-1
> <PUBCHEM_COORDINATE_TYPE>
1
5
255
> <PUBCHEM_BONDANNOTATIONS>
13  6  6
12  7  6
19  8  6
$$$$
