513379
  -OEChem-10302200282D
 73 72  0     1  0  0  0  0  0999 V2000
   15.5273    0.2500    0.0000 O   0  0  0  0  0  0  0  0  0  0  0  0
   12.0632    1.2500    0.0000 O   0  0  0  0  0  0  0  0  0  0  0  0
    9.4651   -1.2500    0.0000 O   0  0  0  0  0  0  0  0  0  0  0  0
   17.2594    0.2500    0.0000 O   0  0  0  0  0  0  0  0  0  0  0  0
   16.3933   -1.2500    0.0000 O   0  0  0  0  0  0  0  0  0  0  0  0
   12.9292   -0.2500    0.0000 N   0  0  0  0  0  0  0  0  0  0  0  0
   10.3312    0.2500    0.0000 N   0  0  0  0  0  0  0  0  0  0  0  0
    7.7331   -0.2500    0.0000 N   0  0  0  0  0  0  0  0  0  0  0  0
   15.5273    4.2500    0.0000 N   0  0  0  0  0  0  0  0  0  0  0  0
    9.4651   -4.2500    0.0000 N   0  0  0  0  0  0  0  0  0  0  0  0
    2.5369   -0.2500    0.0000 N   0  0  0  0  0  0  0  0  0  0  0  0
   13.7953    0.2500    0.0000 C   0  0  2  0  0  0  0  0  0  0  0  0
   11.1972   -0.2500    0.0000 C   0  0  1  0  0  0  0  0  0  0  0  0
   13.7953    1.2500    0.0000 C   0  0  0  0  0  0  0  0  0  0  0  0
   11.1972   -1.2500    0.0000 C   0  0  0  0  0  0  0  0  0  0  0  0
   14.6613    1.7500    0.0000 C   0  0  0  0  0  0  0  0  0  0  0  0
   10.3312   -1.7500    0.0000 C   0  0  0  0  0  0  0  0  0  0  0  0
   12.0632    0.2500    0.0000 C   0  0  0  0  0  0  0  0  0  0  0  0
   14.6613   -0.2500    0.0000 C   0  0  0  0  0  0  0  0  0  0  0  0
   14.6613    2.7500    0.0000 C   0  0  0  0  0  0  0  0  0  0  0  0
   10.3312   -2.7500    0.0000 C   0  0  0  0  0  0  0  0  0  0  0  0
   15.5273    3.2500    0.0000 C   0  0  0  0  0  0  0  0  0  0  0  0
    9.4651   -0.2500    0.0000 C   0  0  0  0  0  0  0  0  0  0  0  0
    9.4651   -3.2500    0.0000 C   0  0  0  0  0  0  0  0  0  0  0  0
    8.5991    0.2500    0.0000 C   0  0  0  0  0  0  0  0  0  0  0  0
    6.0010   -0.2500    0.0000 C   0  0  0  0  0  0  0  0  0  0  0  0
    6.8671    0.2500    0.0000 C   0  0  0  0  0  0  0  0  0  0  0  0
    5.1350    0.2500    0.0000 C   0  0  0  0  0  0  0  0  0  0  0  0
    4.2690   -0.2500    0.0000 C   0  0  0  0  0  0  0  0  0  0  0  0
    3.4030    0.2500    0.0000 C   0  0  0  0  0  0  0  0  0  0  0  0
   16.3933   -0.2500    0.0000 C   0  0  0  0  0  0  0  0  0  0  0  0
   13.7953   -0.3700    0.0000 H   0  0  0  0  0  0  0  0  0  0  0  0
   10.6603   -0.5600    0.0000 H   0  0  0  0  0  0  0  0  0  0  0  0
   13.5832    1.8326    0.0000 H   0  0  0  0  0  0  0  0  0  0  0  0
   13.1847    1.1423    0.0000 H   0  0  0  0  0  0  0  0  0  0  0  0
   11.4092   -1.8326    0.0000 H   0  0  0  0  0  0  0  0  0  0  0  0
   11.8078   -1.1423    0.0000 H   0  0  0  0  0  0  0  0  0  0  0  0
   14.8733    1.1674    0.0000 H   0  0  0  0  0  0  0  0  0  0  0  0
   15.2719    1.8577    0.0000 H   0  0  0  0  0  0  0  0  0  0  0  0
   10.1191   -1.1674    0.0000 H   0  0  0  0  0  0  0  0  0  0  0  0
    9.7206   -1.8577    0.0000 H   0  0  0  0  0  0  0  0  0  0  0  0
   12.9292   -0.8700    0.0000 H   0  0  0  0  0  0  0  0  0  0  0  0
   14.2628   -0.7249    0.0000 H   0  0  0  0  0  0  0  0  0  0  0  0
   15.0598   -0.7249    0.0000 H   0  0  0  0  0  0  0  0  0  0  0  0
   14.4492    3.3326    0.0000 H   0  0  0  0  0  0  0  0  0  0  0  0
   14.0507    2.6423    0.0000 H   0  0  0  0  0  0  0  0  0  0  0  0
   10.5432   -3.3326    0.0000 H   0  0  0  0  0  0  0  0  0  0  0  0
   10.9417   -2.6423    0.0000 H   0  0  0  0  0  0  0  0  0  0  0  0
   10.3312    0.8700    0.0000 H   0  0  0  0  0  0  0  0  0  0  0  0
   15.7394    2.6674    0.0000 H   0  0  0  0  0  0  0  0  0  0  0  0
   16.1379    3.3577    0.0000 H   0  0  0  0  0  0  0  0  0  0  0  0
    9.2531   -2.6674    0.0000 H   0  0  0  0  0  0  0  0  0  0  0  0
    8.8546   -3.3577    0.0000 H   0  0  0  0  0  0  0  0  0  0  0  0
    8.9976    0.7249    0.0000 H   0  0  0  0  0  0  0  0  0  0  0  0
    8.2006    0.7249    0.0000 H   0  0  0  0  0  0  0  0  0  0  0  0
    5.6025   -0.7249    0.0000 H   0  0  0  0  0  0  0  0  0  0  0  0
    6.3996   -0.7249    0.0000 H   0  0  0  0  0  0  0  0  0  0  0  0
    7.2656    0.7249    0.0000 H   0  0  0  0  0  0  0  0  0  0  0  0
    6.4685    0.7249    0.0000 H   0  0  0  0  0  0  0  0  0  0  0  0
    5.5335    0.7249    0.0000 H   0  0  0  0  0  0  0  0  0  0  0  0
    4.7365    0.7249    0.0000 H   0  0  0  0  0  0  0  0  0  0  0  0
    7.7331   -0.8700    0.0000 H   0  0  0  0  0  0  0  0  0  0  0  0
    3.8705   -0.7249    0.0000 H   0  0  0  0  0  0  0  0  0  0  0  0
    4.6675   -0.7249    0.0000 H   0  0  0  0  0  0  0  0  0  0  0  0
   16.0643    4.5600    0.0000 H   0  0  0  0  0  0  0  0  0  0  0  0
   14.9904    4.5600    0.0000 H   0  0  0  0  0  0  0  0  0  0  0  0
    3.8015    0.7249    0.0000 H   0  0  0  0  0  0  0  0  0  0  0  0
    3.0044    0.7249    0.0000 H   0  0  0  0  0  0  0  0  0  0  0  0
    8.9282   -4.5600    0.0000 H   0  0  0  0  0  0  0  0  0  0  0  0
   10.0021   -4.5600    0.0000 H   0  0  0  0  0  0  0  0  0  0  0  0
    2.0000    0.0600    0.0000 H   0  0  0  0  0  0  0  0  0  0  0  0
    2.5369   -0.8700    0.0000 H   0  0  0  0  0  0  0  0  0  0  0  0
   17.7963   -0.0600    0.0000 H   0  0  0  0  0  0  0  0  0  0  0  0
  1 19  1  0  0  0  0
  1 31  1  0  0  0  0
  2 18  2  0  0  0  0
  3 23  2  0  0  0  0
  4 31  1  0  0  0  0
  4 73  1  0  0  0  0
  5 31  2  0  0  0  0
 12  6  1  6  0  0  0
  6 18  1  0  0  0  0
  6 42  1  0  0  0  0
 13  7  1  6  0  0  0
  7 23  1  0  0  0  0
  7 49  1  0  0  0  0
  8 25  1  0  0  0  0
  8 27  1  0  0  0  0
  8 62  1  0  0  0  0
  9 22  1  0  0  0  0
  9 65  1  0  0  0  0
  9 66  1  0  0  0  0
 10 24  1  0  0  0  0
 10 69  1  0  0  0  0
 10 70  1  0  0  0  0
 11 30  1  0  0  0  0
 11 71  1  0  0  0  0
 11 72  1  0  0  0  0
 12 14  1  0  0  0  0
 12 19  1  0  0  0  0
 12 32  1  0  0  0  0
 13 15  1  0  0  0  0
 13 18  1  0  0  0  0
 13 33  1  0  0  0  0
 14 16  1  0  0  0  0
 14 34  1  0  0  0  0
 14 35  1  0  0  0  0
 15 17  1  0  0  0  0
 15 36  1  0  0  0  0
 15 37  1  0  0  0  0
 16 20  1  0  0  0  0
 16 38  1  0  0  0  0
 16 39  1  0  0  0  0
 17 21  1  0  0  0  0
 17 40  1  0  0  0  0
 17 41  1  0  0  0  0
 19 43  1  0  0  0  0
 19 44  1  0  0  0  0
 20 22  1  0  0  0  0
 20 45  1  0  0  0  0
 20 46  1  0  0  0  0
 21 24  1  0  0  0  0
 21 47  1  0  0  0  0
 21 48  1  0  0  0  0
 22 50  1  0  0  0  0
 22 51  1  0  0  0  0
 23 25  1  0  0  0  0
 24 52  1  0  0  0  0
 24 53  1  0  0  0  0
 25 54  1  0  0  0  0
 25 55  1  0  0  0  0
 26 27  1  0  0  0  0
 26 28  1  0  0  0  0
 26 56  1  0  0  0  0
 26 57  1  0  0  0  0
 27 58  1  0  0  0  0
 27 59  1  0  0  0  0
 28 29  1  0  0  0  0
 28 60  1  0  0  0  0
 28 61  1  0  0  0  0
 29 30  1  0  0  0  0
 29 63  1  0  0  0  0
 29 64  1  0  0  0  0
 30 67  1  0  0  0  0
 30 68  1  0  0  0  0
M  END
> <PUBCHEM_COMPOUND_CID>
513379
> <PUBCHEM_COMPOUND_CANONICALIZED>
1
> <PUBCHEM_CACTVS_COMPLEXITY>
495
> <PUBCHEM_CACTVS_HBOND_ACCEPTOR>
9
> <PUBCHEM_CACTVS_HBOND_DONOR>
7
> <PUBCHEM_CACTVS_ROTATABLE_BOND>
21
> <PUBCHEM_CACTVS_SUBSKEYS>
AAADcfB7uAAAAAAAAAAAAAAAAAAAAAAAAAAAAAAAAAAAAAAAAAAAHgAQCAAACCjhgAYACALABgAIAAEQGAAAAAAAAAAAAIGIAAASQBIAgCAVAAAEFgCUAAGYSAAAAAAAAAAAAAAAAAAAAAAAAAAAAAAAAA==
> <PUBCHEM_IUPAC_OPENEYE_NAME>
[(2R)-6-amino-2-[[(2S)-6-amino-2-[[2-(5-aminopentylamino)acetyl]amino]hexanoyl]amino]hexyl] hydrogen carbonate
> <PUBCHEM_IUPAC_CAS_NAME>
carbonic acid [(2R)-6-amino-2-[[(2S)-6-amino-2-[[2-(5-aminopentylamino)-1-oxoethyl]amino]-1-oxohexyl]amino]hexyl] ester
> <PUBCHEM_IUPAC_NAME_MARKUP>
[(2<I>R</I>)-6-amino-2-[[(2<I>S</I>)-6-amino-2-[[2-(5-aminopentylamino)acetyl]amino]hexanoyl]amino]hexyl] hydrogen carbonate
> <PUBCHEM_IUPAC_NAME>
[(2R)-6-amino-2-[[(2S)-6-amino-2-[[2-(5-aminopentylamino)acetyl]amino]hexanoyl]amino]hexyl] hydrogen carbonate
> <PUBCHEM_IUPAC_SYSTEMATIC_NAME>
[(2R)-6-azanyl-2-[[(2S)-6-azanyl-2-[2-(5-azanylpentylamino)ethanoylamino]hexanoyl]amino]hexyl] hydrogen carbonate
> <PUBCHEM_IUPAC_TRADITIONAL_NAME>
carbonic acid [(2R)-6-amino-2-[[(2S)-6-amino-2-[[2-(5-aminopentylamino)acetyl]amino]hexanoyl]amino]hexyl] ester
> <PUBCHEM_IUPAC_INCHI>
InChI=1S/C20H42N6O5/c21-10-4-1-7-13-24-14-18(27)26-17(9-3-6-12-23)19(28)25-16(8-2-5-11-22)15-31-20(29)30/h16-17,24H,1-15,21-23H2,(H,25,28)(H,26,27)(H,29,30)/t16-,17+/m1/s1
> <PUBCHEM_IUPAC_INCHIKEY>
DBKKBOGYFCQZEE-SJORKVTESA-N
> <PUBCHEM_XLOGP3_AA>
-3.3
> <PUBCHEM_EXACT_MASS>
446.32166846
> <PUBCHEM_MOLECULAR_FORMULA>
C20H42N6O5
> <PUBCHEM_MOLECULAR_WEIGHT>
446.6
> <PUBCHEM_OPENEYE_CAN_SMILES>
C(CCN)CCNCC(=O)NC(CCCCN)C(=O)NC(CCCCN)COC(=O)O
> <PUBCHEM_OPENEYE_ISO_SMILES>
C(CCN)CCNCC(=O)N[C@@H](CCCCN)C(=O)N[C@H](CCCCN)COC(=O)O
> <PUBCHEM_CACTVS_TPSA>
195
> <PUBCHEM_MONOISOTOPIC_WEIGHT>
446.32166846
> <PUBCHEM_TOTAL_CHARGE>
0
> <PUBCHEM_HEAVY_ATOM_COUNT>
31
> <PUBCHEM_ATOM_DEF_STEREO_COUNT>
2
> <PUBCHEM_ATOM_UDEF_STEREO_COUNT>
0
> <PUBCHEM_BOND_DEF_STEREO_COUNT>
0
> <PUBCHEM_BOND_UDEF_STEREO_COUNT>
0
> <PUBCHEM_ISOTOPIC_ATOM_COUNT>
0
> <PUBCHEM_COMPONENT_COUNT>
1
> <PUBCHEM_CACTVS_TAUTO_COUNT>
-1
> <PUBCHEM_COORDINATE_TYPE>
1
5
255
> <PUBCHEM_BONDANNOTATIONS>
12  6  6
13  7  6
$$$$
