513473
  -OEChem-10302200282D
 33 34  0     1  0  0  0  0  0999 V2000
    2.7147    2.3725    0.0000 I   0  0  0  0  0  0  0  0  0  0  0  0
    2.3644   -2.8709    0.0000 O   0  0  0  0  0  0  0  0  0  0  0  0
    6.5290   -2.8709    0.0000 O   0  0  0  0  0  0  0  0  0  0  0  0
    6.1788    0.3725    0.0000 O   0  0  0  0  0  0  0  0  0  0  0  0
    4.4467    3.3725    0.0000 O   0  0  0  0  0  0  0  0  0  0  0  0
    4.4467    0.3725    0.0000 N   0  0  0  0  0  0  0  0  0  0  0  0
    5.3128    1.8725    0.0000 N   0  0  0  0  0  0  0  0  0  0  0  0
    3.9467   -2.1664    0.0000 C   0  0  2  0  0  0  0  0  0  0  0  0
    4.9467   -2.1664    0.0000 C   0  0  2  0  0  0  0  0  0  0  0  0
    4.4467   -0.6275    0.0000 C   0  0  0  0  0  0  0  0  0  0  0  0
    3.6377   -1.2153    0.0000 C   0  0  0  0  0  0  0  0  0  0  0  0
    5.2558   -1.2153    0.0000 C   0  0  0  0  0  0  0  0  0  0  0  0
    3.3590   -2.9754    0.0000 C   0  0  0  0  0  0  0  0  0  0  0  0
    5.5345   -2.9754    0.0000 C   0  0  0  0  0  0  0  0  0  0  0  0
    5.3128    0.8725    0.0000 C   0  0  0  0  0  0  0  0  0  0  0  0
    3.5807    0.8725    0.0000 C   0  0  0  0  0  0  0  0  0  0  0  0
    3.5807    1.8725    0.0000 C   0  0  0  0  0  0  0  0  0  0  0  0
    4.4467    2.3725    0.0000 C   0  0  0  0  0  0  0  0  0  0  0  0
    4.2282   -2.7188    0.0000 H   0  0  0  0  0  0  0  0  0  0  0  0
    4.6653   -2.7188    0.0000 H   0  0  0  0  0  0  0  0  0  0  0  0
    3.8943   -0.3461    0.0000 H   0  0  0  0  0  0  0  0  0  0  0  0
    3.3277   -0.6784    0.0000 H   0  0  0  0  0  0  0  0  0  0  0  0
    3.0713   -1.4675    0.0000 H   0  0  0  0  0  0  0  0  0  0  0  0
    5.8222   -1.4675    0.0000 H   0  0  0  0  0  0  0  0  0  0  0  0
    5.5658   -0.6784    0.0000 H   0  0  0  0  0  0  0  0  0  0  0  0
    3.1880   -3.5714    0.0000 H   0  0  0  0  0  0  0  0  0  0  0  0
    3.9162   -3.2472    0.0000 H   0  0  0  0  0  0  0  0  0  0  0  0
    4.9773   -3.2472    0.0000 H   0  0  0  0  0  0  0  0  0  0  0  0
    5.7054   -3.5714    0.0000 H   0  0  0  0  0  0  0  0  0  0  0  0
    3.0438    0.5625    0.0000 H   0  0  0  0  0  0  0  0  0  0  0  0
    2.0000   -3.3725    0.0000 H   0  0  0  0  0  0  0  0  0  0  0  0
    6.8935   -3.3725    0.0000 H   0  0  0  0  0  0  0  0  0  0  0  0
    5.8497    2.1825    0.0000 H   0  0  0  0  0  0  0  0  0  0  0  0
  1 17  1  0  0  0  0
  2 13  1  0  0  0  0
  2 31  1  0  0  0  0
  3 14  1  0  0  0  0
  3 32  1  0  0  0  0
  4 15  2  0  0  0  0
  5 18  2  0  0  0  0
  6 10  1  0  0  0  0
  6 15  1  0  0  0  0
  6 16  1  0  0  0  0
  7 15  1  0  0  0  0
  7 18  1  0  0  0  0
  7 33  1  0  0  0  0
  8  9  1  0  0  0  0
  8 11  1  0  0  0  0
  8 13  1  1  0  0  0
  8 19  1  0  0  0  0
  9 12  1  0  0  0  0
  9 14  1  6  0  0  0
  9 20  1  0  0  0  0
 10 11  1  0  0  0  0
 10 12  1  0  0  0  0
 10 21  1  0  0  0  0
 11 22  1  0  0  0  0
 11 23  1  0  0  0  0
 12 24  1  0  0  0  0
 12 25  1  0  0  0  0
 13 26  1  0  0  0  0
 13 27  1  0  0  0  0
 14 28  1  0  0  0  0
 14 29  1  0  0  0  0
 16 17  2  0  0  0  0
 16 30  1  0  0  0  0
 17 18  1  0  0  0  0
M  END
> <PUBCHEM_COMPOUND_CID>
513473
> <PUBCHEM_COMPOUND_CANONICALIZED>
1
> <PUBCHEM_CACTVS_COMPLEXITY>
387
> <PUBCHEM_CACTVS_HBOND_ACCEPTOR>
4
> <PUBCHEM_CACTVS_HBOND_DONOR>
3
> <PUBCHEM_CACTVS_ROTATABLE_BOND>
3
> <PUBCHEM_CACTVS_SUBSKEYS>
AAADccBzOAAAAgAAAAAAAAAAAAAAAYAAAAAgAAAAAAAAAAAAAAAAHgAwCAAADSjjgAYBAAPAAgCIAAFWUACAAAAAAAAAAAAIAECAEAIAgAAEQAAMByIAAMHw0CMOgAAAAAAAAAAAAAAAAAAAACAACAAAAA==
> <PUBCHEM_IUPAC_OPENEYE_NAME>
1-[(3S,4S)-3,4-bis(hydroxymethyl)cyclopentyl]-5-iodo-pyrimidine-2,4-dione
> <PUBCHEM_IUPAC_CAS_NAME>
1-[(3S,4S)-3,4-bis(hydroxymethyl)cyclopentyl]-5-iodopyrimidine-2,4-dione
> <PUBCHEM_IUPAC_NAME_MARKUP>
1-[(3<I>S</I>,4<I>S</I>)-3,4-bis(hydroxymethyl)cyclopentyl]-5-iodopyrimidine-2,4-dione
> <PUBCHEM_IUPAC_NAME>
1-[(3S,4S)-3,4-bis(hydroxymethyl)cyclopentyl]-5-iodopyrimidine-2,4-dione
> <PUBCHEM_IUPAC_SYSTEMATIC_NAME>
1-[(3S,4S)-3,4-bis(hydroxymethyl)cyclopentyl]-5-iodanyl-pyrimidine-2,4-dione
> <PUBCHEM_IUPAC_TRADITIONAL_NAME>
1-[(3S,4S)-3,4-dimethylolcyclopentyl]-5-iodo-pyrimidine-2,4-quinone
> <PUBCHEM_IUPAC_INCHI>
InChI=1S/C11H15IN2O4/c12-9-3-14(11(18)13-10(9)17)8-1-6(4-15)7(2-8)5-16/h3,6-8,15-16H,1-2,4-5H2,(H,13,17,18)/t6-,7-/m1/s1
> <PUBCHEM_IUPAC_INCHIKEY>
QUGOBAWIKKWHEH-RNFRBKRXSA-N
> <PUBCHEM_XLOGP3_AA>
-0.4
> <PUBCHEM_EXACT_MASS>
366.00765
> <PUBCHEM_MOLECULAR_FORMULA>
C11H15IN2O4
> <PUBCHEM_MOLECULAR_WEIGHT>
366.15
> <PUBCHEM_OPENEYE_CAN_SMILES>
C1C(CC(C1CO)CO)N2C=C(C(=O)NC2=O)I
> <PUBCHEM_OPENEYE_ISO_SMILES>
C1[C@@H]([C@H](CC1N2C=C(C(=O)NC2=O)I)CO)CO
> <PUBCHEM_CACTVS_TPSA>
89.9
> <PUBCHEM_MONOISOTOPIC_WEIGHT>
366.00765
> <PUBCHEM_TOTAL_CHARGE>
0
> <PUBCHEM_HEAVY_ATOM_COUNT>
18
> <PUBCHEM_ATOM_DEF_STEREO_COUNT>
2
> <PUBCHEM_ATOM_UDEF_STEREO_COUNT>
0
> <PUBCHEM_BOND_DEF_STEREO_COUNT>
0
> <PUBCHEM_BOND_UDEF_STEREO_COUNT>
0
> <PUBCHEM_ISOTOPIC_ATOM_COUNT>
0
> <PUBCHEM_COMPONENT_COUNT>
1
> <PUBCHEM_CACTVS_TAUTO_COUNT>
-1
> <PUBCHEM_COORDINATE_TYPE>
1
5
255
> <PUBCHEM_BONDANNOTATIONS>
16  17  8
17  18  8
6  15  8
6  16  8
7  15  8
7  18  8
8  13  5
9  14  6
$$$$
