513434
  -OEChem-10302200282D
 69 73  0     1  0  0  0  0  0999 V2000
    4.4001    2.2242    0.0000 S   0  0  0  0  0  0  0  0  0  0  0  0
    0.0000   15.7260    0.0000 F   0  0  0  0  0  0  0  0  0  0  0  0
    6.9942   10.7019    0.0000 F   0  0  0  0  0  0  0  0  0  0  0  0
    5.7091    3.1752    0.0000 O   0  0  0  0  0  0  0  0  0  0  0  0
    5.5811    0.5016    0.0000 O   0  0  0  0  0  0  0  0  0  0  0  0
    6.6321    4.7630    0.0000 O   0  0  0  0  0  0  0  0  0  0  0  0
    4.3961   17.2019    0.0000 O   0  0  0  0  0  0  0  0  0  0  0  0
    2.6641   17.2019    0.0000 O   0  0  0  0  0  0  0  0  0  0  0  0
    4.9001    4.7630    0.0000 N   0  0  0  0  0  0  0  0  0  0  0  0
    3.5301   13.7019    0.0000 N   0  0  0  0  0  0  0  0  0  0  0  0
    5.7661    6.2630    0.0000 N   0  0  0  0  0  0  0  0  0  0  0  0
    4.9001    7.7630    0.0000 N   0  0  0  0  0  0  0  0  0  0  0  0
    4.9001    3.7630    0.0000 C   0  0  2  0  0  0  0  0  0  0  0  0
    4.0911    3.1752    0.0000 C   0  0  0  0  0  0  0  0  0  0  0  0
    5.4001    2.2242    0.0000 C   0  0  1  0  0  0  0  0  0  0  0  0
    5.9879    1.4151    0.0000 C   0  0  0  0  0  0  0  0  0  0  0  0
    4.0340    5.2630    0.0000 C   0  0  0  0  0  0  0  0  0  0  0  0
    5.7661    5.2630    0.0000 C   0  0  0  0  0  0  0  0  0  0  0  0
    4.3961   15.2019    0.0000 C   0  0  0  0  0  0  0  0  0  0  0  0
    4.3961   14.2019    0.0000 C   0  0  0  0  0  0  0  0  0  0  0  0
    3.5301   15.7019    0.0000 C   0  0  0  0  0  0  0  0  0  0  0  0
    2.6641   15.2019    0.0000 C   0  0  0  0  0  0  0  0  0  0  0  0
    5.2622   13.7019    0.0000 C   0  0  0  0  0  0  0  0  0  0  0  0
    2.6641   14.2019    0.0000 C   0  0  0  0  0  0  0  0  0  0  0  0
    4.0340    6.2630    0.0000 C   0  0  0  0  0  0  0  0  0  0  0  0
    4.9001    6.7630    0.0000 C   0  0  0  0  0  0  0  0  0  0  0  0
    5.2622   15.7019    0.0000 C   0  0  0  0  0  0  0  0  0  0  0  0
    5.2622   12.7019    0.0000 C   0  0  0  0  0  0  0  0  0  0  0  0
    6.1282   14.2019    0.0000 C   0  0  0  0  0  0  0  0  0  0  0  0
    1.7702   15.7365    0.0000 C   0  0  0  0  0  0  0  0  0  0  0  0
    6.9942   12.7019    0.0000 C   0  0  0  0  0  0  0  0  0  0  0  0
    1.7702   13.6672    0.0000 C   0  0  0  0  0  0  0  0  0  0  0  0
    6.1282   12.2019    0.0000 C   0  0  0  0  0  0  0  0  0  0  0  0
    6.9942   13.7019    0.0000 C   0  0  0  0  0  0  0  0  0  0  0  0
    3.5301   16.7019    0.0000 C   0  0  0  0  0  0  0  0  0  0  0  0
    0.8641   15.2227    0.0000 C   0  0  0  0  0  0  0  0  0  0  0  0
    7.8602   12.2019    0.0000 C   0  0  0  0  0  0  0  0  0  0  0  0
    0.8641   14.1810    0.0000 C   0  0  0  0  0  0  0  0  0  0  0  0
    7.8602   11.2019    0.0000 C   0  0  0  0  0  0  0  0  0  0  0  0
    8.7263   12.7019    0.0000 C   0  0  0  0  0  0  0  0  0  0  0  0
    8.7263   10.7019    0.0000 C   0  0  0  0  0  0  0  0  0  0  0  0
    9.5923   12.2019    0.0000 C   0  0  0  0  0  0  0  0  0  0  0  0
    9.5923   11.2019    0.0000 C   0  0  0  0  0  0  0  0  0  0  0  0
    5.4525    4.0445    0.0000 H   0  0  0  0  0  0  0  0  0  0  0  0
    3.7811    3.7122    0.0000 H   0  0  0  0  0  0  0  0  0  0  0  0
    3.5247    2.9230    0.0000 H   0  0  0  0  0  0  0  0  0  0  0  0
    6.0124    2.3211    0.0000 H   0  0  0  0  0  0  0  0  0  0  0  0
    6.5019    1.0684    0.0000 H   0  0  0  0  0  0  0  0  0  0  0  0
    6.4186    1.8611    0.0000 H   0  0  0  0  0  0  0  0  0  0  0  0
    3.4971    4.9530    0.0000 H   0  0  0  0  0  0  0  0  0  0  0  0
    3.4971    6.5730    0.0000 H   0  0  0  0  0  0  0  0  0  0  0  0
    5.5722   15.1649    0.0000 H   0  0  0  0  0  0  0  0  0  0  0  0
    5.7991   16.0119    0.0000 H   0  0  0  0  0  0  0  0  0  0  0  0
    4.9522   16.2388    0.0000 H   0  0  0  0  0  0  0  0  0  0  0  0
    4.7252   12.3919    0.0000 H   0  0  0  0  0  0  0  0  0  0  0  0
    6.1282   14.8219    0.0000 H   0  0  0  0  0  0  0  0  0  0  0  0
    5.9456    0.0000    0.0000 H   0  0  0  0  0  0  0  0  0  0  0  0
    1.7773   16.3565    0.0000 H   0  0  0  0  0  0  0  0  0  0  0  0
    1.7773   13.0472    0.0000 H   0  0  0  0  0  0  0  0  0  0  0  0
    6.1282   11.5819    0.0000 H   0  0  0  0  0  0  0  0  0  0  0  0
    7.5312   14.0119    0.0000 H   0  0  0  0  0  0  0  0  0  0  0  0
    0.3284   13.8690    0.0000 H   0  0  0  0  0  0  0  0  0  0  0  0
    4.3631    8.0730    0.0000 H   0  0  0  0  0  0  0  0  0  0  0  0
    5.4370    8.0730    0.0000 H   0  0  0  0  0  0  0  0  0  0  0  0
    8.7263   13.3219    0.0000 H   0  0  0  0  0  0  0  0  0  0  0  0
    8.7263   10.0819    0.0000 H   0  0  0  0  0  0  0  0  0  0  0  0
   10.1292   12.5119    0.0000 H   0  0  0  0  0  0  0  0  0  0  0  0
   10.1292   10.8919    0.0000 H   0  0  0  0  0  0  0  0  0  0  0  0
    4.3961   17.8219    0.0000 H   0  0  0  0  0  0  0  0  0  0  0  0
  1 14  1  0  0  0  0
  1 15  1  0  0  0  0
  2 36  1  0  0  0  0
  3 39  1  0  0  0  0
  4 13  1  0  0  0  0
  4 15  1  0  0  0  0
  5 16  1  0  0  0  0
  5 57  1  0  0  0  0
  6 18  2  0  0  0  0
  7 35  1  0  0  0  0
  7 69  1  0  0  0  0
  8 35  2  0  0  0  0
 13  9  1  1  0  0  0
  9 17  1  0  0  0  0
  9 18  1  0  0  0  0
 10 20  2  0  0  0  0
 10 24  1  0  0  0  0
 11 18  1  0  0  0  0
 11 26  2  0  0  0  0
 12 26  1  0  0  0  0
 12 63  1  0  0  0  0
 12 64  1  0  0  0  0
 13 14  1  0  0  0  0
 13 44  1  0  0  0  0
 14 45  1  0  0  0  0
 14 46  1  0  0  0  0
 15 16  1  1  0  0  0
 15 47  1  0  0  0  0
 16 48  1  0  0  0  0
 16 49  1  0  0  0  0
 17 25  2  0  0  0  0
 17 50  1  0  0  0  0
 19 20  1  0  0  0  0
 19 21  2  0  0  0  0
 19 27  1  0  0  0  0
 20 23  1  0  0  0  0
 21 22  1  0  0  0  0
 21 35  1  0  0  0  0
 22 24  2  0  0  0  0
 22 30  1  0  0  0  0
 23 28  2  0  0  0  0
 23 29  1  0  0  0  0
 24 32  1  0  0  0  0
 25 26  1  0  0  0  0
 25 51  1  0  0  0  0
 27 52  1  0  0  0  0
 27 53  1  0  0  0  0
 27 54  1  0  0  0  0
 28 33  1  0  0  0  0
 28 55  1  0  0  0  0
 29 34  2  0  0  0  0
 29 56  1  0  0  0  0
 30 36  2  0  0  0  0
 30 58  1  0  0  0  0
 31 33  2  0  0  0  0
 31 34  1  0  0  0  0
 31 37  1  0  0  0  0
 32 38  2  0  0  0  0
 32 59  1  0  0  0  0
 33 60  1  0  0  0  0
 34 61  1  0  0  0  0
 36 38  1  0  0  0  0
 37 39  1  0  0  0  0
 37 40  2  0  0  0  0
 38 62  1  0  0  0  0
 39 41  2  0  0  0  0
 40 42  1  0  0  0  0
 40 65  1  0  0  0  0
 41 43  1  0  0  0  0
 41 66  1  0  0  0  0
 42 43  2  0  0  0  0
 42 67  1  0  0  0  0
 43 68  1  0  0  0  0
M  END
> <PUBCHEM_COMPOUND_CID>
513434
> <PUBCHEM_COMPOUND_CANONICALIZED>
1
> <PUBCHEM_CACTVS_COMPLEXITY>
882
> <PUBCHEM_CACTVS_HBOND_ACCEPTOR>
9
> <PUBCHEM_CACTVS_HBOND_DONOR>
3
> <PUBCHEM_CACTVS_ROTATABLE_BOND>
5
> <PUBCHEM_CACTVS_SUBSKEYS>
AAADceB7uYBAAAAAAAAAAAAAAAAAASAAAAA8YMECAAAAAACx9AAAHwQQCAAADAjl3g6zyPNIFgioAyb2fACCgCElAjAImCE4bNiJNvLAlZGOcQhk1gPr2Qe8yPCOwAAAAAACAACAAAAAAAQAAAAAAAAAAA==
> <PUBCHEM_IUPAC_OPENEYE_NAME>
4-amino-1-[(2R,5S)-2-(hydroxymethyl)-1,3-oxathiolan-5-yl]pyrimidin-2-one;6-fluoro-2-[4-(2-fluorophenyl)phenyl]-3-methyl-quinoline-4-carboxylic acid
> <PUBCHEM_IUPAC_CAS_NAME>
4-amino-1-[(2R,5S)-2-(hydroxymethyl)-1,3-oxathiolan-5-yl]-2-pyrimidinone;6-fluoro-2-[4-(2-fluorophenyl)phenyl]-3-methyl-4-quinolinecarboxylic acid
> <PUBCHEM_IUPAC_NAME_MARKUP>
4-amino-1-[(2<I>R</I>,5<I>S</I>)-2-(hydroxymethyl)-1,3-oxathiolan-5-yl]pyrimidin-2-one;6-fluoro-2-[4-(2-fluorophenyl)phenyl]-3-methylquinoline-4-carboxylic acid
> <PUBCHEM_IUPAC_NAME>
4-amino-1-[(2R,5S)-2-(hydroxymethyl)-1,3-oxathiolan-5-yl]pyrimidin-2-one;6-fluoro-2-[4-(2-fluorophenyl)phenyl]-3-methylquinoline-4-carboxylic acid
> <PUBCHEM_IUPAC_SYSTEMATIC_NAME>
4-azanyl-1-[(2R,5S)-2-(hydroxymethyl)-1,3-oxathiolan-5-yl]pyrimidin-2-one;6-fluoranyl-2-[4-(2-fluorophenyl)phenyl]-3-methyl-quinoline-4-carboxylic acid
> <PUBCHEM_IUPAC_TRADITIONAL_NAME>
4-amino-1-[(2R,5S)-2-methylol-1,3-oxathiolan-5-yl]pyrimidin-2-one;6-fluoro-2-[4-(2-fluorophenyl)phenyl]-3-methyl-cinchoninic acid
> <PUBCHEM_IUPAC_INCHI>
InChI=1S/C23H15F2NO2.C8H11N3O3S/c1-13-21(23(27)28)18-12-16(24)10-11-20(18)26-22(13)15-8-6-14(7-9-15)17-4-2-3-5-19(17)25;9-5-1-2-11(8(13)10-5)6-4-15-7(3-12)14-6/h2-12H,1H3,(H,27,28);1-2,6-7,12H,3-4H2,(H2,9,10,13)/t;6-,7+/m.0/s1
> <PUBCHEM_IUPAC_INCHIKEY>
RDNCFVBJTATIGS-HLISZSCWSA-N
> <PUBCHEM_EXACT_MASS>
604.15919744
> <PUBCHEM_MOLECULAR_FORMULA>
C31H26F2N4O5S
> <PUBCHEM_MOLECULAR_WEIGHT>
604.6
> <PUBCHEM_OPENEYE_CAN_SMILES>
CC1=C(C2=C(C=CC(=C2)F)N=C1C3=CC=C(C=C3)C4=CC=CC=C4F)C(=O)O.C1C(OC(S1)CO)N2C=CC(=NC2=O)N
> <PUBCHEM_OPENEYE_ISO_SMILES>
CC1=C(C2=C(C=CC(=C2)F)N=C1C3=CC=C(C=C3)C4=CC=CC=C4F)C(=O)O.C1[C@H](O[C@H](S1)CO)N2C=CC(=NC2=O)N
> <PUBCHEM_CACTVS_TPSA>
164
> <PUBCHEM_MONOISOTOPIC_WEIGHT>
604.15919744
> <PUBCHEM_TOTAL_CHARGE>
0
> <PUBCHEM_HEAVY_ATOM_COUNT>
43
> <PUBCHEM_ATOM_DEF_STEREO_COUNT>
2
> <PUBCHEM_ATOM_UDEF_STEREO_COUNT>
0
> <PUBCHEM_BOND_DEF_STEREO_COUNT>
0
> <PUBCHEM_BOND_UDEF_STEREO_COUNT>
0
> <PUBCHEM_ISOTOPIC_ATOM_COUNT>
0
> <PUBCHEM_COMPONENT_COUNT>
2
> <PUBCHEM_CACTVS_TAUTO_COUNT>
-1
> <PUBCHEM_COORDINATE_TYPE>
1
5
255
> <PUBCHEM_BONDANNOTATIONS>
10  20  8
10  24  8
11  18  8
11  26  8
15  16  5
17  25  8
19  20  8
19  21  8
21  22  8
22  24  8
22  30  8
23  28  8
23  29  8
24  32  8
25  26  8
28  33  8
29  34  8
30  36  8
31  33  8
31  34  8
32  38  8
36  38  8
37  39  8
37  40  8
39  41  8
40  42  8
41  43  8
42  43  8
13  9  5
9  17  8
9  18  8
$$$$
