513442
  -OEChem-10302200282D
119121  0     1  0  0  0  0  0999 V2000
   12.0632    8.5000    0.0000 I   0  0  0  0  0  0  0  0  0  0  0  0
    8.5991    8.5000    0.0000 I   0  0  0  0  0  0  0  0  0  0  0  0
   13.7953    9.5000    0.0000 I   0  0  0  0  0  0  0  0  0  0  0  0
   12.0632   12.5000    0.0000 I   0  0  0  0  0  0  0  0  0  0  0  0
    8.5991   -0.5000    0.0000 O   0  0  0  0  0  0  0  0  0  0  0  0
    8.5991    0.5000    0.0000 O   0  0  0  0  0  0  0  0  0  0  0  0
    7.7331    4.0000    0.0000 O   0  0  0  0  0  0  0  0  0  0  0  0
    7.7331    5.0000    0.0000 O   0  0  0  0  0  0  0  0  0  0  0  0
   10.3312   -0.5000    0.0000 O   0  0  0  0  0  0  0  0  0  0  0  0
    8.5991    6.5000    0.0000 O   0  0  0  0  0  0  0  0  0  0  0  0
   11.1972    1.0000    0.0000 O   0  0  0  0  0  0  0  0  0  0  0  0
    2.5369   -1.0000    0.0000 O   0  0  0  0  0  0  0  0  0  0  0  0
   10.3312    9.5000    0.0000 O   0  0  0  0  0  0  0  0  0  0  0  0
   13.7953   11.5000    0.0000 O   0  0  0  0  0  0  0  0  0  0  0  0
    6.8671   -0.5000    0.0000 N   0  0  0  0  0  0  0  0  0  0  0  0
    7.7331    2.0000    0.0000 N   0  0  0  0  0  0  0  0  0  0  0  0
    9.4651    4.0000    0.0000 N   0  0  0  0  0  0  0  0  0  0  0  0
   10.3312   -6.5000    0.0000 C   0  0  0  0  0  0  0  0  0  0  0  0
   10.3312   -5.5000    0.0000 C   0  0  0  0  0  0  0  0  0  0  0  0
   11.1972   -7.0000    0.0000 C   0  0  0  0  0  0  0  0  0  0  0  0
    9.4651   -5.0000    0.0000 C   0  0  0  0  0  0  0  0  0  0  0  0
   11.1972   -8.0000    0.0000 C   0  0  0  0  0  0  0  0  0  0  0  0
    9.4651   -4.0000    0.0000 C   0  0  0  0  0  0  0  0  0  0  0  0
   12.0632   -8.5000    0.0000 C   0  0  0  0  0  0  0  0  0  0  0  0
   12.0632   -9.5000    0.0000 C   0  0  0  0  0  0  0  0  0  0  0  0
    8.5991   -3.5000    0.0000 C   0  0  0  0  0  0  0  0  0  0  0  0
   12.9292  -10.0000    0.0000 C   0  0  0  0  0  0  0  0  0  0  0  0
    8.5991   -2.5000    0.0000 C   0  0  0  0  0  0  0  0  0  0  0  0
   12.9292  -11.0000    0.0000 C   0  0  0  0  0  0  0  0  0  0  0  0
    7.7331   -2.0000    0.0000 C   0  0  0  0  0  0  0  0  0  0  0  0
    6.8671    0.5000    0.0000 C   0  0  1  0  0  0  0  0  0  0  0  0
   13.7953  -11.5000    0.0000 C   0  0  0  0  0  0  0  0  0  0  0  0
    7.7331   -1.0000    0.0000 C   0  0  0  0  0  0  0  0  0  0  0  0
    8.5991    2.5000    0.0000 C   0  0  1  0  0  0  0  0  0  0  0  0
    6.0010    1.0000    0.0000 C   0  0  0  0  0  0  0  0  0  0  0  0
    7.7331    1.0000    0.0000 C   0  0  0  0  0  0  0  0  0  0  0  0
    9.4651    2.0000    0.0000 C   0  0  0  0  0  0  0  0  0  0  0  0
   13.7953  -12.5000    0.0000 C   0  0  0  0  0  0  0  0  0  0  0  0
    8.5991    3.5000    0.0000 C   0  0  0  0  0  0  0  0  0  0  0  0
    5.1350    0.5000    0.0000 C   0  0  0  0  0  0  0  0  0  0  0  0
    9.4651    5.0000    0.0000 C   0  0  1  0  0  0  0  0  0  0  0  0
    9.4651    1.0000    0.0000 C   0  0  0  0  0  0  0  0  0  0  0  0
   10.3312    5.5000    0.0000 C   0  0  0  0  0  0  0  0  0  0  0  0
    5.1350   -0.5000    0.0000 C   0  0  0  0  0  0  0  0  0  0  0  0
    4.2690    1.0000    0.0000 C   0  0  0  0  0  0  0  0  0  0  0  0
   10.3312    6.5000    0.0000 C   0  0  0  0  0  0  0  0  0  0  0  0
    8.5991    5.5000    0.0000 C   0  0  0  0  0  0  0  0  0  0  0  0
   10.3312    0.5000    0.0000 C   0  0  0  0  0  0  0  0  0  0  0  0
    4.2690   -1.0000    0.0000 C   0  0  0  0  0  0  0  0  0  0  0  0
    3.4030    0.5000    0.0000 C   0  0  0  0  0  0  0  0  0  0  0  0
    3.4030   -0.5000    0.0000 C   0  0  0  0  0  0  0  0  0  0  0  0
    9.4651    7.0000    0.0000 C   0  0  0  0  0  0  0  0  0  0  0  0
   11.1972    7.0000    0.0000 C   0  0  0  0  0  0  0  0  0  0  0  0
   11.1972    8.0000    0.0000 C   0  0  0  0  0  0  0  0  0  0  0  0
    9.4651    8.0000    0.0000 C   0  0  0  0  0  0  0  0  0  0  0  0
   10.3312    8.5000    0.0000 C   0  0  0  0  0  0  0  0  0  0  0  0
   11.1972   10.0000    0.0000 C   0  0  0  0  0  0  0  0  0  0  0  0
   11.1972   11.0000    0.0000 C   0  0  0  0  0  0  0  0  0  0  0  0
   12.0632    9.5000    0.0000 C   0  0  0  0  0  0  0  0  0  0  0  0
   12.9292   10.0000    0.0000 C   0  0  0  0  0  0  0  0  0  0  0  0
   12.0632   11.5000    0.0000 C   0  0  0  0  0  0  0  0  0  0  0  0
   12.9292   11.0000    0.0000 C   0  0  0  0  0  0  0  0  0  0  0  0
    9.7206   -6.3923    0.0000 H   0  0  0  0  0  0  0  0  0  0  0  0
   10.1191   -7.0826    0.0000 H   0  0  0  0  0  0  0  0  0  0  0  0
   10.9417   -5.6077    0.0000 H   0  0  0  0  0  0  0  0  0  0  0  0
   10.5432   -4.9174    0.0000 H   0  0  0  0  0  0  0  0  0  0  0  0
   11.8078   -7.1077    0.0000 H   0  0  0  0  0  0  0  0  0  0  0  0
   11.4092   -6.4174    0.0000 H   0  0  0  0  0  0  0  0  0  0  0  0
    8.8546   -4.8923    0.0000 H   0  0  0  0  0  0  0  0  0  0  0  0
    9.2531   -5.5826    0.0000 H   0  0  0  0  0  0  0  0  0  0  0  0
   10.5866   -7.8923    0.0000 H   0  0  0  0  0  0  0  0  0  0  0  0
   10.9851   -8.5826    0.0000 H   0  0  0  0  0  0  0  0  0  0  0  0
   10.0757   -4.1077    0.0000 H   0  0  0  0  0  0  0  0  0  0  0  0
    9.6772   -3.4174    0.0000 H   0  0  0  0  0  0  0  0  0  0  0  0
   12.6738   -8.6077    0.0000 H   0  0  0  0  0  0  0  0  0  0  0  0
   12.2753   -7.9174    0.0000 H   0  0  0  0  0  0  0  0  0  0  0  0
    7.9885   -3.3923    0.0000 H   0  0  0  0  0  0  0  0  0  0  0  0
    8.3871   -4.0826    0.0000 H   0  0  0  0  0  0  0  0  0  0  0  0
   11.4526   -9.3923    0.0000 H   0  0  0  0  0  0  0  0  0  0  0  0
   11.8512  -10.0826    0.0000 H   0  0  0  0  0  0  0  0  0  0  0  0
   13.5398  -10.1077    0.0000 H   0  0  0  0  0  0  0  0  0  0  0  0
   13.1413   -9.4174    0.0000 H   0  0  0  0  0  0  0  0  0  0  0  0
    9.2097   -2.6077    0.0000 H   0  0  0  0  0  0  0  0  0  0  0  0
    8.8112   -1.9174    0.0000 H   0  0  0  0  0  0  0  0  0  0  0  0
   12.3187  -10.8923    0.0000 H   0  0  0  0  0  0  0  0  0  0  0  0
   12.7172  -11.5826    0.0000 H   0  0  0  0  0  0  0  0  0  0  0  0
    7.1225   -1.8923    0.0000 H   0  0  0  0  0  0  0  0  0  0  0  0
    7.5210   -2.5826    0.0000 H   0  0  0  0  0  0  0  0  0  0  0  0
    6.3301    0.1900    0.0000 H   0  0  0  0  0  0  0  0  0  0  0  0
   14.4058  -11.6077    0.0000 H   0  0  0  0  0  0  0  0  0  0  0  0
   14.0073  -10.9174    0.0000 H   0  0  0  0  0  0  0  0  0  0  0  0
    8.5991    1.8800    0.0000 H   0  0  0  0  0  0  0  0  0  0  0  0
    6.3301   -0.8100    0.0000 H   0  0  0  0  0  0  0  0  0  0  0  0
    6.3996    1.4750    0.0000 H   0  0  0  0  0  0  0  0  0  0  0  0
    5.6025    1.4750    0.0000 H   0  0  0  0  0  0  0  0  0  0  0  0
   10.0757    1.8923    0.0000 H   0  0  0  0  0  0  0  0  0  0  0  0
    9.6772    2.5826    0.0000 H   0  0  0  0  0  0  0  0  0  0  0  0
    7.1962    2.3100    0.0000 H   0  0  0  0  0  0  0  0  0  0  0  0
   13.1753  -12.5000    0.0000 H   0  0  0  0  0  0  0  0  0  0  0  0
   13.7953  -13.1200    0.0000 H   0  0  0  0  0  0  0  0  0  0  0  0
   14.4153  -12.5000    0.0000 H   0  0  0  0  0  0  0  0  0  0  0  0
   10.0021    4.6900    0.0000 H   0  0  0  0  0  0  0  0  0  0  0  0
    8.8546    1.1077    0.0000 H   0  0  0  0  0  0  0  0  0  0  0  0
    9.2531    0.4174    0.0000 H   0  0  0  0  0  0  0  0  0  0  0  0
   10.0021    3.6900    0.0000 H   0  0  0  0  0  0  0  0  0  0  0  0
   10.5432    4.9174    0.0000 H   0  0  0  0  0  0  0  0  0  0  0  0
   10.9417    5.6077    0.0000 H   0  0  0  0  0  0  0  0  0  0  0  0
    5.6720   -0.8100    0.0000 H   0  0  0  0  0  0  0  0  0  0  0  0
    4.2690    1.6200    0.0000 H   0  0  0  0  0  0  0  0  0  0  0  0
    4.2690   -1.6200    0.0000 H   0  0  0  0  0  0  0  0  0  0  0  0
    2.8660    0.8100    0.0000 H   0  0  0  0  0  0  0  0  0  0  0  0
    8.9282    6.6900    0.0000 H   0  0  0  0  0  0  0  0  0  0  0  0
   11.7341    6.6900    0.0000 H   0  0  0  0  0  0  0  0  0  0  0  0
    7.1962    5.3100    0.0000 H   0  0  0  0  0  0  0  0  0  0  0  0
   10.8681   -0.8100    0.0000 H   0  0  0  0  0  0  0  0  0  0  0  0
    2.0000   -0.6900    0.0000 H   0  0  0  0  0  0  0  0  0  0  0  0
   10.6603   11.3100    0.0000 H   0  0  0  0  0  0  0  0  0  0  0  0
   12.0632    8.8800    0.0000 H   0  0  0  0  0  0  0  0  0  0  0  0
   13.7953   12.1200    0.0000 H   0  0  0  0  0  0  0  0  0  0  0  0
  1 54  1  0  0  0  0
  2 55  1  0  0  0  0
  3 60  1  0  0  0  0
  4 61  1  0  0  0  0
  5 33  2  0  0  0  0
  6 36  2  0  0  0  0
  7 39  2  0  0  0  0
  8 47  1  0  0  0  0
  8114  1  0  0  0  0
  9 48  1  0  0  0  0
  9115  1  0  0  0  0
 10 47  2  0  0  0  0
 11 48  2  0  0  0  0
 12 51  1  0  0  0  0
 12116  1  0  0  0  0
 13 56  1  0  0  0  0
 13 57  1  0  0  0  0
 14 62  1  0  0  0  0
 14119  1  0  0  0  0
 31 15  1  1  0  0  0
 15 33  1  0  0  0  0
 15 93  1  0  0  0  0
 34 16  1  6  0  0  0
 16 36  1  0  0  0  0
 16 98  1  0  0  0  0
 17 39  1  0  0  0  0
 41 17  1  6  0  0  0
 17105  1  0  0  0  0
 18 19  1  0  0  0  0
 18 20  1  0  0  0  0
 18 63  1  0  0  0  0
 18 64  1  0  0  0  0
 19 21  1  0  0  0  0
 19 65  1  0  0  0  0
 19 66  1  0  0  0  0
 20 22  1  0  0  0  0
 20 67  1  0  0  0  0
 20 68  1  0  0  0  0
 21 23  1  0  0  0  0
 21 69  1  0  0  0  0
 21 70  1  0  0  0  0
 22 24  1  0  0  0  0
 22 71  1  0  0  0  0
 22 72  1  0  0  0  0
 23 26  1  0  0  0  0
 23 73  1  0  0  0  0
 23 74  1  0  0  0  0
 24 25  1  0  0  0  0
 24 75  1  0  0  0  0
 24 76  1  0  0  0  0
 25 27  1  0  0  0  0
 25 79  1  0  0  0  0
 25 80  1  0  0  0  0
 26 28  1  0  0  0  0
 26 77  1  0  0  0  0
 26 78  1  0  0  0  0
 27 29  1  0  0  0  0
 27 81  1  0  0  0  0
 27 82  1  0  0  0  0
 28 30  1  0  0  0  0
 28 83  1  0  0  0  0
 28 84  1  0  0  0  0
 29 32  1  0  0  0  0
 29 85  1  0  0  0  0
 29 86  1  0  0  0  0
 30 33  1  0  0  0  0
 30 87  1  0  0  0  0
 30 88  1  0  0  0  0
 31 35  1  0  0  0  0
 31 36  1  0  0  0  0
 31 89  1  0  0  0  0
 32 38  1  0  0  0  0
 32 90  1  0  0  0  0
 32 91  1  0  0  0  0
 34 37  1  0  0  0  0
 34 39  1  0  0  0  0
 34 92  1  0  0  0  0
 35 40  1  0  0  0  0
 35 94  1  0  0  0  0
 35 95  1  0  0  0  0
 37 42  1  0  0  0  0
 37 96  1  0  0  0  0
 37 97  1  0  0  0  0
 38 99  1  0  0  0  0
 38100  1  0  0  0  0
 38101  1  0  0  0  0
 40 44  2  0  0  0  0
 40 45  1  0  0  0  0
 41 43  1  0  0  0  0
 41 47  1  0  0  0  0
 41102  1  0  0  0  0
 42 48  1  0  0  0  0
 42103  1  0  0  0  0
 42104  1  0  0  0  0
 43 46  1  0  0  0  0
 43106  1  0  0  0  0
 43107  1  0  0  0  0
 44 49  1  0  0  0  0
 44108  1  0  0  0  0
 45 50  2  0  0  0  0
 45109  1  0  0  0  0
 46 52  2  0  0  0  0
 46 53  1  0  0  0  0
 49 51  2  0  0  0  0
 49110  1  0  0  0  0
 50 51  1  0  0  0  0
 50111  1  0  0  0  0
 52 55  1  0  0  0  0
 52112  1  0  0  0  0
 53 54  2  0  0  0  0
 53113  1  0  0  0  0
 54 56  1  0  0  0  0
 55 56  2  0  0  0  0
 57 58  2  0  0  0  0
 57 59  1  0  0  0  0
 58 61  1  0  0  0  0
 58117  1  0  0  0  0
 59 60  2  0  0  0  0
 59118  1  0  0  0  0
 60 62  1  0  0  0  0
 61 62  2  0  0  0  0
M  END
> <PUBCHEM_COMPOUND_CID>
513442
> <PUBCHEM_COMPOUND_CANONICALIZED>
1
> <PUBCHEM_CACTVS_COMPLEXITY>
1340
> <PUBCHEM_CACTVS_HBOND_ACCEPTOR>
10
> <PUBCHEM_CACTVS_HBOND_DONOR>
7
> <PUBCHEM_CACTVS_ROTATABLE_BOND>
29
> <PUBCHEM_CACTVS_SUBSKEYS>
AAADcfB/PAAAA4AAAAAAAAAAAAAAAAAAAAAwYMAAAAAAAAABUAAAHgAwCAAADCzDmAQyDoLABgCIAiHSGAACCAAgIAAIiIGOCIgOZjKGsTuWeCCk1hGYuAf836KOIQAAAAAAAABCAAAAAAAAAAAAAAAAAA==
> <PUBCHEM_IUPAC_OPENEYE_NAME>
(4S)-5-[[(1S)-1-carboxy-2-[4-(4-hydroxy-3,5-diiodo-phenoxy)-3,5-diiodo-phenyl]ethyl]amino]-4-[[(2S)-2-(hexadecanoylamino)-3-(4-hydroxyphenyl)propanoyl]amino]-5-oxo-pentanoic acid
> <PUBCHEM_IUPAC_CAS_NAME>
(4S)-5-[[(1S)-1-carboxy-2-[4-(4-hydroxy-3,5-diiodophenoxy)-3,5-diiodophenyl]ethyl]amino]-4-[[(2S)-3-(4-hydroxyphenyl)-1-oxo-2-(1-oxohexadecylamino)propyl]amino]-5-oxopentanoic acid
> <PUBCHEM_IUPAC_NAME_MARKUP>
(4<I>S</I>)-5-[[(1<I>S</I>)-1-carboxy-2-[4-(4-hydroxy-3,5-diiodophenoxy)-3,5-diiodophenyl]ethyl]amino]-4-[[(2<I>S</I>)-2-(hexadecanoylamino)-3-(4-hydroxyphenyl)propanoyl]amino]-5-oxopentanoic acid
> <PUBCHEM_IUPAC_NAME>
(4S)-5-[[(1S)-1-carboxy-2-[4-(4-hydroxy-3,5-diiodophenoxy)-3,5-diiodophenyl]ethyl]amino]-4-[[(2S)-2-(hexadecanoylamino)-3-(4-hydroxyphenyl)propanoyl]amino]-5-oxopentanoic acid
> <PUBCHEM_IUPAC_SYSTEMATIC_NAME>
(4S)-5-[[(2S)-3-[4-[3,5-bis(iodanyl)-4-oxidanyl-phenoxy]-3,5-bis(iodanyl)phenyl]-1-oxidanyl-1-oxidanylidene-propan-2-yl]amino]-4-[[(2S)-2-(hexadecanoylamino)-3-(4-hydroxyphenyl)propanoyl]amino]-5-oxidanylidene-pentanoic acid
> <PUBCHEM_IUPAC_TRADITIONAL_NAME>
(4S)-5-[[(1S)-1-carboxy-2-[4-(4-hydroxy-3,5-diiodo-phenoxy)-3,5-diiodo-phenyl]ethyl]amino]-4-[[(2S)-3-(4-hydroxyphenyl)-2-palmitamido-propanoyl]amino]-5-keto-valeric acid
> <PUBCHEM_IUPAC_INCHI>
InChI=1S/C45H57I4N3O10/c1-2-3-4-5-6-7-8-9-10-11-12-13-14-15-39(54)50-37(24-28-16-18-30(53)19-17-28)44(59)51-36(20-21-40(55)56)43(58)52-38(45(60)61)25-29-22-34(48)42(35(49)23-29)62-31-26-32(46)41(57)33(47)27-31/h16-19,22-23,26-27,36-38,53,57H,2-15,20-21,24-25H2,1H3,(H,50,54)(H,51,59)(H,52,58)(H,55,56)(H,60,61)/t36-,37-,38-/m0/s1
> <PUBCHEM_IUPAC_INCHIKEY>
PMOUHHRVEPWHKT-QXUSSCGESA-N
> <PUBCHEM_XLOGP3_AA>
12.4
> <PUBCHEM_EXACT_MASS>
1307.0223
> <PUBCHEM_MOLECULAR_FORMULA>
C45H57I4N3O10
> <PUBCHEM_MOLECULAR_WEIGHT>
1307.6
> <PUBCHEM_OPENEYE_CAN_SMILES>
CCCCCCCCCCCCCCCC(=O)NC(CC1=CC=C(C=C1)O)C(=O)NC(CCC(=O)O)C(=O)NC(CC2=CC(=C(C(=C2)I)OC3=CC(=C(C(=C3)I)O)I)I)C(=O)O
> <PUBCHEM_OPENEYE_ISO_SMILES>
CCCCCCCCCCCCCCCC(=O)N[C@@H](CC1=CC=C(C=C1)O)C(=O)N[C@@H](CCC(=O)O)C(=O)N[C@@H](CC2=CC(=C(C(=C2)I)OC3=CC(=C(C(=C3)I)O)I)I)C(=O)O
> <PUBCHEM_CACTVS_TPSA>
212
> <PUBCHEM_MONOISOTOPIC_WEIGHT>
1307.0223
> <PUBCHEM_TOTAL_CHARGE>
0
> <PUBCHEM_HEAVY_ATOM_COUNT>
62
> <PUBCHEM_ATOM_DEF_STEREO_COUNT>
3
> <PUBCHEM_ATOM_UDEF_STEREO_COUNT>
0
> <PUBCHEM_BOND_DEF_STEREO_COUNT>
0
> <PUBCHEM_BOND_UDEF_STEREO_COUNT>
0
> <PUBCHEM_ISOTOPIC_ATOM_COUNT>
0
> <PUBCHEM_COMPONENT_COUNT>
1
> <PUBCHEM_CACTVS_TAUTO_COUNT>
-1
> <PUBCHEM_COORDINATE_TYPE>
1
5
255
> <PUBCHEM_BONDANNOTATIONS>
31  15  5
34  16  6
41  17  6
40  44  8
40  45  8
44  49  8
45  50  8
46  52  8
46  53  8
49  51  8
50  51  8
52  55  8
53  54  8
54  56  8
55  56  8
57  58  8
57  59  8
58  61  8
59  60  8
60  62  8
61  62  8
$$$$
