513482
  -OEChem-10302200282D
 45 48  0     1  0  0  0  0  0999 V2000
    2.0000   -1.4055    0.0000 F   0  0  0  0  0  0  0  0  0  0  0  0
    3.7320   -4.4055    0.0000 F   0  0  0  0  0  0  0  0  0  0  0  0
    2.7320   -0.4055    0.0000 O   0  0  0  0  0  0  0  0  0  0  0  0
    4.5981    1.0945    0.0000 N   0  0  0  0  0  0  0  0  0  0  0  0
    5.5981   -0.9055    0.0000 N   0  0  0  0  0  0  0  0  0  0  0  0
    5.6808    2.2970    0.0000 N   0  0  0  0  0  0  0  0  0  0  0  0
    5.7026   -1.9000    0.0000 N   0  0  0  0  0  0  0  0  0  0  0  0
    7.1808   -1.2419    0.0000 N   0  0  0  0  0  0  0  0  0  0  0  0
    3.7320   -0.4055    0.0000 C   0  0  3  0  0  0  0  0  0  0  0  0
    3.7320    0.5945    0.0000 C   0  0  0  0  0  0  0  0  0  0  0  0
    4.7320   -0.4055    0.0000 C   0  0  0  0  0  0  0  0  0  0  0  0
    3.7320   -1.4055    0.0000 C   0  0  0  0  0  0  0  0  0  0  0  0
    4.7026    2.0891    0.0000 C   0  0  0  0  0  0  0  0  0  0  0  0
    2.8660   -1.9055    0.0000 C   0  0  0  0  0  0  0  0  0  0  0  0
    4.5981   -1.9055    0.0000 C   0  0  0  0  0  0  0  0  0  0  0  0
    5.5116    0.6878    0.0000 C   0  0  0  0  0  0  0  0  0  0  0  0
    3.9595    2.7582    0.0000 C   0  0  0  0  0  0  0  0  0  0  0  0
    6.1808    1.4309    0.0000 C   0  0  0  0  0  0  0  0  0  0  0  0
    2.8660   -2.9055    0.0000 C   0  0  0  0  0  0  0  0  0  0  0  0
    4.5981   -2.9055    0.0000 C   0  0  0  0  0  0  0  0  0  0  0  0
    6.5116   -0.4987    0.0000 C   0  0  0  0  0  0  0  0  0  0  0  0
    3.7320   -3.4055    0.0000 C   0  0  0  0  0  0  0  0  0  0  0  0
    4.1674    3.7363    0.0000 C   0  0  0  0  0  0  0  0  0  0  0  0
    3.0084    2.4492    0.0000 C   0  0  0  0  0  0  0  0  0  0  0  0
    6.6808   -2.1079    0.0000 C   0  0  0  0  0  0  0  0  0  0  0  0
    3.4242    4.4055    0.0000 C   0  0  0  0  0  0  0  0  0  0  0  0
    2.2653    3.1183    0.0000 C   0  0  0  0  0  0  0  0  0  0  0  0
    2.4732    4.0964    0.0000 C   0  0  0  0  0  0  0  0  0  0  0  0
    3.5200    1.1771    0.0000 H   0  0  0  0  0  0  0  0  0  0  0  0
    3.1215    0.4869    0.0000 H   0  0  0  0  0  0  0  0  0  0  0  0
    5.2070   -0.0069    0.0000 H   0  0  0  0  0  0  0  0  0  0  0  0
    4.5716   -1.0043    0.0000 H   0  0  0  0  0  0  0  0  0  0  0  0
    2.4220    0.1315    0.0000 H   0  0  0  0  0  0  0  0  0  0  0  0
    5.1350   -1.5955    0.0000 H   0  0  0  0  0  0  0  0  0  0  0  0
    5.6405    0.0813    0.0000 H   0  0  0  0  0  0  0  0  0  0  0  0
    6.7974    1.3661    0.0000 H   0  0  0  0  0  0  0  0  0  0  0  0
    2.3291   -3.2155    0.0000 H   0  0  0  0  0  0  0  0  0  0  0  0
    5.1350   -3.2155    0.0000 H   0  0  0  0  0  0  0  0  0  0  0  0
    6.6405    0.1077    0.0000 H   0  0  0  0  0  0  0  0  0  0  0  0
    4.7570    3.9279    0.0000 H   0  0  0  0  0  0  0  0  0  0  0  0
    2.8795    1.8427    0.0000 H   0  0  0  0  0  0  0  0  0  0  0  0
    6.9329   -2.6743    0.0000 H   0  0  0  0  0  0  0  0  0  0  0  0
    3.5531    5.0119    0.0000 H   0  0  0  0  0  0  0  0  0  0  0  0
    1.6756    2.9267    0.0000 H   0  0  0  0  0  0  0  0  0  0  0  0
    2.0124    4.5113    0.0000 H   0  0  0  0  0  0  0  0  0  0  0  0
  1 14  1  0  0  0  0
  2 22  1  0  0  0  0
  3  9  1  0  0  0  0
  3 33  1  0  0  0  0
  4 10  1  0  0  0  0
  4 13  1  0  0  0  0
  4 16  1  0  0  0  0
  5  7  1  0  0  0  0
  5 11  1  0  0  0  0
  5 21  1  0  0  0  0
  6 13  2  0  0  0  0
  6 18  1  0  0  0  0
  7 25  2  0  0  0  0
  8 21  2  0  0  0  0
  8 25  1  0  0  0  0
  9 10  1  0  0  0  0
  9 11  1  0  0  0  0
  9 12  1  0  0  0  0
 10 29  1  0  0  0  0
 10 30  1  0  0  0  0
 11 31  1  0  0  0  0
 11 32  1  0  0  0  0
 12 14  2  0  0  0  0
 12 15  1  0  0  0  0
 13 17  1  0  0  0  0
 14 19  1  0  0  0  0
 15 20  2  0  0  0  0
 15 34  1  0  0  0  0
 16 18  2  0  0  0  0
 16 35  1  0  0  0  0
 17 23  2  0  0  0  0
 17 24  1  0  0  0  0
 18 36  1  0  0  0  0
 19 22  2  0  0  0  0
 19 37  1  0  0  0  0
 20 22  1  0  0  0  0
 20 38  1  0  0  0  0
 21 39  1  0  0  0  0
 23 26  1  0  0  0  0
 23 40  1  0  0  0  0
 24 27  2  0  0  0  0
 24 41  1  0  0  0  0
 25 42  1  0  0  0  0
 26 28  2  0  0  0  0
 26 43  1  0  0  0  0
 27 28  1  0  0  0  0
 27 44  1  0  0  0  0
 28 45  1  0  0  0  0
M  END
> <PUBCHEM_COMPOUND_CID>
513482
> <PUBCHEM_COMPOUND_CANONICALIZED>
1
> <PUBCHEM_CACTVS_COMPLEXITY>
509
> <PUBCHEM_CACTVS_HBOND_ACCEPTOR>
6
> <PUBCHEM_CACTVS_HBOND_DONOR>
1
> <PUBCHEM_CACTVS_ROTATABLE_BOND>
6
> <PUBCHEM_CACTVS_SUBSKEYS>
AAADceB7oYAAAAAAAAAAAAAAAAAAAWLAAAAwYAAAAAAAAAAB9AAAHwAICAAADETBmww9kJcMEgCiAjJnZACSgC8xkqAdyCA4PJiKbqKA2RGUcAhswAOYmCeQwOAOgAAAAAAAAAAAAAAAAAAAAAAAAAAAAA==
> <PUBCHEM_IUPAC_OPENEYE_NAME>
2-(2,4-difluorophenyl)-1-(2-phenylimidazol-1-yl)-3-(1,2,4-triazol-1-yl)propan-2-ol
> <PUBCHEM_IUPAC_CAS_NAME>
2-(2,4-difluorophenyl)-1-(2-phenyl-1-imidazolyl)-3-(1,2,4-triazol-1-yl)-2-propanol
> <PUBCHEM_IUPAC_NAME_MARKUP>
2-(2,4-difluorophenyl)-1-(2-phenylimidazol-1-yl)-3-(1,2,4-triazol-1-yl)propan-2-ol
> <PUBCHEM_IUPAC_NAME>
2-(2,4-difluorophenyl)-1-(2-phenylimidazol-1-yl)-3-(1,2,4-triazol-1-yl)propan-2-ol
> <PUBCHEM_IUPAC_SYSTEMATIC_NAME>
2-[2,4-bis(fluoranyl)phenyl]-1-(2-phenylimidazol-1-yl)-3-(1,2,4-triazol-1-yl)propan-2-ol
> <PUBCHEM_IUPAC_TRADITIONAL_NAME>
2-(2,4-difluorophenyl)-1-(2-phenylimidazol-1-yl)-3-(1,2,4-triazol-1-yl)propan-2-ol
> <PUBCHEM_IUPAC_INCHI>
InChI=1S/C20H17F2N5O/c21-16-6-7-17(18(22)10-16)20(28,12-27-14-23-13-25-27)11-26-9-8-24-19(26)15-4-2-1-3-5-15/h1-10,13-14,28H,11-12H2
> <PUBCHEM_IUPAC_INCHIKEY>
CMVDSXVCCXLPDX-UHFFFAOYSA-N
> <PUBCHEM_XLOGP3_AA>
2.2
> <PUBCHEM_EXACT_MASS>
381.14011651
> <PUBCHEM_MOLECULAR_FORMULA>
C20H17F2N5O
> <PUBCHEM_MOLECULAR_WEIGHT>
381.4
> <PUBCHEM_OPENEYE_CAN_SMILES>
C1=CC=C(C=C1)C2=NC=CN2CC(CN3C=NC=N3)(C4=C(C=C(C=C4)F)F)O
> <PUBCHEM_OPENEYE_ISO_SMILES>
C1=CC=C(C=C1)C2=NC=CN2CC(CN3C=NC=N3)(C4=C(C=C(C=C4)F)F)O
> <PUBCHEM_CACTVS_TPSA>
68.8
> <PUBCHEM_MONOISOTOPIC_WEIGHT>
381.14011651
> <PUBCHEM_TOTAL_CHARGE>
0
> <PUBCHEM_HEAVY_ATOM_COUNT>
28
> <PUBCHEM_ATOM_DEF_STEREO_COUNT>
0
> <PUBCHEM_ATOM_UDEF_STEREO_COUNT>
1
> <PUBCHEM_BOND_DEF_STEREO_COUNT>
0
> <PUBCHEM_BOND_UDEF_STEREO_COUNT>
0
> <PUBCHEM_ISOTOPIC_ATOM_COUNT>
0
> <PUBCHEM_COMPONENT_COUNT>
1
> <PUBCHEM_CACTVS_TAUTO_COUNT>
-1
> <PUBCHEM_COORDINATE_TYPE>
1
5
255
> <PUBCHEM_BONDANNOTATIONS>
12  14  8
12  15  8
14  19  8
15  20  8
16  18  8
17  23  8
17  24  8
19  22  8
20  22  8
23  26  8
24  27  8
26  28  8
27  28  8
9  3  3
4  13  8
4  16  8
5  21  8
5  7  8
6  13  8
6  18  8
7  25  8
8  21  8
8  25  8
$$$$
