513439
  -OEChem-10302200282D
 98103  0     1  0  0  0  0  0999 V2000
    4.5037   -9.8175    0.0000 O   0  0  0  0  0  0  0  0  0  0  0  0
    8.3411   -7.4905    0.0000 O   0  0  0  0  0  0  0  0  0  0  0  0
    7.8853   -9.4874    0.0000 O   0  0  0  0  0  0  0  0  0  0  0  0
    8.9974   -4.5632    0.0000 O   0  0  0  0  0  0  0  0  0  0  0  0
    9.3652   -1.3218    0.0000 O   0  0  0  0  0  0  0  0  0  0  0  0
    7.7575    1.5167    0.0000 O   0  0  0  0  0  0  0  0  0  0  0  0
    5.3206    5.7646    0.0000 O   0  0  0  0  0  0  0  0  0  0  0  0
    3.6027   -8.3836    0.0000 N   0  0  0  0  0  0  0  0  0  0  0  0
    5.0037   -6.6268    0.0000 N   0  0  0  0  0  0  0  0  0  0  0  0
   10.6875   -4.9421    0.0000 N   0  0  0  0  0  0  0  0  0  0  0  0
   11.7308   -2.5741    0.0000 N   0  0  0  0  0  0  0  0  0  0  0  0
   10.4075    1.8940    0.0000 N   0  0  0  0  0  0  0  0  0  0  0  0
    6.2009    3.8706    0.0000 N   0  0  0  0  0  0  0  0  0  0  0  0
   10.9552   -0.6349    0.0000 N   0  0  0  0  0  0  0  0  0  0  0  0
    8.6401    3.0070    0.0000 N   0  0  0  0  0  0  0  0  0  0  0  0
    6.9107    6.4514    0.0000 N   0  0  0  0  0  0  0  0  0  0  0  0
    7.3110    9.8923    0.0000 N   0  0  0  0  0  0  0  0  0  0  0  0
    5.7210    9.2055    0.0000 N   0  0  0  0  0  0  0  0  0  0  0  0
    3.3802   -7.4086    0.0000 C   0  0  1  0  0  0  0  0  0  0  0  0
    2.3899   -7.3221    0.0000 C   0  0  0  0  0  0  0  0  0  0  0  0
    2.0000   -8.2365    0.0000 C   0  0  0  0  0  0  0  0  0  0  0  0
    2.7480   -8.8912    0.0000 C   0  0  0  0  0  0  0  0  0  0  0  0
    4.0037   -6.6268    0.0000 C   0  0  0  0  0  0  0  0  0  0  0  0
    4.5037   -8.8175    0.0000 C   0  0  0  0  0  0  0  0  0  0  0  0
    5.4047   -8.3836    0.0000 C   0  0  0  0  0  0  0  0  0  0  0  0
    5.6272   -7.4087    0.0000 C   0  0  0  0  0  0  0  0  0  0  0  0
    6.1572   -9.1038    0.0000 C   0  0  0  0  0  0  0  0  0  0  0  0
    6.6177   -7.0863    0.0000 C   0  0  0  0  0  0  0  0  0  0  0  0
    7.1549   -8.8044    0.0000 C   0  0  0  0  0  0  0  0  0  0  0  0
    7.3867   -7.7889    0.0000 C   0  0  0  0  0  0  0  0  0  0  0  0
    8.5599   -6.5147    0.0000 C   0  0  0  0  0  0  0  0  0  0  0  0
    9.5143   -6.2163    0.0000 C   0  0  0  0  0  0  0  0  0  0  0  0
    7.6590  -10.4615    0.0000 C   0  0  0  0  0  0  0  0  0  0  0  0
    9.7331   -5.2405    0.0000 C   0  0  0  0  0  0  0  0  0  0  0  0
   10.9063   -3.9663    0.0000 C   0  0  0  0  0  0  0  0  0  0  0  0
   10.7551   -2.3554    0.0000 C   0  0  0  0  0  0  0  0  0  0  0  0
    9.4894    1.4975    0.0000 C   0  0  0  0  0  0  0  0  0  0  0  0
   10.2455   -3.2158    0.0000 C   0  0  0  0  0  0  0  0  0  0  0  0
   11.8243   -3.5698    0.0000 C   0  0  0  0  0  0  0  0  0  0  0  0
   10.5587    0.2831    0.0000 C   0  0  0  0  0  0  0  0  0  0  0  0
    9.5829    0.5019    0.0000 C   0  0  0  0  0  0  0  0  0  0  0  0
   11.0683    1.1435    0.0000 C   0  0  0  0  0  0  0  0  0  0  0  0
    7.7797    3.5166    0.0000 C   0  0  0  0  0  0  0  0  0  0  0  0
   10.3585   -1.4373    0.0000 C   0  0  0  0  0  0  0  0  0  0  0  0
    6.7105    4.7310    0.0000 C   0  0  0  0  0  0  0  0  0  0  0  0
    8.6290    2.0071    0.0000 C   0  0  0  0  0  0  0  0  0  0  0  0
    7.6862    4.5122    0.0000 C   0  0  0  0  0  0  0  0  0  0  0  0
    6.8617    3.1200    0.0000 C   0  0  0  0  0  0  0  0  0  0  0  0
   12.4814   -1.9133    0.0000 C   0  0  0  0  0  0  0  0  0  0  0  0
   10.6262    2.8698    0.0000 C   0  0  0  0  0  0  0  0  0  0  0  0
    6.3139    5.6490    0.0000 C   0  0  0  0  0  0  0  0  0  0  0  0
    5.2053    3.7771    0.0000 C   0  0  0  0  0  0  0  0  0  0  0  0
    6.5141    7.3694    0.0000 C   0  0  0  0  0  0  0  0  0  0  0  0
    7.1108    8.1719    0.0000 C   0  0  0  0  0  0  0  0  0  0  0  0
    6.7143    9.0899    0.0000 C   0  0  0  0  0  0  0  0  0  0  0  0
    3.0451   -6.6275    0.0000 H   0  0  0  0  0  0  0  0  0  0  0  0
    2.5085   -6.7136    0.0000 H   0  0  0  0  0  0  0  0  0  0  0  0
    1.7972   -7.1402    0.0000 H   0  0  0  0  0  0  0  0  0  0  0  0
    1.4584   -7.9347    0.0000 H   0  0  0  0  0  0  0  0  0  0  0  0
    1.6430   -8.7434    0.0000 H   0  0  0  0  0  0  0  0  0  0  0  0
    2.2929   -9.3123    0.0000 H   0  0  0  0  0  0  0  0  0  0  0  0
    3.1189   -9.3880    0.0000 H   0  0  0  0  0  0  0  0  0  0  0  0
    3.7347   -6.0682    0.0000 H   0  0  0  0  0  0  0  0  0  0  0  0
    6.0123   -9.7066    0.0000 H   0  0  0  0  0  0  0  0  0  0  0  0
    6.7487   -6.4803    0.0000 H   0  0  0  0  0  0  0  0  0  0  0  0
    8.4804   -5.8998    0.0000 H   0  0  0  0  0  0  0  0  0  0  0  0
    7.9406   -6.4862    0.0000 H   0  0  0  0  0  0  0  0  0  0  0  0
    9.5938   -6.8312    0.0000 H   0  0  0  0  0  0  0  0  0  0  0  0
   10.1337   -6.2448    0.0000 H   0  0  0  0  0  0  0  0  0  0  0  0
    7.0551  -10.3212    0.0000 H   0  0  0  0  0  0  0  0  0  0  0  0
    7.5188  -11.0654    0.0000 H   0  0  0  0  0  0  0  0  0  0  0  0
    8.2630  -10.6018    0.0000 H   0  0  0  0  0  0  0  0  0  0  0  0
   11.1437   -5.3620    0.0000 H   0  0  0  0  0  0  0  0  0  0  0  0
    9.6282   -3.2737    0.0000 H   0  0  0  0  0  0  0  0  0  0  0  0
   12.3578   -3.8857    0.0000 H   0  0  0  0  0  0  0  0  0  0  0  0
    9.1176    0.0921    0.0000 H   0  0  0  0  0  0  0  0  0  0  0  0
   11.6856    1.2015    0.0000 H   0  0  0  0  0  0  0  0  0  0  0  0
   11.5711   -0.7066    0.0000 H   0  0  0  0  0  0  0  0  0  0  0  0
    8.1516    4.9220    0.0000 H   0  0  0  0  0  0  0  0  0  0  0  0
    6.7261    2.5151    0.0000 H   0  0  0  0  0  0  0  0  0  0  0  0
    9.1805    3.3110    0.0000 H   0  0  0  0  0  0  0  0  0  0  0  0
   12.8911   -2.3786    0.0000 H   0  0  0  0  0  0  0  0  0  0  0  0
   12.9467   -1.5036    0.0000 H   0  0  0  0  0  0  0  0  0  0  0  0
   12.0717   -1.4480    0.0000 H   0  0  0  0  0  0  0  0  0  0  0  0
   11.2312    2.7342    0.0000 H   0  0  0  0  0  0  0  0  0  0  0  0
   10.7619    3.4748    0.0000 H   0  0  0  0  0  0  0  0  0  0  0  0
   10.0212    3.0055    0.0000 H   0  0  0  0  0  0  0  0  0  0  0  0
    5.1473    4.3944    0.0000 H   0  0  0  0  0  0  0  0  0  0  0  0
    4.5880    3.7192    0.0000 H   0  0  0  0  0  0  0  0  0  0  0  0
    5.2632    3.1598    0.0000 H   0  0  0  0  0  0  0  0  0  0  0  0
    7.5265    6.3798    0.0000 H   0  0  0  0  0  0  0  0  0  0  0  0
    6.0884    7.8202    0.0000 H   0  0  0  0  0  0  0  0  0  0  0  0
    5.9963    7.0285    0.0000 H   0  0  0  0  0  0  0  0  0  0  0  0
    7.5365    7.7211    0.0000 H   0  0  0  0  0  0  0  0  0  0  0  0
    7.6287    8.5129    0.0000 H   0  0  0  0  0  0  0  0  0  0  0  0
    7.0652   10.4615    0.0000 H   0  0  0  0  0  0  0  0  0  0  0  0
    7.9269    9.8207    0.0000 H   0  0  0  0  0  0  0  0  0  0  0  0
    5.4751    9.7746    0.0000 H   0  0  0  0  0  0  0  0  0  0  0  0
  1 24  2  0  0  0  0
  2 30  1  0  0  0  0
  2 31  1  0  0  0  0
  3 29  1  0  0  0  0
  3 33  1  0  0  0  0
  4 34  2  0  0  0  0
  5 44  2  0  0  0  0
  6 46  2  0  0  0  0
  7 51  2  0  0  0  0
  8 19  1  0  0  0  0
  8 22  1  0  0  0  0
  8 24  1  0  0  0  0
  9 23  2  0  0  0  0
  9 26  1  0  0  0  0
 10 34  1  0  0  0  0
 10 35  1  0  0  0  0
 10 73  1  0  0  0  0
 11 36  1  0  0  0  0
 11 39  1  0  0  0  0
 11 49  1  0  0  0  0
 12 37  1  0  0  0  0
 12 42  1  0  0  0  0
 12 50  1  0  0  0  0
 13 45  1  0  0  0  0
 13 48  1  0  0  0  0
 13 52  1  0  0  0  0
 14 40  1  0  0  0  0
 14 44  1  0  0  0  0
 14 78  1  0  0  0  0
 15 43  1  0  0  0  0
 15 46  1  0  0  0  0
 15 81  1  0  0  0  0
 16 51  1  0  0  0  0
 16 53  1  0  0  0  0
 16 91  1  0  0  0  0
 17 55  1  0  0  0  0
 17 96  1  0  0  0  0
 17 97  1  0  0  0  0
 18 55  2  0  0  0  0
 18 98  1  0  0  0  0
 19 20  1  0  0  0  0
 19 23  1  0  0  0  0
 19 56  1  6  0  0  0
 20 21  1  0  0  0  0
 20 57  1  0  0  0  0
 20 58  1  0  0  0  0
 21 22  1  0  0  0  0
 21 59  1  0  0  0  0
 21 60  1  0  0  0  0
 22 61  1  0  0  0  0
 22 62  1  0  0  0  0
 23 63  1  0  0  0  0
 24 25  1  0  0  0  0
 25 26  1  0  0  0  0
 25 27  2  0  0  0  0
 26 28  2  0  0  0  0
 27 29  1  0  0  0  0
 27 64  1  0  0  0  0
 28 30  1  0  0  0  0
 28 65  1  0  0  0  0
 29 30  2  0  0  0  0
 31 32  1  0  0  0  0
 31 66  1  0  0  0  0
 31 67  1  0  0  0  0
 32 34  1  0  0  0  0
 32 68  1  0  0  0  0
 32 69  1  0  0  0  0
 33 70  1  0  0  0  0
 33 71  1  0  0  0  0
 33 72  1  0  0  0  0
 35 38  1  0  0  0  0
 35 39  2  0  0  0  0
 36 38  2  0  0  0  0
 36 44  1  0  0  0  0
 37 41  2  0  0  0  0
 37 46  1  0  0  0  0
 38 74  1  0  0  0  0
 39 75  1  0  0  0  0
 40 41  1  0  0  0  0
 40 42  2  0  0  0  0
 41 76  1  0  0  0  0
 42 77  1  0  0  0  0
 43 47  1  0  0  0  0
 43 48  2  0  0  0  0
 45 47  2  0  0  0  0
 45 51  1  0  0  0  0
 47 79  1  0  0  0  0
 48 80  1  0  0  0  0
 49 82  1  0  0  0  0
 49 83  1  0  0  0  0
 49 84  1  0  0  0  0
 50 85  1  0  0  0  0
 50 86  1  0  0  0  0
 50 87  1  0  0  0  0
 52 88  1  0  0  0  0
 52 89  1  0  0  0  0
 52 90  1  0  0  0  0
 53 54  1  0  0  0  0
 53 92  1  0  0  0  0
 53 93  1  0  0  0  0
 54 55  1  0  0  0  0
 54 94  1  0  0  0  0
 54 95  1  0  0  0  0
M  END
> <PUBCHEM_COMPOUND_CID>
513439
> <PUBCHEM_COMPOUND_CANONICALIZED>
1
> <PUBCHEM_CACTVS_COMPLEXITY>
1480
> <PUBCHEM_CACTVS_HBOND_ACCEPTOR>
9
> <PUBCHEM_CACTVS_HBOND_DONOR>
6
> <PUBCHEM_CACTVS_ROTATABLE_BOND>
14
> <PUBCHEM_CACTVS_SUBSKEYS>
AAADcfB/+AAAAAAAAAAAAAAAAAAAAWLFiwAwAAAABAAAAACB/AAAHgAQAAAADCzhngY/xpPMFACoAzd3dACCiCC3MiAA2KG+/NgNZv7E9fuWParm9hnK6ce+3RPOIEABAgACQABAgAIEAASAAAAAAAAAAA==
> <PUBCHEM_IUPAC_OPENEYE_NAME>
4-[3-[[(6aS)-2-methoxy-11-oxo-6a,7,8,9-tetrahydropyrrolo[2,1-c][1,4]benzodiazepin-3-yl]oxy]propanoylamino]-N-[5-[[5-[(3-amino-3-imino-propyl)carbamoyl]-1-methyl-pyrrol-3-yl]carbamoyl]-1-methyl-pyrrol-3-yl]-1-methyl-pyrrole-2-carboxamide
> <PUBCHEM_IUPAC_CAS_NAME>
4-[[3-[[(6aS)-2-methoxy-11-oxo-6a,7,8,9-tetrahydropyrrolo[2,1-c][1,4]benzodiazepin-3-yl]oxy]-1-oxopropyl]amino]-N-[5-[[[5-[[(3-amino-3-iminopropyl)amino]-oxomethyl]-1-methyl-3-pyrrolyl]amino]-oxomethyl]-1-methyl-3-pyrrolyl]-1-methyl-2-pyrrolecarboxamide
> <PUBCHEM_IUPAC_NAME_MARKUP>
4-[3-[[(6<I>a</I><I>S</I>)-2-methoxy-11-oxo-6<I>a</I>,7,8,9-tetrahydropyrrolo[2,1-c][1,4]benzodiazepin-3-yl]oxy]propanoylamino]-<I>N</I>-[5-[[5-[(3-amino-3-iminopropyl)carbamoyl]-1-methylpyrrol-3-yl]carbamoyl]-1-methylpyrrol-3-yl]-1-methylpyrrole-2-carboxamide
> <PUBCHEM_IUPAC_NAME>
4-[3-[[(6aS)-2-methoxy-11-oxo-6a,7,8,9-tetrahydropyrrolo[2,1-c][1,4]benzodiazepin-3-yl]oxy]propanoylamino]-N-[5-[[5-[(3-amino-3-iminopropyl)carbamoyl]-1-methylpyrrol-3-yl]carbamoyl]-1-methylpyrrol-3-yl]-1-methylpyrrole-2-carboxamide
> <PUBCHEM_IUPAC_SYSTEMATIC_NAME>
4-[3-[[(6aS)-2-methoxy-11-oxidanylidene-6a,7,8,9-tetrahydropyrrolo[2,1-c][1,4]benzodiazepin-3-yl]oxy]propanoylamino]-N-[5-[[5-[(3-azanyl-3-azanylidene-propyl)carbamoyl]-1-methyl-pyrrol-3-yl]carbamoyl]-1-methyl-pyrrol-3-yl]-1-methyl-pyrrole-2-carboxamide
> <PUBCHEM_IUPAC_TRADITIONAL_NAME>
4-[3-[[(6aS)-11-keto-2-methoxy-6a,7,8,9-tetrahydropyrrolo[2,1-c][1,4]benzodiazepin-3-yl]oxy]propanoylamino]-N-[5-[[5-[(3-amino-3-imino-propyl)carbamoyl]-1-methyl-pyrrol-3-yl]carbamoyl]-1-methyl-pyrrol-3-yl]-1-methyl-pyrrole-2-carboxamide
> <PUBCHEM_IUPAC_INCHI>
InChI=1S/C37H43N11O7/c1-45-19-22(13-27(45)34(50)40-9-7-32(38)39)43-36(52)29-14-23(20-47(29)3)44-35(51)28-12-21(18-46(28)2)42-33(49)8-11-55-31-16-26-25(15-30(31)54-4)37(53)48-10-5-6-24(48)17-41-26/h12-20,24H,5-11H2,1-4H3,(H3,38,39)(H,40,50)(H,42,49)(H,43,52)(H,44,51)/t24-/m0/s1
> <PUBCHEM_IUPAC_INCHIKEY>
GJXSTSJBWPTDMU-DEOSSOPVSA-N
> <PUBCHEM_XLOGP3_AA>
-1
> <PUBCHEM_EXACT_MASS>
753.33469275
> <PUBCHEM_MOLECULAR_FORMULA>
C37H43N11O7
> <PUBCHEM_MOLECULAR_WEIGHT>
753.8
> <PUBCHEM_OPENEYE_CAN_SMILES>
CN1C=C(C=C1C(=O)NC2=CN(C(=C2)C(=O)NC3=CN(C(=C3)C(=O)NCCC(=N)N)C)C)NC(=O)CCOC4=C(C=C5C(=C4)N=CC6CCCN6C5=O)OC
> <PUBCHEM_OPENEYE_ISO_SMILES>
CN1C=C(C=C1C(=O)NC2=CN(C(=C2)C(=O)NC3=CN(C(=C3)C(=O)NCCC(=N)N)C)C)NC(=O)CCOC4=C(C=C5C(=C4)N=C[C@@H]6CCCN6C5=O)OC
> <PUBCHEM_CACTVS_TPSA>
232
> <PUBCHEM_MONOISOTOPIC_WEIGHT>
753.33469275
> <PUBCHEM_TOTAL_CHARGE>
0
> <PUBCHEM_HEAVY_ATOM_COUNT>
55
> <PUBCHEM_ATOM_DEF_STEREO_COUNT>
1
> <PUBCHEM_ATOM_UDEF_STEREO_COUNT>
0
> <PUBCHEM_BOND_DEF_STEREO_COUNT>
0
> <PUBCHEM_BOND_UDEF_STEREO_COUNT>
0
> <PUBCHEM_ISOTOPIC_ATOM_COUNT>
0
> <PUBCHEM_COMPONENT_COUNT>
1
> <PUBCHEM_CACTVS_TAUTO_COUNT>
-1
> <PUBCHEM_COORDINATE_TYPE>
1
5
255
> <PUBCHEM_BONDANNOTATIONS>
11  36  8
11  39  8
12  37  8
12  42  8
13  45  8
13  48  8
19  56  6
25  26  8
25  27  8
26  28  8
27  29  8
28  30  8
29  30  8
35  38  8
35  39  8
36  38  8
37  41  8
40  41  8
40  42  8
43  47  8
43  48  8
45  47  8
$$$$
