513455
  -OEChem-10302200282D
 74 73  0     1  0  0  0  0  0999 V2000
    5.4641    3.0000    0.0000 O   0  0  0  0  0  0  0  0  0  0  0  0
    6.3301    4.5000    0.0000 O   0  0  0  0  0  0  0  0  0  0  0  0
    5.4641    6.0000    0.0000 O   0  0  0  0  0  0  0  0  0  0  0  0
    4.5981    1.5000    0.0000 O   0  0  0  0  0  0  0  0  0  0  0  0
    2.8660    3.5000    0.0000 O   0  0  0  0  0  0  0  0  0  0  0  0
    3.7320    5.0000    0.0000 N   0  0  0  0  0  0  0  0  0  0  0  0
    8.0622   -2.5000    0.0000 C   0  0  0  0  0  0  0  0  0  0  0  0
    8.9282   -3.0000    0.0000 C   0  0  0  0  0  0  0  0  0  0  0  0
    8.0622   -1.5000    0.0000 C   0  0  0  0  0  0  0  0  0  0  0  0
    8.9282   -4.0000    0.0000 C   0  0  0  0  0  0  0  0  0  0  0  0
    7.1962   -1.0000    0.0000 C   0  0  0  0  0  0  0  0  0  0  0  0
    9.7942   -4.5000    0.0000 C   0  0  0  0  0  0  0  0  0  0  0  0
    7.1962   -0.0000    0.0000 C   0  0  0  0  0  0  0  0  0  0  0  0
    9.7942   -5.5000    0.0000 C   0  0  0  0  0  0  0  0  0  0  0  0
    6.3301    0.5000    0.0000 C   0  0  0  0  0  0  0  0  0  0  0  0
   10.6603   -6.0000    0.0000 C   0  0  0  0  0  0  0  0  0  0  0  0
    6.3301    1.5000    0.0000 C   0  0  0  0  0  0  0  0  0  0  0  0
   10.6603   -7.0000    0.0000 C   0  0  0  0  0  0  0  0  0  0  0  0
    4.5981    4.5000    0.0000 C   0  0  3  0  0  0  0  0  0  0  0  0
    4.5981    3.5000    0.0000 C   0  0  0  0  0  0  0  0  0  0  0  0
    5.4641    5.0000    0.0000 C   0  0  0  0  0  0  0  0  0  0  0  0
    5.4641    2.0000    0.0000 C   0  0  0  0  0  0  0  0  0  0  0  0
   11.5263   -7.5000    0.0000 C   0  0  0  0  0  0  0  0  0  0  0  0
    2.8660    4.5000    0.0000 C   0  0  0  0  0  0  0  0  0  0  0  0
    7.1962    5.0000    0.0000 C   0  0  0  0  0  0  0  0  0  0  0  0
    6.3301    6.5000    0.0000 C   0  0  0  0  0  0  0  0  0  0  0  0
    2.0000    5.0000    0.0000 C   0  0  0  0  0  0  0  0  0  0  0  0
    8.0622    4.5000    0.0000 C   0  0  0  0  0  0  0  0  0  0  0  0
    6.3301    7.5000    0.0000 C   0  0  0  0  0  0  0  0  0  0  0  0
    7.4516   -2.3923    0.0000 H   0  0  0  0  0  0  0  0  0  0  0  0
    7.8501   -3.0826    0.0000 H   0  0  0  0  0  0  0  0  0  0  0  0
    9.5388   -3.1077    0.0000 H   0  0  0  0  0  0  0  0  0  0  0  0
    9.1403   -2.4174    0.0000 H   0  0  0  0  0  0  0  0  0  0  0  0
    8.6728   -1.6077    0.0000 H   0  0  0  0  0  0  0  0  0  0  0  0
    8.2742   -0.9174    0.0000 H   0  0  0  0  0  0  0  0  0  0  0  0
    8.3176   -3.8923    0.0000 H   0  0  0  0  0  0  0  0  0  0  0  0
    8.7162   -4.5826    0.0000 H   0  0  0  0  0  0  0  0  0  0  0  0
    6.5856   -0.8923    0.0000 H   0  0  0  0  0  0  0  0  0  0  0  0
    6.9841   -1.5826    0.0000 H   0  0  0  0  0  0  0  0  0  0  0  0
   10.4048   -4.6077    0.0000 H   0  0  0  0  0  0  0  0  0  0  0  0
   10.0063   -3.9174    0.0000 H   0  0  0  0  0  0  0  0  0  0  0  0
    7.8067   -0.1077    0.0000 H   0  0  0  0  0  0  0  0  0  0  0  0
    7.4082    0.5826    0.0000 H   0  0  0  0  0  0  0  0  0  0  0  0
    9.1836   -5.3923    0.0000 H   0  0  0  0  0  0  0  0  0  0  0  0
    9.5822   -6.0826    0.0000 H   0  0  0  0  0  0  0  0  0  0  0  0
    5.7196    0.6077    0.0000 H   0  0  0  0  0  0  0  0  0  0  0  0
    6.1181   -0.0826    0.0000 H   0  0  0  0  0  0  0  0  0  0  0  0
   11.2708   -6.1077    0.0000 H   0  0  0  0  0  0  0  0  0  0  0  0
   10.8723   -5.4174    0.0000 H   0  0  0  0  0  0  0  0  0  0  0  0
    6.9407    1.3923    0.0000 H   0  0  0  0  0  0  0  0  0  0  0  0
    6.5422    2.0826    0.0000 H   0  0  0  0  0  0  0  0  0  0  0  0
   10.0497   -6.8923    0.0000 H   0  0  0  0  0  0  0  0  0  0  0  0
   10.4482   -7.5826    0.0000 H   0  0  0  0  0  0  0  0  0  0  0  0
    4.5981    5.1200    0.0000 H   0  0  0  0  0  0  0  0  0  0  0  0
    3.9875    3.6077    0.0000 H   0  0  0  0  0  0  0  0  0  0  0  0
    4.3860    2.9174    0.0000 H   0  0  0  0  0  0  0  0  0  0  0  0
    5.4641    4.3800    0.0000 H   0  0  0  0  0  0  0  0  0  0  0  0
   11.2163   -8.0369    0.0000 H   0  0  0  0  0  0  0  0  0  0  0  0
   12.0632   -7.8100    0.0000 H   0  0  0  0  0  0  0  0  0  0  0  0
   11.8363   -6.9631    0.0000 H   0  0  0  0  0  0  0  0  0  0  0  0
    3.7320    5.6200    0.0000 H   0  0  0  0  0  0  0  0  0  0  0  0
    7.5947    5.4750    0.0000 H   0  0  0  0  0  0  0  0  0  0  0  0
    6.7976    5.4750    0.0000 H   0  0  0  0  0  0  0  0  0  0  0  0
    6.5422    5.9174    0.0000 H   0  0  0  0  0  0  0  0  0  0  0  0
    6.9407    6.6077    0.0000 H   0  0  0  0  0  0  0  0  0  0  0  0
    2.3100    5.5369    0.0000 H   0  0  0  0  0  0  0  0  0  0  0  0
    1.4631    5.3100    0.0000 H   0  0  0  0  0  0  0  0  0  0  0  0
    1.6900    4.4631    0.0000 H   0  0  0  0  0  0  0  0  0  0  0  0
    7.7522    3.9631    0.0000 H   0  0  0  0  0  0  0  0  0  0  0  0
    8.5991    4.1900    0.0000 H   0  0  0  0  0  0  0  0  0  0  0  0
    8.3722    5.0369    0.0000 H   0  0  0  0  0  0  0  0  0  0  0  0
    6.9501    7.5000    0.0000 H   0  0  0  0  0  0  0  0  0  0  0  0
    6.3301    8.1200    0.0000 H   0  0  0  0  0  0  0  0  0  0  0  0
    5.7101    7.5000    0.0000 H   0  0  0  0  0  0  0  0  0  0  0  0
  1 20  1  0  0  0  0
  1 22  1  0  0  0  0
  2 21  1  0  0  0  0
  2 25  1  0  0  0  0
  3 21  1  0  0  0  0
  3 26  1  0  0  0  0
  4 22  2  0  0  0  0
  5 24  2  0  0  0  0
  6 19  1  0  0  0  0
  6 24  1  0  0  0  0
  6 61  1  0  0  0  0
  7  8  1  0  0  0  0
  7  9  1  0  0  0  0
  7 30  1  0  0  0  0
  7 31  1  0  0  0  0
  8 10  1  0  0  0  0
  8 32  1  0  0  0  0
  8 33  1  0  0  0  0
  9 11  1  0  0  0  0
  9 34  1  0  0  0  0
  9 35  1  0  0  0  0
 10 12  1  0  0  0  0
 10 36  1  0  0  0  0
 10 37  1  0  0  0  0
 11 13  1  0  0  0  0
 11 38  1  0  0  0  0
 11 39  1  0  0  0  0
 12 14  1  0  0  0  0
 12 40  1  0  0  0  0
 12 41  1  0  0  0  0
 13 15  1  0  0  0  0
 13 42  1  0  0  0  0
 13 43  1  0  0  0  0
 14 16  1  0  0  0  0
 14 44  1  0  0  0  0
 14 45  1  0  0  0  0
 15 17  1  0  0  0  0
 15 46  1  0  0  0  0
 15 47  1  0  0  0  0
 16 18  1  0  0  0  0
 16 48  1  0  0  0  0
 16 49  1  0  0  0  0
 17 22  1  0  0  0  0
 17 50  1  0  0  0  0
 17 51  1  0  0  0  0
 18 23  1  0  0  0  0
 18 52  1  0  0  0  0
 18 53  1  0  0  0  0
 19 20  1  0  0  0  0
 19 21  1  0  0  0  0
 19 54  1  0  0  0  0
 20 55  1  0  0  0  0
 20 56  1  0  0  0  0
 21 57  1  0  0  0  0
 23 58  1  0  0  0  0
 23 59  1  0  0  0  0
 23 60  1  0  0  0  0
 24 27  1  0  0  0  0
 25 28  1  0  0  0  0
 25 62  1  0  0  0  0
 25 63  1  0  0  0  0
 26 29  1  0  0  0  0
 26 64  1  0  0  0  0
 26 65  1  0  0  0  0
 27 66  1  0  0  0  0
 27 67  1  0  0  0  0
 27 68  1  0  0  0  0
 28 69  1  0  0  0  0
 28 70  1  0  0  0  0
 28 71  1  0  0  0  0
 29 72  1  0  0  0  0
 29 73  1  0  0  0  0
 29 74  1  0  0  0  0
M  END
> <PUBCHEM_COMPOUND_CID>
513455
> <PUBCHEM_COMPOUND_CANONICALIZED>
1
> <PUBCHEM_CACTVS_COMPLEXITY>
397
> <PUBCHEM_CACTVS_HBOND_ACCEPTOR>
5
> <PUBCHEM_CACTVS_HBOND_DONOR>
1
> <PUBCHEM_CACTVS_ROTATABLE_BOND>
21
> <PUBCHEM_CACTVS_SUBSKEYS>
AAADcfB6OAAAAAAAAAAAAAAAAAAAAAAAAAAAAAAAAAAAAAAAAAAAHgAQAAAACCjxgAcCCALABAAIAAGQGAAAAAAAAAAAAIEIAAASABIAAAAjAAAFFgCUAAGIyKCAAAAAAAAAAAAAAAAAAAAAAAAAAAAAAA==
> <PUBCHEM_IUPAC_OPENEYE_NAME>
(2-acetamido-3,3-diethoxy-propyl) tetradecanoate
> <PUBCHEM_IUPAC_CAS_NAME>
tetradecanoic acid (2-acetamido-3,3-diethoxypropyl) ester
> <PUBCHEM_IUPAC_NAME_MARKUP>
(2-acetamido-3,3-diethoxypropyl) tetradecanoate
> <PUBCHEM_IUPAC_NAME>
(2-acetamido-3,3-diethoxypropyl) tetradecanoate
> <PUBCHEM_IUPAC_SYSTEMATIC_NAME>
(2-acetamido-3,3-diethoxy-propyl) tetradecanoate
> <PUBCHEM_IUPAC_TRADITIONAL_NAME>
myristic acid (2-acetamido-3,3-diethoxy-propyl) ester
> <PUBCHEM_IUPAC_INCHI>
InChI=1S/C23H45NO5/c1-5-8-9-10-11-12-13-14-15-16-17-18-22(26)29-19-21(24-20(4)25)23(27-6-2)28-7-3/h21,23H,5-19H2,1-4H3,(H,24,25)
> <PUBCHEM_IUPAC_INCHIKEY>
PITJUTSSTIKXOH-UHFFFAOYSA-N
> <PUBCHEM_XLOGP3_AA>
6.3
> <PUBCHEM_EXACT_MASS>
415.32977354
> <PUBCHEM_MOLECULAR_FORMULA>
C23H45NO5
> <PUBCHEM_MOLECULAR_WEIGHT>
415.6
> <PUBCHEM_OPENEYE_CAN_SMILES>
CCCCCCCCCCCCCC(=O)OCC(C(OCC)OCC)NC(=O)C
> <PUBCHEM_OPENEYE_ISO_SMILES>
CCCCCCCCCCCCCC(=O)OCC(C(OCC)OCC)NC(=O)C
> <PUBCHEM_CACTVS_TPSA>
73.9
> <PUBCHEM_MONOISOTOPIC_WEIGHT>
415.32977354
> <PUBCHEM_TOTAL_CHARGE>
0
> <PUBCHEM_HEAVY_ATOM_COUNT>
29
> <PUBCHEM_ATOM_DEF_STEREO_COUNT>
0
> <PUBCHEM_ATOM_UDEF_STEREO_COUNT>
1
> <PUBCHEM_BOND_DEF_STEREO_COUNT>
0
> <PUBCHEM_BOND_UDEF_STEREO_COUNT>
0
> <PUBCHEM_ISOTOPIC_ATOM_COUNT>
0
> <PUBCHEM_COMPONENT_COUNT>
1
> <PUBCHEM_CACTVS_TAUTO_COUNT>
-1
> <PUBCHEM_COORDINATE_TYPE>
1
5
255
> <PUBCHEM_BONDANNOTATIONS>
19  20  3
$$$$
