513435
  -OEChem-10302200282D
 54 56  0     1  0  0  0  0  0999 V2000
    7.5705    2.2242    0.0000 S   0  0  0  0  0  0  0  0  0  0  0  0
    3.0298    2.9206    0.0000 O   0  0  0  0  0  0  0  0  0  0  0  0
    1.1330    1.1606    0.0000 O   0  0  0  0  0  0  0  0  0  0  0  0
    0.4608    3.2296    0.0000 O   0  0  0  0  0  0  0  0  0  0  0  0
    4.3031    1.2651    0.0000 O   0  0  0  0  0  0  0  0  0  0  0  0
    8.8795    3.1752    0.0000 O   0  0  0  0  0  0  0  0  0  0  0  0
    0.4888    4.5084    0.0000 O   0  0  0  0  0  0  0  0  0  0  0  0
    8.7516    0.5016    0.0000 O   0  0  0  0  0  0  0  0  0  0  0  0
    2.2208    7.5084    0.0000 O   0  0  0  0  0  0  0  0  0  0  0  0
    9.8026    4.7630    0.0000 O   0  0  0  0  0  0  0  0  0  0  0  0
    2.2208    4.5084    0.0000 N   0  0  0  0  0  0  0  0  0  0  0  0
    3.0868    5.0084    0.0000 N   0  0  0  0  0  0  0  0  0  0  0  0
    1.3548    6.0084    0.0000 N   0  0  0  0  0  0  0  0  0  0  0  0
    8.0705    4.7630    0.0000 N   0  0  0  0  0  0  0  0  0  0  0  0
    8.9365    6.2630    0.0000 N   0  0  0  0  0  0  0  0  0  0  0  0
    8.0705    7.7630    0.0000 N   0  0  0  0  0  0  0  0  0  0  0  0
    1.7208    1.9696    0.0000 C   0  0  1  0  0  0  0  0  0  0  0  0
    1.4118    2.9206    0.0000 C   0  0  2  0  0  0  0  0  0  0  0  0
    2.7208    1.9696    0.0000 C   0  0  1  0  0  0  0  0  0  0  0  0
    2.2208    3.5084    0.0000 C   0  0  1  0  0  0  0  0  0  0  0  0
    3.3086    1.1606    0.0000 C   0  0  0  0  0  0  0  0  0  0  0  0
    1.3548    5.0084    0.0000 C   0  0  0  0  0  0  0  0  0  0  0  0
    8.0705    3.7630    0.0000 C   0  0  2  0  0  0  0  0  0  0  0  0
    7.2615    3.1752    0.0000 C   0  0  0  0  0  0  0  0  0  0  0  0
    8.5705    2.2242    0.0000 C   0  0  1  0  0  0  0  0  0  0  0  0
    3.0868    6.0084    0.0000 C   0  0  0  0  0  0  0  0  0  0  0  0
    2.2208    6.5084    0.0000 C   0  0  0  0  0  0  0  0  0  0  0  0
    9.1583    1.4151    0.0000 C   0  0  0  0  0  0  0  0  0  0  0  0
    7.2045    5.2630    0.0000 C   0  0  0  0  0  0  0  0  0  0  0  0
    8.9365    5.2630    0.0000 C   0  0  0  0  0  0  0  0  0  0  0  0
    7.2045    6.2630    0.0000 C   0  0  0  0  0  0  0  0  0  0  0  0
    8.0705    6.7630    0.0000 C   0  0  0  0  0  0  0  0  0  0  0  0
    1.1085    2.0666    0.0000 H   0  0  0  0  0  0  0  0  0  0  0  0
    1.3148    3.5330    0.0000 H   0  0  0  0  0  0  0  0  0  0  0  0
    3.3332    2.0666    0.0000 H   0  0  0  0  0  0  0  0  0  0  0  0
    1.6684    3.7899    0.0000 H   0  0  0  0  0  0  0  0  0  0  0  0
    2.7514    0.8888    0.0000 H   0  0  0  0  0  0  0  0  0  0  0  0
    3.4795    0.5646    0.0000 H   0  0  0  0  0  0  0  0  0  0  0  0
    1.3852    0.5942    0.0000 H   0  0  0  0  0  0  0  0  0  0  0  0
    0.0000    2.8148    0.0000 H   0  0  0  0  0  0  0  0  0  0  0  0
    8.6229    4.0445    0.0000 H   0  0  0  0  0  0  0  0  0  0  0  0
    4.6676    0.7635    0.0000 H   0  0  0  0  0  0  0  0  0  0  0  0
    6.9515    3.7122    0.0000 H   0  0  0  0  0  0  0  0  0  0  0  0
    6.6951    2.9230    0.0000 H   0  0  0  0  0  0  0  0  0  0  0  0
    9.1829    2.3211    0.0000 H   0  0  0  0  0  0  0  0  0  0  0  0
    0.8179    6.3184    0.0000 H   0  0  0  0  0  0  0  0  0  0  0  0
    3.6238    6.3184    0.0000 H   0  0  0  0  0  0  0  0  0  0  0  0
    9.6723    1.0684    0.0000 H   0  0  0  0  0  0  0  0  0  0  0  0
    9.5890    1.8611    0.0000 H   0  0  0  0  0  0  0  0  0  0  0  0
    6.6676    4.9530    0.0000 H   0  0  0  0  0  0  0  0  0  0  0  0
    6.6676    6.5730    0.0000 H   0  0  0  0  0  0  0  0  0  0  0  0
    9.1160    0.0000    0.0000 H   0  0  0  0  0  0  0  0  0  0  0  0
    7.5336    8.0730    0.0000 H   0  0  0  0  0  0  0  0  0  0  0  0
    8.6074    8.0730    0.0000 H   0  0  0  0  0  0  0  0  0  0  0  0
  1 24  1  0  0  0  0
  1 25  1  0  0  0  0
  2 19  1  0  0  0  0
  2 20  1  0  0  0  0
 17  3  1  1  0  0  0
  3 39  1  0  0  0  0
 18  4  1  1  0  0  0
  4 40  1  0  0  0  0
  5 21  1  0  0  0  0
  5 42  1  0  0  0  0
  6 23  1  0  0  0  0
  6 25  1  0  0  0  0
  7 22  2  0  0  0  0
  8 28  1  0  0  0  0
  8 52  1  0  0  0  0
  9 27  2  0  0  0  0
 10 30  2  0  0  0  0
 11 12  1  0  0  0  0
 20 11  1  6  0  0  0
 11 22  1  0  0  0  0
 12 26  2  0  0  0  0
 13 22  1  0  0  0  0
 13 27  1  0  0  0  0
 13 46  1  0  0  0  0
 23 14  1  1  0  0  0
 14 29  1  0  0  0  0
 14 30  1  0  0  0  0
 15 30  1  0  0  0  0
 15 32  2  0  0  0  0
 16 32  1  0  0  0  0
 16 53  1  0  0  0  0
 16 54  1  0  0  0  0
 17 18  1  0  0  0  0
 17 19  1  0  0  0  0
 17 33  1  0  0  0  0
 18 20  1  0  0  0  0
 18 34  1  0  0  0  0
 19 21  1  6  0  0  0
 19 35  1  0  0  0  0
 20 36  1  0  0  0  0
 21 37  1  0  0  0  0
 21 38  1  0  0  0  0
 23 24  1  0  0  0  0
 23 41  1  0  0  0  0
 24 43  1  0  0  0  0
 24 44  1  0  0  0  0
 25 28  1  1  0  0  0
 25 45  1  0  0  0  0
 26 27  1  0  0  0  0
 26 47  1  0  0  0  0
 28 48  1  0  0  0  0
 28 49  1  0  0  0  0
 29 31  2  0  0  0  0
 29 50  1  0  0  0  0
 31 32  1  0  0  0  0
 31 51  1  0  0  0  0
M  END
> <PUBCHEM_COMPOUND_CID>
513435
> <PUBCHEM_COMPOUND_CANONICALIZED>
1
> <PUBCHEM_CACTVS_COMPLEXITY>
703
> <PUBCHEM_CACTVS_HBOND_ACCEPTOR>
11
> <PUBCHEM_CACTVS_HBOND_DONOR>
6
> <PUBCHEM_CACTVS_ROTATABLE_BOND>
4
> <PUBCHEM_CACTVS_SUBSKEYS>
AAADceB7vABAAAAAAAAAAAAAAAAAASJAAAAgQAAAAAAAAAAAAAAAHgQYCAAACBTlwAaBAAPABgioADN3dACQAAEAAhAeAAAYABCDEAIAgAAOQAAfHyIzAADwMAIAAAAAAAAAAAAAAAAAAAAAAAAAAAAAAA==
> <PUBCHEM_IUPAC_OPENEYE_NAME>
4-amino-1-[(2R,5S)-2-(hydroxymethyl)-1,3-oxathiolan-5-yl]pyrimidin-2-one;2-[(2R,3R,4S,5R)-3,4-dihydroxy-5-(hydroxymethyl)tetrahydrofuran-2-yl]-1,2,4-triazine-3,5-dione
> <PUBCHEM_IUPAC_CAS_NAME>
4-amino-1-[(2R,5S)-2-(hydroxymethyl)-1,3-oxathiolan-5-yl]-2-pyrimidinone;2-[(2R,3R,4S,5R)-3,4-dihydroxy-5-(hydroxymethyl)-2-oxolanyl]-1,2,4-triazine-3,5-dione
> <PUBCHEM_IUPAC_NAME_MARKUP>
4-amino-1-[(2<I>R</I>,5<I>S</I>)-2-(hydroxymethyl)-1,3-oxathiolan-5-yl]pyrimidin-2-one;2-[(2<I>R</I>,3<I>R</I>,4<I>S</I>,5<I>R</I>)-3,4-dihydroxy-5-(hydroxymethyl)oxolan-2-yl]-1,2,4-triazine-3,5-dione
> <PUBCHEM_IUPAC_NAME>
4-amino-1-[(2R,5S)-2-(hydroxymethyl)-1,3-oxathiolan-5-yl]pyrimidin-2-one;2-[(2R,3R,4S,5R)-3,4-dihydroxy-5-(hydroxymethyl)oxolan-2-yl]-1,2,4-triazine-3,5-dione
> <PUBCHEM_IUPAC_SYSTEMATIC_NAME>
4-azanyl-1-[(2R,5S)-2-(hydroxymethyl)-1,3-oxathiolan-5-yl]pyrimidin-2-one;2-[(2R,3R,4S,5R)-5-(hydroxymethyl)-3,4-bis(oxidanyl)oxolan-2-yl]-1,2,4-triazine-3,5-dione
> <PUBCHEM_IUPAC_TRADITIONAL_NAME>
4-amino-1-[(2R,5S)-2-methylol-1,3-oxathiolan-5-yl]pyrimidin-2-one;2-[(2R,3R,4S,5R)-3,4-dihydroxy-5-methylol-tetrahydrofuran-2-yl]-1,2,4-triazine-3,5-quinone
> <PUBCHEM_IUPAC_INCHI>
InChI=1S/C8H11N3O6.C8H11N3O3S/c12-2-3-5(14)6(15)7(17-3)11-8(16)10-4(13)1-9-11;9-5-1-2-11(8(13)10-5)6-4-15-7(3-12)14-6/h1,3,5-7,12,14-15H,2H2,(H,10,13,16);1-2,6-7,12H,3-4H2,(H2,9,10,13)/t3-,5-,6-,7-;6-,7+/m10/s1
> <PUBCHEM_IUPAC_INCHIKEY>
DRAJDLNUOGHBJP-CEVAXZMXSA-N
> <PUBCHEM_EXACT_MASS>
474.11689747
> <PUBCHEM_MOLECULAR_FORMULA>
C16H22N6O9S
> <PUBCHEM_MOLECULAR_WEIGHT>
474.4
> <PUBCHEM_OPENEYE_CAN_SMILES>
C1C(OC(S1)CO)N2C=CC(=NC2=O)N.C1=NN(C(=O)NC1=O)C2C(C(C(O2)CO)O)O
> <PUBCHEM_OPENEYE_ISO_SMILES>
C1[C@H](O[C@H](S1)CO)N2C=CC(=NC2=O)N.C1=NN(C(=O)NC1=O)[C@H]2[C@@H]([C@@H]([C@H](O2)CO)O)O
> <PUBCHEM_CACTVS_TPSA>
245
> <PUBCHEM_MONOISOTOPIC_WEIGHT>
474.11689747
> <PUBCHEM_TOTAL_CHARGE>
0
> <PUBCHEM_HEAVY_ATOM_COUNT>
32
> <PUBCHEM_ATOM_DEF_STEREO_COUNT>
6
> <PUBCHEM_ATOM_UDEF_STEREO_COUNT>
0
> <PUBCHEM_BOND_DEF_STEREO_COUNT>
0
> <PUBCHEM_BOND_UDEF_STEREO_COUNT>
0
> <PUBCHEM_ISOTOPIC_ATOM_COUNT>
0
> <PUBCHEM_COMPONENT_COUNT>
2
> <PUBCHEM_CACTVS_TAUTO_COUNT>
-1
> <PUBCHEM_COORDINATE_TYPE>
1
5
255
> <PUBCHEM_BONDANNOTATIONS>
11  12  8
20  11  6
11  22  8
12  26  8
13  22  8
13  27  8
23  14  5
14  29  8
14  30  8
15  30  8
15  32  8
19  21  6
25  28  5
26  27  8
29  31  8
17  3  5
31  32  8
18  4  5
$$$$
