513478
  -OEChem-10302200282D
 45 47  0     1  0  0  0  0  0999 V2000
    8.5312    2.1623    0.0000 O   0  0  0  0  0  0  0  0  0  0  0  0
    6.2208    3.9884    0.0000 O   0  0  0  0  0  0  0  0  0  0  0  0
    5.5443   -0.2737    0.0000 N   0  0  0  0  0  0  0  0  0  0  0  0
    5.5443   -1.8832    0.0000 N   0  0  0  0  0  0  0  0  0  0  0  0
    3.7320   -0.0784    0.0000 N   0  0  0  0  0  0  0  0  0  0  0  0
    3.7320   -3.0784    0.0000 N   0  0  0  0  0  0  0  0  0  0  0  0
    2.8660   -1.5784    0.0000 N   0  0  0  0  0  0  0  0  0  0  0  0
    6.8083    1.9842    0.0000 C   0  0  2  0  0  0  0  0  0  0  0  0
    5.8578    2.2949    0.0000 C   0  0  2  0  0  0  0  0  0  0  0  0
    5.8550    0.6768    0.0000 C   0  0  0  0  0  0  0  0  0  0  0  0
    6.8066    0.9842    0.0000 C   0  0  0  0  0  0  0  0  0  0  0  0
    5.2686    1.4869    0.0000 C   0  0  0  0  0  0  0  0  0  0  0  0
    7.6183    2.5706    0.0000 C   0  0  0  0  0  0  0  0  0  0  0  0
    5.5504    3.2464    0.0000 C   0  0  0  0  0  0  0  0  0  0  0  0
    4.5981   -0.5784    0.0000 C   0  0  0  0  0  0  0  0  0  0  0  0
    6.1279   -1.0784    0.0000 C   0  0  0  0  0  0  0  0  0  0  0  0
    4.5981   -1.5784    0.0000 C   0  0  0  0  0  0  0  0  0  0  0  0
    3.7320   -2.0784    0.0000 C   0  0  0  0  0  0  0  0  0  0  0  0
    2.8660   -0.5784    0.0000 C   0  0  0  0  0  0  0  0  0  0  0  0
    2.8660   -3.5784    0.0000 C   0  0  0  0  0  0  0  0  0  0  0  0
    2.8660   -4.5784    0.0000 C   0  0  0  0  0  0  0  0  0  0  0  0
    2.0000   -3.0784    0.0000 C   0  0  0  0  0  0  0  0  0  0  0  0
    7.3602    1.7018    0.0000 H   0  0  0  0  0  0  0  0  0  0  0  0
    5.2456    2.3929    0.0000 H   0  0  0  0  0  0  0  0  0  0  0  0
    6.2926    0.2377    0.0000 H   0  0  0  0  0  0  0  0  0  0  0  0
    6.9344    0.3775    0.0000 H   0  0  0  0  0  0  0  0  0  0  0  0
    7.4233    1.0479    0.0000 H   0  0  0  0  0  0  0  0  0  0  0  0
    4.8085    1.9025    0.0000 H   0  0  0  0  0  0  0  0  0  0  0  0
    4.8071    1.0728    0.0000 H   0  0  0  0  0  0  0  0  0  0  0  0
    7.9659    3.0840    0.0000 H   0  0  0  0  0  0  0  0  0  0  0  0
    7.1731    3.0020    0.0000 H   0  0  0  0  0  0  0  0  0  0  0  0
    5.1695    3.7357    0.0000 H   0  0  0  0  0  0  0  0  0  0  0  0
    5.0025    2.9563    0.0000 H   0  0  0  0  0  0  0  0  0  0  0  0
    6.7479   -1.0784    0.0000 H   0  0  0  0  0  0  0  0  0  0  0  0
    9.0334    2.5258    0.0000 H   0  0  0  0  0  0  0  0  0  0  0  0
    6.0302    4.5784    0.0000 H   0  0  0  0  0  0  0  0  0  0  0  0
    4.2690   -3.3884    0.0000 H   0  0  0  0  0  0  0  0  0  0  0  0
    2.3291   -0.2684    0.0000 H   0  0  0  0  0  0  0  0  0  0  0  0
    2.8660   -2.9584    0.0000 H   0  0  0  0  0  0  0  0  0  0  0  0
    2.2460   -4.5784    0.0000 H   0  0  0  0  0  0  0  0  0  0  0  0
    2.8660   -5.1984    0.0000 H   0  0  0  0  0  0  0  0  0  0  0  0
    3.4860   -4.5784    0.0000 H   0  0  0  0  0  0  0  0  0  0  0  0
    2.3100   -2.5415    0.0000 H   0  0  0  0  0  0  0  0  0  0  0  0
    1.4631   -2.7684    0.0000 H   0  0  0  0  0  0  0  0  0  0  0  0
    1.6900   -3.6154    0.0000 H   0  0  0  0  0  0  0  0  0  0  0  0
  1 13  1  0  0  0  0
  1 35  1  0  0  0  0
  2 14  1  0  0  0  0
  2 36  1  0  0  0  0
  3 10  1  0  0  0  0
  3 15  1  0  0  0  0
  3 16  1  0  0  0  0
  4 16  2  0  0  0  0
  4 17  1  0  0  0  0
  5 15  2  0  0  0  0
  5 19  1  0  0  0  0
  6 18  1  0  0  0  0
  6 20  1  0  0  0  0
  6 37  1  0  0  0  0
  7 18  1  0  0  0  0
  7 19  2  0  0  0  0
  8  9  1  0  0  0  0
  8 11  1  0  0  0  0
  8 13  1  1  0  0  0
  8 23  1  0  0  0  0
  9 12  1  0  0  0  0
  9 14  1  6  0  0  0
  9 24  1  0  0  0  0
 10 11  1  0  0  0  0
 10 12  1  0  0  0  0
 10 25  1  0  0  0  0
 11 26  1  0  0  0  0
 11 27  1  0  0  0  0
 12 28  1  0  0  0  0
 12 29  1  0  0  0  0
 13 30  1  0  0  0  0
 13 31  1  0  0  0  0
 14 32  1  0  0  0  0
 14 33  1  0  0  0  0
 15 17  1  0  0  0  0
 16 34  1  0  0  0  0
 17 18  2  0  0  0  0
 19 38  1  0  0  0  0
 20 21  1  0  0  0  0
 20 22  1  0  0  0  0
 20 39  1  0  0  0  0
 21 40  1  0  0  0  0
 21 41  1  0  0  0  0
 21 42  1  0  0  0  0
 22 43  1  0  0  0  0
 22 44  1  0  0  0  0
 22 45  1  0  0  0  0
M  END
> <PUBCHEM_COMPOUND_CID>
513478
> <PUBCHEM_COMPOUND_CANONICALIZED>
1
> <PUBCHEM_CACTVS_COMPLEXITY>
358
> <PUBCHEM_CACTVS_HBOND_ACCEPTOR>
6
> <PUBCHEM_CACTVS_HBOND_DONOR>
3
> <PUBCHEM_CACTVS_ROTATABLE_BOND>
5
> <PUBCHEM_CACTVS_SUBSKEYS>
AAADceBzsAAAAAAAAAAAAAAAAAAAAeIAAAAsAAAAAAAAAFgB+AAAHgAQCAAADSjhlwYH8L/MEgCgAQZhZACAgC0REKABUKAoVBCAWAJAyEAURAgMEALAACHw0CMOgAAAAAAAAAAAAAAAAAAAACAACAAAAA==
> <PUBCHEM_IUPAC_OPENEYE_NAME>
[(1S,2S)-2-(hydroxymethyl)-4-[6-(isopropylamino)purin-9-yl]cyclopentyl]methanol
> <PUBCHEM_IUPAC_CAS_NAME>
[(1S,2S)-2-(hydroxymethyl)-4-[6-(propan-2-ylamino)-9-purinyl]cyclopentyl]methanol
> <PUBCHEM_IUPAC_NAME_MARKUP>
[(1<I>S</I>,2<I>S</I>)-2-(hydroxymethyl)-4-[6-(propan-2-ylamino)purin-9-yl]cyclopentyl]methanol
> <PUBCHEM_IUPAC_NAME>
[(1S,2S)-2-(hydroxymethyl)-4-[6-(propan-2-ylamino)purin-9-yl]cyclopentyl]methanol
> <PUBCHEM_IUPAC_SYSTEMATIC_NAME>
[(1S,2S)-2-(hydroxymethyl)-4-[6-(propan-2-ylamino)purin-9-yl]cyclopentyl]methanol
> <PUBCHEM_IUPAC_TRADITIONAL_NAME>
[(1S,2S)-4-[6-(isopropylamino)purin-9-yl]-2-methylol-cyclopentyl]methanol
> <PUBCHEM_IUPAC_INCHI>
InChI=1S/C15H23N5O2/c1-9(2)19-14-13-15(17-7-16-14)20(8-18-13)12-3-10(5-21)11(4-12)6-22/h7-12,21-22H,3-6H2,1-2H3,(H,16,17,19)/t10-,11-/m1/s1
> <PUBCHEM_IUPAC_INCHIKEY>
UASNPEROIMREFM-GHMZBOCLSA-N
> <PUBCHEM_XLOGP3_AA>
0.8
> <PUBCHEM_EXACT_MASS>
305.18517499
> <PUBCHEM_MOLECULAR_FORMULA>
C15H23N5O2
> <PUBCHEM_MOLECULAR_WEIGHT>
305.38
> <PUBCHEM_OPENEYE_CAN_SMILES>
CC(C)NC1=C2C(=NC=N1)N(C=N2)C3CC(C(C3)CO)CO
> <PUBCHEM_OPENEYE_ISO_SMILES>
CC(C)NC1=C2C(=NC=N1)N(C=N2)C3C[C@@H]([C@H](C3)CO)CO
> <PUBCHEM_CACTVS_TPSA>
96.1
> <PUBCHEM_MONOISOTOPIC_WEIGHT>
305.18517499
> <PUBCHEM_TOTAL_CHARGE>
0
> <PUBCHEM_HEAVY_ATOM_COUNT>
22
> <PUBCHEM_ATOM_DEF_STEREO_COUNT>
2
> <PUBCHEM_ATOM_UDEF_STEREO_COUNT>
0
> <PUBCHEM_BOND_DEF_STEREO_COUNT>
0
> <PUBCHEM_BOND_UDEF_STEREO_COUNT>
0
> <PUBCHEM_ISOTOPIC_ATOM_COUNT>
0
> <PUBCHEM_COMPONENT_COUNT>
1
> <PUBCHEM_CACTVS_TAUTO_COUNT>
-1
> <PUBCHEM_COORDINATE_TYPE>
1
5
255
> <PUBCHEM_BONDANNOTATIONS>
15  17  8
17  18  8
3  15  8
3  16  8
4  16  8
4  17  8
5  15  8
5  19  8
7  18  8
7  19  8
8  13  5
9  14  6
$$$$
