513496
  -OEChem-10302200282D
 54 58  0     1  0  0  0  0  0999 V2000
    5.2927    2.9612    0.0000 F   0  0  0  0  0  0  0  0  0  0  0  0
    2.0000    4.0374    0.0000 F   0  0  0  0  0  0  0  0  0  0  0  0
    3.9271    0.3924    0.0000 O   0  0  0  0  0  0  0  0  0  0  0  0
    5.0286   -0.6346    0.0000 N   0  0  0  0  0  0  0  0  0  0  0  0
    6.3662    1.4174    0.0000 N   0  0  0  0  0  0  0  0  0  0  0  0
    5.0286   -2.2441    0.0000 N   0  0  0  0  0  0  0  0  0  0  0  0
    6.6736    0.4658    0.0000 N   0  0  0  0  0  0  0  0  0  0  0  0
    7.9842    1.4146    0.0000 N   0  0  0  0  0  0  0  0  0  0  0  0
    4.6714    1.0602    0.0000 C   0  0  3  0  0  0  0  0  0  0  0  0
    5.3392    0.3159    0.0000 C   0  0  0  0  0  0  0  0  0  0  0  0
    5.4157    1.7281    0.0000 C   0  0  0  0  0  0  0  0  0  0  0  0
    4.0035    1.8045    0.0000 C   0  0  0  0  0  0  0  0  0  0  0  0
    5.6122   -1.4393    0.0000 C   0  0  0  0  0  0  0  0  0  0  0  0
    4.0823   -0.9393    0.0000 C   0  0  0  0  0  0  0  0  0  0  0  0
    4.0823   -1.9393    0.0000 C   0  0  0  0  0  0  0  0  0  0  0  0
    6.6122   -1.4393    0.0000 C   0  0  0  0  0  0  0  0  0  0  0  0
    4.3142    2.7550    0.0000 C   0  0  0  0  0  0  0  0  0  0  0  0
    3.0250    1.5983    0.0000 C   0  0  0  0  0  0  0  0  0  0  0  0
    3.2163   -0.4393    0.0000 C   0  0  0  0  0  0  0  0  0  0  0  0
    3.2163   -2.4393    0.0000 C   0  0  0  0  0  0  0  0  0  0  0  0
    7.1122   -2.3054    0.0000 C   0  0  0  0  0  0  0  0  0  0  0  0
    3.6464    3.4993    0.0000 C   0  0  0  0  0  0  0  0  0  0  0  0
    2.3572    2.3426    0.0000 C   0  0  0  0  0  0  0  0  0  0  0  0
    2.3503   -0.9393    0.0000 C   0  0  0  0  0  0  0  0  0  0  0  0
    7.1762    2.0038    0.0000 C   0  0  0  0  0  0  0  0  0  0  0  0
    2.3503   -1.9393    0.0000 C   0  0  0  0  0  0  0  0  0  0  0  0
    2.6678    3.2931    0.0000 C   0  0  0  0  0  0  0  0  0  0  0  0
    8.1122   -2.3054    0.0000 C   0  0  0  0  0  0  0  0  0  0  0  0
    6.6122   -3.1714    0.0000 C   0  0  0  0  0  0  0  0  0  0  0  0
    7.6736    0.4641    0.0000 C   0  0  0  0  0  0  0  0  0  0  0  0
    8.6122   -3.1714    0.0000 C   0  0  0  0  0  0  0  0  0  0  0  0
    7.1122   -4.0374    0.0000 C   0  0  0  0  0  0  0  0  0  0  0  0
    8.1122   -4.0374    0.0000 C   0  0  0  0  0  0  0  0  0  0  0  0
    5.8861    0.0239    0.0000 H   0  0  0  0  0  0  0  0  0  0  0  0
    5.7218    0.8038    0.0000 H   0  0  0  0  0  0  0  0  0  0  0  0
    5.7077    2.2750    0.0000 H   0  0  0  0  0  0  0  0  0  0  0  0
    4.9278    2.1106    0.0000 H   0  0  0  0  0  0  0  0  0  0  0  0
    7.1948   -1.2273    0.0000 H   0  0  0  0  0  0  0  0  0  0  0  0
    6.5045   -0.8288    0.0000 H   0  0  0  0  0  0  0  0  0  0  0  0
    3.3378    0.5850    0.0000 H   0  0  0  0  0  0  0  0  0  0  0  0
    2.8324    1.0090    0.0000 H   0  0  0  0  0  0  0  0  0  0  0  0
    3.2163    0.1807    0.0000 H   0  0  0  0  0  0  0  0  0  0  0  0
    3.2163   -3.0593    0.0000 H   0  0  0  0  0  0  0  0  0  0  0  0
    3.8390    4.0887    0.0000 H   0  0  0  0  0  0  0  0  0  0  0  0
    1.7505    2.2147    0.0000 H   0  0  0  0  0  0  0  0  0  0  0  0
    1.8134   -0.6293    0.0000 H   0  0  0  0  0  0  0  0  0  0  0  0
    7.1773    2.6238    0.0000 H   0  0  0  0  0  0  0  0  0  0  0  0
    1.8134   -2.2493    0.0000 H   0  0  0  0  0  0  0  0  0  0  0  0
    8.4222   -1.7684    0.0000 H   0  0  0  0  0  0  0  0  0  0  0  0
    5.9922   -3.1714    0.0000 H   0  0  0  0  0  0  0  0  0  0  0  0
    8.0371   -0.0381    0.0000 H   0  0  0  0  0  0  0  0  0  0  0  0
    9.2322   -3.1714    0.0000 H   0  0  0  0  0  0  0  0  0  0  0  0
    6.8022   -4.5744    0.0000 H   0  0  0  0  0  0  0  0  0  0  0  0
    8.4222   -4.5744    0.0000 H   0  0  0  0  0  0  0  0  0  0  0  0
  1 17  1  0  0  0  0
  2 27  1  0  0  0  0
  3  9  1  0  0  0  0
  3 40  1  0  0  0  0
  4 10  1  0  0  0  0
  4 13  1  0  0  0  0
  4 14  1  0  0  0  0
  5  7  1  0  0  0  0
  5 11  1  0  0  0  0
  5 25  1  0  0  0  0
  6 13  2  0  0  0  0
  6 15  1  0  0  0  0
  7 30  2  0  0  0  0
  8 25  2  0  0  0  0
  8 30  1  0  0  0  0
  9 10  1  0  0  0  0
  9 11  1  0  0  0  0
  9 12  1  0  0  0  0
 10 34  1  0  0  0  0
 10 35  1  0  0  0  0
 11 36  1  0  0  0  0
 11 37  1  0  0  0  0
 12 17  2  0  0  0  0
 12 18  1  0  0  0  0
 13 16  1  0  0  0  0
 14 15  1  0  0  0  0
 14 19  2  0  0  0  0
 15 20  2  0  0  0  0
 16 21  1  0  0  0  0
 16 38  1  0  0  0  0
 16 39  1  0  0  0  0
 17 22  1  0  0  0  0
 18 23  2  0  0  0  0
 18 41  1  0  0  0  0
 19 24  1  0  0  0  0
 19 42  1  0  0  0  0
 20 26  1  0  0  0  0
 20 43  1  0  0  0  0
 21 28  2  0  0  0  0
 21 29  1  0  0  0  0
 22 27  2  0  0  0  0
 22 44  1  0  0  0  0
 23 27  1  0  0  0  0
 23 45  1  0  0  0  0
 24 26  2  0  0  0  0
 24 46  1  0  0  0  0
 25 47  1  0  0  0  0
 26 48  1  0  0  0  0
 28 31  1  0  0  0  0
 28 49  1  0  0  0  0
 29 32  2  0  0  0  0
 29 50  1  0  0  0  0
 30 51  1  0  0  0  0
 31 33  2  0  0  0  0
 31 52  1  0  0  0  0
 32 33  1  0  0  0  0
 32 53  1  0  0  0  0
 33 54  1  0  0  0  0
M  END
> <PUBCHEM_COMPOUND_CID>
513496
> <PUBCHEM_COMPOUND_CANONICALIZED>
1
> <PUBCHEM_CACTVS_COMPLEXITY>
638
> <PUBCHEM_CACTVS_HBOND_ACCEPTOR>
6
> <PUBCHEM_CACTVS_HBOND_DONOR>
1
> <PUBCHEM_CACTVS_ROTATABLE_BOND>
7
> <PUBCHEM_CACTVS_SUBSKEYS>
AAADceB7oYAAAAAAAAAAAAAAAAAAAWLAAAAwYMAAAAAAAFgB/AAAHwAICAAADEzBnww10LcMEgCiAyZjZACSgC8xkqAd2CA4fJiKbqLA2ZGUcAhswAPY2CeQwOAOgAAAAAAAACAAAAAAAAAAQAAAAAAAAA==
> <PUBCHEM_IUPAC_OPENEYE_NAME>
1-(2-benzylbenzimidazol-1-yl)-2-(2,4-difluorophenyl)-3-(1,2,4-triazol-1-yl)propan-2-ol
> <PUBCHEM_IUPAC_CAS_NAME>
2-(2,4-difluorophenyl)-1-[2-(phenylmethyl)-1-benzimidazolyl]-3-(1,2,4-triazol-1-yl)-2-propanol
> <PUBCHEM_IUPAC_NAME_MARKUP>
1-(2-benzylbenzimidazol-1-yl)-2-(2,4-difluorophenyl)-3-(1,2,4-triazol-1-yl)propan-2-ol
> <PUBCHEM_IUPAC_NAME>
1-(2-benzylbenzimidazol-1-yl)-2-(2,4-difluorophenyl)-3-(1,2,4-triazol-1-yl)propan-2-ol
> <PUBCHEM_IUPAC_SYSTEMATIC_NAME>
2-[2,4-bis(fluoranyl)phenyl]-1-[2-(phenylmethyl)benzimidazol-1-yl]-3-(1,2,4-triazol-1-yl)propan-2-ol
> <PUBCHEM_IUPAC_TRADITIONAL_NAME>
1-(2-benzylbenzimidazol-1-yl)-2-(2,4-difluorophenyl)-3-(1,2,4-triazol-1-yl)propan-2-ol
> <PUBCHEM_IUPAC_INCHI>
InChI=1S/C25H21F2N5O/c26-19-10-11-20(21(27)13-19)25(33,14-31-17-28-16-29-31)15-32-23-9-5-4-8-22(23)30-24(32)12-18-6-2-1-3-7-18/h1-11,13,16-17,33H,12,14-15H2
> <PUBCHEM_IUPAC_INCHIKEY>
NBAYBUQOVQGMJM-UHFFFAOYSA-N
> <PUBCHEM_XLOGP3_AA>
3.9
> <PUBCHEM_EXACT_MASS>
445.17141663
> <PUBCHEM_MOLECULAR_FORMULA>
C25H21F2N5O
> <PUBCHEM_MOLECULAR_WEIGHT>
445.5
> <PUBCHEM_OPENEYE_CAN_SMILES>
C1=CC=C(C=C1)CC2=NC3=CC=CC=C3N2CC(CN4C=NC=N4)(C5=C(C=C(C=C5)F)F)O
> <PUBCHEM_OPENEYE_ISO_SMILES>
C1=CC=C(C=C1)CC2=NC3=CC=CC=C3N2CC(CN4C=NC=N4)(C5=C(C=C(C=C5)F)F)O
> <PUBCHEM_CACTVS_TPSA>
68.8
> <PUBCHEM_MONOISOTOPIC_WEIGHT>
445.17141663
> <PUBCHEM_TOTAL_CHARGE>
0
> <PUBCHEM_HEAVY_ATOM_COUNT>
33
> <PUBCHEM_ATOM_DEF_STEREO_COUNT>
0
> <PUBCHEM_ATOM_UDEF_STEREO_COUNT>
1
> <PUBCHEM_BOND_DEF_STEREO_COUNT>
0
> <PUBCHEM_BOND_UDEF_STEREO_COUNT>
0
> <PUBCHEM_ISOTOPIC_ATOM_COUNT>
0
> <PUBCHEM_COMPONENT_COUNT>
1
> <PUBCHEM_CACTVS_TAUTO_COUNT>
-1
> <PUBCHEM_COORDINATE_TYPE>
1
5
255
> <PUBCHEM_BONDANNOTATIONS>
12  17  8
12  18  8
14  15  8
14  19  8
15  20  8
17  22  8
18  23  8
19  24  8
20  26  8
21  28  8
21  29  8
22  27  8
23  27  8
24  26  8
28  31  8
29  32  8
9  3  3
31  33  8
32  33  8
4  13  8
4  14  8
5  25  8
5  7  8
6  13  8
6  15  8
7  30  8
8  25  8
8  30  8
$$$$
