513580
  -OEChem-10302200282D
 61 64  0     1  0  0  0  0  0999 V2000
    3.4782    0.5288    0.0000 S   0  0  0  0  0  0  0  0  0  0  0  0
    9.7494   -0.9712    0.0000 O   0  0  0  0  0  0  0  0  0  0  0  0
   10.7663    1.4082    0.0000 O   0  0  0  0  0  0  0  0  0  0  0  0
    8.7788    1.5233    0.0000 O   0  0  0  0  0  0  0  0  0  0  0  0
   12.2221   -0.2086    0.0000 O   0  0  0  0  0  0  0  0  0  0  0  0
    7.0468    1.5233    0.0000 O   0  0  0  0  0  0  0  0  0  0  0  0
    8.7788    3.5233    0.0000 O   0  0  0  0  0  0  0  0  0  0  0  0
    7.0468    0.5233    0.0000 O   0  0  0  0  0  0  0  0  0  0  0  0
    7.0468    4.5233    0.0000 O   0  0  0  0  0  0  0  0  0  0  0  0
    9.5520   -2.7972    0.0000 O   0  0  0  0  0  0  0  0  0  0  0  0
   12.3545   -4.8333    0.0000 O   0  0  0  0  0  0  0  0  0  0  0  0
    5.3147    0.5233    0.0000 O   0  0  0  0  0  0  0  0  0  0  0  0
   11.1343   -2.0927    0.0000 N   0  0  0  0  0  0  0  0  0  0  0  0
    7.9128   -0.9767    0.0000 N   0  0  0  0  0  0  0  0  0  0  0  0
   10.9532   -3.8152    0.0000 N   0  0  0  0  0  0  0  0  0  0  0  0
    4.4487    2.0233    0.0000 N   0  0  0  0  0  0  0  0  0  0  0  0
    3.5827    1.5233    0.0000 N   0  0  3  0  0  0  0  0  0  0  0  0
    2.6691    1.9300    0.0000 N   0  0  0  0  0  0  0  0  0  0  0  0
    9.6448    0.0233    0.0000 C   0  0  1  0  0  0  0  0  0  0  0  0
   10.5584    0.4300    0.0000 C   0  0  2  0  0  0  0  0  0  0  0  0
   11.2275   -0.3131    0.0000 C   0  0  2  0  0  0  0  0  0  0  0  0
   10.7275   -1.1791    0.0000 C   0  0  1  0  0  0  0  0  0  0  0  0
    8.7788    0.5233    0.0000 C   0  0  2  0  0  0  0  0  0  0  0  0
    7.9128    2.0233    0.0000 C   0  0  1  0  0  0  0  0  0  0  0  0
    7.9128    0.0233    0.0000 C   0  0  0  0  0  0  0  0  0  0  0  0
    7.9128    3.0233    0.0000 C   0  0  2  0  0  0  0  0  0  0  0  0
   10.5465   -2.9017    0.0000 C   0  0  0  0  0  0  0  0  0  0  0  0
   12.1288   -2.1972    0.0000 C   0  0  0  0  0  0  0  0  0  0  0  0
    7.0468    3.5233    0.0000 C   0  0  2  0  0  0  0  0  0  0  0  0
   11.7174    1.7172    0.0000 C   0  0  0  0  0  0  0  0  0  0  0  0
    6.1808    3.0233    0.0000 C   0  0  0  0  0  0  0  0  0  0  0  0
    6.1808    2.0233    0.0000 C   0  0  0  0  0  0  0  0  0  0  0  0
   12.5355   -3.1108    0.0000 C   0  0  0  0  0  0  0  0  0  0  0  0
   11.9477   -3.9198    0.0000 C   0  0  0  0  0  0  0  0  0  0  0  0
    5.3147    1.5233    0.0000 C   0  0  0  0  0  0  0  0  0  0  0  0
    2.5000    0.3209    0.0000 C   0  0  0  0  0  0  0  0  0  0  0  0
    2.0000    1.1869    0.0000 C   0  0  0  0  0  0  0  0  0  0  0  0
    8.9320   -0.4396    0.0000 H   0  0  0  0  0  0  0  0  0  0  0  0
   11.1573    0.5905    0.0000 H   0  0  0  0  0  0  0  0  0  0  0  0
   11.5652   -0.8331    0.0000 H   0  0  0  0  0  0  0  0  0  0  0  0
   10.3374   -1.6610    0.0000 H   0  0  0  0  0  0  0  0  0  0  0  0
    9.3158    0.8333    0.0000 H   0  0  0  0  0  0  0  0  0  0  0  0
    8.4497    2.3333    0.0000 H   0  0  0  0  0  0  0  0  0  0  0  0
   12.4742    0.3578    0.0000 H   0  0  0  0  0  0  0  0  0  0  0  0
    7.9128    3.6433    0.0000 H   0  0  0  0  0  0  0  0  0  0  0  0
   12.4932   -1.6956    0.0000 H   0  0  0  0  0  0  0  0  0  0  0  0
    6.5098    3.8333    0.0000 H   0  0  0  0  0  0  0  0  0  0  0  0
   11.9090    1.1276    0.0000 H   0  0  0  0  0  0  0  0  0  0  0  0
   12.3070    1.9088    0.0000 H   0  0  0  0  0  0  0  0  0  0  0  0
   11.5258    2.3069    0.0000 H   0  0  0  0  0  0  0  0  0  0  0  0
    5.6438    3.3333    0.0000 H   0  0  0  0  0  0  0  0  0  0  0  0
    7.3759   -1.2867    0.0000 H   0  0  0  0  0  0  0  0  0  0  0  0
    8.4497   -1.2867    0.0000 H   0  0  0  0  0  0  0  0  0  0  0  0
   10.5888   -4.3168    0.0000 H   0  0  0  0  0  0  0  0  0  0  0  0
   13.1521   -3.1756    0.0000 H   0  0  0  0  0  0  0  0  0  0  0  0
    8.7788    4.1433    0.0000 H   0  0  0  0  0  0  0  0  0  0  0  0
    6.5098    4.8333    0.0000 H   0  0  0  0  0  0  0  0  0  0  0  0
    4.4487    2.6433    0.0000 H   0  0  0  0  0  0  0  0  0  0  0  0
    1.9336    0.0687    0.0000 H   0  0  0  0  0  0  0  0  0  0  0  0
    2.6916   -0.2688    0.0000 H   0  0  0  0  0  0  0  0  0  0  0  0
    1.3834    1.2517    0.0000 H   0  0  0  0  0  0  0  0  0  0  0  0
  1 17  1  0  0  0  0
  1 36  1  0  0  0  0
  2 19  1  0  0  0  0
  2 22  1  0  0  0  0
 20  3  1  1  0  0  0
  3 30  1  0  0  0  0
 23  4  1  6  0  0  0
 24  4  1  1  0  0  0
 21  5  1  1  0  0  0
  5 44  1  0  0  0  0
  6 24  1  0  0  0  0
  6 32  1  0  0  0  0
 26  7  1  6  0  0  0
  7 56  1  0  0  0  0
  8 25  2  0  0  0  0
 29  9  1  6  0  0  0
  9 57  1  0  0  0  0
 10 27  2  0  0  0  0
 11 34  2  0  0  0  0
 12 35  2  0  0  0  0
 22 13  1  6  0  0  0
 13 27  1  0  0  0  0
 13 28  1  0  0  0  0
 14 25  1  0  0  0  0
 14 52  1  0  0  0  0
 14 53  1  0  0  0  0
 15 27  1  0  0  0  0
 15 34  1  0  0  0  0
 15 54  1  0  0  0  0
 16 17  1  0  0  0  0
 16 35  1  0  0  0  0
 16 58  1  0  0  0  0
 17 18  1  0  0  0  0
 18 37  2  0  0  0  0
 19 20  1  0  0  0  0
 19 23  1  0  0  0  0
 19 38  1  1  0  0  0
 20 21  1  0  0  0  0
 20 39  1  0  0  0  0
 21 22  1  0  0  0  0
 21 40  1  0  0  0  0
 22 41  1  0  0  0  0
 23 25  1  0  0  0  0
 23 42  1  0  0  0  0
 24 26  1  0  0  0  0
 24 43  1  0  0  0  0
 26 29  1  0  0  0  0
 26 45  1  0  0  0  0
 28 33  2  0  0  0  0
 28 46  1  0  0  0  0
 29 31  1  0  0  0  0
 29 47  1  0  0  0  0
 30 48  1  0  0  0  0
 30 49  1  0  0  0  0
 30 50  1  0  0  0  0
 31 32  2  0  0  0  0
 31 51  1  0  0  0  0
 32 35  1  0  0  0  0
 33 34  1  0  0  0  0
 33 55  1  0  0  0  0
 36 37  1  0  0  0  0
 36 59  1  0  0  0  0
 36 60  1  0  0  0  0
 37 61  1  0  0  0  0
M  END
> <PUBCHEM_COMPOUND_CID>
513580
> <PUBCHEM_COMPOUND_CANONICALIZED>
1
> <PUBCHEM_CACTVS_COMPLEXITY>
1040
> <PUBCHEM_CACTVS_HBOND_ACCEPTOR>
14
> <PUBCHEM_CACTVS_HBOND_DONOR>
6
> <PUBCHEM_CACTVS_ROTATABLE_BOND>
8
> <PUBCHEM_CACTVS_SUBSKEYS>
AAADceB7vABAAAAAAAAAAAAAAAAAASIAAAAgQAAAAAAAAAAAAAAAHgQYSAAACBT1wAeDCAPiBgCoADF3UAKACAAgIgAaCAFYAEiTFBYAgAQvUAAP9yIfEcP6fA5AAAAAAAAAAAAAAAAAAAAAAAAAAAAAAA==
> <PUBCHEM_IUPAC_OPENEYE_NAME>
(2S,3S,4S)-2-[(1R)-2-amino-1-[(2S,3S,4R,5R)-5-(2,4-dioxopyrimidin-1-yl)-4-hydroxy-3-methoxy-tetrahydrofuran-2-yl]-2-oxo-ethoxy]-3,4-dihydroxy-N-(5H-thiadiazol-2-yl)-3,4-dihydro-2H-pyran-6-carboxamide
> <PUBCHEM_IUPAC_CAS_NAME>
(2S,3S,4S)-2-[(1R)-2-amino-1-[(2S,3S,4R,5R)-5-(2,4-dioxo-1-pyrimidinyl)-4-hydroxy-3-methoxy-2-oxolanyl]-2-oxoethoxy]-3,4-dihydroxy-N-(5H-thiadiazol-2-yl)-3,4-dihydro-2H-pyran-6-carboxamide
> <PUBCHEM_IUPAC_NAME_MARKUP>
(2<I>S</I>,3<I>S</I>,4<I>S</I>)-2-[(1<I>R</I>)-2-amino-1-[(2<I>S</I>,3<I>S</I>,4<I>R</I>,5<I>R</I>)-5-(2,4-dioxopyrimidin-1-yl)-4-hydroxy-3-methoxyoxolan-2-yl]-2-oxoethoxy]-3,4-dihydroxy-<I>N</I>-(5<I>H</I>-thiadiazol-2-yl)-3,4-dihydro-2<I>H</I>-pyran-6-carboxamide
> <PUBCHEM_IUPAC_NAME>
(2S,3S,4S)-2-[(1R)-2-amino-1-[(2S,3S,4R,5R)-5-(2,4-dioxopyrimidin-1-yl)-4-hydroxy-3-methoxyoxolan-2-yl]-2-oxoethoxy]-3,4-dihydroxy-N-(5H-thiadiazol-2-yl)-3,4-dihydro-2H-pyran-6-carboxamide
> <PUBCHEM_IUPAC_SYSTEMATIC_NAME>
(2S,3S,4S)-2-[(1R)-2-azanyl-1-[(2S,3S,4R,5R)-5-[2,4-bis(oxidanylidene)pyrimidin-1-yl]-3-methoxy-4-oxidanyl-oxolan-2-yl]-2-oxidanylidene-ethoxy]-3,4-bis(oxidanyl)-N-(5H-1,2,3-thiadiazol-2-yl)-3,4-dihydro-2H-pyran-6-carboxamide
> <PUBCHEM_IUPAC_TRADITIONAL_NAME>
(2S,3S,4S)-2-[(1R)-2-amino-1-[(2S,3S,4R,5R)-5-(2,4-diketopyrimidin-1-yl)-4-hydroxy-3-methoxy-tetrahydrofuran-2-yl]-2-keto-ethoxy]-3,4-dihydroxy-N-(5H-thiadiazol-2-yl)-3,4-dihydro-2H-pyran-6-carboxamide
> <PUBCHEM_IUPAC_INCHI>
InChI=1S/C19H24N6O11S/c1-33-12-11(29)17(24-4-2-9(27)22-19(24)32)35-13(12)14(15(20)30)36-18-10(28)7(26)6-8(34-18)16(31)23-25-21-3-5-37-25/h2-4,6-7,10-14,17-18,26,28-29H,5H2,1H3,(H2,20,30)(H,23,31)(H,22,27,32)/t7-,10-,11+,12-,13-,14+,17+,18+/m0/s1
> <PUBCHEM_IUPAC_INCHIKEY>
XQGABKSRNMVVLE-ZSTMEXGBSA-N
> <PUBCHEM_XLOGP3_AA>
-3.8
> <PUBCHEM_EXACT_MASS>
544.12237678
> <PUBCHEM_MOLECULAR_FORMULA>
C19H24N6O11S
> <PUBCHEM_MOLECULAR_WEIGHT>
544.5
> <PUBCHEM_OPENEYE_CAN_SMILES>
COC1C(C(OC1C(C(=O)N)OC2C(C(C=C(O2)C(=O)NN3N=CCS3)O)O)N4C=CC(=O)NC4=O)O
> <PUBCHEM_OPENEYE_ISO_SMILES>
CO[C@H]1[C@H]([C@@H](O[C@@H]1[C@H](C(=O)N)O[C@@H]2[C@H]([C@H](C=C(O2)C(=O)NN3N=CCS3)O)O)N4C=CC(=O)NC4=O)O
> <PUBCHEM_CACTVS_TPSA>
260
> <PUBCHEM_MONOISOTOPIC_WEIGHT>
544.12237678
> <PUBCHEM_TOTAL_CHARGE>
0
> <PUBCHEM_HEAVY_ATOM_COUNT>
37
> <PUBCHEM_ATOM_DEF_STEREO_COUNT>
8
> <PUBCHEM_ATOM_UDEF_STEREO_COUNT>
0
> <PUBCHEM_BOND_DEF_STEREO_COUNT>
0
> <PUBCHEM_BOND_UDEF_STEREO_COUNT>
0
> <PUBCHEM_ISOTOPIC_ATOM_COUNT>
0
> <PUBCHEM_COMPONENT_COUNT>
1
> <PUBCHEM_CACTVS_TAUTO_COUNT>
-1
> <PUBCHEM_COORDINATE_TYPE>
1
5
255
> <PUBCHEM_BONDANNOTATIONS>
22  13  6
13  27  8
13  28  8
15  27  8
15  34  8
19  38  5
28  33  8
20  3  5
33  34  8
23  4  6
24  4  5
21  5  5
26  7  6
29  9  6
$$$$
