513550
  -OEChem-10302200282D
 79 82  0     1  0  0  0  0  0999 V2000
   13.3059   -0.7724    0.0000 O   0  0  0  0  0  0  0  0  0  0  0  0
   11.7537   -2.8428    0.0000 O   0  0  0  0  0  0  0  0  0  0  0  0
   11.5263    0.3209    0.0000 O   0  0  0  0  0  0  0  0  0  0  0  0
   13.8817   -3.2951    0.0000 O   0  0  0  0  0  0  0  0  0  0  0  0
    9.7942    0.3209    0.0000 O   0  0  0  0  0  0  0  0  0  0  0  0
    9.7942   -0.6791    0.0000 O   0  0  0  0  0  0  0  0  0  0  0  0
   11.5263    2.3209    0.0000 O   0  0  0  0  0  0  0  0  0  0  0  0
   15.1506   -3.1335    0.0000 O   0  0  0  0  0  0  0  0  0  0  0  0
    9.7942    3.3209    0.0000 O   0  0  0  0  0  0  0  0  0  0  0  0
   17.9531   -1.0974    0.0000 O   0  0  0  0  0  0  0  0  0  0  0  0
    8.0622   -0.6791    0.0000 O   0  0  0  0  0  0  0  0  0  0  0  0
    2.8660    0.3209    0.0000 O   0  0  0  0  0  0  0  0  0  0  0  0
    4.5981    3.3209    0.0000 O   0  0  0  0  0  0  0  0  0  0  0  0
    2.8660    2.3209    0.0000 O   0  0  0  0  0  0  0  0  0  0  0  0
   14.9695   -1.4110    0.0000 N   0  0  0  0  0  0  0  0  0  0  0  0
   16.5518   -2.1155    0.0000 N   0  0  0  0  0  0  0  0  0  0  0  0
   10.6603   -2.1791    0.0000 N   0  0  0  0  0  0  0  0  0  0  0  0
    7.1962    0.8209    0.0000 N   0  0  0  0  0  0  0  0  0  0  0  0
   12.3923   -1.1791    0.0000 C   0  0  1  0  0  0  0  0  0  0  0  0
   12.4968   -2.1736    0.0000 C   0  0  2  0  0  0  0  0  0  0  0  0
   13.4750   -2.3815    0.0000 C   0  0  2  0  0  0  0  0  0  0  0  0
   13.9750   -1.5155    0.0000 C   0  0  1  0  0  0  0  0  0  0  0  0
   11.5263   -0.6791    0.0000 C   0  0  2  0  0  0  0  0  0  0  0  0
   10.6603    0.8209    0.0000 C   0  0  1  0  0  0  0  0  0  0  0  0
   10.6603   -1.1791    0.0000 C   0  0  0  0  0  0  0  0  0  0  0  0
   10.6603    1.8209    0.0000 C   0  0  2  0  0  0  0  0  0  0  0  0
   15.5573   -2.2200    0.0000 C   0  0  0  0  0  0  0  0  0  0  0  0
   15.3762   -0.4974    0.0000 C   0  0  0  0  0  0  0  0  0  0  0  0
   11.9616   -3.8209    0.0000 C   0  0  0  0  0  0  0  0  0  0  0  0
    9.7942    2.3209    0.0000 C   0  0  2  0  0  0  0  0  0  0  0  0
   16.3708   -0.3929    0.0000 C   0  0  0  0  0  0  0  0  0  0  0  0
    8.9282    1.8209    0.0000 C   0  0  0  0  0  0  0  0  0  0  0  0
    8.9282    0.8209    0.0000 C   0  0  0  0  0  0  0  0  0  0  0  0
   16.9585   -1.2019    0.0000 C   0  0  0  0  0  0  0  0  0  0  0  0
    8.0622    0.3209    0.0000 C   0  0  0  0  0  0  0  0  0  0  0  0
    6.3301    0.3209    0.0000 C   0  0  0  0  0  0  0  0  0  0  0  0
    5.4641    0.8209    0.0000 C   0  0  0  0  0  0  0  0  0  0  0  0
    5.4641    1.8209    0.0000 C   0  0  0  0  0  0  0  0  0  0  0  0
    4.5981    0.3209    0.0000 C   0  0  0  0  0  0  0  0  0  0  0  0
    3.7320    0.8209    0.0000 C   0  0  0  0  0  0  0  0  0  0  0  0
    4.5981    2.3209    0.0000 C   0  0  0  0  0  0  0  0  0  0  0  0
    3.7320    1.8209    0.0000 C   0  0  0  0  0  0  0  0  0  0  0  0
    2.8660   -0.6791    0.0000 C   0  0  0  0  0  0  0  0  0  0  0  0
    3.7320    3.8209    0.0000 C   0  0  0  0  0  0  0  0  0  0  0  0
    2.0000    1.8209    0.0000 C   0  0  0  0  0  0  0  0  0  0  0  0
   13.1284   -1.6041    0.0000 H   0  0  0  0  0  0  0  0  0  0  0  0
   11.9180   -1.9514    0.0000 H   0  0  0  0  0  0  0  0  0  0  0  0
   14.0941   -2.4140    0.0000 H   0  0  0  0  0  0  0  0  0  0  0  0
   14.1972   -0.9367    0.0000 H   0  0  0  0  0  0  0  0  0  0  0  0
   12.0632   -0.3691    0.0000 H   0  0  0  0  0  0  0  0  0  0  0  0
   11.1972    1.1309    0.0000 H   0  0  0  0  0  0  0  0  0  0  0  0
   13.5173   -3.7967    0.0000 H   0  0  0  0  0  0  0  0  0  0  0  0
   10.6603    2.4409    0.0000 H   0  0  0  0  0  0  0  0  0  0  0  0
   15.0118    0.0042    0.0000 H   0  0  0  0  0  0  0  0  0  0  0  0
   11.3551   -3.9498    0.0000 H   0  0  0  0  0  0  0  0  0  0  0  0
   12.0905   -4.4274    0.0000 H   0  0  0  0  0  0  0  0  0  0  0  0
   12.5681   -3.6920    0.0000 H   0  0  0  0  0  0  0  0  0  0  0  0
    9.2573    2.6309    0.0000 H   0  0  0  0  0  0  0  0  0  0  0  0
   16.9162   -2.6171    0.0000 H   0  0  0  0  0  0  0  0  0  0  0  0
   16.6229    0.1735    0.0000 H   0  0  0  0  0  0  0  0  0  0  0  0
   10.1233   -2.4891    0.0000 H   0  0  0  0  0  0  0  0  0  0  0  0
   11.1972   -2.4891    0.0000 H   0  0  0  0  0  0  0  0  0  0  0  0
    8.3913    2.1309    0.0000 H   0  0  0  0  0  0  0  0  0  0  0  0
   11.5263    2.9409    0.0000 H   0  0  0  0  0  0  0  0  0  0  0  0
    9.2573    3.6309    0.0000 H   0  0  0  0  0  0  0  0  0  0  0  0
    7.1962    1.4409    0.0000 H   0  0  0  0  0  0  0  0  0  0  0  0
    5.9316   -0.1540    0.0000 H   0  0  0  0  0  0  0  0  0  0  0  0
    6.7287   -0.1540    0.0000 H   0  0  0  0  0  0  0  0  0  0  0  0
    6.0010    2.1309    0.0000 H   0  0  0  0  0  0  0  0  0  0  0  0
    4.5981   -0.2991    0.0000 H   0  0  0  0  0  0  0  0  0  0  0  0
    2.2460   -0.6791    0.0000 H   0  0  0  0  0  0  0  0  0  0  0  0
    2.8660   -1.2991    0.0000 H   0  0  0  0  0  0  0  0  0  0  0  0
    3.4860   -0.6791    0.0000 H   0  0  0  0  0  0  0  0  0  0  0  0
    4.0420    4.3578    0.0000 H   0  0  0  0  0  0  0  0  0  0  0  0
    3.1951    4.1309    0.0000 H   0  0  0  0  0  0  0  0  0  0  0  0
    3.4220    3.2840    0.0000 H   0  0  0  0  0  0  0  0  0  0  0  0
    1.6900    2.3578    0.0000 H   0  0  0  0  0  0  0  0  0  0  0  0
    1.4631    1.5109    0.0000 H   0  0  0  0  0  0  0  0  0  0  0  0
    2.3100    1.2840    0.0000 H   0  0  0  0  0  0  0  0  0  0  0  0
  1 19  1  0  0  0  0
  1 22  1  0  0  0  0
 20  2  1  6  0  0  0
  2 29  1  0  0  0  0
 23  3  1  6  0  0  0
 24  3  1  1  0  0  0
 21  4  1  6  0  0  0
  4 52  1  0  0  0  0
  5 24  1  0  0  0  0
  5 33  1  0  0  0  0
  6 25  2  0  0  0  0
 26  7  1  6  0  0  0
  7 64  1  0  0  0  0
  8 27  2  0  0  0  0
 30  9  1  6  0  0  0
  9 65  1  0  0  0  0
 10 34  2  0  0  0  0
 11 35  2  0  0  0  0
 12 40  1  0  0  0  0
 12 43  1  0  0  0  0
 13 41  1  0  0  0  0
 13 44  1  0  0  0  0
 14 42  1  0  0  0  0
 14 45  1  0  0  0  0
 22 15  1  1  0  0  0
 15 27  1  0  0  0  0
 15 28  1  0  0  0  0
 16 27  1  0  0  0  0
 16 34  1  0  0  0  0
 16 59  1  0  0  0  0
 17 25  1  0  0  0  0
 17 61  1  0  0  0  0
 17 62  1  0  0  0  0
 18 35  1  0  0  0  0
 18 36  1  0  0  0  0
 18 66  1  0  0  0  0
 19 20  1  0  0  0  0
 19 23  1  0  0  0  0
 19 46  1  6  0  0  0
 20 21  1  0  0  0  0
 20 47  1  0  0  0  0
 21 22  1  0  0  0  0
 21 48  1  0  0  0  0
 22 49  1  0  0  0  0
 23 25  1  0  0  0  0
 23 50  1  0  0  0  0
 24 26  1  0  0  0  0
 24 51  1  0  0  0  0
 26 30  1  0  0  0  0
 26 53  1  0  0  0  0
 28 31  2  0  0  0  0
 28 54  1  0  0  0  0
 29 55  1  0  0  0  0
 29 56  1  0  0  0  0
 29 57  1  0  0  0  0
 30 32  1  0  0  0  0
 30 58  1  0  0  0  0
 31 34  1  0  0  0  0
 31 60  1  0  0  0  0
 32 33  2  0  0  0  0
 32 63  1  0  0  0  0
 33 35  1  0  0  0  0
 36 37  1  0  0  0  0
 36 67  1  0  0  0  0
 36 68  1  0  0  0  0
 37 38  2  0  0  0  0
 37 39  1  0  0  0  0
 38 41  1  0  0  0  0
 38 69  1  0  0  0  0
 39 40  2  0  0  0  0
 39 70  1  0  0  0  0
 40 42  1  0  0  0  0
 41 42  2  0  0  0  0
 43 71  1  0  0  0  0
 43 72  1  0  0  0  0
 43 73  1  0  0  0  0
 44 74  1  0  0  0  0
 44 75  1  0  0  0  0
 44 76  1  0  0  0  0
 45 77  1  0  0  0  0
 45 78  1  0  0  0  0
 45 79  1  0  0  0  0
M  END
> <PUBCHEM_COMPOUND_CID>
513550
> <PUBCHEM_COMPOUND_CANONICALIZED>
1
> <PUBCHEM_CACTVS_COMPLEXITY>
1150
> <PUBCHEM_CACTVS_HBOND_ACCEPTOR>
14
> <PUBCHEM_CACTVS_HBOND_DONOR>
6
> <PUBCHEM_CACTVS_ROTATABLE_BOND>
12
> <PUBCHEM_CACTVS_SUBSKEYS>
AAADcfB7vAAAAAAAAAAAAAAAAAAAASAAAAAwQIAAAAAAAAABAAAAHgAQCAAADBTxmAczDoPABgCIAiFWUAKCCAAgIgAIiIFOjMifNzaEsR+vcCpv9zefucf6/B5OIAABCAAAQABAAAIQAACAAAAAAAAAAA==
> <PUBCHEM_IUPAC_OPENEYE_NAME>
(2S,3S,4S)-2-[(1R)-2-amino-1-[(2S,3S,4R,5R)-5-(2,4-dioxopyrimidin-1-yl)-4-hydroxy-3-methoxy-tetrahydrofuran-2-yl]-2-oxo-ethoxy]-3,4-dihydroxy-N-[(3,4,5-trimethoxyphenyl)methyl]-3,4-dihydro-2H-pyran-6-carboxamide
> <PUBCHEM_IUPAC_CAS_NAME>
(2S,3S,4S)-2-[(1R)-2-amino-1-[(2S,3S,4R,5R)-5-(2,4-dioxo-1-pyrimidinyl)-4-hydroxy-3-methoxy-2-oxolanyl]-2-oxoethoxy]-3,4-dihydroxy-N-[(3,4,5-trimethoxyphenyl)methyl]-3,4-dihydro-2H-pyran-6-carboxamide
> <PUBCHEM_IUPAC_NAME_MARKUP>
(2<I>S</I>,3<I>S</I>,4<I>S</I>)-2-[(1<I>R</I>)-2-amino-1-[(2<I>S</I>,3<I>S</I>,4<I>R</I>,5<I>R</I>)-5-(2,4-dioxopyrimidin-1-yl)-4-hydroxy-3-methoxyoxolan-2-yl]-2-oxoethoxy]-3,4-dihydroxy-<I>N</I>-[(3,4,5-trimethoxyphenyl)methyl]-3,4-dihydro-2<I>H</I>-pyran-6-carboxamide
> <PUBCHEM_IUPAC_NAME>
(2S,3S,4S)-2-[(1R)-2-amino-1-[(2S,3S,4R,5R)-5-(2,4-dioxopyrimidin-1-yl)-4-hydroxy-3-methoxyoxolan-2-yl]-2-oxoethoxy]-3,4-dihydroxy-N-[(3,4,5-trimethoxyphenyl)methyl]-3,4-dihydro-2H-pyran-6-carboxamide
> <PUBCHEM_IUPAC_SYSTEMATIC_NAME>
(2S,3S,4S)-2-[(1R)-2-azanyl-1-[(2S,3S,4R,5R)-5-[2,4-bis(oxidanylidene)pyrimidin-1-yl]-3-methoxy-4-oxidanyl-oxolan-2-yl]-2-oxidanylidene-ethoxy]-3,4-bis(oxidanyl)-N-[(3,4,5-trimethoxyphenyl)methyl]-3,4-dihydro-2H-pyran-6-carboxamide
> <PUBCHEM_IUPAC_TRADITIONAL_NAME>
(2S,3S,4S)-2-[(1R)-2-amino-1-[(2S,3S,4R,5R)-5-(2,4-diketopyrimidin-1-yl)-4-hydroxy-3-methoxy-tetrahydrofuran-2-yl]-2-keto-ethoxy]-3,4-dihydroxy-N-(3,4,5-trimethoxybenzyl)-3,4-dihydro-2H-pyran-6-carboxamide
> <PUBCHEM_IUPAC_INCHI>
InChI=1S/C27H34N4O14/c1-39-13-7-11(8-14(40-2)19(13)41-3)10-29-24(37)15-9-12(32)17(34)26(43-15)45-22(23(28)36)21-20(42-4)18(35)25(44-21)31-6-5-16(33)30-27(31)38/h5-9,12,17-18,20-22,25-26,32,34-35H,10H2,1-4H3,(H2,28,36)(H,29,37)(H,30,33,38)/t12-,17-,18+,20-,21-,22+,25+,26+/m0/s1
> <PUBCHEM_IUPAC_INCHIKEY>
BDCRIIBZGMFGRM-GBZZWEFCSA-N
> <PUBCHEM_XLOGP3_AA>
-2.9
> <PUBCHEM_EXACT_MASS>
638.20715177
> <PUBCHEM_MOLECULAR_FORMULA>
C27H34N4O14
> <PUBCHEM_MOLECULAR_WEIGHT>
638.6
> <PUBCHEM_OPENEYE_CAN_SMILES>
COC1C(C(OC1C(C(=O)N)OC2C(C(C=C(O2)C(=O)NCC3=CC(=C(C(=C3)OC)OC)OC)O)O)N4C=CC(=O)NC4=O)O
> <PUBCHEM_OPENEYE_ISO_SMILES>
CO[C@H]1[C@H]([C@@H](O[C@@H]1[C@H](C(=O)N)O[C@@H]2[C@H]([C@H](C=C(O2)C(=O)NCC3=CC(=C(C(=C3)OC)OC)OC)O)O)N4C=CC(=O)NC4=O)O
> <PUBCHEM_CACTVS_TPSA>
247
> <PUBCHEM_MONOISOTOPIC_WEIGHT>
638.20715177
> <PUBCHEM_TOTAL_CHARGE>
0
> <PUBCHEM_HEAVY_ATOM_COUNT>
45
> <PUBCHEM_ATOM_DEF_STEREO_COUNT>
8
> <PUBCHEM_ATOM_UDEF_STEREO_COUNT>
0
> <PUBCHEM_BOND_DEF_STEREO_COUNT>
0
> <PUBCHEM_BOND_UDEF_STEREO_COUNT>
0
> <PUBCHEM_ISOTOPIC_ATOM_COUNT>
0
> <PUBCHEM_COMPONENT_COUNT>
1
> <PUBCHEM_CACTVS_TAUTO_COUNT>
-1
> <PUBCHEM_COORDINATE_TYPE>
1
5
255
> <PUBCHEM_BONDANNOTATIONS>
22  15  5
15  27  8
15  28  8
16  27  8
16  34  8
19  46  6
20  2  6
28  31  8
23  3  6
24  3  5
31  34  8
37  38  8
37  39  8
38  41  8
39  40  8
21  4  6
40  42  8
41  42  8
26  7  6
30  9  6
$$$$
