513549
  -OEChem-10302200282D
 71 74  0     1  0  0  0  0  0999 V2000
   13.3059   -0.6774    0.0000 O   0  0  0  0  0  0  0  0  0  0  0  0
   11.7537   -2.7478    0.0000 O   0  0  0  0  0  0  0  0  0  0  0  0
   11.5263    0.4159    0.0000 O   0  0  0  0  0  0  0  0  0  0  0  0
   13.8817   -3.2001    0.0000 O   0  0  0  0  0  0  0  0  0  0  0  0
    9.7942    0.4159    0.0000 O   0  0  0  0  0  0  0  0  0  0  0  0
   11.5263    2.4159    0.0000 O   0  0  0  0  0  0  0  0  0  0  0  0
    9.7942   -0.5841    0.0000 O   0  0  0  0  0  0  0  0  0  0  0  0
    9.7942    3.4159    0.0000 O   0  0  0  0  0  0  0  0  0  0  0  0
   15.1506   -3.0385    0.0000 O   0  0  0  0  0  0  0  0  0  0  0  0
   17.9531   -1.0024    0.0000 O   0  0  0  0  0  0  0  0  0  0  0  0
    8.0622   -0.5841    0.0000 O   0  0  0  0  0  0  0  0  0  0  0  0
    2.8660    2.4159    0.0000 O   0  0  0  0  0  0  0  0  0  0  0  0
   14.9695   -1.3160    0.0000 N   0  0  0  0  0  0  0  0  0  0  0  0
   16.5518   -2.0205    0.0000 N   0  0  0  0  0  0  0  0  0  0  0  0
   10.6603   -2.0841    0.0000 N   0  0  0  0  0  0  0  0  0  0  0  0
    7.1962    0.9159    0.0000 N   0  0  0  0  0  0  0  0  0  0  0  0
   12.3923   -1.0841    0.0000 C   0  0  1  0  0  0  0  0  0  0  0  0
   12.4968   -2.0786    0.0000 C   0  0  2  0  0  0  0  0  0  0  0  0
   13.4750   -2.2865    0.0000 C   0  0  2  0  0  0  0  0  0  0  0  0
   13.9750   -1.4205    0.0000 C   0  0  1  0  0  0  0  0  0  0  0  0
   11.5263   -0.5841    0.0000 C   0  0  2  0  0  0  0  0  0  0  0  0
   10.6603    0.9159    0.0000 C   0  0  1  0  0  0  0  0  0  0  0  0
   10.6603   -1.0841    0.0000 C   0  0  0  0  0  0  0  0  0  0  0  0
   10.6603    1.9159    0.0000 C   0  0  2  0  0  0  0  0  0  0  0  0
   15.5573   -2.1250    0.0000 C   0  0  0  0  0  0  0  0  0  0  0  0
   15.3762   -0.4024    0.0000 C   0  0  0  0  0  0  0  0  0  0  0  0
   11.9616   -3.7259    0.0000 C   0  0  0  0  0  0  0  0  0  0  0  0
    9.7942    2.4159    0.0000 C   0  0  2  0  0  0  0  0  0  0  0  0
   16.3708   -0.2979    0.0000 C   0  0  0  0  0  0  0  0  0  0  0  0
    8.9282    1.9159    0.0000 C   0  0  0  0  0  0  0  0  0  0  0  0
    8.9282    0.9159    0.0000 C   0  0  0  0  0  0  0  0  0  0  0  0
   16.9585   -1.1069    0.0000 C   0  0  0  0  0  0  0  0  0  0  0  0
    8.0622    0.4159    0.0000 C   0  0  0  0  0  0  0  0  0  0  0  0
    6.3301    0.4159    0.0000 C   0  0  0  0  0  0  0  0  0  0  0  0
    5.4641    0.9159    0.0000 C   0  0  0  0  0  0  0  0  0  0  0  0
    4.5981    0.4159    0.0000 C   0  0  0  0  0  0  0  0  0  0  0  0
    5.4641    1.9159    0.0000 C   0  0  0  0  0  0  0  0  0  0  0  0
    3.7320    0.9159    0.0000 C   0  0  0  0  0  0  0  0  0  0  0  0
    4.5981    2.4159    0.0000 C   0  0  0  0  0  0  0  0  0  0  0  0
    3.7320    1.9159    0.0000 C   0  0  0  0  0  0  0  0  0  0  0  0
    2.0000    1.9159    0.0000 C   0  0  0  0  0  0  0  0  0  0  0  0
   12.4368   -0.2353    0.0000 H   0  0  0  0  0  0  0  0  0  0  0  0
   11.9180   -1.8564    0.0000 H   0  0  0  0  0  0  0  0  0  0  0  0
   14.0941   -2.3190    0.0000 H   0  0  0  0  0  0  0  0  0  0  0  0
   14.1972   -0.8417    0.0000 H   0  0  0  0  0  0  0  0  0  0  0  0
   10.9893   -0.2741    0.0000 H   0  0  0  0  0  0  0  0  0  0  0  0
   11.1972    1.2259    0.0000 H   0  0  0  0  0  0  0  0  0  0  0  0
   13.5173   -3.7017    0.0000 H   0  0  0  0  0  0  0  0  0  0  0  0
   10.6603    2.5359    0.0000 H   0  0  0  0  0  0  0  0  0  0  0  0
   15.0118    0.0992    0.0000 H   0  0  0  0  0  0  0  0  0  0  0  0
   11.3551   -3.8548    0.0000 H   0  0  0  0  0  0  0  0  0  0  0  0
   12.0905   -4.3324    0.0000 H   0  0  0  0  0  0  0  0  0  0  0  0
   12.5681   -3.5970    0.0000 H   0  0  0  0  0  0  0  0  0  0  0  0
    9.2573    2.7259    0.0000 H   0  0  0  0  0  0  0  0  0  0  0  0
   10.1233   -2.3941    0.0000 H   0  0  0  0  0  0  0  0  0  0  0  0
   11.1972   -2.3941    0.0000 H   0  0  0  0  0  0  0  0  0  0  0  0
   16.9162   -2.5221    0.0000 H   0  0  0  0  0  0  0  0  0  0  0  0
   16.6229    0.2685    0.0000 H   0  0  0  0  0  0  0  0  0  0  0  0
    8.3913    2.2259    0.0000 H   0  0  0  0  0  0  0  0  0  0  0  0
   11.5263    3.0359    0.0000 H   0  0  0  0  0  0  0  0  0  0  0  0
    9.2573    3.7259    0.0000 H   0  0  0  0  0  0  0  0  0  0  0  0
    7.1962    1.5359    0.0000 H   0  0  0  0  0  0  0  0  0  0  0  0
    5.9316   -0.0590    0.0000 H   0  0  0  0  0  0  0  0  0  0  0  0
    6.7287   -0.0590    0.0000 H   0  0  0  0  0  0  0  0  0  0  0  0
    4.5981   -0.2041    0.0000 H   0  0  0  0  0  0  0  0  0  0  0  0
    6.0010    2.2259    0.0000 H   0  0  0  0  0  0  0  0  0  0  0  0
    3.1951    0.6059    0.0000 H   0  0  0  0  0  0  0  0  0  0  0  0
    4.5981    3.0359    0.0000 H   0  0  0  0  0  0  0  0  0  0  0  0
    1.6900    2.4528    0.0000 H   0  0  0  0  0  0  0  0  0  0  0  0
    1.4631    1.6059    0.0000 H   0  0  0  0  0  0  0  0  0  0  0  0
    2.3100    1.3790    0.0000 H   0  0  0  0  0  0  0  0  0  0  0  0
  1 17  1  0  0  0  0
  1 20  1  0  0  0  0
 18  2  1  6  0  0  0
  2 27  1  0  0  0  0
 21  3  1  6  0  0  0
 22  3  1  1  0  0  0
 19  4  1  6  0  0  0
  4 48  1  0  0  0  0
  5 22  1  0  0  0  0
  5 31  1  0  0  0  0
 24  6  1  6  0  0  0
  6 60  1  0  0  0  0
  7 23  2  0  0  0  0
 28  8  1  6  0  0  0
  8 61  1  0  0  0  0
  9 25  2  0  0  0  0
 10 32  2  0  0  0  0
 11 33  2  0  0  0  0
 12 40  1  0  0  0  0
 12 41  1  0  0  0  0
 20 13  1  1  0  0  0
 13 25  1  0  0  0  0
 13 26  1  0  0  0  0
 14 25  1  0  0  0  0
 14 32  1  0  0  0  0
 14 57  1  0  0  0  0
 15 23  1  0  0  0  0
 15 55  1  0  0  0  0
 15 56  1  0  0  0  0
 16 33  1  0  0  0  0
 16 34  1  0  0  0  0
 16 62  1  0  0  0  0
 17 18  1  0  0  0  0
 17 21  1  0  0  0  0
 17 42  1  6  0  0  0
 18 19  1  0  0  0  0
 18 43  1  0  0  0  0
 19 20  1  0  0  0  0
 19 44  1  0  0  0  0
 20 45  1  0  0  0  0
 21 23  1  0  0  0  0
 21 46  1  0  0  0  0
 22 24  1  0  0  0  0
 22 47  1  0  0  0  0
 24 28  1  0  0  0  0
 24 49  1  0  0  0  0
 26 29  2  0  0  0  0
 26 50  1  0  0  0  0
 27 51  1  0  0  0  0
 27 52  1  0  0  0  0
 27 53  1  0  0  0  0
 28 30  1  0  0  0  0
 28 54  1  0  0  0  0
 29 32  1  0  0  0  0
 29 58  1  0  0  0  0
 30 31  2  0  0  0  0
 30 59  1  0  0  0  0
 31 33  1  0  0  0  0
 34 35  1  0  0  0  0
 34 63  1  0  0  0  0
 34 64  1  0  0  0  0
 35 36  2  0  0  0  0
 35 37  1  0  0  0  0
 36 38  1  0  0  0  0
 36 65  1  0  0  0  0
 37 39  2  0  0  0  0
 37 66  1  0  0  0  0
 38 40  2  0  0  0  0
 38 67  1  0  0  0  0
 39 40  1  0  0  0  0
 39 68  1  0  0  0  0
 41 69  1  0  0  0  0
 41 70  1  0  0  0  0
 41 71  1  0  0  0  0
M  END
> <PUBCHEM_COMPOUND_CID>
513549
> <PUBCHEM_COMPOUND_CANONICALIZED>
1
> <PUBCHEM_CACTVS_COMPLEXITY>
1060
> <PUBCHEM_CACTVS_HBOND_ACCEPTOR>
12
> <PUBCHEM_CACTVS_HBOND_DONOR>
6
> <PUBCHEM_CACTVS_ROTATABLE_BOND>
10
> <PUBCHEM_CACTVS_SUBSKEYS>
AAADceB7vAAAAAAAAAAAAAAAAAAAASAAAAAwQIAAAAAAAAABAAAAHgAQCAAADBTxmAczDoPABgCIAiFWUAKCCAAgIgAIiIFODMifNjaEsR+vcChv9zOfucf6/A5OIAAAAAAAAABAAAAAAAAAAAAAAAAAAA==
> <PUBCHEM_IUPAC_OPENEYE_NAME>
(2S,3S,4S)-2-[(1R)-2-amino-1-[(2S,3S,4R,5R)-5-(2,4-dioxopyrimidin-1-yl)-4-hydroxy-3-methoxy-tetrahydrofuran-2-yl]-2-oxo-ethoxy]-3,4-dihydroxy-N-[(4-methoxyphenyl)methyl]-3,4-dihydro-2H-pyran-6-carboxamide
> <PUBCHEM_IUPAC_CAS_NAME>
(2S,3S,4S)-2-[(1R)-2-amino-1-[(2S,3S,4R,5R)-5-(2,4-dioxo-1-pyrimidinyl)-4-hydroxy-3-methoxy-2-oxolanyl]-2-oxoethoxy]-3,4-dihydroxy-N-[(4-methoxyphenyl)methyl]-3,4-dihydro-2H-pyran-6-carboxamide
> <PUBCHEM_IUPAC_NAME_MARKUP>
(2<I>S</I>,3<I>S</I>,4<I>S</I>)-2-[(1<I>R</I>)-2-amino-1-[(2<I>S</I>,3<I>S</I>,4<I>R</I>,5<I>R</I>)-5-(2,4-dioxopyrimidin-1-yl)-4-hydroxy-3-methoxyoxolan-2-yl]-2-oxoethoxy]-3,4-dihydroxy-<I>N</I>-[(4-methoxyphenyl)methyl]-3,4-dihydro-2<I>H</I>-pyran-6-carboxamide
> <PUBCHEM_IUPAC_NAME>
(2S,3S,4S)-2-[(1R)-2-amino-1-[(2S,3S,4R,5R)-5-(2,4-dioxopyrimidin-1-yl)-4-hydroxy-3-methoxyoxolan-2-yl]-2-oxoethoxy]-3,4-dihydroxy-N-[(4-methoxyphenyl)methyl]-3,4-dihydro-2H-pyran-6-carboxamide
> <PUBCHEM_IUPAC_SYSTEMATIC_NAME>
(2S,3S,4S)-2-[(1R)-2-azanyl-1-[(2S,3S,4R,5R)-5-[2,4-bis(oxidanylidene)pyrimidin-1-yl]-3-methoxy-4-oxidanyl-oxolan-2-yl]-2-oxidanylidene-ethoxy]-N-[(4-methoxyphenyl)methyl]-3,4-bis(oxidanyl)-3,4-dihydro-2H-pyran-6-carboxamide
> <PUBCHEM_IUPAC_TRADITIONAL_NAME>
(2S,3S,4S)-2-[(1R)-2-amino-1-[(2S,3S,4R,5R)-5-(2,4-diketopyrimidin-1-yl)-4-hydroxy-3-methoxy-tetrahydrofuran-2-yl]-2-keto-ethoxy]-3,4-dihydroxy-N-p-anisyl-3,4-dihydro-2H-pyran-6-carboxamide
> <PUBCHEM_IUPAC_INCHI>
InChI=1S/C25H30N4O12/c1-37-12-5-3-11(4-6-12)10-27-22(35)14-9-13(30)16(32)24(39-14)41-20(21(26)34)19-18(38-2)17(33)23(40-19)29-8-7-15(31)28-25(29)36/h3-9,13,16-20,23-24,30,32-33H,10H2,1-2H3,(H2,26,34)(H,27,35)(H,28,31,36)/t13-,16-,17+,18-,19-,20+,23+,24+/m0/s1
> <PUBCHEM_IUPAC_INCHIKEY>
JHXSFVRRGVERTJ-YEHZMZNXSA-N
> <PUBCHEM_XLOGP3_AA>
-2.8
> <PUBCHEM_EXACT_MASS>
578.18602241
> <PUBCHEM_MOLECULAR_FORMULA>
C25H30N4O12
> <PUBCHEM_MOLECULAR_WEIGHT>
578.5
> <PUBCHEM_OPENEYE_CAN_SMILES>
COC1C(C(OC1C(C(=O)N)OC2C(C(C=C(O2)C(=O)NCC3=CC=C(C=C3)OC)O)O)N4C=CC(=O)NC4=O)O
> <PUBCHEM_OPENEYE_ISO_SMILES>
CO[C@H]1[C@H]([C@@H](O[C@@H]1[C@H](C(=O)N)O[C@@H]2[C@H]([C@H](C=C(O2)C(=O)NCC3=CC=C(C=C3)OC)O)O)N4C=CC(=O)NC4=O)O
> <PUBCHEM_CACTVS_TPSA>
228
> <PUBCHEM_MONOISOTOPIC_WEIGHT>
578.18602241
> <PUBCHEM_TOTAL_CHARGE>
0
> <PUBCHEM_HEAVY_ATOM_COUNT>
41
> <PUBCHEM_ATOM_DEF_STEREO_COUNT>
8
> <PUBCHEM_ATOM_UDEF_STEREO_COUNT>
0
> <PUBCHEM_BOND_DEF_STEREO_COUNT>
0
> <PUBCHEM_BOND_UDEF_STEREO_COUNT>
0
> <PUBCHEM_ISOTOPIC_ATOM_COUNT>
0
> <PUBCHEM_COMPONENT_COUNT>
1
> <PUBCHEM_CACTVS_TAUTO_COUNT>
-1
> <PUBCHEM_COORDINATE_TYPE>
1
5
255
> <PUBCHEM_BONDANNOTATIONS>
20  13  5
13  25  8
13  26  8
14  25  8
14  32  8
17  42  6
18  2  6
26  29  8
29  32  8
21  3  6
22  3  5
35  36  8
35  37  8
36  38  8
37  39  8
38  40  8
39  40  8
19  4  6
24  6  6
28  8  6
$$$$
