513506
  -OEChem-10302200282D
 35 36  0     1  0  0  0  0  0999 V2000
    4.8532    0.6997    0.0000 S   0  0  0  0  0  0  0  0  0  0  0  0
    5.1270   -0.3598    0.0000 O   0  0  0  0  0  0  0  0  0  0  0  0
    4.0392   -2.7076    0.0000 O   0  0  0  0  0  0  0  0  0  0  0  0
    6.8870   -0.6386    0.0000 O   0  0  0  0  0  0  0  0  0  0  0  0
    6.2147   -2.7076    0.0000 O   0  0  0  0  0  0  0  0  0  0  0  0
    2.5352    3.2740    0.0000 O   0  0  0  0  0  0  0  0  0  0  0  0
    3.1590    0.3396    0.0000 N   0  0  0  0  0  0  0  0  0  0  0  0
    3.6942    1.9869    0.0000 N   0  0  0  0  0  0  0  0  0  0  0  0
    4.3179   -0.9476    0.0000 C   0  0  3  0  0  0  0  0  0  0  0  0
    4.6270   -1.8986    0.0000 C   0  0  3  0  0  0  0  0  0  0  0  0
    5.6270   -1.8986    0.0000 C   0  0  3  0  0  0  0  0  0  0  0  0
    5.9360   -0.9476    0.0000 C   0  0  3  0  0  0  0  0  0  0  0  0
    3.3669   -0.6386    0.0000 C   0  0  0  0  0  0  0  0  0  0  0  0
    3.9021    1.0087    0.0000 C   0  0  0  0  0  0  0  0  0  0  0  0
    2.2079    0.6486    0.0000 C   0  0  0  0  0  0  0  0  0  0  0  0
    7.0949    0.3396    0.0000 C   0  0  0  0  0  0  0  0  0  0  0  0
    2.0000    1.6268    0.0000 C   0  0  0  0  0  0  0  0  0  0  0  0
    2.7431    2.2959    0.0000 C   0  0  0  0  0  0  0  0  0  0  0  0
    5.5963    1.3688    0.0000 C   0  0  0  0  0  0  0  0  0  0  0  0
    4.2210   -0.3352    0.0000 H   0  0  0  0  0  0  0  0  0  0  0  0
    4.0146   -1.8016    0.0000 H   0  0  0  0  0  0  0  0  0  0  0  0
    5.3455   -2.4510    0.0000 H   0  0  0  0  0  0  0  0  0  0  0  0
    6.3744   -1.3860    0.0000 H   0  0  0  0  0  0  0  0  0  0  0  0
    2.7473   -0.6602    0.0000 H   0  0  0  0  0  0  0  0  0  0  0  0
    3.2806   -1.2525    0.0000 H   0  0  0  0  0  0  0  0  0  0  0  0
    4.2913   -3.2740    0.0000 H   0  0  0  0  0  0  0  0  0  0  0  0
    6.8313   -2.6428    0.0000 H   0  0  0  0  0  0  0  0  0  0  0  0
    1.7472    0.2338    0.0000 H   0  0  0  0  0  0  0  0  0  0  0  0
    7.7014    0.2107    0.0000 H   0  0  0  0  0  0  0  0  0  0  0  0
    7.2238    0.9460    0.0000 H   0  0  0  0  0  0  0  0  0  0  0  0
    6.4885    0.4685    0.0000 H   0  0  0  0  0  0  0  0  0  0  0  0
    1.4103    1.8184    0.0000 H   0  0  0  0  0  0  0  0  0  0  0  0
    6.0112    0.9081    0.0000 H   0  0  0  0  0  0  0  0  0  0  0  0
    6.0571    1.7837    0.0000 H   0  0  0  0  0  0  0  0  0  0  0  0
    5.1814    1.8296    0.0000 H   0  0  0  0  0  0  0  0  0  0  0  0
  1 14  1  0  0  0  0
  1 19  1  0  0  0  0
  2  9  1  0  0  0  0
  2 12  1  0  0  0  0
  3 10  1  0  0  0  0
  3 26  1  0  0  0  0
  4 12  1  0  0  0  0
  4 16  1  0  0  0  0
  5 11  1  0  0  0  0
  5 27  1  0  0  0  0
  6 18  2  0  0  0  0
  7 13  1  0  0  0  0
  7 14  1  0  0  0  0
  7 15  1  0  0  0  0
  8 14  2  0  0  0  0
  8 18  1  0  0  0  0
  9 10  1  0  0  0  0
  9 13  1  0  0  0  0
  9 20  1  0  0  0  0
 10 11  1  0  0  0  0
 10 21  1  0  0  0  0
 11 12  1  0  0  0  0
 11 22  1  0  0  0  0
 12 23  1  0  0  0  0
 13 24  1  0  0  0  0
 13 25  1  0  0  0  0
 15 17  2  0  0  0  0
 15 28  1  0  0  0  0
 16 29  1  0  0  0  0
 16 30  1  0  0  0  0
 16 31  1  0  0  0  0
 17 18  1  0  0  0  0
 17 32  1  0  0  0  0
 19 33  1  0  0  0  0
 19 34  1  0  0  0  0
 19 35  1  0  0  0  0
M  END
> <PUBCHEM_COMPOUND_CID>
513506
> <PUBCHEM_COMPOUND_CANONICALIZED>
1
> <PUBCHEM_CACTVS_COMPLEXITY>
414
> <PUBCHEM_CACTVS_HBOND_ACCEPTOR>
6
> <PUBCHEM_CACTVS_HBOND_DONOR>
2
> <PUBCHEM_CACTVS_ROTATABLE_BOND>
4
> <PUBCHEM_CACTVS_SUBSKEYS>
AAADceBzOABAAAAAAAAAAAAAAAAAASAAAAAgAAAAAAAAAAAAAAAAHgQACAAACBTxgAeDCAMABgioACFWdACAEAFAAgAJAAAIAEATEAIAiAAnQAAHAAAXAMDwEAIAAAAAAAAAAAAAAAAAAAAAAAAAAAAAAA==
> <PUBCHEM_IUPAC_OPENEYE_NAME>
1-[(3,4-dihydroxy-5-methoxy-tetrahydrofuran-2-yl)methyl]-2-methylsulfanyl-pyrimidin-4-one
> <PUBCHEM_IUPAC_CAS_NAME>
1-[(3,4-dihydroxy-5-methoxy-2-oxolanyl)methyl]-2-(methylthio)-4-pyrimidinone
> <PUBCHEM_IUPAC_NAME_MARKUP>
1-[(3,4-dihydroxy-5-methoxyoxolan-2-yl)methyl]-2-methylsulfanylpyrimidin-4-one
> <PUBCHEM_IUPAC_NAME>
1-[(3,4-dihydroxy-5-methoxyoxolan-2-yl)methyl]-2-methylsulfanylpyrimidin-4-one
> <PUBCHEM_IUPAC_SYSTEMATIC_NAME>
1-[[5-methoxy-3,4-bis(oxidanyl)oxolan-2-yl]methyl]-2-methylsulfanyl-pyrimidin-4-one
> <PUBCHEM_IUPAC_TRADITIONAL_NAME>
1-[(3,4-dihydroxy-5-methoxy-tetrahydrofuran-2-yl)methyl]-2-(methylthio)pyrimidin-4-one
> <PUBCHEM_IUPAC_INCHI>
InChI=1S/C11H16N2O5S/c1-17-10-9(16)8(15)6(18-10)5-13-4-3-7(14)12-11(13)19-2/h3-4,6,8-10,15-16H,5H2,1-2H3
> <PUBCHEM_IUPAC_INCHIKEY>
PLXUHLRMUJIHII-UHFFFAOYSA-N
> <PUBCHEM_XLOGP3_AA>
-1.1
> <PUBCHEM_EXACT_MASS>
288.07799279
> <PUBCHEM_MOLECULAR_FORMULA>
C11H16N2O5S
> <PUBCHEM_MOLECULAR_WEIGHT>
288.32
> <PUBCHEM_OPENEYE_CAN_SMILES>
COC1C(C(C(O1)CN2C=CC(=O)N=C2SC)O)O
> <PUBCHEM_OPENEYE_ISO_SMILES>
COC1C(C(C(O1)CN2C=CC(=O)N=C2SC)O)O
> <PUBCHEM_CACTVS_TPSA>
117
> <PUBCHEM_MONOISOTOPIC_WEIGHT>
288.07799279
> <PUBCHEM_TOTAL_CHARGE>
0
> <PUBCHEM_HEAVY_ATOM_COUNT>
19
> <PUBCHEM_ATOM_DEF_STEREO_COUNT>
0
> <PUBCHEM_ATOM_UDEF_STEREO_COUNT>
4
> <PUBCHEM_BOND_DEF_STEREO_COUNT>
0
> <PUBCHEM_BOND_UDEF_STEREO_COUNT>
0
> <PUBCHEM_ISOTOPIC_ATOM_COUNT>
0
> <PUBCHEM_COMPONENT_COUNT>
1
> <PUBCHEM_CACTVS_TAUTO_COUNT>
-1
> <PUBCHEM_COORDINATE_TYPE>
1
5
255
> <PUBCHEM_BONDANNOTATIONS>
15  17  8
17  18  8
10  3  3
12  4  3
11  5  3
7  14  8
7  15  8
8  14  8
8  18  8
9  13  3
$$$$
