513547
  -OEChem-10302200282D
 67 70  0     1  0  0  0  0  0999 V2000
    2.0000    2.4159    0.0000 F   0  0  0  0  0  0  0  0  0  0  0  0
   12.4398   -0.6774    0.0000 O   0  0  0  0  0  0  0  0  0  0  0  0
   10.8877   -2.7478    0.0000 O   0  0  0  0  0  0  0  0  0  0  0  0
   10.6603    0.4159    0.0000 O   0  0  0  0  0  0  0  0  0  0  0  0
   13.0157   -3.2001    0.0000 O   0  0  0  0  0  0  0  0  0  0  0  0
    8.9282    0.4159    0.0000 O   0  0  0  0  0  0  0  0  0  0  0  0
   10.6603    2.4159    0.0000 O   0  0  0  0  0  0  0  0  0  0  0  0
    8.9282   -0.5841    0.0000 O   0  0  0  0  0  0  0  0  0  0  0  0
    8.9282    3.4159    0.0000 O   0  0  0  0  0  0  0  0  0  0  0  0
   14.2845   -3.0385    0.0000 O   0  0  0  0  0  0  0  0  0  0  0  0
   17.0870   -1.0024    0.0000 O   0  0  0  0  0  0  0  0  0  0  0  0
    7.1962   -0.5841    0.0000 O   0  0  0  0  0  0  0  0  0  0  0  0
   14.1035   -1.3160    0.0000 N   0  0  0  0  0  0  0  0  0  0  0  0
    9.7942   -2.0841    0.0000 N   0  0  0  0  0  0  0  0  0  0  0  0
   15.6858   -2.0205    0.0000 N   0  0  0  0  0  0  0  0  0  0  0  0
    6.3301    0.9159    0.0000 N   0  0  0  0  0  0  0  0  0  0  0  0
   11.5263   -1.0841    0.0000 C   0  0  1  0  0  0  0  0  0  0  0  0
   11.6308   -2.0786    0.0000 C   0  0  2  0  0  0  0  0  0  0  0  0
   12.6090   -2.2865    0.0000 C   0  0  2  0  0  0  0  0  0  0  0  0
   13.1090   -1.4205    0.0000 C   0  0  1  0  0  0  0  0  0  0  0  0
   10.6603   -0.5841    0.0000 C   0  0  2  0  0  0  0  0  0  0  0  0
    9.7942    0.9159    0.0000 C   0  0  1  0  0  0  0  0  0  0  0  0
    9.7942   -1.0841    0.0000 C   0  0  0  0  0  0  0  0  0  0  0  0
    9.7942    1.9159    0.0000 C   0  0  2  0  0  0  0  0  0  0  0  0
   14.6913   -2.1250    0.0000 C   0  0  0  0  0  0  0  0  0  0  0  0
   14.5102   -0.4024    0.0000 C   0  0  0  0  0  0  0  0  0  0  0  0
    8.9282    2.4159    0.0000 C   0  0  2  0  0  0  0  0  0  0  0  0
   11.0956   -3.7259    0.0000 C   0  0  0  0  0  0  0  0  0  0  0  0
    8.0622    1.9159    0.0000 C   0  0  0  0  0  0  0  0  0  0  0  0
   15.5047   -0.2979    0.0000 C   0  0  0  0  0  0  0  0  0  0  0  0
    8.0622    0.9159    0.0000 C   0  0  0  0  0  0  0  0  0  0  0  0
   16.0925   -1.1069    0.0000 C   0  0  0  0  0  0  0  0  0  0  0  0
    7.1962    0.4159    0.0000 C   0  0  0  0  0  0  0  0  0  0  0  0
    5.4641    0.4159    0.0000 C   0  0  0  0  0  0  0  0  0  0  0  0
    4.5981    0.9159    0.0000 C   0  0  0  0  0  0  0  0  0  0  0  0
    3.7320    0.4159    0.0000 C   0  0  0  0  0  0  0  0  0  0  0  0
    4.5981    1.9159    0.0000 C   0  0  0  0  0  0  0  0  0  0  0  0
    2.8660    0.9159    0.0000 C   0  0  0  0  0  0  0  0  0  0  0  0
    3.7320    2.4159    0.0000 C   0  0  0  0  0  0  0  0  0  0  0  0
    2.8660    1.9159    0.0000 C   0  0  0  0  0  0  0  0  0  0  0  0
   12.2624   -1.5091    0.0000 H   0  0  0  0  0  0  0  0  0  0  0  0
   11.7913   -2.6775    0.0000 H   0  0  0  0  0  0  0  0  0  0  0  0
   13.2281   -2.3190    0.0000 H   0  0  0  0  0  0  0  0  0  0  0  0
   13.4466   -1.9405    0.0000 H   0  0  0  0  0  0  0  0  0  0  0  0
   11.1972   -0.2741    0.0000 H   0  0  0  0  0  0  0  0  0  0  0  0
    9.7942    0.2959    0.0000 H   0  0  0  0  0  0  0  0  0  0  0  0
   12.6513   -3.7017    0.0000 H   0  0  0  0  0  0  0  0  0  0  0  0
    9.7942    2.5359    0.0000 H   0  0  0  0  0  0  0  0  0  0  0  0
   14.1458    0.0992    0.0000 H   0  0  0  0  0  0  0  0  0  0  0  0
    8.3913    2.7259    0.0000 H   0  0  0  0  0  0  0  0  0  0  0  0
   10.4891   -3.8548    0.0000 H   0  0  0  0  0  0  0  0  0  0  0  0
   11.2245   -4.3324    0.0000 H   0  0  0  0  0  0  0  0  0  0  0  0
   11.7020   -3.5970    0.0000 H   0  0  0  0  0  0  0  0  0  0  0  0
    7.5252    2.2259    0.0000 H   0  0  0  0  0  0  0  0  0  0  0  0
    9.2573   -2.3941    0.0000 H   0  0  0  0  0  0  0  0  0  0  0  0
   10.3312   -2.3941    0.0000 H   0  0  0  0  0  0  0  0  0  0  0  0
   16.0502   -2.5221    0.0000 H   0  0  0  0  0  0  0  0  0  0  0  0
   15.7569    0.2685    0.0000 H   0  0  0  0  0  0  0  0  0  0  0  0
   10.6603    3.0359    0.0000 H   0  0  0  0  0  0  0  0  0  0  0  0
    8.3913    3.7259    0.0000 H   0  0  0  0  0  0  0  0  0  0  0  0
    6.3301    1.5359    0.0000 H   0  0  0  0  0  0  0  0  0  0  0  0
    5.0656   -0.0590    0.0000 H   0  0  0  0  0  0  0  0  0  0  0  0
    5.8626   -0.0590    0.0000 H   0  0  0  0  0  0  0  0  0  0  0  0
    3.7320   -0.2041    0.0000 H   0  0  0  0  0  0  0  0  0  0  0  0
    5.1350    2.2259    0.0000 H   0  0  0  0  0  0  0  0  0  0  0  0
    2.3291    0.6059    0.0000 H   0  0  0  0  0  0  0  0  0  0  0  0
    3.7320    3.0359    0.0000 H   0  0  0  0  0  0  0  0  0  0  0  0
  1 40  1  0  0  0  0
  2 17  1  0  0  0  0
  2 20  1  0  0  0  0
 18  3  1  6  0  0  0
  3 28  1  0  0  0  0
 21  4  1  6  0  0  0
 22  4  1  1  0  0  0
 19  5  1  6  0  0  0
  5 47  1  0  0  0  0
  6 22  1  0  0  0  0
  6 31  1  0  0  0  0
 24  7  1  6  0  0  0
  7 59  1  0  0  0  0
  8 23  2  0  0  0  0
 27  9  1  6  0  0  0
  9 60  1  0  0  0  0
 10 25  2  0  0  0  0
 11 32  2  0  0  0  0
 12 33  2  0  0  0  0
 20 13  1  1  0  0  0
 13 25  1  0  0  0  0
 13 26  1  0  0  0  0
 14 23  1  0  0  0  0
 14 55  1  0  0  0  0
 14 56  1  0  0  0  0
 15 25  1  0  0  0  0
 15 32  1  0  0  0  0
 15 57  1  0  0  0  0
 16 33  1  0  0  0  0
 16 34  1  0  0  0  0
 16 61  1  0  0  0  0
 17 18  1  0  0  0  0
 17 21  1  0  0  0  0
 17 41  1  6  0  0  0
 18 19  1  0  0  0  0
 18 42  1  0  0  0  0
 19 20  1  0  0  0  0
 19 43  1  0  0  0  0
 20 44  1  0  0  0  0
 21 23  1  0  0  0  0
 21 45  1  0  0  0  0
 22 24  1  0  0  0  0
 22 46  1  0  0  0  0
 24 27  1  0  0  0  0
 24 48  1  0  0  0  0
 26 30  2  0  0  0  0
 26 49  1  0  0  0  0
 27 29  1  0  0  0  0
 27 50  1  0  0  0  0
 28 51  1  0  0  0  0
 28 52  1  0  0  0  0
 28 53  1  0  0  0  0
 29 31  2  0  0  0  0
 29 54  1  0  0  0  0
 30 32  1  0  0  0  0
 30 58  1  0  0  0  0
 31 33  1  0  0  0  0
 34 35  1  0  0  0  0
 34 62  1  0  0  0  0
 34 63  1  0  0  0  0
 35 36  2  0  0  0  0
 35 37  1  0  0  0  0
 36 38  1  0  0  0  0
 36 64  1  0  0  0  0
 37 39  2  0  0  0  0
 37 65  1  0  0  0  0
 38 40  2  0  0  0  0
 38 66  1  0  0  0  0
 39 40  1  0  0  0  0
 39 67  1  0  0  0  0
M  END
> <PUBCHEM_COMPOUND_CID>
513547
> <PUBCHEM_COMPOUND_CANONICALIZED>
1
> <PUBCHEM_CACTVS_COMPLEXITY>
1050
> <PUBCHEM_CACTVS_HBOND_ACCEPTOR>
12
> <PUBCHEM_CACTVS_HBOND_DONOR>
6
> <PUBCHEM_CACTVS_ROTATABLE_BOND>
9
> <PUBCHEM_CACTVS_SUBSKEYS>
AAADceB7vQAAAAAAAAAAAAAAAAAAASAAAAAwQIAAAAAAAAABAAAAHwAQCAAADBTxmA8zCIPABgCIAiFWUAKCCAAgIgAIiIFIBMibNDaAkRWvcAhv9yKfmcf6/A5OAAAAAAAAAAAAAAAAAAAAAAAAAAAAAA==
> <PUBCHEM_IUPAC_OPENEYE_NAME>
(2S,3S,4S)-2-[(1R)-2-amino-1-[(2S,3S,4R,5R)-5-(2,4-dioxopyrimidin-1-yl)-4-hydroxy-3-methoxy-tetrahydrofuran-2-yl]-2-oxo-ethoxy]-N-[(4-fluorophenyl)methyl]-3,4-dihydroxy-3,4-dihydro-2H-pyran-6-carboxamide
> <PUBCHEM_IUPAC_CAS_NAME>
(2S,3S,4S)-2-[(1R)-2-amino-1-[(2S,3S,4R,5R)-5-(2,4-dioxo-1-pyrimidinyl)-4-hydroxy-3-methoxy-2-oxolanyl]-2-oxoethoxy]-N-[(4-fluorophenyl)methyl]-3,4-dihydroxy-3,4-dihydro-2H-pyran-6-carboxamide
> <PUBCHEM_IUPAC_NAME_MARKUP>
(2<I>S</I>,3<I>S</I>,4<I>S</I>)-2-[(1<I>R</I>)-2-amino-1-[(2<I>S</I>,3<I>S</I>,4<I>R</I>,5<I>R</I>)-5-(2,4-dioxopyrimidin-1-yl)-4-hydroxy-3-methoxyoxolan-2-yl]-2-oxoethoxy]-<I>N</I>-[(4-fluorophenyl)methyl]-3,4-dihydroxy-3,4-dihydro-2<I>H</I>-pyran-6-carboxamide
> <PUBCHEM_IUPAC_NAME>
(2S,3S,4S)-2-[(1R)-2-amino-1-[(2S,3S,4R,5R)-5-(2,4-dioxopyrimidin-1-yl)-4-hydroxy-3-methoxyoxolan-2-yl]-2-oxoethoxy]-N-[(4-fluorophenyl)methyl]-3,4-dihydroxy-3,4-dihydro-2H-pyran-6-carboxamide
> <PUBCHEM_IUPAC_SYSTEMATIC_NAME>
(2S,3S,4S)-2-[(1R)-2-azanyl-1-[(2S,3S,4R,5R)-5-[2,4-bis(oxidanylidene)pyrimidin-1-yl]-3-methoxy-4-oxidanyl-oxolan-2-yl]-2-oxidanylidene-ethoxy]-N-[(4-fluorophenyl)methyl]-3,4-bis(oxidanyl)-3,4-dihydro-2H-pyran-6-carboxamide
> <PUBCHEM_IUPAC_TRADITIONAL_NAME>
(2S,3S,4S)-2-[(1R)-2-amino-1-[(2S,3S,4R,5R)-5-(2,4-diketopyrimidin-1-yl)-4-hydroxy-3-methoxy-tetrahydrofuran-2-yl]-2-keto-ethoxy]-N-(4-fluorobenzyl)-3,4-dihydroxy-3,4-dihydro-2H-pyran-6-carboxamide
> <PUBCHEM_IUPAC_INCHI>
InChI=1S/C24H27FN4O11/c1-37-17-16(33)22(29-7-6-14(31)28-24(29)36)39-18(17)19(20(26)34)40-23-15(32)12(30)8-13(38-23)21(35)27-9-10-2-4-11(25)5-3-10/h2-8,12,15-19,22-23,30,32-33H,9H2,1H3,(H2,26,34)(H,27,35)(H,28,31,36)/t12-,15-,16+,17-,18-,19+,22+,23+/m0/s1
> <PUBCHEM_IUPAC_INCHIKEY>
LYXGJYLSIWNIAD-RYQUHRKNSA-N
> <PUBCHEM_XLOGP3_AA>
-2.7
> <PUBCHEM_EXACT_MASS>
566.16603585
> <PUBCHEM_MOLECULAR_FORMULA>
C24H27FN4O11
> <PUBCHEM_MOLECULAR_WEIGHT>
566.5
> <PUBCHEM_OPENEYE_CAN_SMILES>
COC1C(C(OC1C(C(=O)N)OC2C(C(C=C(O2)C(=O)NCC3=CC=C(C=C3)F)O)O)N4C=CC(=O)NC4=O)O
> <PUBCHEM_OPENEYE_ISO_SMILES>
CO[C@H]1[C@H]([C@@H](O[C@@H]1[C@H](C(=O)N)O[C@@H]2[C@H]([C@H](C=C(O2)C(=O)NCC3=CC=C(C=C3)F)O)O)N4C=CC(=O)NC4=O)O
> <PUBCHEM_CACTVS_TPSA>
219
> <PUBCHEM_MONOISOTOPIC_WEIGHT>
566.16603585
> <PUBCHEM_TOTAL_CHARGE>
0
> <PUBCHEM_HEAVY_ATOM_COUNT>
40
> <PUBCHEM_ATOM_DEF_STEREO_COUNT>
8
> <PUBCHEM_ATOM_UDEF_STEREO_COUNT>
0
> <PUBCHEM_BOND_DEF_STEREO_COUNT>
0
> <PUBCHEM_BOND_UDEF_STEREO_COUNT>
0
> <PUBCHEM_ISOTOPIC_ATOM_COUNT>
0
> <PUBCHEM_COMPONENT_COUNT>
1
> <PUBCHEM_CACTVS_TAUTO_COUNT>
-1
> <PUBCHEM_COORDINATE_TYPE>
1
5
255
> <PUBCHEM_BONDANNOTATIONS>
20  13  5
13  25  8
13  26  8
15  25  8
15  32  8
17  41  6
26  30  8
18  3  6
30  32  8
35  36  8
35  37  8
36  38  8
37  39  8
38  40  8
39  40  8
21  4  6
22  4  5
19  5  6
24  7  6
27  9  6
$$$$
