513578
  -OEChem-10302200282D
 60 63  0     1  0  0  0  0  0999 V2000
    3.4782   -0.5786    0.0000 S   0  0  0  0  0  0  0  0  0  0  0  0
   10.5584   -0.6774    0.0000 O   0  0  0  0  0  0  0  0  0  0  0  0
    9.0062   -2.7478    0.0000 O   0  0  0  0  0  0  0  0  0  0  0  0
    8.7788    0.4159    0.0000 O   0  0  0  0  0  0  0  0  0  0  0  0
   11.1343   -3.2001    0.0000 O   0  0  0  0  0  0  0  0  0  0  0  0
    7.0468    0.4159    0.0000 O   0  0  0  0  0  0  0  0  0  0  0  0
    8.7788    2.4159    0.0000 O   0  0  0  0  0  0  0  0  0  0  0  0
    7.0468   -0.5841    0.0000 O   0  0  0  0  0  0  0  0  0  0  0  0
    7.0468    3.4159    0.0000 O   0  0  0  0  0  0  0  0  0  0  0  0
   12.4031   -3.0385    0.0000 O   0  0  0  0  0  0  0  0  0  0  0  0
   15.2056   -1.0024    0.0000 O   0  0  0  0  0  0  0  0  0  0  0  0
    5.3147   -0.5841    0.0000 O   0  0  0  0  0  0  0  0  0  0  0  0
   12.2221   -1.3160    0.0000 N   0  0  0  0  0  0  0  0  0  0  0  0
    7.9128   -2.0841    0.0000 N   0  0  0  0  0  0  0  0  0  0  0  0
   13.8044   -2.0205    0.0000 N   0  0  0  0  0  0  0  0  0  0  0  0
    4.4487    0.9159    0.0000 N   0  0  0  0  0  0  0  0  0  0  0  0
    2.6691    0.8226    0.0000 N   0  0  0  0  0  0  0  0  0  0  0  0
    9.6448   -1.0841    0.0000 C   0  0  1  0  0  0  0  0  0  0  0  0
    9.7494   -2.0786    0.0000 C   0  0  2  0  0  0  0  0  0  0  0  0
   10.7275   -2.2865    0.0000 C   0  0  2  0  0  0  0  0  0  0  0  0
   11.2275   -1.4205    0.0000 C   0  0  1  0  0  0  0  0  0  0  0  0
    8.7788   -0.5841    0.0000 C   0  0  2  0  0  0  0  0  0  0  0  0
    7.9128    0.9159    0.0000 C   0  0  1  0  0  0  0  0  0  0  0  0
    7.9128   -1.0841    0.0000 C   0  0  0  0  0  0  0  0  0  0  0  0
    7.9128    1.9159    0.0000 C   0  0  2  0  0  0  0  0  0  0  0  0
   12.8098   -2.1250    0.0000 C   0  0  0  0  0  0  0  0  0  0  0  0
   12.6288   -0.4024    0.0000 C   0  0  0  0  0  0  0  0  0  0  0  0
    7.0468    2.4159    0.0000 C   0  0  2  0  0  0  0  0  0  0  0  0
    9.2142   -3.7259    0.0000 C   0  0  0  0  0  0  0  0  0  0  0  0
    6.1808    1.9159    0.0000 C   0  0  0  0  0  0  0  0  0  0  0  0
   13.6233   -0.2979    0.0000 C   0  0  0  0  0  0  0  0  0  0  0  0
    6.1808    0.9159    0.0000 C   0  0  0  0  0  0  0  0  0  0  0  0
   14.2111   -1.1069    0.0000 C   0  0  0  0  0  0  0  0  0  0  0  0
    5.3147    0.4159    0.0000 C   0  0  0  0  0  0  0  0  0  0  0  0
    3.5827    0.4159    0.0000 C   0  0  0  0  0  0  0  0  0  0  0  0
    2.5000   -0.7865    0.0000 C   0  0  0  0  0  0  0  0  0  0  0  0
    2.0000    0.0795    0.0000 C   0  0  0  0  0  0  0  0  0  0  0  0
   10.3810   -1.5091    0.0000 H   0  0  0  0  0  0  0  0  0  0  0  0
    9.1706   -1.8564    0.0000 H   0  0  0  0  0  0  0  0  0  0  0  0
   10.3374   -2.7684    0.0000 H   0  0  0  0  0  0  0  0  0  0  0  0
   11.5652   -1.9405    0.0000 H   0  0  0  0  0  0  0  0  0  0  0  0
    9.3158   -0.2741    0.0000 H   0  0  0  0  0  0  0  0  0  0  0  0
    7.9128    0.2959    0.0000 H   0  0  0  0  0  0  0  0  0  0  0  0
   10.7698   -3.7017    0.0000 H   0  0  0  0  0  0  0  0  0  0  0  0
    7.9128    2.5359    0.0000 H   0  0  0  0  0  0  0  0  0  0  0  0
   12.2644    0.0992    0.0000 H   0  0  0  0  0  0  0  0  0  0  0  0
    6.5098    2.7259    0.0000 H   0  0  0  0  0  0  0  0  0  0  0  0
    8.6077   -3.8548    0.0000 H   0  0  0  0  0  0  0  0  0  0  0  0
    9.3430   -4.3324    0.0000 H   0  0  0  0  0  0  0  0  0  0  0  0
    9.8206   -3.5970    0.0000 H   0  0  0  0  0  0  0  0  0  0  0  0
    5.6438    2.2259    0.0000 H   0  0  0  0  0  0  0  0  0  0  0  0
    7.3759   -2.3941    0.0000 H   0  0  0  0  0  0  0  0  0  0  0  0
    8.4497   -2.3941    0.0000 H   0  0  0  0  0  0  0  0  0  0  0  0
   14.1688   -2.5221    0.0000 H   0  0  0  0  0  0  0  0  0  0  0  0
   13.8755    0.2685    0.0000 H   0  0  0  0  0  0  0  0  0  0  0  0
    8.7788    3.0359    0.0000 H   0  0  0  0  0  0  0  0  0  0  0  0
    6.5098    3.7259    0.0000 H   0  0  0  0  0  0  0  0  0  0  0  0
    4.4487    1.5359    0.0000 H   0  0  0  0  0  0  0  0  0  0  0  0
    2.2478   -1.3529    0.0000 H   0  0  0  0  0  0  0  0  0  0  0  0
    1.3834    0.1443    0.0000 H   0  0  0  0  0  0  0  0  0  0  0  0
  1 35  1  0  0  0  0
  1 36  1  0  0  0  0
  2 18  1  0  0  0  0
  2 21  1  0  0  0  0
 19  3  1  6  0  0  0
  3 29  1  0  0  0  0
 22  4  1  6  0  0  0
 23  4  1  1  0  0  0
 20  5  1  6  0  0  0
  5 44  1  0  0  0  0
  6 23  1  0  0  0  0
  6 32  1  0  0  0  0
 25  7  1  6  0  0  0
  7 56  1  0  0  0  0
  8 24  2  0  0  0  0
 28  9  1  6  0  0  0
  9 57  1  0  0  0  0
 10 26  2  0  0  0  0
 11 33  2  0  0  0  0
 12 34  2  0  0  0  0
 21 13  1  1  0  0  0
 13 26  1  0  0  0  0
 13 27  1  0  0  0  0
 14 24  1  0  0  0  0
 14 52  1  0  0  0  0
 14 53  1  0  0  0  0
 15 26  1  0  0  0  0
 15 33  1  0  0  0  0
 15 54  1  0  0  0  0
 16 34  1  0  0  0  0
 16 35  1  0  0  0  0
 16 58  1  0  0  0  0
 17 35  2  0  0  0  0
 17 37  1  0  0  0  0
 18 19  1  0  0  0  0
 18 22  1  0  0  0  0
 18 38  1  6  0  0  0
 19 20  1  0  0  0  0
 19 39  1  0  0  0  0
 20 21  1  0  0  0  0
 20 40  1  0  0  0  0
 21 41  1  0  0  0  0
 22 24  1  0  0  0  0
 22 42  1  0  0  0  0
 23 25  1  0  0  0  0
 23 43  1  0  0  0  0
 25 28  1  0  0  0  0
 25 45  1  0  0  0  0
 27 31  2  0  0  0  0
 27 46  1  0  0  0  0
 28 30  1  0  0  0  0
 28 47  1  0  0  0  0
 29 48  1  0  0  0  0
 29 49  1  0  0  0  0
 29 50  1  0  0  0  0
 30 32  2  0  0  0  0
 30 51  1  0  0  0  0
 31 33  1  0  0  0  0
 31 55  1  0  0  0  0
 32 34  1  0  0  0  0
 36 37  2  0  0  0  0
 36 59  1  0  0  0  0
 37 60  1  0  0  0  0
M  END
> <PUBCHEM_COMPOUND_CID>
513578
> <PUBCHEM_COMPOUND_CANONICALIZED>
1
> <PUBCHEM_CACTVS_COMPLEXITY>
996
> <PUBCHEM_CACTVS_HBOND_ACCEPTOR>
13
> <PUBCHEM_CACTVS_HBOND_DONOR>
6
> <PUBCHEM_CACTVS_ROTATABLE_BOND>
8
> <PUBCHEM_CACTVS_SUBSKEYS>
AAADceB7vABAAAAAAAAAAAAAAAAAAWJAAAAgQAAAAAAAAAABgAAAHgQQCAAACBT1wgevmRPIFgisADF3dAKA+KlxKjlJSA1YIEiTFBYAiAQvUAAP9yIfEeP6fA5AAAAAAAAAAAAAAAAAAAAAAAAAAAAAAA==
> <PUBCHEM_IUPAC_OPENEYE_NAME>
(2S,3S,4S)-2-[(1R)-2-amino-1-[(2S,3S,4R,5R)-5-(2,4-dioxopyrimidin-1-yl)-4-hydroxy-3-methoxy-tetrahydrofuran-2-yl]-2-oxo-ethoxy]-3,4-dihydroxy-N-thiazol-2-yl-3,4-dihydro-2H-pyran-6-carboxamide
> <PUBCHEM_IUPAC_CAS_NAME>
(2S,3S,4S)-2-[(1R)-2-amino-1-[(2S,3S,4R,5R)-5-(2,4-dioxo-1-pyrimidinyl)-4-hydroxy-3-methoxy-2-oxolanyl]-2-oxoethoxy]-3,4-dihydroxy-N-(2-thiazolyl)-3,4-dihydro-2H-pyran-6-carboxamide
> <PUBCHEM_IUPAC_NAME_MARKUP>
(2<I>S</I>,3<I>S</I>,4<I>S</I>)-2-[(1<I>R</I>)-2-amino-1-[(2<I>S</I>,3<I>S</I>,4<I>R</I>,5<I>R</I>)-5-(2,4-dioxopyrimidin-1-yl)-4-hydroxy-3-methoxyoxolan-2-yl]-2-oxoethoxy]-3,4-dihydroxy-<I>N</I>-(1,3-thiazol-2-yl)-3,4-dihydro-2<I>H</I>-pyran-6-carboxamide
> <PUBCHEM_IUPAC_NAME>
(2S,3S,4S)-2-[(1R)-2-amino-1-[(2S,3S,4R,5R)-5-(2,4-dioxopyrimidin-1-yl)-4-hydroxy-3-methoxyoxolan-2-yl]-2-oxoethoxy]-3,4-dihydroxy-N-(1,3-thiazol-2-yl)-3,4-dihydro-2H-pyran-6-carboxamide
> <PUBCHEM_IUPAC_SYSTEMATIC_NAME>
(2S,3S,4S)-2-[(1R)-2-azanyl-1-[(2S,3S,4R,5R)-5-[2,4-bis(oxidanylidene)pyrimidin-1-yl]-3-methoxy-4-oxidanyl-oxolan-2-yl]-2-oxidanylidene-ethoxy]-3,4-bis(oxidanyl)-N-(1,3-thiazol-2-yl)-3,4-dihydro-2H-pyran-6-carboxamide
> <PUBCHEM_IUPAC_TRADITIONAL_NAME>
(2S,3S,4S)-2-[(1R)-2-amino-1-[(2S,3S,4R,5R)-5-(2,4-diketopyrimidin-1-yl)-4-hydroxy-3-methoxy-tetrahydrofuran-2-yl]-2-keto-ethoxy]-3,4-dihydroxy-N-thiazol-2-yl-3,4-dihydro-2H-pyran-6-carboxamide
> <PUBCHEM_IUPAC_INCHI>
InChI=1S/C20H23N5O11S/c1-33-12-11(29)17(25-4-2-9(27)23-20(25)32)35-13(12)14(15(21)30)36-18-10(28)7(26)6-8(34-18)16(31)24-19-22-3-5-37-19/h2-7,10-14,17-18,26,28-29H,1H3,(H2,21,30)(H,22,24,31)(H,23,27,32)/t7-,10-,11+,12-,13-,14+,17+,18+/m0/s1
> <PUBCHEM_IUPAC_INCHIKEY>
GLOIXTDUORATHT-ZSTMEXGBSA-N
> <PUBCHEM_XLOGP3_AA>
-3.4
> <PUBCHEM_EXACT_MASS>
541.11147774
> <PUBCHEM_MOLECULAR_FORMULA>
C20H23N5O11S
> <PUBCHEM_MOLECULAR_WEIGHT>
541.5
> <PUBCHEM_OPENEYE_CAN_SMILES>
COC1C(C(OC1C(C(=O)N)OC2C(C(C=C(O2)C(=O)NC3=NC=CS3)O)O)N4C=CC(=O)NC4=O)O
> <PUBCHEM_OPENEYE_ISO_SMILES>
CO[C@H]1[C@H]([C@@H](O[C@@H]1[C@H](C(=O)N)O[C@@H]2[C@H]([C@H](C=C(O2)C(=O)NC3=NC=CS3)O)O)N4C=CC(=O)NC4=O)O
> <PUBCHEM_CACTVS_TPSA>
260
> <PUBCHEM_MONOISOTOPIC_WEIGHT>
541.11147774
> <PUBCHEM_TOTAL_CHARGE>
0
> <PUBCHEM_HEAVY_ATOM_COUNT>
37
> <PUBCHEM_ATOM_DEF_STEREO_COUNT>
8
> <PUBCHEM_ATOM_UDEF_STEREO_COUNT>
0
> <PUBCHEM_BOND_DEF_STEREO_COUNT>
0
> <PUBCHEM_BOND_UDEF_STEREO_COUNT>
0
> <PUBCHEM_ISOTOPIC_ATOM_COUNT>
0
> <PUBCHEM_COMPONENT_COUNT>
1
> <PUBCHEM_CACTVS_TAUTO_COUNT>
-1
> <PUBCHEM_COORDINATE_TYPE>
1
5
255
> <PUBCHEM_BONDANNOTATIONS>
1  35  8
1  36  8
21  13  5
13  26  8
13  27  8
15  26  8
15  33  8
17  35  8
17  37  8
18  38  6
27  31  8
19  3  6
31  33  8
36  37  8
22  4  6
23  4  5
20  5  6
25  7  6
28  9  6
$$$$
