513534
  -OEChem-10302200282D
 78 81  0     1  0  0  0  0  0999 V2000
   13.3059   -0.6774    0.0000 O   0  0  0  0  0  0  0  0  0  0  0  0
   11.7537   -2.7478    0.0000 O   0  0  0  0  0  0  0  0  0  0  0  0
   11.5263    0.4159    0.0000 O   0  0  0  0  0  0  0  0  0  0  0  0
   13.8817   -3.2001    0.0000 O   0  0  0  0  0  0  0  0  0  0  0  0
    9.7942    0.4159    0.0000 O   0  0  0  0  0  0  0  0  0  0  0  0
    9.7942   -0.5841    0.0000 O   0  0  0  0  0  0  0  0  0  0  0  0
   11.5263    2.4159    0.0000 O   0  0  0  0  0  0  0  0  0  0  0  0
   15.1506   -3.0385    0.0000 O   0  0  0  0  0  0  0  0  0  0  0  0
    9.7942    3.4159    0.0000 O   0  0  0  0  0  0  0  0  0  0  0  0
   17.9531   -1.0024    0.0000 O   0  0  0  0  0  0  0  0  0  0  0  0
    8.0622   -0.5841    0.0000 O   0  0  0  0  0  0  0  0  0  0  0  0
    2.0000    0.9159    0.0000 O   0  0  0  0  0  0  0  0  0  0  0  0
    2.0000   -1.0841    0.0000 O   0  0  0  0  0  0  0  0  0  0  0  0
   14.9695   -1.3160    0.0000 N   0  0  0  0  0  0  0  0  0  0  0  0
   16.5518   -2.0205    0.0000 N   0  0  0  0  0  0  0  0  0  0  0  0
   10.6603   -2.0841    0.0000 N   0  0  0  0  0  0  0  0  0  0  0  0
    7.1962    0.9159    0.0000 N   0  0  0  0  0  0  0  0  0  0  0  0
   12.3923   -1.0841    0.0000 C   0  0  1  0  0  0  0  0  0  0  0  0
   12.4968   -2.0786    0.0000 C   0  0  2  0  0  0  0  0  0  0  0  0
   13.4750   -2.2865    0.0000 C   0  0  2  0  0  0  0  0  0  0  0  0
   13.9750   -1.4205    0.0000 C   0  0  1  0  0  0  0  0  0  0  0  0
   11.5263   -0.5841    0.0000 C   0  0  2  0  0  0  0  0  0  0  0  0
   10.6603    0.9159    0.0000 C   0  0  1  0  0  0  0  0  0  0  0  0
   10.6603   -1.0841    0.0000 C   0  0  0  0  0  0  0  0  0  0  0  0
   10.6603    1.9159    0.0000 C   0  0  2  0  0  0  0  0  0  0  0  0
   15.5573   -2.1250    0.0000 C   0  0  0  0  0  0  0  0  0  0  0  0
   15.3762   -0.4024    0.0000 C   0  0  0  0  0  0  0  0  0  0  0  0
   11.9616   -3.7259    0.0000 C   0  0  0  0  0  0  0  0  0  0  0  0
    9.7942    2.4159    0.0000 C   0  0  2  0  0  0  0  0  0  0  0  0
   16.3708   -0.2979    0.0000 C   0  0  0  0  0  0  0  0  0  0  0  0
    8.9282    1.9159    0.0000 C   0  0  0  0  0  0  0  0  0  0  0  0
    8.9282    0.9159    0.0000 C   0  0  0  0  0  0  0  0  0  0  0  0
   16.9585   -1.1069    0.0000 C   0  0  0  0  0  0  0  0  0  0  0  0
    8.0622    0.4159    0.0000 C   0  0  0  0  0  0  0  0  0  0  0  0
    6.3301    0.4159    0.0000 C   0  0  0  0  0  0  0  0  0  0  0  0
    5.4641    0.9159    0.0000 C   0  0  0  0  0  0  0  0  0  0  0  0
    4.5981    0.4159    0.0000 C   0  0  0  0  0  0  0  0  0  0  0  0
    3.7320    0.9159    0.0000 C   0  0  0  0  0  0  0  0  0  0  0  0
    4.5981   -0.5841    0.0000 C   0  0  0  0  0  0  0  0  0  0  0  0
    2.8660    0.4159    0.0000 C   0  0  0  0  0  0  0  0  0  0  0  0
    3.7320   -1.0841    0.0000 C   0  0  0  0  0  0  0  0  0  0  0  0
    2.8660   -0.5841    0.0000 C   0  0  0  0  0  0  0  0  0  0  0  0
    2.0000    1.9159    0.0000 C   0  0  0  0  0  0  0  0  0  0  0  0
    2.0000   -2.0841    0.0000 C   0  0  0  0  0  0  0  0  0  0  0  0
   12.4368   -0.2353    0.0000 H   0  0  0  0  0  0  0  0  0  0  0  0
   11.9180   -1.8564    0.0000 H   0  0  0  0  0  0  0  0  0  0  0  0
   14.0941   -2.3190    0.0000 H   0  0  0  0  0  0  0  0  0  0  0  0
   14.1972   -0.8417    0.0000 H   0  0  0  0  0  0  0  0  0  0  0  0
   10.9893   -0.2741    0.0000 H   0  0  0  0  0  0  0  0  0  0  0  0
   11.1972    1.2259    0.0000 H   0  0  0  0  0  0  0  0  0  0  0  0
   13.5173   -3.7017    0.0000 H   0  0  0  0  0  0  0  0  0  0  0  0
   10.6603    2.5359    0.0000 H   0  0  0  0  0  0  0  0  0  0  0  0
   15.0118    0.0992    0.0000 H   0  0  0  0  0  0  0  0  0  0  0  0
   11.3551   -3.8548    0.0000 H   0  0  0  0  0  0  0  0  0  0  0  0
   12.0905   -4.3324    0.0000 H   0  0  0  0  0  0  0  0  0  0  0  0
   12.5681   -3.5970    0.0000 H   0  0  0  0  0  0  0  0  0  0  0  0
    9.2573    2.7259    0.0000 H   0  0  0  0  0  0  0  0  0  0  0  0
   16.9162   -2.5221    0.0000 H   0  0  0  0  0  0  0  0  0  0  0  0
   16.6229    0.2685    0.0000 H   0  0  0  0  0  0  0  0  0  0  0  0
   10.1233   -2.3941    0.0000 H   0  0  0  0  0  0  0  0  0  0  0  0
   11.1972   -2.3941    0.0000 H   0  0  0  0  0  0  0  0  0  0  0  0
    8.3913    2.2259    0.0000 H   0  0  0  0  0  0  0  0  0  0  0  0
   11.5263    3.0359    0.0000 H   0  0  0  0  0  0  0  0  0  0  0  0
    9.2573    3.7259    0.0000 H   0  0  0  0  0  0  0  0  0  0  0  0
    7.1962    1.5359    0.0000 H   0  0  0  0  0  0  0  0  0  0  0  0
    5.9316   -0.0590    0.0000 H   0  0  0  0  0  0  0  0  0  0  0  0
    6.7287   -0.0590    0.0000 H   0  0  0  0  0  0  0  0  0  0  0  0
    5.8626    1.3908    0.0000 H   0  0  0  0  0  0  0  0  0  0  0  0
    5.0656    1.3908    0.0000 H   0  0  0  0  0  0  0  0  0  0  0  0
    3.7320    1.5359    0.0000 H   0  0  0  0  0  0  0  0  0  0  0  0
    5.1350   -0.8941    0.0000 H   0  0  0  0  0  0  0  0  0  0  0  0
    3.7320   -1.7041    0.0000 H   0  0  0  0  0  0  0  0  0  0  0  0
    2.6200    1.9159    0.0000 H   0  0  0  0  0  0  0  0  0  0  0  0
    2.0000    2.5359    0.0000 H   0  0  0  0  0  0  0  0  0  0  0  0
    1.3800    1.9159    0.0000 H   0  0  0  0  0  0  0  0  0  0  0  0
    1.3800   -2.0841    0.0000 H   0  0  0  0  0  0  0  0  0  0  0  0
    2.0000   -2.7041    0.0000 H   0  0  0  0  0  0  0  0  0  0  0  0
    2.6200   -2.0841    0.0000 H   0  0  0  0  0  0  0  0  0  0  0  0
  1 18  1  0  0  0  0
  1 21  1  0  0  0  0
 19  2  1  6  0  0  0
  2 28  1  0  0  0  0
 22  3  1  6  0  0  0
 23  3  1  1  0  0  0
 20  4  1  6  0  0  0
  4 51  1  0  0  0  0
  5 23  1  0  0  0  0
  5 32  1  0  0  0  0
  6 24  2  0  0  0  0
 25  7  1  6  0  0  0
  7 63  1  0  0  0  0
  8 26  2  0  0  0  0
 29  9  1  6  0  0  0
  9 64  1  0  0  0  0
 10 33  2  0  0  0  0
 11 34  2  0  0  0  0
 12 40  1  0  0  0  0
 12 43  1  0  0  0  0
 13 42  1  0  0  0  0
 13 44  1  0  0  0  0
 21 14  1  1  0  0  0
 14 26  1  0  0  0  0
 14 27  1  0  0  0  0
 15 26  1  0  0  0  0
 15 33  1  0  0  0  0
 15 58  1  0  0  0  0
 16 24  1  0  0  0  0
 16 60  1  0  0  0  0
 16 61  1  0  0  0  0
 17 34  1  0  0  0  0
 17 35  1  0  0  0  0
 17 65  1  0  0  0  0
 18 19  1  0  0  0  0
 18 22  1  0  0  0  0
 18 45  1  6  0  0  0
 19 20  1  0  0  0  0
 19 46  1  0  0  0  0
 20 21  1  0  0  0  0
 20 47  1  0  0  0  0
 21 48  1  0  0  0  0
 22 24  1  0  0  0  0
 22 49  1  0  0  0  0
 23 25  1  0  0  0  0
 23 50  1  0  0  0  0
 25 29  1  0  0  0  0
 25 52  1  0  0  0  0
 27 30  2  0  0  0  0
 27 53  1  0  0  0  0
 28 54  1  0  0  0  0
 28 55  1  0  0  0  0
 28 56  1  0  0  0  0
 29 31  1  0  0  0  0
 29 57  1  0  0  0  0
 30 33  1  0  0  0  0
 30 59  1  0  0  0  0
 31 32  2  0  0  0  0
 31 62  1  0  0  0  0
 32 34  1  0  0  0  0
 35 36  1  0  0  0  0
 35 66  1  0  0  0  0
 35 67  1  0  0  0  0
 36 37  1  0  0  0  0
 36 68  1  0  0  0  0
 36 69  1  0  0  0  0
 37 38  2  0  0  0  0
 37 39  1  0  0  0  0
 38 40  1  0  0  0  0
 38 70  1  0  0  0  0
 39 41  2  0  0  0  0
 39 71  1  0  0  0  0
 40 42  2  0  0  0  0
 41 42  1  0  0  0  0
 41 72  1  0  0  0  0
 43 73  1  0  0  0  0
 43 74  1  0  0  0  0
 43 75  1  0  0  0  0
 44 76  1  0  0  0  0
 44 77  1  0  0  0  0
 44 78  1  0  0  0  0
M  END
> <PUBCHEM_COMPOUND_CID>
513534
> <PUBCHEM_COMPOUND_CANONICALIZED>
1
> <PUBCHEM_CACTVS_COMPLEXITY>
1140
> <PUBCHEM_CACTVS_HBOND_ACCEPTOR>
13
> <PUBCHEM_CACTVS_HBOND_DONOR>
6
> <PUBCHEM_CACTVS_ROTATABLE_BOND>
12
> <PUBCHEM_CACTVS_SUBSKEYS>
AAADcfB7vAAAAAAAAAAAAAAAAAAAASAAAAAwQIAAAAAAAAABAAAAHgAQCAAADBTxmAczDoPABgCIAiFWUAKCCAAgIgAIiIFOiMifNjaEsR+vcCIv9zOfucf6/L5OIAABAAAAQABAAAIAAACAAAAAAAAAAA==
> <PUBCHEM_IUPAC_OPENEYE_NAME>
(2S,3S,4S)-2-[(1R)-2-amino-1-[(2S,3S,4R,5R)-5-(2,4-dioxopyrimidin-1-yl)-4-hydroxy-3-methoxy-tetrahydrofuran-2-yl]-2-oxo-ethoxy]-N-[2-(3,4-dimethoxyphenyl)ethyl]-3,4-dihydroxy-3,4-dihydro-2H-pyran-6-carboxamide
> <PUBCHEM_IUPAC_CAS_NAME>
(2S,3S,4S)-2-[(1R)-2-amino-1-[(2S,3S,4R,5R)-5-(2,4-dioxo-1-pyrimidinyl)-4-hydroxy-3-methoxy-2-oxolanyl]-2-oxoethoxy]-N-[2-(3,4-dimethoxyphenyl)ethyl]-3,4-dihydroxy-3,4-dihydro-2H-pyran-6-carboxamide
> <PUBCHEM_IUPAC_NAME_MARKUP>
(2<I>S</I>,3<I>S</I>,4<I>S</I>)-2-[(1<I>R</I>)-2-amino-1-[(2<I>S</I>,3<I>S</I>,4<I>R</I>,5<I>R</I>)-5-(2,4-dioxopyrimidin-1-yl)-4-hydroxy-3-methoxyoxolan-2-yl]-2-oxoethoxy]-<I>N</I>-[2-(3,4-dimethoxyphenyl)ethyl]-3,4-dihydroxy-3,4-dihydro-2<I>H</I>-pyran-6-carboxamide
> <PUBCHEM_IUPAC_NAME>
(2S,3S,4S)-2-[(1R)-2-amino-1-[(2S,3S,4R,5R)-5-(2,4-dioxopyrimidin-1-yl)-4-hydroxy-3-methoxyoxolan-2-yl]-2-oxoethoxy]-N-[2-(3,4-dimethoxyphenyl)ethyl]-3,4-dihydroxy-3,4-dihydro-2H-pyran-6-carboxamide
> <PUBCHEM_IUPAC_SYSTEMATIC_NAME>
(2S,3S,4S)-2-[(1R)-2-azanyl-1-[(2S,3S,4R,5R)-5-[2,4-bis(oxidanylidene)pyrimidin-1-yl]-3-methoxy-4-oxidanyl-oxolan-2-yl]-2-oxidanylidene-ethoxy]-N-[2-(3,4-dimethoxyphenyl)ethyl]-3,4-bis(oxidanyl)-3,4-dihydro-2H-pyran-6-carboxamide
> <PUBCHEM_IUPAC_TRADITIONAL_NAME>
(2S,3S,4S)-2-[(1R)-2-amino-1-[(2S,3S,4R,5R)-5-(2,4-diketopyrimidin-1-yl)-4-hydroxy-3-methoxy-tetrahydrofuran-2-yl]-2-keto-ethoxy]-N-homoveratryl-3,4-dihydroxy-3,4-dihydro-2H-pyran-6-carboxamide
> <PUBCHEM_IUPAC_INCHI>
InChI=1S/C27H34N4O13/c1-39-14-5-4-12(10-15(14)40-2)6-8-29-24(37)16-11-13(32)18(34)26(42-16)44-22(23(28)36)21-20(41-3)19(35)25(43-21)31-9-7-17(33)30-27(31)38/h4-5,7,9-11,13,18-22,25-26,32,34-35H,6,8H2,1-3H3,(H2,28,36)(H,29,37)(H,30,33,38)/t13-,18-,19+,20-,21-,22+,25+,26+/m0/s1
> <PUBCHEM_IUPAC_INCHIKEY>
QYLGUXRTVGQUJV-XROQQFDASA-N
> <PUBCHEM_XLOGP3_AA>
-2.4
> <PUBCHEM_EXACT_MASS>
622.21223715
> <PUBCHEM_MOLECULAR_FORMULA>
C27H34N4O13
> <PUBCHEM_MOLECULAR_WEIGHT>
622.6
> <PUBCHEM_OPENEYE_CAN_SMILES>
COC1C(C(OC1C(C(=O)N)OC2C(C(C=C(O2)C(=O)NCCC3=CC(=C(C=C3)OC)OC)O)O)N4C=CC(=O)NC4=O)O
> <PUBCHEM_OPENEYE_ISO_SMILES>
CO[C@H]1[C@H]([C@@H](O[C@@H]1[C@H](C(=O)N)O[C@@H]2[C@H]([C@H](C=C(O2)C(=O)NCCC3=CC(=C(C=C3)OC)OC)O)O)N4C=CC(=O)NC4=O)O
> <PUBCHEM_CACTVS_TPSA>
238
> <PUBCHEM_MONOISOTOPIC_WEIGHT>
622.21223715
> <PUBCHEM_TOTAL_CHARGE>
0
> <PUBCHEM_HEAVY_ATOM_COUNT>
44
> <PUBCHEM_ATOM_DEF_STEREO_COUNT>
8
> <PUBCHEM_ATOM_UDEF_STEREO_COUNT>
0
> <PUBCHEM_BOND_DEF_STEREO_COUNT>
0
> <PUBCHEM_BOND_UDEF_STEREO_COUNT>
0
> <PUBCHEM_ISOTOPIC_ATOM_COUNT>
0
> <PUBCHEM_COMPONENT_COUNT>
1
> <PUBCHEM_CACTVS_TAUTO_COUNT>
-1
> <PUBCHEM_COORDINATE_TYPE>
1
5
255
> <PUBCHEM_BONDANNOTATIONS>
21  14  5
14  26  8
14  27  8
15  26  8
15  33  8
18  45  6
19  2  6
27  30  8
22  3  6
23  3  5
30  33  8
37  38  8
37  39  8
38  40  8
39  41  8
20  4  6
40  42  8
41  42  8
25  7  6
29  9  6
$$$$
