513527
  -OEChem-10302200282D
 90 92  0     1  0  0  0  0  0999 V2000
   18.5020   -0.6774    0.0000 O   0  0  0  0  0  0  0  0  0  0  0  0
   16.9498   -2.7478    0.0000 O   0  0  0  0  0  0  0  0  0  0  0  0
   16.7224    0.4159    0.0000 O   0  0  0  0  0  0  0  0  0  0  0  0
   19.0779   -3.2001    0.0000 O   0  0  0  0  0  0  0  0  0  0  0  0
   14.9904    0.4159    0.0000 O   0  0  0  0  0  0  0  0  0  0  0  0
   14.9904   -0.5841    0.0000 O   0  0  0  0  0  0  0  0  0  0  0  0
   16.7224    2.4159    0.0000 O   0  0  0  0  0  0  0  0  0  0  0  0
   20.3467   -3.0385    0.0000 O   0  0  0  0  0  0  0  0  0  0  0  0
   14.9904    3.4159    0.0000 O   0  0  0  0  0  0  0  0  0  0  0  0
   23.1492   -1.0024    0.0000 O   0  0  0  0  0  0  0  0  0  0  0  0
   13.2583   -0.5841    0.0000 O   0  0  0  0  0  0  0  0  0  0  0  0
   20.1657   -1.3160    0.0000 N   0  0  0  0  0  0  0  0  0  0  0  0
   21.7480   -2.0205    0.0000 N   0  0  0  0  0  0  0  0  0  0  0  0
   15.8564   -2.0841    0.0000 N   0  0  0  0  0  0  0  0  0  0  0  0
   12.3923    0.9159    0.0000 N   0  0  0  0  0  0  0  0  0  0  0  0
   17.5885   -1.0841    0.0000 C   0  0  1  0  0  0  0  0  0  0  0  0
   17.6930   -2.0786    0.0000 C   0  0  2  0  0  0  0  0  0  0  0  0
   18.6711   -2.2865    0.0000 C   0  0  2  0  0  0  0  0  0  0  0  0
   19.1711   -1.4205    0.0000 C   0  0  1  0  0  0  0  0  0  0  0  0
   16.7224   -0.5841    0.0000 C   0  0  2  0  0  0  0  0  0  0  0  0
   15.8564    0.9159    0.0000 C   0  0  1  0  0  0  0  0  0  0  0  0
   15.8564   -1.0841    0.0000 C   0  0  0  0  0  0  0  0  0  0  0  0
   15.8564    1.9159    0.0000 C   0  0  2  0  0  0  0  0  0  0  0  0
   20.7534   -2.1250    0.0000 C   0  0  0  0  0  0  0  0  0  0  0  0
   20.5724   -0.4024    0.0000 C   0  0  0  0  0  0  0  0  0  0  0  0
   17.1578   -3.7259    0.0000 C   0  0  0  0  0  0  0  0  0  0  0  0
   14.9904    2.4159    0.0000 C   0  0  2  0  0  0  0  0  0  0  0  0
   21.5669   -0.2979    0.0000 C   0  0  0  0  0  0  0  0  0  0  0  0
   14.1244    1.9159    0.0000 C   0  0  0  0  0  0  0  0  0  0  0  0
   14.1244    0.9159    0.0000 C   0  0  0  0  0  0  0  0  0  0  0  0
   22.1547   -1.1069    0.0000 C   0  0  0  0  0  0  0  0  0  0  0  0
    8.0622    0.4159    0.0000 C   0  0  0  0  0  0  0  0  0  0  0  0
    7.1962    0.9159    0.0000 C   0  0  0  0  0  0  0  0  0  0  0  0
    8.9282    0.9159    0.0000 C   0  0  0  0  0  0  0  0  0  0  0  0
    9.7942    0.4159    0.0000 C   0  0  0  0  0  0  0  0  0  0  0  0
    6.3301    0.4159    0.0000 C   0  0  0  0  0  0  0  0  0  0  0  0
   13.2583    0.4159    0.0000 C   0  0  0  0  0  0  0  0  0  0  0  0
   10.6603    0.9159    0.0000 C   0  0  0  0  0  0  0  0  0  0  0  0
    5.4641    0.9159    0.0000 C   0  0  0  0  0  0  0  0  0  0  0  0
   11.5263    0.4159    0.0000 C   0  0  0  0  0  0  0  0  0  0  0  0
    4.5981    0.4159    0.0000 C   0  0  0  0  0  0  0  0  0  0  0  0
    3.7320    0.9159    0.0000 C   0  0  0  0  0  0  0  0  0  0  0  0
    2.8660    0.4159    0.0000 C   0  0  0  0  0  0  0  0  0  0  0  0
    2.0000    0.9159    0.0000 C   0  0  0  0  0  0  0  0  0  0  0  0
   17.6329   -0.2353    0.0000 H   0  0  0  0  0  0  0  0  0  0  0  0
   17.8535   -2.6775    0.0000 H   0  0  0  0  0  0  0  0  0  0  0  0
   19.2903   -2.3190    0.0000 H   0  0  0  0  0  0  0  0  0  0  0  0
   19.5088   -1.9405    0.0000 H   0  0  0  0  0  0  0  0  0  0  0  0
   16.1855   -0.2741    0.0000 H   0  0  0  0  0  0  0  0  0  0  0  0
   16.3933    1.2259    0.0000 H   0  0  0  0  0  0  0  0  0  0  0  0
   18.7134   -3.7017    0.0000 H   0  0  0  0  0  0  0  0  0  0  0  0
   15.8564    2.5359    0.0000 H   0  0  0  0  0  0  0  0  0  0  0  0
   20.2080    0.0992    0.0000 H   0  0  0  0  0  0  0  0  0  0  0  0
   16.5513   -3.8548    0.0000 H   0  0  0  0  0  0  0  0  0  0  0  0
   17.2867   -4.3324    0.0000 H   0  0  0  0  0  0  0  0  0  0  0  0
   17.7642   -3.5970    0.0000 H   0  0  0  0  0  0  0  0  0  0  0  0
   14.4534    2.7259    0.0000 H   0  0  0  0  0  0  0  0  0  0  0  0
   22.1124   -2.5221    0.0000 H   0  0  0  0  0  0  0  0  0  0  0  0
   21.8191    0.2685    0.0000 H   0  0  0  0  0  0  0  0  0  0  0  0
   15.3195   -2.3941    0.0000 H   0  0  0  0  0  0  0  0  0  0  0  0
   16.3933   -2.3941    0.0000 H   0  0  0  0  0  0  0  0  0  0  0  0
   13.5874    2.2259    0.0000 H   0  0  0  0  0  0  0  0  0  0  0  0
   16.7224    3.0359    0.0000 H   0  0  0  0  0  0  0  0  0  0  0  0
    7.6636   -0.0590    0.0000 H   0  0  0  0  0  0  0  0  0  0  0  0
    8.4607   -0.0590    0.0000 H   0  0  0  0  0  0  0  0  0  0  0  0
    7.5947    1.3908    0.0000 H   0  0  0  0  0  0  0  0  0  0  0  0
    6.7976    1.3908    0.0000 H   0  0  0  0  0  0  0  0  0  0  0  0
    9.3267    1.3908    0.0000 H   0  0  0  0  0  0  0  0  0  0  0  0
    8.5297    1.3908    0.0000 H   0  0  0  0  0  0  0  0  0  0  0  0
    5.9316   -0.0590    0.0000 H   0  0  0  0  0  0  0  0  0  0  0  0
    6.7287   -0.0590    0.0000 H   0  0  0  0  0  0  0  0  0  0  0  0
    9.3957   -0.0590    0.0000 H   0  0  0  0  0  0  0  0  0  0  0  0
   10.1928   -0.0590    0.0000 H   0  0  0  0  0  0  0  0  0  0  0  0
   11.0588    1.3908    0.0000 H   0  0  0  0  0  0  0  0  0  0  0  0
   10.2617    1.3908    0.0000 H   0  0  0  0  0  0  0  0  0  0  0  0
    5.8626    1.3908    0.0000 H   0  0  0  0  0  0  0  0  0  0  0  0
    5.0656    1.3908    0.0000 H   0  0  0  0  0  0  0  0  0  0  0  0
   14.4534    3.7259    0.0000 H   0  0  0  0  0  0  0  0  0  0  0  0
   11.1278   -0.0590    0.0000 H   0  0  0  0  0  0  0  0  0  0  0  0
   11.9248   -0.0590    0.0000 H   0  0  0  0  0  0  0  0  0  0  0  0
    4.1996   -0.0590    0.0000 H   0  0  0  0  0  0  0  0  0  0  0  0
    4.9966   -0.0590    0.0000 H   0  0  0  0  0  0  0  0  0  0  0  0
   12.3923    1.5359    0.0000 H   0  0  0  0  0  0  0  0  0  0  0  0
    4.1306    1.3908    0.0000 H   0  0  0  0  0  0  0  0  0  0  0  0
    3.3335    1.3908    0.0000 H   0  0  0  0  0  0  0  0  0  0  0  0
    2.4675   -0.0590    0.0000 H   0  0  0  0  0  0  0  0  0  0  0  0
    3.2646   -0.0590    0.0000 H   0  0  0  0  0  0  0  0  0  0  0  0
    2.3100    1.4528    0.0000 H   0  0  0  0  0  0  0  0  0  0  0  0
    1.4631    1.2259    0.0000 H   0  0  0  0  0  0  0  0  0  0  0  0
    1.6900    0.3790    0.0000 H   0  0  0  0  0  0  0  0  0  0  0  0
  1 16  1  0  0  0  0
  1 19  1  0  0  0  0
 17  2  1  6  0  0  0
  2 26  1  0  0  0  0
 20  3  1  6  0  0  0
 21  3  1  1  0  0  0
 18  4  1  6  0  0  0
  4 51  1  0  0  0  0
  5 21  1  0  0  0  0
  5 30  1  0  0  0  0
  6 22  2  0  0  0  0
 23  7  1  6  0  0  0
  7 63  1  0  0  0  0
  8 24  2  0  0  0  0
 27  9  1  6  0  0  0
  9 78  1  0  0  0  0
 10 31  2  0  0  0  0
 11 37  2  0  0  0  0
 19 12  1  1  0  0  0
 12 24  1  0  0  0  0
 12 25  1  0  0  0  0
 13 24  1  0  0  0  0
 13 31  1  0  0  0  0
 13 58  1  0  0  0  0
 14 22  1  0  0  0  0
 14 60  1  0  0  0  0
 14 61  1  0  0  0  0
 15 37  1  0  0  0  0
 15 40  1  0  0  0  0
 15 83  1  0  0  0  0
 16 17  1  0  0  0  0
 16 20  1  0  0  0  0
 16 45  1  6  0  0  0
 17 18  1  0  0  0  0
 17 46  1  0  0  0  0
 18 19  1  0  0  0  0
 18 47  1  0  0  0  0
 19 48  1  0  0  0  0
 20 22  1  0  0  0  0
 20 49  1  0  0  0  0
 21 23  1  0  0  0  0
 21 50  1  0  0  0  0
 23 27  1  0  0  0  0
 23 52  1  0  0  0  0
 25 28  2  0  0  0  0
 25 53  1  0  0  0  0
 26 54  1  0  0  0  0
 26 55  1  0  0  0  0
 26 56  1  0  0  0  0
 27 29  1  0  0  0  0
 27 57  1  0  0  0  0
 28 31  1  0  0  0  0
 28 59  1  0  0  0  0
 29 30  2  0  0  0  0
 29 62  1  0  0  0  0
 30 37  1  0  0  0  0
 32 33  1  0  0  0  0
 32 34  1  0  0  0  0
 32 64  1  0  0  0  0
 32 65  1  0  0  0  0
 33 36  1  0  0  0  0
 33 66  1  0  0  0  0
 33 67  1  0  0  0  0
 34 35  1  0  0  0  0
 34 68  1  0  0  0  0
 34 69  1  0  0  0  0
 35 38  1  0  0  0  0
 35 72  1  0  0  0  0
 35 73  1  0  0  0  0
 36 39  1  0  0  0  0
 36 70  1  0  0  0  0
 36 71  1  0  0  0  0
 38 40  1  0  0  0  0
 38 74  1  0  0  0  0
 38 75  1  0  0  0  0
 39 41  1  0  0  0  0
 39 76  1  0  0  0  0
 39 77  1  0  0  0  0
 40 79  1  0  0  0  0
 40 80  1  0  0  0  0
 41 42  1  0  0  0  0
 41 81  1  0  0  0  0
 41 82  1  0  0  0  0
 42 43  1  0  0  0  0
 42 84  1  0  0  0  0
 42 85  1  0  0  0  0
 43 44  1  0  0  0  0
 43 86  1  0  0  0  0
 43 87  1  0  0  0  0
 44 88  1  0  0  0  0
 44 89  1  0  0  0  0
 44 90  1  0  0  0  0
M  END
> <PUBCHEM_COMPOUND_CID>
513527
> <PUBCHEM_COMPOUND_CANONICALIZED>
1
> <PUBCHEM_CACTVS_COMPLEXITY>
1050
> <PUBCHEM_CACTVS_HBOND_ACCEPTOR>
11
> <PUBCHEM_CACTVS_HBOND_DONOR>
6
> <PUBCHEM_CACTVS_ROTATABLE_BOND>
18
> <PUBCHEM_CACTVS_SUBSKEYS>
AAADcfB7vAAAAAAAAAAAAAAAAAAAASAAAAAgQAAAAAAAAAAAAAAAHgAQCAAACBTxgAcDCAPABgCIACFWUAKACAAgIgAICIFIAEiTFBYAgAQvUAAP9yKfEcP6/I5AAAAAAAAAAAAAAAAAAAAAAAAAAAAAAA==
> <PUBCHEM_IUPAC_OPENEYE_NAME>
(2S,3S,4S)-2-[(1R)-2-amino-1-[(2S,3S,4R,5R)-5-(2,4-dioxopyrimidin-1-yl)-4-hydroxy-3-methoxy-tetrahydrofuran-2-yl]-2-oxo-ethoxy]-N-dodecyl-3,4-dihydroxy-3,4-dihydro-2H-pyran-6-carboxamide
> <PUBCHEM_IUPAC_CAS_NAME>
(2S,3S,4S)-2-[(1R)-2-amino-1-[(2S,3S,4R,5R)-5-(2,4-dioxo-1-pyrimidinyl)-4-hydroxy-3-methoxy-2-oxolanyl]-2-oxoethoxy]-N-dodecyl-3,4-dihydroxy-3,4-dihydro-2H-pyran-6-carboxamide
> <PUBCHEM_IUPAC_NAME_MARKUP>
(2<I>S</I>,3<I>S</I>,4<I>S</I>)-2-[(1<I>R</I>)-2-amino-1-[(2<I>S</I>,3<I>S</I>,4<I>R</I>,5<I>R</I>)-5-(2,4-dioxopyrimidin-1-yl)-4-hydroxy-3-methoxyoxolan-2-yl]-2-oxoethoxy]-<I>N</I>-dodecyl-3,4-dihydroxy-3,4-dihydro-2<I>H</I>-pyran-6-carboxamide
> <PUBCHEM_IUPAC_NAME>
(2S,3S,4S)-2-[(1R)-2-amino-1-[(2S,3S,4R,5R)-5-(2,4-dioxopyrimidin-1-yl)-4-hydroxy-3-methoxyoxolan-2-yl]-2-oxoethoxy]-N-dodecyl-3,4-dihydroxy-3,4-dihydro-2H-pyran-6-carboxamide
> <PUBCHEM_IUPAC_SYSTEMATIC_NAME>
(2S,3S,4S)-2-[(1R)-2-azanyl-1-[(2S,3S,4R,5R)-5-[2,4-bis(oxidanylidene)pyrimidin-1-yl]-3-methoxy-4-oxidanyl-oxolan-2-yl]-2-oxidanylidene-ethoxy]-N-dodecyl-3,4-bis(oxidanyl)-3,4-dihydro-2H-pyran-6-carboxamide
> <PUBCHEM_IUPAC_TRADITIONAL_NAME>
(2S,3S,4S)-2-[(1R)-2-amino-1-[(2S,3S,4R,5R)-5-(2,4-diketopyrimidin-1-yl)-4-hydroxy-3-methoxy-tetrahydrofuran-2-yl]-2-keto-ethoxy]-3,4-dihydroxy-N-lauryl-3,4-dihydro-2H-pyran-6-carboxamide
> <PUBCHEM_IUPAC_INCHI>
InChI=1S/C29H46N4O11/c1-3-4-5-6-7-8-9-10-11-12-14-31-26(39)18-16-17(34)20(36)28(42-18)44-24(25(30)38)23-22(41-2)21(37)27(43-23)33-15-13-19(35)32-29(33)40/h13,15-17,20-24,27-28,34,36-37H,3-12,14H2,1-2H3,(H2,30,38)(H,31,39)(H,32,35,40)/t17-,20-,21+,22-,23-,24+,27+,28+/m0/s1
> <PUBCHEM_IUPAC_INCHIKEY>
SGEDYKBVPZEYAN-ROSODZLYSA-N
> <PUBCHEM_XLOGP3_AA>
1.3
> <PUBCHEM_EXACT_MASS>
626.31630830
> <PUBCHEM_MOLECULAR_FORMULA>
C29H46N4O11
> <PUBCHEM_MOLECULAR_WEIGHT>
626.7
> <PUBCHEM_OPENEYE_CAN_SMILES>
CCCCCCCCCCCCNC(=O)C1=CC(C(C(O1)OC(C2C(C(C(O2)N3C=CC(=O)NC3=O)O)OC)C(=O)N)O)O
> <PUBCHEM_OPENEYE_ISO_SMILES>
CCCCCCCCCCCCNC(=O)C1=C[C@@H]([C@@H]([C@H](O1)O[C@H]([C@@H]2[C@H]([C@H]([C@@H](O2)N3C=CC(=O)NC3=O)O)OC)C(=O)N)O)O
> <PUBCHEM_CACTVS_TPSA>
219
> <PUBCHEM_MONOISOTOPIC_WEIGHT>
626.31630830
> <PUBCHEM_TOTAL_CHARGE>
0
> <PUBCHEM_HEAVY_ATOM_COUNT>
44
> <PUBCHEM_ATOM_DEF_STEREO_COUNT>
8
> <PUBCHEM_ATOM_UDEF_STEREO_COUNT>
0
> <PUBCHEM_BOND_DEF_STEREO_COUNT>
0
> <PUBCHEM_BOND_UDEF_STEREO_COUNT>
0
> <PUBCHEM_ISOTOPIC_ATOM_COUNT>
0
> <PUBCHEM_COMPONENT_COUNT>
1
> <PUBCHEM_CACTVS_TAUTO_COUNT>
-1
> <PUBCHEM_COORDINATE_TYPE>
1
5
255
> <PUBCHEM_BONDANNOTATIONS>
19  12  5
12  24  8
12  25  8
13  24  8
13  31  8
16  45  6
17  2  6
25  28  8
28  31  8
20  3  6
21  3  5
18  4  6
23  7  6
27  9  6
$$$$
