513539
  -OEChem-10302200282D
 70 73  0     1  0  0  0  0  0999 V2000
    3.7320    1.9159    0.0000 Cl  0  0  0  0  0  0  0  0  0  0  0  0
    2.0000   -1.0841    0.0000 Cl  0  0  0  0  0  0  0  0  0  0  0  0
   13.3059   -0.6774    0.0000 O   0  0  0  0  0  0  0  0  0  0  0  0
   11.7537   -2.7478    0.0000 O   0  0  0  0  0  0  0  0  0  0  0  0
   11.5263    0.4159    0.0000 O   0  0  0  0  0  0  0  0  0  0  0  0
   13.8817   -3.2001    0.0000 O   0  0  0  0  0  0  0  0  0  0  0  0
    9.7942    0.4159    0.0000 O   0  0  0  0  0  0  0  0  0  0  0  0
   11.5263    2.4159    0.0000 O   0  0  0  0  0  0  0  0  0  0  0  0
    9.7942   -0.5841    0.0000 O   0  0  0  0  0  0  0  0  0  0  0  0
    9.7942    3.4159    0.0000 O   0  0  0  0  0  0  0  0  0  0  0  0
   15.1506   -3.0385    0.0000 O   0  0  0  0  0  0  0  0  0  0  0  0
   17.9531   -1.0024    0.0000 O   0  0  0  0  0  0  0  0  0  0  0  0
    8.0622   -0.5841    0.0000 O   0  0  0  0  0  0  0  0  0  0  0  0
   14.9695   -1.3160    0.0000 N   0  0  0  0  0  0  0  0  0  0  0  0
   10.6603   -2.0841    0.0000 N   0  0  0  0  0  0  0  0  0  0  0  0
   16.5518   -2.0205    0.0000 N   0  0  0  0  0  0  0  0  0  0  0  0
    7.1962    0.9159    0.0000 N   0  0  0  0  0  0  0  0  0  0  0  0
   12.3923   -1.0841    0.0000 C   0  0  1  0  0  0  0  0  0  0  0  0
   12.4968   -2.0786    0.0000 C   0  0  2  0  0  0  0  0  0  0  0  0
   13.4750   -2.2865    0.0000 C   0  0  2  0  0  0  0  0  0  0  0  0
   13.9750   -1.4205    0.0000 C   0  0  1  0  0  0  0  0  0  0  0  0
   11.5263   -0.5841    0.0000 C   0  0  2  0  0  0  0  0  0  0  0  0
   10.6603    0.9159    0.0000 C   0  0  1  0  0  0  0  0  0  0  0  0
   10.6603   -1.0841    0.0000 C   0  0  0  0  0  0  0  0  0  0  0  0
   10.6603    1.9159    0.0000 C   0  0  2  0  0  0  0  0  0  0  0  0
   15.5573   -2.1250    0.0000 C   0  0  0  0  0  0  0  0  0  0  0  0
   15.3762   -0.4024    0.0000 C   0  0  0  0  0  0  0  0  0  0  0  0
    9.7942    2.4159    0.0000 C   0  0  2  0  0  0  0  0  0  0  0  0
   11.9616   -3.7259    0.0000 C   0  0  0  0  0  0  0  0  0  0  0  0
    8.9282    1.9159    0.0000 C   0  0  0  0  0  0  0  0  0  0  0  0
   16.3708   -0.2979    0.0000 C   0  0  0  0  0  0  0  0  0  0  0  0
    8.9282    0.9159    0.0000 C   0  0  0  0  0  0  0  0  0  0  0  0
   16.9585   -1.1069    0.0000 C   0  0  0  0  0  0  0  0  0  0  0  0
    8.0622    0.4159    0.0000 C   0  0  0  0  0  0  0  0  0  0  0  0
    6.3301    0.4159    0.0000 C   0  0  0  0  0  0  0  0  0  0  0  0
    5.4641    0.9159    0.0000 C   0  0  0  0  0  0  0  0  0  0  0  0
    4.5981    0.4159    0.0000 C   0  0  0  0  0  0  0  0  0  0  0  0
    3.7320    0.9159    0.0000 C   0  0  0  0  0  0  0  0  0  0  0  0
    4.5981   -0.5841    0.0000 C   0  0  0  0  0  0  0  0  0  0  0  0
    2.8660    0.4159    0.0000 C   0  0  0  0  0  0  0  0  0  0  0  0
    3.7320   -1.0841    0.0000 C   0  0  0  0  0  0  0  0  0  0  0  0
    2.8660   -0.5841    0.0000 C   0  0  0  0  0  0  0  0  0  0  0  0
   12.4368   -0.2353    0.0000 H   0  0  0  0  0  0  0  0  0  0  0  0
   11.9180   -1.8564    0.0000 H   0  0  0  0  0  0  0  0  0  0  0  0
   14.0941   -2.3190    0.0000 H   0  0  0  0  0  0  0  0  0  0  0  0
   14.1972   -0.8417    0.0000 H   0  0  0  0  0  0  0  0  0  0  0  0
   10.9893   -0.2741    0.0000 H   0  0  0  0  0  0  0  0  0  0  0  0
   11.1972    1.2259    0.0000 H   0  0  0  0  0  0  0  0  0  0  0  0
   13.5173   -3.7017    0.0000 H   0  0  0  0  0  0  0  0  0  0  0  0
   10.6603    2.5359    0.0000 H   0  0  0  0  0  0  0  0  0  0  0  0
   15.0118    0.0992    0.0000 H   0  0  0  0  0  0  0  0  0  0  0  0
    9.2573    2.7259    0.0000 H   0  0  0  0  0  0  0  0  0  0  0  0
   11.3551   -3.8548    0.0000 H   0  0  0  0  0  0  0  0  0  0  0  0
   12.0905   -4.3324    0.0000 H   0  0  0  0  0  0  0  0  0  0  0  0
   12.5681   -3.5970    0.0000 H   0  0  0  0  0  0  0  0  0  0  0  0
    8.3913    2.2259    0.0000 H   0  0  0  0  0  0  0  0  0  0  0  0
   10.1233   -2.3941    0.0000 H   0  0  0  0  0  0  0  0  0  0  0  0
   11.1972   -2.3941    0.0000 H   0  0  0  0  0  0  0  0  0  0  0  0
   16.9162   -2.5221    0.0000 H   0  0  0  0  0  0  0  0  0  0  0  0
   16.6229    0.2685    0.0000 H   0  0  0  0  0  0  0  0  0  0  0  0
   11.5263    3.0359    0.0000 H   0  0  0  0  0  0  0  0  0  0  0  0
    9.2573    3.7259    0.0000 H   0  0  0  0  0  0  0  0  0  0  0  0
    7.1962    1.5359    0.0000 H   0  0  0  0  0  0  0  0  0  0  0  0
    5.9316   -0.0590    0.0000 H   0  0  0  0  0  0  0  0  0  0  0  0
    6.7287   -0.0590    0.0000 H   0  0  0  0  0  0  0  0  0  0  0  0
    5.8626    1.3908    0.0000 H   0  0  0  0  0  0  0  0  0  0  0  0
    5.0656    1.3908    0.0000 H   0  0  0  0  0  0  0  0  0  0  0  0
    5.1350   -0.8941    0.0000 H   0  0  0  0  0  0  0  0  0  0  0  0
    2.3291    0.7259    0.0000 H   0  0  0  0  0  0  0  0  0  0  0  0
    3.7320   -1.7041    0.0000 H   0  0  0  0  0  0  0  0  0  0  0  0
  1 38  1  0  0  0  0
  2 42  1  0  0  0  0
  3 18  1  0  0  0  0
  3 21  1  0  0  0  0
 19  4  1  6  0  0  0
  4 29  1  0  0  0  0
 22  5  1  6  0  0  0
 23  5  1  1  0  0  0
 20  6  1  6  0  0  0
  6 49  1  0  0  0  0
  7 23  1  0  0  0  0
  7 32  1  0  0  0  0
 25  8  1  6  0  0  0
  8 61  1  0  0  0  0
  9 24  2  0  0  0  0
 28 10  1  6  0  0  0
 10 62  1  0  0  0  0
 11 26  2  0  0  0  0
 12 33  2  0  0  0  0
 13 34  2  0  0  0  0
 21 14  1  1  0  0  0
 14 26  1  0  0  0  0
 14 27  1  0  0  0  0
 15 24  1  0  0  0  0
 15 57  1  0  0  0  0
 15 58  1  0  0  0  0
 16 26  1  0  0  0  0
 16 33  1  0  0  0  0
 16 59  1  0  0  0  0
 17 34  1  0  0  0  0
 17 35  1  0  0  0  0
 17 63  1  0  0  0  0
 18 19  1  0  0  0  0
 18 22  1  0  0  0  0
 18 43  1  6  0  0  0
 19 20  1  0  0  0  0
 19 44  1  0  0  0  0
 20 21  1  0  0  0  0
 20 45  1  0  0  0  0
 21 46  1  0  0  0  0
 22 24  1  0  0  0  0
 22 47  1  0  0  0  0
 23 25  1  0  0  0  0
 23 48  1  0  0  0  0
 25 28  1  0  0  0  0
 25 50  1  0  0  0  0
 27 31  2  0  0  0  0
 27 51  1  0  0  0  0
 28 30  1  0  0  0  0
 28 52  1  0  0  0  0
 29 53  1  0  0  0  0
 29 54  1  0  0  0  0
 29 55  1  0  0  0  0
 30 32  2  0  0  0  0
 30 56  1  0  0  0  0
 31 33  1  0  0  0  0
 31 60  1  0  0  0  0
 32 34  1  0  0  0  0
 35 36  1  0  0  0  0
 35 64  1  0  0  0  0
 35 65  1  0  0  0  0
 36 37  1  0  0  0  0
 36 66  1  0  0  0  0
 36 67  1  0  0  0  0
 37 38  2  0  0  0  0
 37 39  1  0  0  0  0
 38 40  1  0  0  0  0
 39 41  2  0  0  0  0
 39 68  1  0  0  0  0
 40 42  2  0  0  0  0
 40 69  1  0  0  0  0
 41 42  1  0  0  0  0
 41 70  1  0  0  0  0
M  END
> <PUBCHEM_COMPOUND_CID>
513539
> <PUBCHEM_COMPOUND_CANONICALIZED>
1
> <PUBCHEM_CACTVS_COMPLEXITY>
1110
> <PUBCHEM_CACTVS_HBOND_ACCEPTOR>
11
> <PUBCHEM_CACTVS_HBOND_DONOR>
6
> <PUBCHEM_CACTVS_ROTATABLE_BOND>
10
> <PUBCHEM_CACTVS_SUBSKEYS>
AAADceB7vAAGAAAAAAAAAAAAAAAAASAAAAAwQIAAAAAAAAABAAAAHgIQCAAADBbxmCczCIPABgCIAiFWUAKCCAAgJwAIiIFIAsibNDaBkxWvcAAv9yKfmcf6/I5OBAAAAACBAAAIAAAAAQIAAAAAAAAAAA==
> <PUBCHEM_IUPAC_OPENEYE_NAME>
(2S,3S,4S)-2-[(1R)-2-amino-1-[(2S,3S,4R,5R)-5-(2,4-dioxopyrimidin-1-yl)-4-hydroxy-3-methoxy-tetrahydrofuran-2-yl]-2-oxo-ethoxy]-N-[2-(2,4-dichlorophenyl)ethyl]-3,4-dihydroxy-3,4-dihydro-2H-pyran-6-carboxamide
> <PUBCHEM_IUPAC_CAS_NAME>
(2S,3S,4S)-2-[(1R)-2-amino-1-[(2S,3S,4R,5R)-5-(2,4-dioxo-1-pyrimidinyl)-4-hydroxy-3-methoxy-2-oxolanyl]-2-oxoethoxy]-N-[2-(2,4-dichlorophenyl)ethyl]-3,4-dihydroxy-3,4-dihydro-2H-pyran-6-carboxamide
> <PUBCHEM_IUPAC_NAME_MARKUP>
(2<I>S</I>,3<I>S</I>,4<I>S</I>)-2-[(1<I>R</I>)-2-amino-1-[(2<I>S</I>,3<I>S</I>,4<I>R</I>,5<I>R</I>)-5-(2,4-dioxopyrimidin-1-yl)-4-hydroxy-3-methoxyoxolan-2-yl]-2-oxoethoxy]-<I>N</I>-[2-(2,4-dichlorophenyl)ethyl]-3,4-dihydroxy-3,4-dihydro-2<I>H</I>-pyran-6-carboxamide
> <PUBCHEM_IUPAC_NAME>
(2S,3S,4S)-2-[(1R)-2-amino-1-[(2S,3S,4R,5R)-5-(2,4-dioxopyrimidin-1-yl)-4-hydroxy-3-methoxyoxolan-2-yl]-2-oxoethoxy]-N-[2-(2,4-dichlorophenyl)ethyl]-3,4-dihydroxy-3,4-dihydro-2H-pyran-6-carboxamide
> <PUBCHEM_IUPAC_SYSTEMATIC_NAME>
(2S,3S,4S)-2-[(1R)-2-azanyl-1-[(2S,3S,4R,5R)-5-[2,4-bis(oxidanylidene)pyrimidin-1-yl]-3-methoxy-4-oxidanyl-oxolan-2-yl]-2-oxidanylidene-ethoxy]-N-[2-(2,4-dichlorophenyl)ethyl]-3,4-bis(oxidanyl)-3,4-dihydro-2H-pyran-6-carboxamide
> <PUBCHEM_IUPAC_TRADITIONAL_NAME>
(2S,3S,4S)-2-[(1R)-2-amino-1-[(2S,3S,4R,5R)-5-(2,4-diketopyrimidin-1-yl)-4-hydroxy-3-methoxy-tetrahydrofuran-2-yl]-2-keto-ethoxy]-N-[2-(2,4-dichlorophenyl)ethyl]-3,4-dihydroxy-3,4-dihydro-2H-pyran-6-carboxamide
> <PUBCHEM_IUPAC_INCHI>
InChI=1S/C25H28Cl2N4O11/c1-39-18-17(35)23(31-7-5-15(33)30-25(31)38)41-19(18)20(21(28)36)42-24-16(34)13(32)9-14(40-24)22(37)29-6-4-10-2-3-11(26)8-12(10)27/h2-3,5,7-9,13,16-20,23-24,32,34-35H,4,6H2,1H3,(H2,28,36)(H,29,37)(H,30,33,38)/t13-,16-,17+,18-,19-,20+,23+,24+/m0/s1
> <PUBCHEM_IUPAC_INCHIKEY>
LNLDSSFUPXRBRJ-YEHZMZNXSA-N
> <PUBCHEM_XLOGP3_AA>
-1.1
> <PUBCHEM_EXACT_MASS>
630.1131631
> <PUBCHEM_MOLECULAR_FORMULA>
C25H28Cl2N4O11
> <PUBCHEM_MOLECULAR_WEIGHT>
631.4
> <PUBCHEM_OPENEYE_CAN_SMILES>
COC1C(C(OC1C(C(=O)N)OC2C(C(C=C(O2)C(=O)NCCC3=C(C=C(C=C3)Cl)Cl)O)O)N4C=CC(=O)NC4=O)O
> <PUBCHEM_OPENEYE_ISO_SMILES>
CO[C@H]1[C@H]([C@@H](O[C@@H]1[C@H](C(=O)N)O[C@@H]2[C@H]([C@H](C=C(O2)C(=O)NCCC3=C(C=C(C=C3)Cl)Cl)O)O)N4C=CC(=O)NC4=O)O
> <PUBCHEM_CACTVS_TPSA>
219
> <PUBCHEM_MONOISOTOPIC_WEIGHT>
630.1131631
> <PUBCHEM_TOTAL_CHARGE>
0
> <PUBCHEM_HEAVY_ATOM_COUNT>
42
> <PUBCHEM_ATOM_DEF_STEREO_COUNT>
8
> <PUBCHEM_ATOM_UDEF_STEREO_COUNT>
0
> <PUBCHEM_BOND_DEF_STEREO_COUNT>
0
> <PUBCHEM_BOND_UDEF_STEREO_COUNT>
0
> <PUBCHEM_ISOTOPIC_ATOM_COUNT>
0
> <PUBCHEM_COMPONENT_COUNT>
1
> <PUBCHEM_CACTVS_TAUTO_COUNT>
-1
> <PUBCHEM_COORDINATE_TYPE>
1
5
255
> <PUBCHEM_BONDANNOTATIONS>
28  10  6
21  14  5
14  26  8
14  27  8
16  26  8
16  33  8
18  43  6
27  31  8
31  33  8
37  38  8
37  39  8
38  40  8
39  41  8
19  4  6
40  42  8
41  42  8
22  5  6
23  5  5
20  6  6
25  8  6
$$$$
