513545
  -OEChem-10302200282D
 70 73  0     1  0  0  0  0  0999 V2000
   11.5738   -0.6774    0.0000 O   0  0  0  0  0  0  0  0  0  0  0  0
   10.0216   -2.7478    0.0000 O   0  0  0  0  0  0  0  0  0  0  0  0
    9.7942    0.4159    0.0000 O   0  0  0  0  0  0  0  0  0  0  0  0
   12.1497   -3.2001    0.0000 O   0  0  0  0  0  0  0  0  0  0  0  0
    8.0622    0.4159    0.0000 O   0  0  0  0  0  0  0  0  0  0  0  0
    9.7942    2.4159    0.0000 O   0  0  0  0  0  0  0  0  0  0  0  0
    8.0622   -0.5841    0.0000 O   0  0  0  0  0  0  0  0  0  0  0  0
    8.0622    3.4159    0.0000 O   0  0  0  0  0  0  0  0  0  0  0  0
   13.4185   -3.0385    0.0000 O   0  0  0  0  0  0  0  0  0  0  0  0
   16.2210   -1.0024    0.0000 O   0  0  0  0  0  0  0  0  0  0  0  0
    6.3301   -0.5841    0.0000 O   0  0  0  0  0  0  0  0  0  0  0  0
   13.2375   -1.3160    0.0000 N   0  0  0  0  0  0  0  0  0  0  0  0
    8.9282   -2.0841    0.0000 N   0  0  0  0  0  0  0  0  0  0  0  0
   14.8198   -2.0205    0.0000 N   0  0  0  0  0  0  0  0  0  0  0  0
    5.4641    0.9159    0.0000 N   0  0  0  0  0  0  0  0  0  0  0  0
   10.6603   -1.0841    0.0000 C   0  0  1  0  0  0  0  0  0  0  0  0
   10.7648   -2.0786    0.0000 C   0  0  2  0  0  0  0  0  0  0  0  0
   11.7429   -2.2865    0.0000 C   0  0  2  0  0  0  0  0  0  0  0  0
   12.2429   -1.4205    0.0000 C   0  0  1  0  0  0  0  0  0  0  0  0
    9.7942   -0.5841    0.0000 C   0  0  2  0  0  0  0  0  0  0  0  0
    8.9282    0.9159    0.0000 C   0  0  1  0  0  0  0  0  0  0  0  0
    8.9282   -1.0841    0.0000 C   0  0  0  0  0  0  0  0  0  0  0  0
    8.9282    1.9159    0.0000 C   0  0  2  0  0  0  0  0  0  0  0  0
   13.8252   -2.1250    0.0000 C   0  0  0  0  0  0  0  0  0  0  0  0
   13.6442   -0.4024    0.0000 C   0  0  0  0  0  0  0  0  0  0  0  0
   10.2295   -3.7259    0.0000 C   0  0  0  0  0  0  0  0  0  0  0  0
    8.0622    2.4159    0.0000 C   0  0  2  0  0  0  0  0  0  0  0  0
   14.6387   -0.2979    0.0000 C   0  0  0  0  0  0  0  0  0  0  0  0
    7.1962    1.9159    0.0000 C   0  0  0  0  0  0  0  0  0  0  0  0
    7.1962    0.9159    0.0000 C   0  0  0  0  0  0  0  0  0  0  0  0
   15.2265   -1.1069    0.0000 C   0  0  0  0  0  0  0  0  0  0  0  0
    6.3301    0.4159    0.0000 C   0  0  0  0  0  0  0  0  0  0  0  0
    4.5981    0.4159    0.0000 C   0  0  0  0  0  0  0  0  0  0  0  0
    3.7320    0.9159    0.0000 C   0  0  0  0  0  0  0  0  0  0  0  0
    3.7320    1.9159    0.0000 C   0  0  0  0  0  0  0  0  0  0  0  0
    2.8660    0.4159    0.0000 C   0  0  0  0  0  0  0  0  0  0  0  0
    2.8660    2.4159    0.0000 C   0  0  0  0  0  0  0  0  0  0  0  0
    4.5981    2.4159    0.0000 C   0  0  0  0  0  0  0  0  0  0  0  0
    2.0000    0.9159    0.0000 C   0  0  0  0  0  0  0  0  0  0  0  0
    2.0000    1.9159    0.0000 C   0  0  0  0  0  0  0  0  0  0  0  0
   10.7047   -0.2353    0.0000 H   0  0  0  0  0  0  0  0  0  0  0  0
   10.9253   -2.6775    0.0000 H   0  0  0  0  0  0  0  0  0  0  0  0
   12.3621   -2.3190    0.0000 H   0  0  0  0  0  0  0  0  0  0  0  0
   12.4651   -0.8417    0.0000 H   0  0  0  0  0  0  0  0  0  0  0  0
    9.2573   -0.2741    0.0000 H   0  0  0  0  0  0  0  0  0  0  0  0
    9.4651    1.2259    0.0000 H   0  0  0  0  0  0  0  0  0  0  0  0
   11.7852   -3.7017    0.0000 H   0  0  0  0  0  0  0  0  0  0  0  0
    8.9282    2.5359    0.0000 H   0  0  0  0  0  0  0  0  0  0  0  0
   13.2798    0.0992    0.0000 H   0  0  0  0  0  0  0  0  0  0  0  0
    7.5252    2.7259    0.0000 H   0  0  0  0  0  0  0  0  0  0  0  0
    9.6231   -3.8548    0.0000 H   0  0  0  0  0  0  0  0  0  0  0  0
   10.3585   -4.3324    0.0000 H   0  0  0  0  0  0  0  0  0  0  0  0
   10.8360   -3.5970    0.0000 H   0  0  0  0  0  0  0  0  0  0  0  0
    6.6592    2.2259    0.0000 H   0  0  0  0  0  0  0  0  0  0  0  0
    8.3913   -2.3941    0.0000 H   0  0  0  0  0  0  0  0  0  0  0  0
    9.4651   -2.3941    0.0000 H   0  0  0  0  0  0  0  0  0  0  0  0
   15.1842   -2.5221    0.0000 H   0  0  0  0  0  0  0  0  0  0  0  0
   14.8909    0.2685    0.0000 H   0  0  0  0  0  0  0  0  0  0  0  0
    9.7942    3.0359    0.0000 H   0  0  0  0  0  0  0  0  0  0  0  0
    7.5252    3.7259    0.0000 H   0  0  0  0  0  0  0  0  0  0  0  0
    5.4641    1.5359    0.0000 H   0  0  0  0  0  0  0  0  0  0  0  0
    4.1996   -0.0590    0.0000 H   0  0  0  0  0  0  0  0  0  0  0  0
    4.9966   -0.0590    0.0000 H   0  0  0  0  0  0  0  0  0  0  0  0
    2.8660   -0.2041    0.0000 H   0  0  0  0  0  0  0  0  0  0  0  0
    2.8660    3.0359    0.0000 H   0  0  0  0  0  0  0  0  0  0  0  0
    4.9081    1.8790    0.0000 H   0  0  0  0  0  0  0  0  0  0  0  0
    5.1350    2.7259    0.0000 H   0  0  0  0  0  0  0  0  0  0  0  0
    4.2881    2.9528    0.0000 H   0  0  0  0  0  0  0  0  0  0  0  0
    1.4631    0.6059    0.0000 H   0  0  0  0  0  0  0  0  0  0  0  0
    1.4631    2.2259    0.0000 H   0  0  0  0  0  0  0  0  0  0  0  0
  1 16  1  0  0  0  0
  1 19  1  0  0  0  0
 17  2  1  6  0  0  0
  2 26  1  0  0  0  0
 20  3  1  6  0  0  0
 21  3  1  1  0  0  0
 18  4  1  6  0  0  0
  4 47  1  0  0  0  0
  5 21  1  0  0  0  0
  5 30  1  0  0  0  0
 23  6  1  6  0  0  0
  6 59  1  0  0  0  0
  7 22  2  0  0  0  0
 27  8  1  6  0  0  0
  8 60  1  0  0  0  0
  9 24  2  0  0  0  0
 10 31  2  0  0  0  0
 11 32  2  0  0  0  0
 19 12  1  1  0  0  0
 12 24  1  0  0  0  0
 12 25  1  0  0  0  0
 13 22  1  0  0  0  0
 13 55  1  0  0  0  0
 13 56  1  0  0  0  0
 14 24  1  0  0  0  0
 14 31  1  0  0  0  0
 14 57  1  0  0  0  0
 15 32  1  0  0  0  0
 15 33  1  0  0  0  0
 15 61  1  0  0  0  0
 16 17  1  0  0  0  0
 16 20  1  0  0  0  0
 16 41  1  6  0  0  0
 17 18  1  0  0  0  0
 17 42  1  0  0  0  0
 18 19  1  0  0  0  0
 18 43  1  0  0  0  0
 19 44  1  0  0  0  0
 20 22  1  0  0  0  0
 20 45  1  0  0  0  0
 21 23  1  0  0  0  0
 21 46  1  0  0  0  0
 23 27  1  0  0  0  0
 23 48  1  0  0  0  0
 25 28  2  0  0  0  0
 25 49  1  0  0  0  0
 26 51  1  0  0  0  0
 26 52  1  0  0  0  0
 26 53  1  0  0  0  0
 27 29  1  0  0  0  0
 27 50  1  0  0  0  0
 28 31  1  0  0  0  0
 28 58  1  0  0  0  0
 29 30  2  0  0  0  0
 29 54  1  0  0  0  0
 30 32  1  0  0  0  0
 33 34  1  0  0  0  0
 33 62  1  0  0  0  0
 33 63  1  0  0  0  0
 34 35  1  0  0  0  0
 34 36  2  0  0  0  0
 35 37  2  0  0  0  0
 35 38  1  0  0  0  0
 36 39  1  0  0  0  0
 36 64  1  0  0  0  0
 37 40  1  0  0  0  0
 37 65  1  0  0  0  0
 38 66  1  0  0  0  0
 38 67  1  0  0  0  0
 38 68  1  0  0  0  0
 39 40  2  0  0  0  0
 39 69  1  0  0  0  0
 40 70  1  0  0  0  0
M  END
> <PUBCHEM_COMPOUND_CID>
513545
> <PUBCHEM_COMPOUND_CANONICALIZED>
1
> <PUBCHEM_CACTVS_COMPLEXITY>
1050
> <PUBCHEM_CACTVS_HBOND_ACCEPTOR>
11
> <PUBCHEM_CACTVS_HBOND_DONOR>
6
> <PUBCHEM_CACTVS_ROTATABLE_BOND>
9
> <PUBCHEM_CACTVS_SUBSKEYS>
AAADceB7vAAAAAAAAAAAAAAAAAAAASAAAAAwQIAAAAAAAAABAAAAHgAQCAAADBTxmAczCIPABgCIAiFWUAKCCAAgIgAIiIFIBMibNDaAkRWvcAhv9yKfmcf6/I5OgAAAAAAQAAAAAAAAACAAAAAAAAAAAA==
> <PUBCHEM_IUPAC_OPENEYE_NAME>
(2S,3S,4S)-2-[(1R)-2-amino-1-[(2S,3S,4R,5R)-5-(2,4-dioxopyrimidin-1-yl)-4-hydroxy-3-methoxy-tetrahydrofuran-2-yl]-2-oxo-ethoxy]-3,4-dihydroxy-N-(o-tolylmethyl)-3,4-dihydro-2H-pyran-6-carboxamide
> <PUBCHEM_IUPAC_CAS_NAME>
(2S,3S,4S)-2-[(1R)-2-amino-1-[(2S,3S,4R,5R)-5-(2,4-dioxo-1-pyrimidinyl)-4-hydroxy-3-methoxy-2-oxolanyl]-2-oxoethoxy]-3,4-dihydroxy-N-[(2-methylphenyl)methyl]-3,4-dihydro-2H-pyran-6-carboxamide
> <PUBCHEM_IUPAC_NAME_MARKUP>
(2<I>S</I>,3<I>S</I>,4<I>S</I>)-2-[(1<I>R</I>)-2-amino-1-[(2<I>S</I>,3<I>S</I>,4<I>R</I>,5<I>R</I>)-5-(2,4-dioxopyrimidin-1-yl)-4-hydroxy-3-methoxyoxolan-2-yl]-2-oxoethoxy]-3,4-dihydroxy-<I>N</I>-[(2-methylphenyl)methyl]-3,4-dihydro-2<I>H</I>-pyran-6-carboxamide
> <PUBCHEM_IUPAC_NAME>
(2S,3S,4S)-2-[(1R)-2-amino-1-[(2S,3S,4R,5R)-5-(2,4-dioxopyrimidin-1-yl)-4-hydroxy-3-methoxyoxolan-2-yl]-2-oxoethoxy]-3,4-dihydroxy-N-[(2-methylphenyl)methyl]-3,4-dihydro-2H-pyran-6-carboxamide
> <PUBCHEM_IUPAC_SYSTEMATIC_NAME>
(2S,3S,4S)-2-[(1R)-2-azanyl-1-[(2S,3S,4R,5R)-5-[2,4-bis(oxidanylidene)pyrimidin-1-yl]-3-methoxy-4-oxidanyl-oxolan-2-yl]-2-oxidanylidene-ethoxy]-N-[(2-methylphenyl)methyl]-3,4-bis(oxidanyl)-3,4-dihydro-2H-pyran-6-carboxamide
> <PUBCHEM_IUPAC_TRADITIONAL_NAME>
(2S,3S,4S)-2-[(1R)-2-amino-1-[(2S,3S,4R,5R)-5-(2,4-diketopyrimidin-1-yl)-4-hydroxy-3-methoxy-tetrahydrofuran-2-yl]-2-keto-ethoxy]-3,4-dihydroxy-N-(2-methylbenzyl)-3,4-dihydro-2H-pyran-6-carboxamide
> <PUBCHEM_IUPAC_INCHI>
InChI=1S/C25H30N4O11/c1-11-5-3-4-6-12(11)10-27-22(35)14-9-13(30)16(32)24(38-14)40-20(21(26)34)19-18(37-2)17(33)23(39-19)29-8-7-15(31)28-25(29)36/h3-9,13,16-20,23-24,30,32-33H,10H2,1-2H3,(H2,26,34)(H,27,35)(H,28,31,36)/t13-,16-,17+,18-,19-,20+,23+,24+/m0/s1
> <PUBCHEM_IUPAC_INCHIKEY>
KGPFZUXLGLYHJX-YEHZMZNXSA-N
> <PUBCHEM_XLOGP3_AA>
-2.4
> <PUBCHEM_EXACT_MASS>
562.19110779
> <PUBCHEM_MOLECULAR_FORMULA>
C25H30N4O11
> <PUBCHEM_MOLECULAR_WEIGHT>
562.5
> <PUBCHEM_OPENEYE_CAN_SMILES>
CC1=CC=CC=C1CNC(=O)C2=CC(C(C(O2)OC(C3C(C(C(O3)N4C=CC(=O)NC4=O)O)OC)C(=O)N)O)O
> <PUBCHEM_OPENEYE_ISO_SMILES>
CC1=CC=CC=C1CNC(=O)C2=C[C@@H]([C@@H]([C@H](O2)O[C@H]([C@@H]3[C@H]([C@H]([C@@H](O3)N4C=CC(=O)NC4=O)O)OC)C(=O)N)O)O
> <PUBCHEM_CACTVS_TPSA>
219
> <PUBCHEM_MONOISOTOPIC_WEIGHT>
562.19110779
> <PUBCHEM_TOTAL_CHARGE>
0
> <PUBCHEM_HEAVY_ATOM_COUNT>
40
> <PUBCHEM_ATOM_DEF_STEREO_COUNT>
8
> <PUBCHEM_ATOM_UDEF_STEREO_COUNT>
0
> <PUBCHEM_BOND_DEF_STEREO_COUNT>
0
> <PUBCHEM_BOND_UDEF_STEREO_COUNT>
0
> <PUBCHEM_ISOTOPIC_ATOM_COUNT>
0
> <PUBCHEM_COMPONENT_COUNT>
1
> <PUBCHEM_CACTVS_TAUTO_COUNT>
-1
> <PUBCHEM_COORDINATE_TYPE>
1
5
255
> <PUBCHEM_BONDANNOTATIONS>
19  12  5
12  24  8
12  25  8
14  24  8
14  31  8
16  41  6
17  2  6
25  28  8
28  31  8
20  3  6
21  3  5
34  35  8
34  36  8
35  37  8
36  39  8
37  40  8
39  40  8
18  4  6
23  6  6
27  8  6
$$$$
