513529
  -OEChem-10302200282D
 70 73  0     1  0  0  0  0  0999 V2000
   12.4398   -0.6774    0.0000 O   0  0  0  0  0  0  0  0  0  0  0  0
   10.8877   -2.7478    0.0000 O   0  0  0  0  0  0  0  0  0  0  0  0
   10.6603    0.4159    0.0000 O   0  0  0  0  0  0  0  0  0  0  0  0
   13.0157   -3.2001    0.0000 O   0  0  0  0  0  0  0  0  0  0  0  0
    8.9282    0.4159    0.0000 O   0  0  0  0  0  0  0  0  0  0  0  0
   10.6603    2.4159    0.0000 O   0  0  0  0  0  0  0  0  0  0  0  0
    8.9282   -0.5841    0.0000 O   0  0  0  0  0  0  0  0  0  0  0  0
    8.9282    3.4159    0.0000 O   0  0  0  0  0  0  0  0  0  0  0  0
   14.2845   -3.0385    0.0000 O   0  0  0  0  0  0  0  0  0  0  0  0
   17.0870   -1.0024    0.0000 O   0  0  0  0  0  0  0  0  0  0  0  0
    7.1962   -0.5841    0.0000 O   0  0  0  0  0  0  0  0  0  0  0  0
   14.1035   -1.3160    0.0000 N   0  0  0  0  0  0  0  0  0  0  0  0
    9.7942   -2.0841    0.0000 N   0  0  0  0  0  0  0  0  0  0  0  0
   15.6858   -2.0205    0.0000 N   0  0  0  0  0  0  0  0  0  0  0  0
    6.3301    0.9159    0.0000 N   0  0  0  0  0  0  0  0  0  0  0  0
   11.5263   -1.0841    0.0000 C   0  0  1  0  0  0  0  0  0  0  0  0
   11.6308   -2.0786    0.0000 C   0  0  2  0  0  0  0  0  0  0  0  0
   12.6090   -2.2865    0.0000 C   0  0  2  0  0  0  0  0  0  0  0  0
   13.1090   -1.4205    0.0000 C   0  0  1  0  0  0  0  0  0  0  0  0
   10.6603   -0.5841    0.0000 C   0  0  2  0  0  0  0  0  0  0  0  0
    9.7942    0.9159    0.0000 C   0  0  1  0  0  0  0  0  0  0  0  0
    9.7942   -1.0841    0.0000 C   0  0  0  0  0  0  0  0  0  0  0  0
    9.7942    1.9159    0.0000 C   0  0  2  0  0  0  0  0  0  0  0  0
   14.6913   -2.1250    0.0000 C   0  0  0  0  0  0  0  0  0  0  0  0
   14.5102   -0.4024    0.0000 C   0  0  0  0  0  0  0  0  0  0  0  0
    8.9282    2.4159    0.0000 C   0  0  2  0  0  0  0  0  0  0  0  0
   11.0956   -3.7259    0.0000 C   0  0  0  0  0  0  0  0  0  0  0  0
    8.0622    1.9159    0.0000 C   0  0  0  0  0  0  0  0  0  0  0  0
   15.5047   -0.2979    0.0000 C   0  0  0  0  0  0  0  0  0  0  0  0
    8.0622    0.9159    0.0000 C   0  0  0  0  0  0  0  0  0  0  0  0
   16.0925   -1.1069    0.0000 C   0  0  0  0  0  0  0  0  0  0  0  0
    7.1962    0.4159    0.0000 C   0  0  0  0  0  0  0  0  0  0  0  0
    5.4641    0.4159    0.0000 C   0  0  0  0  0  0  0  0  0  0  0  0
    4.5981    0.9159    0.0000 C   0  0  0  0  0  0  0  0  0  0  0  0
    3.7320    0.4159    0.0000 C   0  0  0  0  0  0  0  0  0  0  0  0
    3.7320   -0.5841    0.0000 C   0  0  0  0  0  0  0  0  0  0  0  0
    2.8660    0.9159    0.0000 C   0  0  0  0  0  0  0  0  0  0  0  0
    2.8660   -1.0841    0.0000 C   0  0  0  0  0  0  0  0  0  0  0  0
    2.0000    0.4159    0.0000 C   0  0  0  0  0  0  0  0  0  0  0  0
    2.0000   -0.5841    0.0000 C   0  0  0  0  0  0  0  0  0  0  0  0
   12.2624   -1.5091    0.0000 H   0  0  0  0  0  0  0  0  0  0  0  0
   11.7913   -2.6775    0.0000 H   0  0  0  0  0  0  0  0  0  0  0  0
   13.2281   -2.3190    0.0000 H   0  0  0  0  0  0  0  0  0  0  0  0
   13.4466   -1.9405    0.0000 H   0  0  0  0  0  0  0  0  0  0  0  0
   11.1972   -0.2741    0.0000 H   0  0  0  0  0  0  0  0  0  0  0  0
    9.7942    0.2959    0.0000 H   0  0  0  0  0  0  0  0  0  0  0  0
   12.6513   -3.7017    0.0000 H   0  0  0  0  0  0  0  0  0  0  0  0
    9.7942    2.5359    0.0000 H   0  0  0  0  0  0  0  0  0  0  0  0
   14.1458    0.0992    0.0000 H   0  0  0  0  0  0  0  0  0  0  0  0
    8.3913    2.7259    0.0000 H   0  0  0  0  0  0  0  0  0  0  0  0
   10.4891   -3.8548    0.0000 H   0  0  0  0  0  0  0  0  0  0  0  0
   11.2245   -4.3324    0.0000 H   0  0  0  0  0  0  0  0  0  0  0  0
   11.7020   -3.5970    0.0000 H   0  0  0  0  0  0  0  0  0  0  0  0
    7.5252    2.2259    0.0000 H   0  0  0  0  0  0  0  0  0  0  0  0
    9.2573   -2.3941    0.0000 H   0  0  0  0  0  0  0  0  0  0  0  0
   10.3312   -2.3941    0.0000 H   0  0  0  0  0  0  0  0  0  0  0  0
   16.0502   -2.5221    0.0000 H   0  0  0  0  0  0  0  0  0  0  0  0
   15.7569    0.2685    0.0000 H   0  0  0  0  0  0  0  0  0  0  0  0
   10.6603    3.0359    0.0000 H   0  0  0  0  0  0  0  0  0  0  0  0
    8.3913    3.7259    0.0000 H   0  0  0  0  0  0  0  0  0  0  0  0
    6.3301    1.5359    0.0000 H   0  0  0  0  0  0  0  0  0  0  0  0
    5.0656   -0.0590    0.0000 H   0  0  0  0  0  0  0  0  0  0  0  0
    5.8626   -0.0590    0.0000 H   0  0  0  0  0  0  0  0  0  0  0  0
    4.9966    1.3908    0.0000 H   0  0  0  0  0  0  0  0  0  0  0  0
    4.1996    1.3908    0.0000 H   0  0  0  0  0  0  0  0  0  0  0  0
    4.2690   -0.8941    0.0000 H   0  0  0  0  0  0  0  0  0  0  0  0
    2.8660    1.5359    0.0000 H   0  0  0  0  0  0  0  0  0  0  0  0
    2.8660   -1.7041    0.0000 H   0  0  0  0  0  0  0  0  0  0  0  0
    1.4631    0.7259    0.0000 H   0  0  0  0  0  0  0  0  0  0  0  0
    1.4631   -0.8941    0.0000 H   0  0  0  0  0  0  0  0  0  0  0  0
  1 16  1  0  0  0  0
  1 19  1  0  0  0  0
 17  2  1  6  0  0  0
  2 27  1  0  0  0  0
 20  3  1  6  0  0  0
 21  3  1  1  0  0  0
 18  4  1  6  0  0  0
  4 47  1  0  0  0  0
  5 21  1  0  0  0  0
  5 30  1  0  0  0  0
 23  6  1  6  0  0  0
  6 59  1  0  0  0  0
  7 22  2  0  0  0  0
 26  8  1  6  0  0  0
  8 60  1  0  0  0  0
  9 24  2  0  0  0  0
 10 31  2  0  0  0  0
 11 32  2  0  0  0  0
 19 12  1  1  0  0  0
 12 24  1  0  0  0  0
 12 25  1  0  0  0  0
 13 22  1  0  0  0  0
 13 55  1  0  0  0  0
 13 56  1  0  0  0  0
 14 24  1  0  0  0  0
 14 31  1  0  0  0  0
 14 57  1  0  0  0  0
 15 32  1  0  0  0  0
 15 33  1  0  0  0  0
 15 61  1  0  0  0  0
 16 17  1  0  0  0  0
 16 20  1  0  0  0  0
 16 41  1  6  0  0  0
 17 18  1  0  0  0  0
 17 42  1  0  0  0  0
 18 19  1  0  0  0  0
 18 43  1  0  0  0  0
 19 44  1  0  0  0  0
 20 22  1  0  0  0  0
 20 45  1  0  0  0  0
 21 23  1  0  0  0  0
 21 46  1  0  0  0  0
 23 26  1  0  0  0  0
 23 48  1  0  0  0  0
 25 29  2  0  0  0  0
 25 49  1  0  0  0  0
 26 28  1  0  0  0  0
 26 50  1  0  0  0  0
 27 51  1  0  0  0  0
 27 52  1  0  0  0  0
 27 53  1  0  0  0  0
 28 30  2  0  0  0  0
 28 54  1  0  0  0  0
 29 31  1  0  0  0  0
 29 58  1  0  0  0  0
 30 32  1  0  0  0  0
 33 34  1  0  0  0  0
 33 62  1  0  0  0  0
 33 63  1  0  0  0  0
 34 35  1  0  0  0  0
 34 64  1  0  0  0  0
 34 65  1  0  0  0  0
 35 36  2  0  0  0  0
 35 37  1  0  0  0  0
 36 38  1  0  0  0  0
 36 66  1  0  0  0  0
 37 39  2  0  0  0  0
 37 67  1  0  0  0  0
 38 40  2  0  0  0  0
 38 68  1  0  0  0  0
 39 40  1  0  0  0  0
 39 69  1  0  0  0  0
 40 70  1  0  0  0  0
M  END
> <PUBCHEM_COMPOUND_CID>
513529
> <PUBCHEM_COMPOUND_CANONICALIZED>
1
> <PUBCHEM_CACTVS_COMPLEXITY>
1030
> <PUBCHEM_CACTVS_HBOND_ACCEPTOR>
11
> <PUBCHEM_CACTVS_HBOND_DONOR>
6
> <PUBCHEM_CACTVS_ROTATABLE_BOND>
10
> <PUBCHEM_CACTVS_SUBSKEYS>
AAADceB7vAAAAAAAAAAAAAAAAAAAASAAAAAwQIAAAAAAAAABAAAAHgAQCAAADBTxmAczCIPABgCIAiFWUAKCCAAgIgAIiIFIAMibNDaAkRWvcAAv9yKfmcf6/I5OAAAAAAAAAAAAAAAAAAAAAAAAAAAAAA==
> <PUBCHEM_IUPAC_OPENEYE_NAME>
(2S,3S,4S)-2-[(1R)-2-amino-1-[(2S,3S,4R,5R)-5-(2,4-dioxopyrimidin-1-yl)-4-hydroxy-3-methoxy-tetrahydrofuran-2-yl]-2-oxo-ethoxy]-3,4-dihydroxy-N-(2-phenylethyl)-3,4-dihydro-2H-pyran-6-carboxamide
> <PUBCHEM_IUPAC_CAS_NAME>
(2S,3S,4S)-2-[(1R)-2-amino-1-[(2S,3S,4R,5R)-5-(2,4-dioxo-1-pyrimidinyl)-4-hydroxy-3-methoxy-2-oxolanyl]-2-oxoethoxy]-3,4-dihydroxy-N-(2-phenylethyl)-3,4-dihydro-2H-pyran-6-carboxamide
> <PUBCHEM_IUPAC_NAME_MARKUP>
(2<I>S</I>,3<I>S</I>,4<I>S</I>)-2-[(1<I>R</I>)-2-amino-1-[(2<I>S</I>,3<I>S</I>,4<I>R</I>,5<I>R</I>)-5-(2,4-dioxopyrimidin-1-yl)-4-hydroxy-3-methoxyoxolan-2-yl]-2-oxoethoxy]-3,4-dihydroxy-<I>N</I>-(2-phenylethyl)-3,4-dihydro-2<I>H</I>-pyran-6-carboxamide
> <PUBCHEM_IUPAC_NAME>
(2S,3S,4S)-2-[(1R)-2-amino-1-[(2S,3S,4R,5R)-5-(2,4-dioxopyrimidin-1-yl)-4-hydroxy-3-methoxyoxolan-2-yl]-2-oxoethoxy]-3,4-dihydroxy-N-(2-phenylethyl)-3,4-dihydro-2H-pyran-6-carboxamide
> <PUBCHEM_IUPAC_SYSTEMATIC_NAME>
(2S,3S,4S)-2-[(1R)-2-azanyl-1-[(2S,3S,4R,5R)-5-[2,4-bis(oxidanylidene)pyrimidin-1-yl]-3-methoxy-4-oxidanyl-oxolan-2-yl]-2-oxidanylidene-ethoxy]-3,4-bis(oxidanyl)-N-(2-phenylethyl)-3,4-dihydro-2H-pyran-6-carboxamide
> <PUBCHEM_IUPAC_TRADITIONAL_NAME>
(2S,3S,4S)-2-[(1R)-2-amino-1-[(2S,3S,4R,5R)-5-(2,4-diketopyrimidin-1-yl)-4-hydroxy-3-methoxy-tetrahydrofuran-2-yl]-2-keto-ethoxy]-3,4-dihydroxy-N-phenethyl-3,4-dihydro-2H-pyran-6-carboxamide
> <PUBCHEM_IUPAC_INCHI>
InChI=1S/C25H30N4O11/c1-37-18-17(33)23(29-10-8-15(31)28-25(29)36)39-19(18)20(21(26)34)40-24-16(32)13(30)11-14(38-24)22(35)27-9-7-12-5-3-2-4-6-12/h2-6,8,10-11,13,16-20,23-24,30,32-33H,7,9H2,1H3,(H2,26,34)(H,27,35)(H,28,31,36)/t13-,16-,17+,18-,19-,20+,23+,24+/m0/s1
> <PUBCHEM_IUPAC_INCHIKEY>
LPUQWSZBEQMWCN-YEHZMZNXSA-N
> <PUBCHEM_XLOGP3_AA>
-2.4
> <PUBCHEM_EXACT_MASS>
562.19110779
> <PUBCHEM_MOLECULAR_FORMULA>
C25H30N4O11
> <PUBCHEM_MOLECULAR_WEIGHT>
562.5
> <PUBCHEM_OPENEYE_CAN_SMILES>
COC1C(C(OC1C(C(=O)N)OC2C(C(C=C(O2)C(=O)NCCC3=CC=CC=C3)O)O)N4C=CC(=O)NC4=O)O
> <PUBCHEM_OPENEYE_ISO_SMILES>
CO[C@H]1[C@H]([C@@H](O[C@@H]1[C@H](C(=O)N)O[C@@H]2[C@H]([C@H](C=C(O2)C(=O)NCCC3=CC=CC=C3)O)O)N4C=CC(=O)NC4=O)O
> <PUBCHEM_CACTVS_TPSA>
219
> <PUBCHEM_MONOISOTOPIC_WEIGHT>
562.19110779
> <PUBCHEM_TOTAL_CHARGE>
0
> <PUBCHEM_HEAVY_ATOM_COUNT>
40
> <PUBCHEM_ATOM_DEF_STEREO_COUNT>
8
> <PUBCHEM_ATOM_UDEF_STEREO_COUNT>
0
> <PUBCHEM_BOND_DEF_STEREO_COUNT>
0
> <PUBCHEM_BOND_UDEF_STEREO_COUNT>
0
> <PUBCHEM_ISOTOPIC_ATOM_COUNT>
0
> <PUBCHEM_COMPONENT_COUNT>
1
> <PUBCHEM_CACTVS_TAUTO_COUNT>
-1
> <PUBCHEM_COORDINATE_TYPE>
1
5
255
> <PUBCHEM_BONDANNOTATIONS>
19  12  5
12  24  8
12  25  8
14  24  8
14  31  8
16  41  6
17  2  6
25  29  8
29  31  8
20  3  6
21  3  5
35  36  8
35  37  8
36  38  8
37  39  8
38  40  8
39  40  8
18  4  6
23  6  6
26  8  6
$$$$
