513574
  -OEChem-10302200282D
 64 67  0     1  0  0  0  0  0999 V2000
    2.0000    2.0233    0.0000 F   0  0  0  0  0  0  0  0  0  0  0  0
    2.0000    0.0233    0.0000 F   0  0  0  0  0  0  0  0  0  0  0  0
   10.7648   -0.9712    0.0000 O   0  0  0  0  0  0  0  0  0  0  0  0
   11.7817    1.4082    0.0000 O   0  0  0  0  0  0  0  0  0  0  0  0
    9.7942    1.5233    0.0000 O   0  0  0  0  0  0  0  0  0  0  0  0
   13.2375   -0.2086    0.0000 O   0  0  0  0  0  0  0  0  0  0  0  0
    8.0622    1.5233    0.0000 O   0  0  0  0  0  0  0  0  0  0  0  0
    9.7942    3.5233    0.0000 O   0  0  0  0  0  0  0  0  0  0  0  0
    8.0622    0.5233    0.0000 O   0  0  0  0  0  0  0  0  0  0  0  0
    8.0622    4.5233    0.0000 O   0  0  0  0  0  0  0  0  0  0  0  0
   10.5674   -2.7972    0.0000 O   0  0  0  0  0  0  0  0  0  0  0  0
   13.3699   -4.8333    0.0000 O   0  0  0  0  0  0  0  0  0  0  0  0
    6.3301    0.5233    0.0000 O   0  0  0  0  0  0  0  0  0  0  0  0
   12.1497   -2.0927    0.0000 N   0  0  0  0  0  0  0  0  0  0  0  0
    8.9282   -0.9767    0.0000 N   0  0  0  0  0  0  0  0  0  0  0  0
   11.9686   -3.8152    0.0000 N   0  0  0  0  0  0  0  0  0  0  0  0
    5.4641    2.0233    0.0000 N   0  0  0  0  0  0  0  0  0  0  0  0
   10.6603    0.0233    0.0000 C   0  0  1  0  0  0  0  0  0  0  0  0
   11.5738    0.4300    0.0000 C   0  0  2  0  0  0  0  0  0  0  0  0
   12.2429   -0.3131    0.0000 C   0  0  2  0  0  0  0  0  0  0  0  0
   11.7429   -1.1791    0.0000 C   0  0  1  0  0  0  0  0  0  0  0  0
    9.7942    0.5233    0.0000 C   0  0  2  0  0  0  0  0  0  0  0  0
    8.9282    2.0233    0.0000 C   0  0  1  0  0  0  0  0  0  0  0  0
    8.9282    0.0233    0.0000 C   0  0  0  0  0  0  0  0  0  0  0  0
    8.9282    3.0233    0.0000 C   0  0  2  0  0  0  0  0  0  0  0  0
   11.5619   -2.9017    0.0000 C   0  0  0  0  0  0  0  0  0  0  0  0
   13.1442   -2.1972    0.0000 C   0  0  0  0  0  0  0  0  0  0  0  0
    8.0622    3.5233    0.0000 C   0  0  2  0  0  0  0  0  0  0  0  0
   12.7328    1.7172    0.0000 C   0  0  0  0  0  0  0  0  0  0  0  0
    7.1962    3.0233    0.0000 C   0  0  0  0  0  0  0  0  0  0  0  0
   13.5509   -3.1108    0.0000 C   0  0  0  0  0  0  0  0  0  0  0  0
    7.1962    2.0233    0.0000 C   0  0  0  0  0  0  0  0  0  0  0  0
   12.9631   -3.9198    0.0000 C   0  0  0  0  0  0  0  0  0  0  0  0
    6.3301    1.5233    0.0000 C   0  0  0  0  0  0  0  0  0  0  0  0
    4.5981    1.5233    0.0000 C   0  0  0  0  0  0  0  0  0  0  0  0
    3.7320    2.0233    0.0000 C   0  0  0  0  0  0  0  0  0  0  0  0
    4.5981    0.5233    0.0000 C   0  0  0  0  0  0  0  0  0  0  0  0
    2.8660    1.5233    0.0000 C   0  0  0  0  0  0  0  0  0  0  0  0
    3.7320    0.0233    0.0000 C   0  0  0  0  0  0  0  0  0  0  0  0
    2.8660    0.5233    0.0000 C   0  0  0  0  0  0  0  0  0  0  0  0
    9.9474   -0.4396    0.0000 H   0  0  0  0  0  0  0  0  0  0  0  0
   11.0920    0.8202    0.0000 H   0  0  0  0  0  0  0  0  0  0  0  0
   12.4651    0.2657    0.0000 H   0  0  0  0  0  0  0  0  0  0  0  0
   12.3621   -1.2116    0.0000 H   0  0  0  0  0  0  0  0  0  0  0  0
    9.2573    0.8333    0.0000 H   0  0  0  0  0  0  0  0  0  0  0  0
    9.4651    2.3333    0.0000 H   0  0  0  0  0  0  0  0  0  0  0  0
   13.4896    0.3578    0.0000 H   0  0  0  0  0  0  0  0  0  0  0  0
    8.9282    3.6433    0.0000 H   0  0  0  0  0  0  0  0  0  0  0  0
   13.5086   -1.6956    0.0000 H   0  0  0  0  0  0  0  0  0  0  0  0
    7.5252    3.8333    0.0000 H   0  0  0  0  0  0  0  0  0  0  0  0
   12.9244    1.1276    0.0000 H   0  0  0  0  0  0  0  0  0  0  0  0
   13.3224    1.9088    0.0000 H   0  0  0  0  0  0  0  0  0  0  0  0
   12.5412    2.3069    0.0000 H   0  0  0  0  0  0  0  0  0  0  0  0
    6.6592    3.3333    0.0000 H   0  0  0  0  0  0  0  0  0  0  0  0
    8.3913   -1.2867    0.0000 H   0  0  0  0  0  0  0  0  0  0  0  0
    9.4651   -1.2867    0.0000 H   0  0  0  0  0  0  0  0  0  0  0  0
   11.6042   -4.3168    0.0000 H   0  0  0  0  0  0  0  0  0  0  0  0
   14.1675   -3.1756    0.0000 H   0  0  0  0  0  0  0  0  0  0  0  0
    9.7942    4.1433    0.0000 H   0  0  0  0  0  0  0  0  0  0  0  0
    7.5252    4.8333    0.0000 H   0  0  0  0  0  0  0  0  0  0  0  0
    5.4641    2.6433    0.0000 H   0  0  0  0  0  0  0  0  0  0  0  0
    3.7320    2.6433    0.0000 H   0  0  0  0  0  0  0  0  0  0  0  0
    5.1350    0.2133    0.0000 H   0  0  0  0  0  0  0  0  0  0  0  0
    3.7320   -0.5967    0.0000 H   0  0  0  0  0  0  0  0  0  0  0  0
  1 38  1  0  0  0  0
  2 40  1  0  0  0  0
  3 18  1  0  0  0  0
  3 21  1  0  0  0  0
 19  4  1  1  0  0  0
  4 29  1  0  0  0  0
 22  5  1  6  0  0  0
 23  5  1  1  0  0  0
 20  6  1  1  0  0  0
  6 47  1  0  0  0  0
  7 23  1  0  0  0  0
  7 32  1  0  0  0  0
 25  8  1  6  0  0  0
  8 59  1  0  0  0  0
  9 24  2  0  0  0  0
 28 10  1  6  0  0  0
 10 60  1  0  0  0  0
 11 26  2  0  0  0  0
 12 33  2  0  0  0  0
 13 34  2  0  0  0  0
 21 14  1  6  0  0  0
 14 26  1  0  0  0  0
 14 27  1  0  0  0  0
 15 24  1  0  0  0  0
 15 55  1  0  0  0  0
 15 56  1  0  0  0  0
 16 26  1  0  0  0  0
 16 33  1  0  0  0  0
 16 57  1  0  0  0  0
 17 34  1  0  0  0  0
 17 35  1  0  0  0  0
 17 61  1  0  0  0  0
 18 19  1  0  0  0  0
 18 22  1  0  0  0  0
 18 41  1  1  0  0  0
 19 20  1  0  0  0  0
 19 42  1  0  0  0  0
 20 21  1  0  0  0  0
 20 43  1  0  0  0  0
 21 44  1  0  0  0  0
 22 24  1  0  0  0  0
 22 45  1  0  0  0  0
 23 25  1  0  0  0  0
 23 46  1  0  0  0  0
 25 28  1  0  0  0  0
 25 48  1  0  0  0  0
 27 31  2  0  0  0  0
 27 49  1  0  0  0  0
 28 30  1  0  0  0  0
 28 50  1  0  0  0  0
 29 51  1  0  0  0  0
 29 52  1  0  0  0  0
 29 53  1  0  0  0  0
 30 32  2  0  0  0  0
 30 54  1  0  0  0  0
 31 33  1  0  0  0  0
 31 58  1  0  0  0  0
 32 34  1  0  0  0  0
 35 36  2  0  0  0  0
 35 37  1  0  0  0  0
 36 38  1  0  0  0  0
 36 62  1  0  0  0  0
 37 39  2  0  0  0  0
 37 63  1  0  0  0  0
 38 40  2  0  0  0  0
 39 40  1  0  0  0  0
 39 64  1  0  0  0  0
M  END
> <PUBCHEM_COMPOUND_CID>
513574
> <PUBCHEM_COMPOUND_CANONICALIZED>
1
> <PUBCHEM_CACTVS_COMPLEXITY>
1080
> <PUBCHEM_CACTVS_HBOND_ACCEPTOR>
13
> <PUBCHEM_CACTVS_HBOND_DONOR>
6
> <PUBCHEM_CACTVS_ROTATABLE_BOND>
8
> <PUBCHEM_CACTVS_SUBSKEYS>
AAADceB7vYAAAAAAAAAAAAAAAAAAASAAAAAwQIAAAAAAAAABAAAAHwAQCAAACBzxkA8zyIPABgCIACVWUAKCCAAhIgAIiAFIZMibNDbAkZWvcAhv9yLf2cf6fA5AAAAAAAAAAAAAAAAAAAAAAAAAAAAAAA==
> <PUBCHEM_IUPAC_OPENEYE_NAME>
(2S,3S,4S)-2-[(1R)-2-amino-1-[(2S,3S,4R,5R)-5-(2,4-dioxopyrimidin-1-yl)-4-hydroxy-3-methoxy-tetrahydrofuran-2-yl]-2-oxo-ethoxy]-N-(3,4-difluorophenyl)-3,4-dihydroxy-3,4-dihydro-2H-pyran-6-carboxamide
> <PUBCHEM_IUPAC_CAS_NAME>
(2S,3S,4S)-2-[(1R)-2-amino-1-[(2S,3S,4R,5R)-5-(2,4-dioxo-1-pyrimidinyl)-4-hydroxy-3-methoxy-2-oxolanyl]-2-oxoethoxy]-N-(3,4-difluorophenyl)-3,4-dihydroxy-3,4-dihydro-2H-pyran-6-carboxamide
> <PUBCHEM_IUPAC_NAME_MARKUP>
(2<I>S</I>,3<I>S</I>,4<I>S</I>)-2-[(1<I>R</I>)-2-amino-1-[(2<I>S</I>,3<I>S</I>,4<I>R</I>,5<I>R</I>)-5-(2,4-dioxopyrimidin-1-yl)-4-hydroxy-3-methoxyoxolan-2-yl]-2-oxoethoxy]-<I>N</I>-(3,4-difluorophenyl)-3,4-dihydroxy-3,4-dihydro-2<I>H</I>-pyran-6-carboxamide
> <PUBCHEM_IUPAC_NAME>
(2S,3S,4S)-2-[(1R)-2-amino-1-[(2S,3S,4R,5R)-5-(2,4-dioxopyrimidin-1-yl)-4-hydroxy-3-methoxyoxolan-2-yl]-2-oxoethoxy]-N-(3,4-difluorophenyl)-3,4-dihydroxy-3,4-dihydro-2H-pyran-6-carboxamide
> <PUBCHEM_IUPAC_SYSTEMATIC_NAME>
(2S,3S,4S)-2-[(1R)-2-azanyl-1-[(2S,3S,4R,5R)-5-[2,4-bis(oxidanylidene)pyrimidin-1-yl]-3-methoxy-4-oxidanyl-oxolan-2-yl]-2-oxidanylidene-ethoxy]-N-[3,4-bis(fluoranyl)phenyl]-3,4-bis(oxidanyl)-3,4-dihydro-2H-pyran-6-carboxamide
> <PUBCHEM_IUPAC_TRADITIONAL_NAME>
(2S,3S,4S)-2-[(1R)-2-amino-1-[(2S,3S,4R,5R)-5-(2,4-diketopyrimidin-1-yl)-4-hydroxy-3-methoxy-tetrahydrofuran-2-yl]-2-keto-ethoxy]-N-(3,4-difluorophenyl)-3,4-dihydroxy-3,4-dihydro-2H-pyran-6-carboxamide
> <PUBCHEM_IUPAC_INCHI>
InChI=1S/C23H24F2N4O11/c1-37-16-15(33)21(29-5-4-13(31)28-23(29)36)39-17(16)18(19(26)34)40-22-14(32)11(30)7-12(38-22)20(35)27-8-2-3-9(24)10(25)6-8/h2-7,11,14-18,21-22,30,32-33H,1H3,(H2,26,34)(H,27,35)(H,28,31,36)/t11-,14-,15+,16-,17-,18+,21+,22+/m0/s1
> <PUBCHEM_IUPAC_INCHIKEY>
RATIQJMMMZGLME-KQSVRIFWSA-N
> <PUBCHEM_XLOGP3_AA>
-2.5
> <PUBCHEM_EXACT_MASS>
570.14096392
> <PUBCHEM_MOLECULAR_FORMULA>
C23H24F2N4O11
> <PUBCHEM_MOLECULAR_WEIGHT>
570.5
> <PUBCHEM_OPENEYE_CAN_SMILES>
COC1C(C(OC1C(C(=O)N)OC2C(C(C=C(O2)C(=O)NC3=CC(=C(C=C3)F)F)O)O)N4C=CC(=O)NC4=O)O
> <PUBCHEM_OPENEYE_ISO_SMILES>
CO[C@H]1[C@H]([C@@H](O[C@@H]1[C@H](C(=O)N)O[C@@H]2[C@H]([C@H](C=C(O2)C(=O)NC3=CC(=C(C=C3)F)F)O)O)N4C=CC(=O)NC4=O)O
> <PUBCHEM_CACTVS_TPSA>
219
> <PUBCHEM_MONOISOTOPIC_WEIGHT>
570.14096392
> <PUBCHEM_TOTAL_CHARGE>
0
> <PUBCHEM_HEAVY_ATOM_COUNT>
40
> <PUBCHEM_ATOM_DEF_STEREO_COUNT>
8
> <PUBCHEM_ATOM_UDEF_STEREO_COUNT>
0
> <PUBCHEM_BOND_DEF_STEREO_COUNT>
0
> <PUBCHEM_BOND_UDEF_STEREO_COUNT>
0
> <PUBCHEM_ISOTOPIC_ATOM_COUNT>
0
> <PUBCHEM_COMPONENT_COUNT>
1
> <PUBCHEM_CACTVS_TAUTO_COUNT>
-1
> <PUBCHEM_COORDINATE_TYPE>
1
5
255
> <PUBCHEM_BONDANNOTATIONS>
28  10  6
21  14  6
14  26  8
14  27  8
16  26  8
16  33  8
18  41  5
27  31  8
31  33  8
35  36  8
35  37  8
36  38  8
37  39  8
38  40  8
39  40  8
19  4  5
22  5  6
23  5  5
20  6  5
25  8  6
$$$$
