513592
  -OEChem-10302200282D
 53 56  0     1  0  0  0  0  0999 V2000
    5.5103    1.7468    0.0000 O   0  0  0  0  0  0  0  0  0  0  0  0
    7.2762    2.7846    0.0000 O   0  0  0  0  0  0  0  0  0  0  0  0
    7.2452   -3.2751    0.0000 O   0  0  0  0  0  0  0  0  0  0  0  0
    2.8680   -1.8088    0.0000 O   0  0  0  0  0  0  0  0  0  0  0  0
    2.8680    0.2395    0.0000 O   0  0  0  0  0  0  0  0  0  0  0  0
    8.1223   -1.7816    0.0000 N   0  0  0  0  0  0  0  0  0  0  0  0
    7.2641   -1.2846    0.0000 C   0  0  3  0  0  0  0  0  0  0  0  0
    7.2641   -0.2846    0.0000 C   0  0  0  0  0  0  0  0  0  0  0  0
    6.3981   -1.7846    0.0000 C   0  0  0  0  0  0  0  0  0  0  0  0
    8.1741    0.2222    0.0000 C   0  0  0  0  0  0  0  0  0  0  0  0
    6.3981    0.2154    0.0000 C   0  0  0  0  0  0  0  0  0  0  0  0
    8.9878   -1.2974    0.0000 C   0  0  0  0  0  0  0  0  0  0  0  0
    9.0134   -0.3060    0.0000 C   0  0  0  0  0  0  0  0  0  0  0  0
    5.5320   -1.2846    0.0000 C   0  0  0  0  0  0  0  0  0  0  0  0
    5.5320   -0.2846    0.0000 C   0  0  0  0  0  0  0  0  0  0  0  0
    6.3820    1.2569    0.0000 C   0  0  0  0  0  0  0  0  0  0  0  0
    8.1821    1.2638    0.0000 C   0  0  0  0  0  0  0  0  0  0  0  0
    8.1149   -2.7816    0.0000 C   0  0  0  0  0  0  0  0  0  0  0  0
    7.2800    1.7846    0.0000 C   0  0  0  0  0  0  0  0  0  0  0  0
    4.6381   -1.8193    0.0000 C   0  0  0  0  0  0  0  0  0  0  0  0
    4.6381    0.2500    0.0000 C   0  0  0  0  0  0  0  0  0  0  0  0
    3.7320   -1.3055    0.0000 C   0  0  0  0  0  0  0  0  0  0  0  0
    3.7320   -0.2638    0.0000 C   0  0  0  0  0  0  0  0  0  0  0  0
    8.9772   -3.2879    0.0000 C   0  0  0  0  0  0  0  0  0  0  0  0
    5.4987    2.7468    0.0000 C   0  0  0  0  0  0  0  0  0  0  0  0
    8.1403    3.2879    0.0000 C   0  0  0  0  0  0  0  0  0  0  0  0
    2.8718   -2.8088    0.0000 C   0  0  0  0  0  0  0  0  0  0  0  0
    2.0000   -0.2572    0.0000 C   0  0  0  0  0  0  0  0  0  0  0  0
    7.2637   -1.9046    0.0000 H   0  0  0  0  0  0  0  0  0  0  0  0
    5.9995   -2.2596    0.0000 H   0  0  0  0  0  0  0  0  0  0  0  0
    6.7966   -2.2596    0.0000 H   0  0  0  0  0  0  0  0  0  0  0  0
    9.1895   -1.8837    0.0000 H   0  0  0  0  0  0  0  0  0  0  0  0
    9.6006   -1.2030    0.0000 H   0  0  0  0  0  0  0  0  0  0  0  0
    9.6205   -0.4319    0.0000 H   0  0  0  0  0  0  0  0  0  0  0  0
    9.2452    0.2690    0.0000 H   0  0  0  0  0  0  0  0  0  0  0  0
    8.7203    1.5717    0.0000 H   0  0  0  0  0  0  0  0  0  0  0  0
    4.6453   -2.4393    0.0000 H   0  0  0  0  0  0  0  0  0  0  0  0
    4.6453    0.8700    0.0000 H   0  0  0  0  0  0  0  0  0  0  0  0
    8.6632   -3.8226    0.0000 H   0  0  0  0  0  0  0  0  0  0  0  0
    9.5118   -3.6019    0.0000 H   0  0  0  0  0  0  0  0  0  0  0  0
    9.2912   -2.7533    0.0000 H   0  0  0  0  0  0  0  0  0  0  0  0
    6.1187    2.7539    0.0000 H   0  0  0  0  0  0  0  0  0  0  0  0
    5.4915    3.3667    0.0000 H   0  0  0  0  0  0  0  0  0  0  0  0
    4.8787    2.7396    0.0000 H   0  0  0  0  0  0  0  0  0  0  0  0
    8.4523    2.7522    0.0000 H   0  0  0  0  0  0  0  0  0  0  0  0
    8.6760    3.6000    0.0000 H   0  0  0  0  0  0  0  0  0  0  0  0
    7.8282    3.8237    0.0000 H   0  0  0  0  0  0  0  0  0  0  0  0
    2.2518   -2.8112    0.0000 H   0  0  0  0  0  0  0  0  0  0  0  0
    2.8742   -3.4288    0.0000 H   0  0  0  0  0  0  0  0  0  0  0  0
    3.4918   -2.8064    0.0000 H   0  0  0  0  0  0  0  0  0  0  0  0
    1.6921    0.2810    0.0000 H   0  0  0  0  0  0  0  0  0  0  0  0
    1.4619   -0.5651    0.0000 H   0  0  0  0  0  0  0  0  0  0  0  0
    2.3079   -0.7953    0.0000 H   0  0  0  0  0  0  0  0  0  0  0  0
  1 16  1  0  0  0  0
  1 25  1  0  0  0  0
  2 19  1  0  0  0  0
  2 26  1  0  0  0  0
  3 18  2  0  0  0  0
  4 22  1  0  0  0  0
  4 27  1  0  0  0  0
  5 23  1  0  0  0  0
  5 28  1  0  0  0  0
  6  7  1  0  0  0  0
  6 12  1  0  0  0  0
  6 18  1  0  0  0  0
  7  8  1  0  0  0  0
  7  9  1  0  0  0  0
  7 29  1  0  0  0  0
  8 10  1  0  0  0  0
  8 11  2  0  0  0  0
  9 14  1  0  0  0  0
  9 30  1  0  0  0  0
  9 31  1  0  0  0  0
 10 13  1  0  0  0  0
 10 17  2  0  0  0  0
 11 15  1  0  0  0  0
 11 16  1  0  0  0  0
 12 13  1  0  0  0  0
 12 32  1  0  0  0  0
 12 33  1  0  0  0  0
 13 34  1  0  0  0  0
 13 35  1  0  0  0  0
 14 15  1  0  0  0  0
 14 20  2  0  0  0  0
 15 21  2  0  0  0  0
 16 19  2  0  0  0  0
 17 19  1  0  0  0  0
 17 36  1  0  0  0  0
 18 24  1  0  0  0  0
 20 22  1  0  0  0  0
 20 37  1  0  0  0  0
 21 23  1  0  0  0  0
 21 38  1  0  0  0  0
 22 23  2  0  0  0  0
 24 39  1  0  0  0  0
 24 40  1  0  0  0  0
 24 41  1  0  0  0  0
 25 42  1  0  0  0  0
 25 43  1  0  0  0  0
 25 44  1  0  0  0  0
 26 45  1  0  0  0  0
 26 46  1  0  0  0  0
 26 47  1  0  0  0  0
 27 48  1  0  0  0  0
 27 49  1  0  0  0  0
 27 50  1  0  0  0  0
 28 51  1  0  0  0  0
 28 52  1  0  0  0  0
 28 53  1  0  0  0  0
M  END
> <PUBCHEM_COMPOUND_CID>
513592
> <PUBCHEM_COMPOUND_CANONICALIZED>
1
> <PUBCHEM_CACTVS_COMPLEXITY>
571
> <PUBCHEM_CACTVS_HBOND_ACCEPTOR>
5
> <PUBCHEM_CACTVS_HBOND_DONOR>
0
> <PUBCHEM_CACTVS_ROTATABLE_BOND>
4
> <PUBCHEM_CACTVS_SUBSKEYS>
AAADceB6OAAAAAAAAAAAAAAAAAAAAAAAAAA8YMEAAAAAAADxQAAAHgAAAAAADCzBmAYyBoMABACIAiFSEACCCAAgIAAAiAAOjIgNJiKEsRuEMCpkxhGKqAew8P8OoAADAAAYQADQAAaAADSAAAAAAAAAAA==
> <PUBCHEM_IUPAC_OPENEYE_NAME>
1-(1,2,9,10-tetramethoxy-5,6,6a,7-tetrahydro-4H-dibenzo[de,g]quinolin-6-yl)ethanone
> <PUBCHEM_IUPAC_CAS_NAME>
1-(1,2,9,10-tetramethoxy-5,6,6a,7-tetrahydro-4H-dibenzo[de,g]quinolin-6-yl)ethanone
> <PUBCHEM_IUPAC_NAME_MARKUP>
1-(1,2,9,10-tetramethoxy-5,6,6<I>a</I>,7-tetrahydro-4<I>H</I>-dibenzo[de,g]quinolin-6-yl)ethanone
> <PUBCHEM_IUPAC_NAME>
1-(1,2,9,10-tetramethoxy-5,6,6a,7-tetrahydro-4H-dibenzo[de,g]quinolin-6-yl)ethanone
> <PUBCHEM_IUPAC_SYSTEMATIC_NAME>
1-(1,2,9,10-tetramethoxy-5,6,6a,7-tetrahydro-4H-dibenzo[de,g]quinolin-6-yl)ethanone
> <PUBCHEM_IUPAC_TRADITIONAL_NAME>
1-(1,2,9,10-tetramethoxy-5,6,6a,7-tetrahydro-4H-dibenzo[de,g]quinolin-6-yl)ethanone
> <PUBCHEM_IUPAC_INCHI>
InChI=1S/C22H25NO5/c1-12(24)23-7-6-13-9-19(27-4)22(28-5)21-15-11-18(26-3)17(25-2)10-14(15)8-16(23)20(13)21/h9-11,16H,6-8H2,1-5H3
> <PUBCHEM_IUPAC_INCHIKEY>
BRACWKFAIOSVJR-UHFFFAOYSA-N
> <PUBCHEM_XLOGP3_AA>
2.8
> <PUBCHEM_EXACT_MASS>
383.17327290
> <PUBCHEM_MOLECULAR_FORMULA>
C22H25NO5
> <PUBCHEM_MOLECULAR_WEIGHT>
383.4
> <PUBCHEM_OPENEYE_CAN_SMILES>
CC(=O)N1CCC2=CC(=C(C3=C2C1CC4=CC(=C(C=C43)OC)OC)OC)OC
> <PUBCHEM_OPENEYE_ISO_SMILES>
CC(=O)N1CCC2=CC(=C(C3=C2C1CC4=CC(=C(C=C43)OC)OC)OC)OC
> <PUBCHEM_CACTVS_TPSA>
57.2
> <PUBCHEM_MONOISOTOPIC_WEIGHT>
383.17327290
> <PUBCHEM_TOTAL_CHARGE>
0
> <PUBCHEM_HEAVY_ATOM_COUNT>
28
> <PUBCHEM_ATOM_DEF_STEREO_COUNT>
0
> <PUBCHEM_ATOM_UDEF_STEREO_COUNT>
1
> <PUBCHEM_BOND_DEF_STEREO_COUNT>
0
> <PUBCHEM_BOND_UDEF_STEREO_COUNT>
0
> <PUBCHEM_ISOTOPIC_ATOM_COUNT>
0
> <PUBCHEM_COMPONENT_COUNT>
1
> <PUBCHEM_CACTVS_TAUTO_COUNT>
-1
> <PUBCHEM_COORDINATE_TYPE>
1
5
255
> <PUBCHEM_BONDANNOTATIONS>
10  17  8
11  16  8
14  15  8
14  20  8
15  21  8
16  19  8
17  19  8
20  22  8
21  23  8
22  23  8
7  9  3
8  10  8
8  11  8
$$$$
