513565
  -OEChem-10302200282D
 82 85  0     1  0  0  0  0  0999 V2000
   15.0949   -0.9712    0.0000 O   0  0  0  0  0  0  0  0  0  0  0  0
   16.1118    1.4082    0.0000 O   0  0  0  0  0  0  0  0  0  0  0  0
   14.1244    1.5233    0.0000 O   0  0  0  0  0  0  0  0  0  0  0  0
   17.5676   -0.2086    0.0000 O   0  0  0  0  0  0  0  0  0  0  0  0
   12.3923    1.5233    0.0000 O   0  0  0  0  0  0  0  0  0  0  0  0
   12.3923    0.5233    0.0000 O   0  0  0  0  0  0  0  0  0  0  0  0
   14.1244    3.5233    0.0000 O   0  0  0  0  0  0  0  0  0  0  0  0
   14.8975   -2.7972    0.0000 O   0  0  0  0  0  0  0  0  0  0  0  0
   12.3923    4.5233    0.0000 O   0  0  0  0  0  0  0  0  0  0  0  0
   17.7000   -4.8333    0.0000 O   0  0  0  0  0  0  0  0  0  0  0  0
   10.6603    0.5233    0.0000 O   0  0  0  0  0  0  0  0  0  0  0  0
   16.4798   -2.0927    0.0000 N   0  0  0  0  0  0  0  0  0  0  0  0
   16.2987   -3.8152    0.0000 N   0  0  0  0  0  0  0  0  0  0  0  0
   13.2583   -0.9767    0.0000 N   0  0  0  0  0  0  0  0  0  0  0  0
    9.7942    2.0233    0.0000 N   0  0  0  0  0  0  0  0  0  0  0  0
   14.9904    0.0233    0.0000 C   0  0  1  0  0  0  0  0  0  0  0  0
   15.9039    0.4300    0.0000 C   0  0  2  0  0  0  0  0  0  0  0  0
   16.5731   -0.3131    0.0000 C   0  0  2  0  0  0  0  0  0  0  0  0
   16.0731   -1.1791    0.0000 C   0  0  1  0  0  0  0  0  0  0  0  0
   14.1244    0.5233    0.0000 C   0  0  2  0  0  0  0  0  0  0  0  0
   13.2583    2.0233    0.0000 C   0  0  1  0  0  0  0  0  0  0  0  0
   13.2583    0.0233    0.0000 C   0  0  0  0  0  0  0  0  0  0  0  0
   13.2583    3.0233    0.0000 C   0  0  2  0  0  0  0  0  0  0  0  0
   15.8920   -2.9017    0.0000 C   0  0  0  0  0  0  0  0  0  0  0  0
   17.4743   -2.1972    0.0000 C   0  0  0  0  0  0  0  0  0  0  0  0
   17.0629    1.7172    0.0000 C   0  0  0  0  0  0  0  0  0  0  0  0
   12.3923    3.5233    0.0000 C   0  0  2  0  0  0  0  0  0  0  0  0
   17.8811   -3.1108    0.0000 C   0  0  0  0  0  0  0  0  0  0  0  0
   11.5263    3.0233    0.0000 C   0  0  0  0  0  0  0  0  0  0  0  0
   11.5263    2.0233    0.0000 C   0  0  0  0  0  0  0  0  0  0  0  0
   17.2933   -3.9198    0.0000 C   0  0  0  0  0  0  0  0  0  0  0  0
   10.6603    1.5233    0.0000 C   0  0  0  0  0  0  0  0  0  0  0  0
    5.4641    0.5233    0.0000 C   0  0  0  0  0  0  0  0  0  0  0  0
    4.5981    0.0233    0.0000 C   0  0  0  0  0  0  0  0  0  0  0  0
    6.3301    0.0233    0.0000 C   0  0  0  0  0  0  0  0  0  0  0  0
    8.9282    1.5233    0.0000 C   0  0  0  0  0  0  0  0  0  0  0  0
    3.7320    0.5233    0.0000 C   0  0  0  0  0  0  0  0  0  0  0  0
    7.1962    0.5233    0.0000 C   0  0  0  0  0  0  0  0  0  0  0  0
    2.8660    0.0233    0.0000 C   0  0  0  0  0  0  0  0  0  0  0  0
    8.0622    2.0233    0.0000 C   0  0  0  0  0  0  0  0  0  0  0  0
    8.9282    0.5233    0.0000 C   0  0  0  0  0  0  0  0  0  0  0  0
    7.1962    1.5233    0.0000 C   0  0  0  0  0  0  0  0  0  0  0  0
    8.0622    0.0233    0.0000 C   0  0  0  0  0  0  0  0  0  0  0  0
    2.0000    0.5233    0.0000 C   0  0  0  0  0  0  0  0  0  0  0  0
   14.2775   -0.4396    0.0000 H   0  0  0  0  0  0  0  0  0  0  0  0
   16.5028    0.5905    0.0000 H   0  0  0  0  0  0  0  0  0  0  0  0
   16.9107   -0.8331    0.0000 H   0  0  0  0  0  0  0  0  0  0  0  0
   16.6922   -1.2116    0.0000 H   0  0  0  0  0  0  0  0  0  0  0  0
   13.5874    0.8333    0.0000 H   0  0  0  0  0  0  0  0  0  0  0  0
   17.8198    0.3578    0.0000 H   0  0  0  0  0  0  0  0  0  0  0  0
   13.7953    2.3333    0.0000 H   0  0  0  0  0  0  0  0  0  0  0  0
   13.2583    3.6433    0.0000 H   0  0  0  0  0  0  0  0  0  0  0  0
   17.8387   -1.6956    0.0000 H   0  0  0  0  0  0  0  0  0  0  0  0
   17.2545    1.1276    0.0000 H   0  0  0  0  0  0  0  0  0  0  0  0
   17.6525    1.9088    0.0000 H   0  0  0  0  0  0  0  0  0  0  0  0
   16.8713    2.3069    0.0000 H   0  0  0  0  0  0  0  0  0  0  0  0
   11.8554    3.8333    0.0000 H   0  0  0  0  0  0  0  0  0  0  0  0
   15.9343   -4.3168    0.0000 H   0  0  0  0  0  0  0  0  0  0  0  0
   18.4977   -3.1756    0.0000 H   0  0  0  0  0  0  0  0  0  0  0  0
   12.7214   -1.2867    0.0000 H   0  0  0  0  0  0  0  0  0  0  0  0
   13.7953   -1.2867    0.0000 H   0  0  0  0  0  0  0  0  0  0  0  0
   10.9893    3.3333    0.0000 H   0  0  0  0  0  0  0  0  0  0  0  0
   14.1244    4.1433    0.0000 H   0  0  0  0  0  0  0  0  0  0  0  0
   11.8554    4.8333    0.0000 H   0  0  0  0  0  0  0  0  0  0  0  0
    9.7942    2.6433    0.0000 H   0  0  0  0  0  0  0  0  0  0  0  0
    5.8626    0.9983    0.0000 H   0  0  0  0  0  0  0  0  0  0  0  0
    5.0656    0.9983    0.0000 H   0  0  0  0  0  0  0  0  0  0  0  0
    4.1996   -0.4516    0.0000 H   0  0  0  0  0  0  0  0  0  0  0  0
    4.9966   -0.4516    0.0000 H   0  0  0  0  0  0  0  0  0  0  0  0
    5.9316   -0.4516    0.0000 H   0  0  0  0  0  0  0  0  0  0  0  0
    6.7287   -0.4516    0.0000 H   0  0  0  0  0  0  0  0  0  0  0  0
    4.1306    0.9983    0.0000 H   0  0  0  0  0  0  0  0  0  0  0  0
    3.3335    0.9983    0.0000 H   0  0  0  0  0  0  0  0  0  0  0  0
    2.4675   -0.4516    0.0000 H   0  0  0  0  0  0  0  0  0  0  0  0
    3.2646   -0.4516    0.0000 H   0  0  0  0  0  0  0  0  0  0  0  0
    8.0622    2.6433    0.0000 H   0  0  0  0  0  0  0  0  0  0  0  0
    9.4651    0.2133    0.0000 H   0  0  0  0  0  0  0  0  0  0  0  0
    6.6592    1.8333    0.0000 H   0  0  0  0  0  0  0  0  0  0  0  0
    8.0622   -0.5967    0.0000 H   0  0  0  0  0  0  0  0  0  0  0  0
    2.3100    1.0602    0.0000 H   0  0  0  0  0  0  0  0  0  0  0  0
    1.4631    0.8333    0.0000 H   0  0  0  0  0  0  0  0  0  0  0  0
    1.6900   -0.0136    0.0000 H   0  0  0  0  0  0  0  0  0  0  0  0
  1 16  1  0  0  0  0
  1 19  1  0  0  0  0
 17  2  1  1  0  0  0
  2 26  1  0  0  0  0
 20  3  1  6  0  0  0
 21  3  1  1  0  0  0
 18  4  1  1  0  0  0
  4 50  1  0  0  0  0
  5 21  1  0  0  0  0
  5 30  1  0  0  0  0
  6 22  2  0  0  0  0
 23  7  1  6  0  0  0
  7 63  1  0  0  0  0
  8 24  2  0  0  0  0
 27  9  1  6  0  0  0
  9 64  1  0  0  0  0
 10 31  2  0  0  0  0
 11 32  2  0  0  0  0
 19 12  1  6  0  0  0
 12 24  1  0  0  0  0
 12 25  1  0  0  0  0
 13 24  1  0  0  0  0
 13 31  1  0  0  0  0
 13 58  1  0  0  0  0
 14 22  1  0  0  0  0
 14 60  1  0  0  0  0
 14 61  1  0  0  0  0
 15 32  1  0  0  0  0
 15 36  1  0  0  0  0
 15 65  1  0  0  0  0
 16 17  1  0  0  0  0
 16 20  1  0  0  0  0
 16 45  1  1  0  0  0
 17 18  1  0  0  0  0
 17 46  1  0  0  0  0
 18 19  1  0  0  0  0
 18 47  1  0  0  0  0
 19 48  1  0  0  0  0
 20 22  1  0  0  0  0
 20 49  1  0  0  0  0
 21 23  1  0  0  0  0
 21 51  1  0  0  0  0
 23 27  1  0  0  0  0
 23 52  1  0  0  0  0
 25 28  2  0  0  0  0
 25 53  1  0  0  0  0
 26 54  1  0  0  0  0
 26 55  1  0  0  0  0
 26 56  1  0  0  0  0
 27 29  1  0  0  0  0
 27 57  1  0  0  0  0
 28 31  1  0  0  0  0
 28 59  1  0  0  0  0
 29 30  2  0  0  0  0
 29 62  1  0  0  0  0
 30 32  1  0  0  0  0
 33 34  1  0  0  0  0
 33 35  1  0  0  0  0
 33 66  1  0  0  0  0
 33 67  1  0  0  0  0
 34 37  1  0  0  0  0
 34 68  1  0  0  0  0
 34 69  1  0  0  0  0
 35 38  1  0  0  0  0
 35 70  1  0  0  0  0
 35 71  1  0  0  0  0
 36 40  2  0  0  0  0
 36 41  1  0  0  0  0
 37 39  1  0  0  0  0
 37 72  1  0  0  0  0
 37 73  1  0  0  0  0
 38 42  2  0  0  0  0
 38 43  1  0  0  0  0
 39 44  1  0  0  0  0
 39 74  1  0  0  0  0
 39 75  1  0  0  0  0
 40 42  1  0  0  0  0
 40 76  1  0  0  0  0
 41 43  2  0  0  0  0
 41 77  1  0  0  0  0
 42 78  1  0  0  0  0
 43 79  1  0  0  0  0
 44 80  1  0  0  0  0
 44 81  1  0  0  0  0
 44 82  1  0  0  0  0
M  END
> <PUBCHEM_COMPOUND_CID>
513565
> <PUBCHEM_COMPOUND_CANONICALIZED>
1
> <PUBCHEM_CACTVS_COMPLEXITY>
1110
> <PUBCHEM_CACTVS_HBOND_ACCEPTOR>
11
> <PUBCHEM_CACTVS_HBOND_DONOR>
6
> <PUBCHEM_CACTVS_ROTATABLE_BOND>
13
> <PUBCHEM_CACTVS_SUBSKEYS>
AAADcfB7vAAAAAAAAAAAAAAAAAAAASAAAAAwQIAAAAAAAAABAAAAHgAQCAAADBzxmAczyIPABgCIAiVWUAKCCAAhIgAIiAFIZMibNDbAkZWvcAhv9yLf2cf6/M5OCAAAAAAAAAAQAAAAAAAAAAAAAAAAAA==
> <PUBCHEM_IUPAC_OPENEYE_NAME>
(2S,3S,4S)-2-[(1R)-2-amino-1-[(2S,3S,4R,5R)-5-(2,4-dioxopyrimidin-1-yl)-4-hydroxy-3-methoxy-tetrahydrofuran-2-yl]-2-oxo-ethoxy]-N-(4-hexylphenyl)-3,4-dihydroxy-3,4-dihydro-2H-pyran-6-carboxamide
> <PUBCHEM_IUPAC_CAS_NAME>
(2S,3S,4S)-2-[(1R)-2-amino-1-[(2S,3S,4R,5R)-5-(2,4-dioxo-1-pyrimidinyl)-4-hydroxy-3-methoxy-2-oxolanyl]-2-oxoethoxy]-N-(4-hexylphenyl)-3,4-dihydroxy-3,4-dihydro-2H-pyran-6-carboxamide
> <PUBCHEM_IUPAC_NAME_MARKUP>
(2<I>S</I>,3<I>S</I>,4<I>S</I>)-2-[(1<I>R</I>)-2-amino-1-[(2<I>S</I>,3<I>S</I>,4<I>R</I>,5<I>R</I>)-5-(2,4-dioxopyrimidin-1-yl)-4-hydroxy-3-methoxyoxolan-2-yl]-2-oxoethoxy]-<I>N</I>-(4-hexylphenyl)-3,4-dihydroxy-3,4-dihydro-2<I>H</I>-pyran-6-carboxamide
> <PUBCHEM_IUPAC_NAME>
(2S,3S,4S)-2-[(1R)-2-amino-1-[(2S,3S,4R,5R)-5-(2,4-dioxopyrimidin-1-yl)-4-hydroxy-3-methoxyoxolan-2-yl]-2-oxoethoxy]-N-(4-hexylphenyl)-3,4-dihydroxy-3,4-dihydro-2H-pyran-6-carboxamide
> <PUBCHEM_IUPAC_SYSTEMATIC_NAME>
(2S,3S,4S)-2-[(1R)-2-azanyl-1-[(2S,3S,4R,5R)-5-[2,4-bis(oxidanylidene)pyrimidin-1-yl]-3-methoxy-4-oxidanyl-oxolan-2-yl]-2-oxidanylidene-ethoxy]-N-(4-hexylphenyl)-3,4-bis(oxidanyl)-3,4-dihydro-2H-pyran-6-carboxamide
> <PUBCHEM_IUPAC_TRADITIONAL_NAME>
(2S,3S,4S)-2-[(1R)-2-amino-1-[(2S,3S,4R,5R)-5-(2,4-diketopyrimidin-1-yl)-4-hydroxy-3-methoxy-tetrahydrofuran-2-yl]-2-keto-ethoxy]-N-(4-hexylphenyl)-3,4-dihydroxy-3,4-dihydro-2H-pyran-6-carboxamide
> <PUBCHEM_IUPAC_INCHI>
InChI=1S/C29H38N4O11/c1-3-4-5-6-7-15-8-10-16(11-9-15)31-26(39)18-14-17(34)20(36)28(42-18)44-24(25(30)38)23-22(41-2)21(37)27(43-23)33-13-12-19(35)32-29(33)40/h8-14,17,20-24,27-28,34,36-37H,3-7H2,1-2H3,(H2,30,38)(H,31,39)(H,32,35,40)/t17-,20-,21+,22-,23-,24+,27+,28+/m0/s1
> <PUBCHEM_IUPAC_INCHIKEY>
NPVMIXRRVPNVKO-ROSODZLYSA-N
> <PUBCHEM_XLOGP3_AA>
0.2
> <PUBCHEM_EXACT_MASS>
618.25370804
> <PUBCHEM_MOLECULAR_FORMULA>
C29H38N4O11
> <PUBCHEM_MOLECULAR_WEIGHT>
618.6
> <PUBCHEM_OPENEYE_CAN_SMILES>
CCCCCCC1=CC=C(C=C1)NC(=O)C2=CC(C(C(O2)OC(C3C(C(C(O3)N4C=CC(=O)NC4=O)O)OC)C(=O)N)O)O
> <PUBCHEM_OPENEYE_ISO_SMILES>
CCCCCCC1=CC=C(C=C1)NC(=O)C2=C[C@@H]([C@@H]([C@H](O2)O[C@H]([C@@H]3[C@H]([C@H]([C@@H](O3)N4C=CC(=O)NC4=O)O)OC)C(=O)N)O)O
> <PUBCHEM_CACTVS_TPSA>
219
> <PUBCHEM_MONOISOTOPIC_WEIGHT>
618.25370804
> <PUBCHEM_TOTAL_CHARGE>
0
> <PUBCHEM_HEAVY_ATOM_COUNT>
44
> <PUBCHEM_ATOM_DEF_STEREO_COUNT>
8
> <PUBCHEM_ATOM_UDEF_STEREO_COUNT>
0
> <PUBCHEM_BOND_DEF_STEREO_COUNT>
0
> <PUBCHEM_BOND_UDEF_STEREO_COUNT>
0
> <PUBCHEM_ISOTOPIC_ATOM_COUNT>
0
> <PUBCHEM_COMPONENT_COUNT>
1
> <PUBCHEM_CACTVS_TAUTO_COUNT>
-1
> <PUBCHEM_COORDINATE_TYPE>
1
5
255
> <PUBCHEM_BONDANNOTATIONS>
19  12  6
12  24  8
12  25  8
13  24  8
13  31  8
16  45  5
17  2  5
25  28  8
28  31  8
20  3  6
21  3  5
36  40  8
36  41  8
38  42  8
38  43  8
18  4  5
40  42  8
41  43  8
23  7  6
27  9  6
$$$$
