513612
  -OEChem-10302200282D
 42 43  0     1  0  0  0  0  0999 V2000
    7.5673   -2.4834    0.0000 P   0  0  0  0  0  0  0  0  0  0  0  0
    9.2601    0.7001    0.0000 P   0  0  0  0  0  0  0  0  0  0  0  0
    6.2781   -1.3266    0.0000 O   0  0  0  0  0  0  0  0  0  0  0  0
    7.6138    0.1620    0.0000 O   0  0  0  0  0  0  0  0  0  0  0  0
    7.8779   -3.4339    0.0000 O   0  0  0  0  0  0  0  0  0  0  0  0
    8.5178   -2.1727    0.0000 O   0  0  0  0  0  0  0  0  0  0  0  0
    6.6168   -2.7940    0.0000 O   0  0  0  0  0  0  0  0  0  0  0  0
   10.2386    0.4938    0.0000 O   0  0  0  0  0  0  0  0  0  0  0  0
    9.4664    1.6786    0.0000 O   0  0  0  0  0  0  0  0  0  0  0  0
    9.0539   -0.2785    0.0000 O   0  0  0  0  0  0  0  0  0  0  0  0
    4.6783    0.7806    0.0000 N   0  0  0  0  0  0  0  0  0  0  0  0
    4.6783    2.3901    0.0000 N   0  0  0  0  0  0  0  0  0  0  0  0
    2.8660    0.5854    0.0000 N   0  0  0  0  0  0  0  0  0  0  0  0
    2.0000    2.0854    0.0000 N   0  0  0  0  0  0  0  0  0  0  0  0
    2.8660    3.5854    0.0000 N   0  0  0  0  0  0  0  0  0  0  0  0
    5.9674   -0.3761    0.0000 C   0  0  3  0  0  0  0  0  0  0  0  0
    4.9889   -0.1699    0.0000 C   0  0  0  0  0  0  0  0  0  0  0  0
    6.6353    0.3682    0.0000 C   0  0  0  0  0  0  0  0  0  0  0  0
    3.7320    1.0854    0.0000 C   0  0  0  0  0  0  0  0  0  0  0  0
    5.2619    1.5854    0.0000 C   0  0  0  0  0  0  0  0  0  0  0  0
    7.2566   -1.5328    0.0000 C   0  0  0  0  0  0  0  0  0  0  0  0
    3.7320    2.0854    0.0000 C   0  0  0  0  0  0  0  0  0  0  0  0
    8.2816    0.9063    0.0000 C   0  0  0  0  0  0  0  0  0  0  0  0
    2.8660    2.5854    0.0000 C   0  0  0  0  0  0  0  0  0  0  0  0
    2.0000    1.0854    0.0000 C   0  0  0  0  0  0  0  0  0  0  0  0
    5.5534   -0.8376    0.0000 H   0  0  0  0  0  0  0  0  0  0  0  0
    4.3751   -0.2572    0.0000 H   0  0  0  0  0  0  0  0  0  0  0  0
    4.9684   -0.7896    0.0000 H   0  0  0  0  0  0  0  0  0  0  0  0
    6.8665    0.9434    0.0000 H   0  0  0  0  0  0  0  0  0  0  0  0
    6.1089    0.6958    0.0000 H   0  0  0  0  0  0  0  0  0  0  0  0
    5.8819    1.5854    0.0000 H   0  0  0  0  0  0  0  0  0  0  0  0
    7.8704   -1.4455    0.0000 H   0  0  0  0  0  0  0  0  0  0  0  0
    7.2772   -0.9132    0.0000 H   0  0  0  0  0  0  0  0  0  0  0  0
    8.5129    1.4815    0.0000 H   0  0  0  0  0  0  0  0  0  0  0  0
    7.7553    1.2339    0.0000 H   0  0  0  0  0  0  0  0  0  0  0  0
    1.4631    0.7754    0.0000 H   0  0  0  0  0  0  0  0  0  0  0  0
    2.3291    3.8954    0.0000 H   0  0  0  0  0  0  0  0  0  0  0  0
    3.4030    3.8954    0.0000 H   0  0  0  0  0  0  0  0  0  0  0  0
    7.4639   -3.8954    0.0000 H   0  0  0  0  0  0  0  0  0  0  0  0
    8.9793   -2.5868    0.0000 H   0  0  0  0  0  0  0  0  0  0  0  0
   10.6527    0.9553    0.0000 H   0  0  0  0  0  0  0  0  0  0  0  0
    9.0049    2.0926    0.0000 H   0  0  0  0  0  0  0  0  0  0  0  0
  1  5  1  0  0  0  0
  1  6  1  0  0  0  0
  1  7  2  0  0  0  0
  1 21  1  0  0  0  0
  2  8  1  0  0  0  0
  2  9  1  0  0  0  0
  2 10  2  0  0  0  0
  2 23  1  0  0  0  0
  3 16  1  0  0  0  0
  3 21  1  0  0  0  0
  4 18  1  0  0  0  0
  4 23  1  0  0  0  0
  5 39  1  0  0  0  0
  6 40  1  0  0  0  0
  8 41  1  0  0  0  0
  9 42  1  0  0  0  0
 11 17  1  0  0  0  0
 11 19  1  0  0  0  0
 11 20  1  0  0  0  0
 12 20  2  0  0  0  0
 12 22  1  0  0  0  0
 13 19  2  0  0  0  0
 13 25  1  0  0  0  0
 14 24  1  0  0  0  0
 14 25  2  0  0  0  0
 15 24  1  0  0  0  0
 15 37  1  0  0  0  0
 15 38  1  0  0  0  0
 16 17  1  0  0  0  0
 16 18  1  0  0  0  0
 16 26  1  0  0  0  0
 17 27  1  0  0  0  0
 17 28  1  0  0  0  0
 18 29  1  0  0  0  0
 18 30  1  0  0  0  0
 19 22  1  0  0  0  0
 20 31  1  0  0  0  0
 21 32  1  0  0  0  0
 21 33  1  0  0  0  0
 22 24  2  0  0  0  0
 23 34  1  0  0  0  0
 23 35  1  0  0  0  0
 25 36  1  0  0  0  0
M  END
> <PUBCHEM_COMPOUND_CID>
513612
> <PUBCHEM_COMPOUND_CANONICALIZED>
1
> <PUBCHEM_CACTVS_COMPLEXITY>
529
> <PUBCHEM_CACTVS_HBOND_ACCEPTOR>
12
> <PUBCHEM_CACTVS_HBOND_DONOR>
5
> <PUBCHEM_CACTVS_ROTATABLE_BOND>
9
> <PUBCHEM_CACTVS_SUBSKEYS>
AAADceBzvAMAAAAAAAAAAAAAAAAAAWAAAAAsAAAAAAAAAFgB+AAAHggQCCAACBzhlwYF8L9MFBCgQQZhZICAgC0REKABUCAoVBCDSABASEAVBAgKAALSACAAAAAAAAAAAAAAAAAAAAAAAAAAAAAAAAAAAA==
> <PUBCHEM_IUPAC_OPENEYE_NAME>
[1-[(6-aminopurin-9-yl)methyl]-2-(phosphonomethoxy)ethoxy]methylphosphonic acid
> <PUBCHEM_IUPAC_CAS_NAME>
[1-(6-aminopurin-9-yl)-3-(phosphonomethoxy)propan-2-yl]oxymethylphosphonic acid
> <PUBCHEM_IUPAC_NAME_MARKUP>
[1-(6-aminopurin-9-yl)-3-(phosphonomethoxy)propan-2-yl]oxymethylphosphonic acid
> <PUBCHEM_IUPAC_NAME>
[1-(6-aminopurin-9-yl)-3-(phosphonomethoxy)propan-2-yl]oxymethylphosphonic acid
> <PUBCHEM_IUPAC_SYSTEMATIC_NAME>
[1-(6-aminopurin-9-yl)-3-(phosphonomethoxy)propan-2-yl]oxymethylphosphonic acid
> <PUBCHEM_IUPAC_TRADITIONAL_NAME>
[1-(adenin-9-ylmethyl)-2-(phosphonomethoxy)ethoxy]methylphosphonic acid
> <PUBCHEM_IUPAC_INCHI>
InChI=1S/C10H17N5O8P2/c11-9-8-10(13-3-12-9)15(4-14-8)1-7(23-6-25(19,20)21)2-22-5-24(16,17)18/h3-4,7H,1-2,5-6H2,(H2,11,12,13)(H2,16,17,18)(H2,19,20,21)
> <PUBCHEM_IUPAC_INCHIKEY>
QGORCYRTFBXJMK-UHFFFAOYSA-N
> <PUBCHEM_XLOGP3>
-3.8
> <PUBCHEM_EXACT_MASS>
397.05523651
> <PUBCHEM_MOLECULAR_FORMULA>
C10H17N5O8P2
> <PUBCHEM_MOLECULAR_WEIGHT>
397.22
> <PUBCHEM_OPENEYE_CAN_SMILES>
C1=NC(=C2C(=N1)N(C=N2)CC(COCP(=O)(O)O)OCP(=O)(O)O)N
> <PUBCHEM_OPENEYE_ISO_SMILES>
C1=NC(=C2C(=N1)N(C=N2)CC(COCP(=O)(O)O)OCP(=O)(O)O)N
> <PUBCHEM_CACTVS_TPSA>
203
> <PUBCHEM_MONOISOTOPIC_WEIGHT>
397.05523651
> <PUBCHEM_TOTAL_CHARGE>
0
> <PUBCHEM_HEAVY_ATOM_COUNT>
25
> <PUBCHEM_ATOM_DEF_STEREO_COUNT>
0
> <PUBCHEM_ATOM_UDEF_STEREO_COUNT>
1
> <PUBCHEM_BOND_DEF_STEREO_COUNT>
0
> <PUBCHEM_BOND_UDEF_STEREO_COUNT>
0
> <PUBCHEM_ISOTOPIC_ATOM_COUNT>
0
> <PUBCHEM_COMPONENT_COUNT>
1
> <PUBCHEM_CACTVS_TAUTO_COUNT>
-1
> <PUBCHEM_COORDINATE_TYPE>
1
5
255
> <PUBCHEM_BONDANNOTATIONS>
11  19  8
11  20  8
12  20  8
12  22  8
13  19  8
13  25  8
14  24  8
14  25  8
16  17  3
19  22  8
22  24  8
$$$$
