513639
  -OEChem-10302200282D
 47 51  0     1  0  0  0  0  0999 V2000
    2.0000   -0.8713    0.0000 Cl  0  0  0  0  0  0  0  0  0  0  0  0
    2.0000   -2.9196    0.0000 Cl  0  0  0  0  0  0  0  0  0  0  0  0
    7.0666    0.6699    0.0000 O   0  0  0  0  0  0  0  0  0  0  0  0
    9.4126   -0.4220    0.0000 O   0  0  0  0  0  0  0  0  0  0  0  0
    9.4164    1.7536    0.0000 O   0  0  0  0  0  0  0  0  0  0  0  0
    8.0189    3.1714    0.0000 O   0  0  0  0  0  0  0  0  0  0  0  0
    7.3424   -1.0907    0.0000 N   0  0  0  0  0  0  0  0  0  0  0  0
    8.9260   -1.8954    0.0000 N   0  0  0  0  0  0  0  0  0  0  0  0
    7.3424   -2.7001    0.0000 N   0  0  0  0  0  0  0  0  0  0  0  0
    9.4260   -2.7614    0.0000 C   0  0  0  0  0  0  0  0  0  0  0  0
    9.4260   -3.7614    0.0000 C   0  0  0  0  0  0  0  0  0  0  0  0
   10.2920   -3.2614    0.0000 C   0  0  0  0  0  0  0  0  0  0  0  0
    7.6530   -0.1402    0.0000 C   0  0  1  0  0  0  0  0  0  0  0  0
    8.6046    0.1672    0.0000 C   0  0  1  0  0  0  0  0  0  0  0  0
    8.6064    1.1672    0.0000 C   0  0  1  0  0  0  0  0  0  0  0  0
    7.6558    1.4779    0.0000 C   0  0  1  0  0  0  0  0  0  0  0  0
    7.9260   -1.8954    0.0000 C   0  0  0  0  0  0  0  0  0  0  0  0
    6.3961   -1.3954    0.0000 C   0  0  0  0  0  0  0  0  0  0  0  0
    7.3485    2.4295    0.0000 C   0  0  0  0  0  0  0  0  0  0  0  0
    6.3961   -2.3954    0.0000 C   0  0  0  0  0  0  0  0  0  0  0  0
    5.5301   -0.8954    0.0000 C   0  0  0  0  0  0  0  0  0  0  0  0
    5.5301   -2.8954    0.0000 C   0  0  0  0  0  0  0  0  0  0  0  0
    4.6641   -1.3954    0.0000 C   0  0  0  0  0  0  0  0  0  0  0  0
    4.6641   -2.3954    0.0000 C   0  0  0  0  0  0  0  0  0  0  0  0
    3.7702   -0.8607    0.0000 C   0  0  0  0  0  0  0  0  0  0  0  0
    3.7702   -2.9301    0.0000 C   0  0  0  0  0  0  0  0  0  0  0  0
    2.8641   -1.3746    0.0000 C   0  0  0  0  0  0  0  0  0  0  0  0
    2.8641   -2.4162    0.0000 C   0  0  0  0  0  0  0  0  0  0  0  0
    9.8644   -2.3230    0.0000 H   0  0  0  0  0  0  0  0  0  0  0  0
    8.8154   -3.8691    0.0000 H   0  0  0  0  0  0  0  0  0  0  0  0
    9.6380   -4.3440    0.0000 H   0  0  0  0  0  0  0  0  0  0  0  0
   10.6905   -3.7364    0.0000 H   0  0  0  0  0  0  0  0  0  0  0  0
   10.6905   -2.7865    0.0000 H   0  0  0  0  0  0  0  0  0  0  0  0
    7.0405   -0.2361    0.0000 H   0  0  0  0  0  0  0  0  0  0  0  0
    8.5066   -0.4450    0.0000 H   0  0  0  0  0  0  0  0  0  0  0  0
    9.1583    0.8848    0.0000 H   0  0  0  0  0  0  0  0  0  0  0  0
    7.0436    1.5759    0.0000 H   0  0  0  0  0  0  0  0  0  0  0  0
    9.2360   -1.3585    0.0000 H   0  0  0  0  0  0  0  0  0  0  0  0
    6.9676    2.9187    0.0000 H   0  0  0  0  0  0  0  0  0  0  0  0
    6.8005    2.1393    0.0000 H   0  0  0  0  0  0  0  0  0  0  0  0
    9.9795   -0.1708    0.0000 H   0  0  0  0  0  0  0  0  0  0  0  0
    5.5301   -0.2754    0.0000 H   0  0  0  0  0  0  0  0  0  0  0  0
    9.3526    2.3703    0.0000 H   0  0  0  0  0  0  0  0  0  0  0  0
    5.5301   -3.5154    0.0000 H   0  0  0  0  0  0  0  0  0  0  0  0
    7.8283    3.7614    0.0000 H   0  0  0  0  0  0  0  0  0  0  0  0
    3.7773   -0.2408    0.0000 H   0  0  0  0  0  0  0  0  0  0  0  0
    3.7773   -3.5500    0.0000 H   0  0  0  0  0  0  0  0  0  0  0  0
  1 27  1  0  0  0  0
  2 28  1  0  0  0  0
  3 13  1  0  0  0  0
  3 16  1  0  0  0  0
 14  4  1  1  0  0  0
  4 41  1  0  0  0  0
 15  5  1  1  0  0  0
  5 43  1  0  0  0  0
  6 19  1  0  0  0  0
  6 45  1  0  0  0  0
 13  7  1  6  0  0  0
  7 17  1  0  0  0  0
  7 18  1  0  0  0  0
  8 10  1  0  0  0  0
  8 17  1  0  0  0  0
  8 38  1  0  0  0  0
  9 17  2  0  0  0  0
  9 20  1  0  0  0  0
 10 11  1  0  0  0  0
 10 12  1  0  0  0  0
 10 29  1  0  0  0  0
 11 12  1  0  0  0  0
 11 30  1  0  0  0  0
 11 31  1  0  0  0  0
 12 32  1  0  0  0  0
 12 33  1  0  0  0  0
 13 14  1  0  0  0  0
 13 34  1  0  0  0  0
 14 15  1  0  0  0  0
 14 35  1  0  0  0  0
 15 16  1  0  0  0  0
 15 36  1  0  0  0  0
 16 19  1  6  0  0  0
 16 37  1  0  0  0  0
 18 20  2  0  0  0  0
 18 21  1  0  0  0  0
 19 39  1  0  0  0  0
 19 40  1  0  0  0  0
 20 22  1  0  0  0  0
 21 23  2  0  0  0  0
 21 42  1  0  0  0  0
 22 24  2  0  0  0  0
 22 44  1  0  0  0  0
 23 24  1  0  0  0  0
 23 25  1  0  0  0  0
 24 26  1  0  0  0  0
 25 27  2  0  0  0  0
 25 46  1  0  0  0  0
 26 28  2  0  0  0  0
 26 47  1  0  0  0  0
 27 28  1  0  0  0  0
M  END
> <PUBCHEM_COMPOUND_CID>
513639
> <PUBCHEM_COMPOUND_CANONICALIZED>
1
> <PUBCHEM_CACTVS_COMPLEXITY>
585
> <PUBCHEM_CACTVS_HBOND_ACCEPTOR>
6
> <PUBCHEM_CACTVS_HBOND_DONOR>
4
> <PUBCHEM_CACTVS_ROTATABLE_BOND>
4
> <PUBCHEM_CACTVS_SUBSKEYS>
AAADceB7OAAGAAAAAAAAAAAAGAAAAWJAAAAwYAAAAAAAAFjB9AAAHgIQCAAADD7hniYx0PfMFgCgAyRiZACCgC0hF6AB2uA4dpiLeKLBm5GeYAhvkALbyCfwsIIOjAAAYAAQACQYAADAACAASAAAAAAAAA==
> <PUBCHEM_IUPAC_OPENEYE_NAME>
(2R,3R,4S,5R)-2-[6,7-dichloro-2-(cyclopropylamino)benzo[f]benzimidazol-3-yl]-5-(hydroxymethyl)tetrahydrofuran-3,4-diol
> <PUBCHEM_IUPAC_CAS_NAME>
(2R,3R,4S,5R)-2-[6,7-dichloro-2-(cyclopropylamino)-3-benzo[f]benzimidazolyl]-5-(hydroxymethyl)oxolane-3,4-diol
> <PUBCHEM_IUPAC_NAME_MARKUP>
(2<I>R</I>,3<I>R</I>,4<I>S</I>,5<I>R</I>)-2-[6,7-dichloro-2-(cyclopropylamino)benzo[f]benzimidazol-3-yl]-5-(hydroxymethyl)oxolane-3,4-diol
> <PUBCHEM_IUPAC_NAME>
(2R,3R,4S,5R)-2-[6,7-dichloro-2-(cyclopropylamino)benzo[f]benzimidazol-3-yl]-5-(hydroxymethyl)oxolane-3,4-diol
> <PUBCHEM_IUPAC_SYSTEMATIC_NAME>
(2R,3R,4S,5R)-2-[6,7-bis(chloranyl)-2-(cyclopropylamino)benzo[f]benzimidazol-3-yl]-5-(hydroxymethyl)oxolane-3,4-diol
> <PUBCHEM_IUPAC_TRADITIONAL_NAME>
(2R,3R,4S,5R)-2-[6,7-dichloro-2-(cyclopropylamino)benzo[f]benzimidazol-3-yl]-5-methylol-tetrahydrofuran-3,4-diol
> <PUBCHEM_IUPAC_INCHI>
InChI=1S/C19H19Cl2N3O4/c20-11-3-8-5-13-14(6-9(8)4-12(11)21)24(19(23-13)22-10-1-2-10)18-17(27)16(26)15(7-25)28-18/h3-6,10,15-18,25-27H,1-2,7H2,(H,22,23)/t15-,16-,17-,18-/m1/s1
> <PUBCHEM_IUPAC_INCHIKEY>
QWUQUBHJNRUOGM-BRSBDYLESA-N
> <PUBCHEM_XLOGP3_AA>
3.2
> <PUBCHEM_EXACT_MASS>
423.0752615
> <PUBCHEM_MOLECULAR_FORMULA>
C19H19Cl2N3O4
> <PUBCHEM_MOLECULAR_WEIGHT>
424.3
> <PUBCHEM_OPENEYE_CAN_SMILES>
C1CC1NC2=NC3=C(N2C4C(C(C(O4)CO)O)O)C=C5C=C(C(=CC5=C3)Cl)Cl
> <PUBCHEM_OPENEYE_ISO_SMILES>
C1CC1NC2=NC3=C(N2[C@H]4[C@@H]([C@@H]([C@H](O4)CO)O)O)C=C5C=C(C(=CC5=C3)Cl)Cl
> <PUBCHEM_CACTVS_TPSA>
99.8
> <PUBCHEM_MONOISOTOPIC_WEIGHT>
423.0752615
> <PUBCHEM_TOTAL_CHARGE>
0
> <PUBCHEM_HEAVY_ATOM_COUNT>
28
> <PUBCHEM_ATOM_DEF_STEREO_COUNT>
4
> <PUBCHEM_ATOM_UDEF_STEREO_COUNT>
0
> <PUBCHEM_BOND_DEF_STEREO_COUNT>
0
> <PUBCHEM_BOND_UDEF_STEREO_COUNT>
0
> <PUBCHEM_ISOTOPIC_ATOM_COUNT>
0
> <PUBCHEM_COMPONENT_COUNT>
1
> <PUBCHEM_CACTVS_TAUTO_COUNT>
-1
> <PUBCHEM_COORDINATE_TYPE>
1
5
255
> <PUBCHEM_BONDANNOTATIONS>
16  19  6
18  20  8
18  21  8
20  22  8
21  23  8
22  24  8
23  24  8
23  25  8
24  26  8
25  27  8
26  28  8
27  28  8
14  4  5
15  5  5
13  7  6
7  17  8
7  18  8
9  17  8
9  20  8
$$$$
