513682
  -OEChem-10302200282D
 34 36  0     1  0  0  0  0  0999 V2000
    7.9814    2.9529    0.0000 Br  0  0  0  0  0  0  0  0  0  0  0  0
    3.7891    0.6349    0.0000 S   0  0  0  0  0  0  0  0  0  0  0  0
    6.4641   -1.4529    0.0000 F   0  0  0  0  0  0  0  0  0  0  0  0
    2.8660   -0.9529    0.0000 O   0  0  0  0  0  0  0  0  0  0  0  0
    5.6859    2.3950    0.0000 O   0  0  0  0  0  0  0  0  0  0  0  0
    5.4071    0.6349    0.0000 N   0  0  0  0  0  0  0  0  0  0  0  0
    6.6943    1.7939    0.0000 N   0  0  0  0  0  0  0  0  0  0  0  0
    4.5981    0.0471    0.0000 C   0  0  3  0  0  0  0  0  0  0  0  0
    4.5981   -0.9529    0.0000 C   0  0  0  0  0  0  0  0  0  0  0  0
    4.0981    1.5860    0.0000 C   0  0  0  0  0  0  0  0  0  0  0  0
    5.0981    1.5860    0.0000 C   0  0  0  0  0  0  0  0  0  0  0  0
    6.3852    0.8428    0.0000 C   0  0  0  0  0  0  0  0  0  0  0  0
    3.7320   -1.4529    0.0000 C   0  0  0  0  0  0  0  0  0  0  0  0
    5.4641   -1.4529    0.0000 C   0  0  0  0  0  0  0  0  0  0  0  0
    3.7320   -2.4529    0.0000 C   0  0  0  0  0  0  0  0  0  0  0  0
    7.0544    0.0997    0.0000 C   0  0  0  0  0  0  0  0  0  0  0  0
    5.4641   -2.4529    0.0000 C   0  0  0  0  0  0  0  0  0  0  0  0
    4.5981   -2.9529    0.0000 C   0  0  0  0  0  0  0  0  0  0  0  0
    8.0325    0.3076    0.0000 C   0  0  0  0  0  0  0  0  0  0  0  0
    7.6724    2.0018    0.0000 C   0  0  0  0  0  0  0  0  0  0  0  0
    8.3415    1.2587    0.0000 C   0  0  0  0  0  0  0  0  0  0  0  0
    2.0000   -1.4529    0.0000 C   0  0  0  0  0  0  0  0  0  0  0  0
    5.1505   -0.2343    0.0000 H   0  0  0  0  0  0  0  0  0  0  0  0
    4.1629    2.2026    0.0000 H   0  0  0  0  0  0  0  0  0  0  0  0
    3.4916    1.7149    0.0000 H   0  0  0  0  0  0  0  0  0  0  0  0
    3.1951   -2.7629    0.0000 H   0  0  0  0  0  0  0  0  0  0  0  0
    6.8628   -0.4900    0.0000 H   0  0  0  0  0  0  0  0  0  0  0  0
    6.0010   -2.7629    0.0000 H   0  0  0  0  0  0  0  0  0  0  0  0
    4.5981   -3.5729    0.0000 H   0  0  0  0  0  0  0  0  0  0  0  0
    8.4474   -0.1531    0.0000 H   0  0  0  0  0  0  0  0  0  0  0  0
    8.9480    1.3876    0.0000 H   0  0  0  0  0  0  0  0  0  0  0  0
    1.6900   -0.9159    0.0000 H   0  0  0  0  0  0  0  0  0  0  0  0
    1.4631   -1.7629    0.0000 H   0  0  0  0  0  0  0  0  0  0  0  0
    2.3100   -1.9898    0.0000 H   0  0  0  0  0  0  0  0  0  0  0  0
  1 20  1  0  0  0  0
  2  8  1  0  0  0  0
  2 10  1  0  0  0  0
  3 14  1  0  0  0  0
  4 13  1  0  0  0  0
  4 22  1  0  0  0  0
  5 11  2  0  0  0  0
  6  8  1  0  0  0  0
  6 11  1  0  0  0  0
  6 12  1  0  0  0  0
  7 12  2  0  0  0  0
  7 20  1  0  0  0  0
  8  9  1  0  0  0  0
  8 23  1  0  0  0  0
  9 13  2  0  0  0  0
  9 14  1  0  0  0  0
 10 11  1  0  0  0  0
 10 24  1  0  0  0  0
 10 25  1  0  0  0  0
 12 16  1  0  0  0  0
 13 15  1  0  0  0  0
 14 17  2  0  0  0  0
 15 18  2  0  0  0  0
 15 26  1  0  0  0  0
 16 19  2  0  0  0  0
 16 27  1  0  0  0  0
 17 18  1  0  0  0  0
 17 28  1  0  0  0  0
 18 29  1  0  0  0  0
 19 21  1  0  0  0  0
 19 30  1  0  0  0  0
 20 21  2  0  0  0  0
 21 31  1  0  0  0  0
 22 32  1  0  0  0  0
 22 33  1  0  0  0  0
 22 34  1  0  0  0  0
M  END
> <PUBCHEM_COMPOUND_CID>
513682
> <PUBCHEM_COMPOUND_CANONICALIZED>
1
> <PUBCHEM_CACTVS_COMPLEXITY>
417
> <PUBCHEM_CACTVS_HBOND_ACCEPTOR>
5
> <PUBCHEM_CACTVS_HBOND_DONOR>
0
> <PUBCHEM_CACTVS_ROTATABLE_BOND>
3
> <PUBCHEM_CACTVS_SUBSKEYS>
AAADccBzMQBAEAAAAAAAAAAAAAAAAWAAAAA8QAAAAAAAAAABwAAAHwRAAAABPATF2g6ztpMIFAioAiNydACCiClhIjQJmCA+bLiMJuLkuZuEMChuxxPo6jeQwCAOAAAAAAAIAAAAAAAAABAAAAAAAAAAAA==
> <PUBCHEM_IUPAC_OPENEYE_NAME>
3-(6-bromo-2-pyridyl)-2-(2-fluoro-6-methoxy-phenyl)thiazolidin-4-one
> <PUBCHEM_IUPAC_CAS_NAME>
3-(6-bromo-2-pyridinyl)-2-(2-fluoro-6-methoxyphenyl)-4-thiazolidinone
> <PUBCHEM_IUPAC_NAME_MARKUP>
3-(6-bromopyridin-2-yl)-2-(2-fluoro-6-methoxyphenyl)-1,3-thiazolidin-4-one
> <PUBCHEM_IUPAC_NAME>
3-(6-bromopyridin-2-yl)-2-(2-fluoro-6-methoxyphenyl)-1,3-thiazolidin-4-one
> <PUBCHEM_IUPAC_SYSTEMATIC_NAME>
3-(6-bromanylpyridin-2-yl)-2-(2-fluoranyl-6-methoxy-phenyl)-1,3-thiazolidin-4-one
> <PUBCHEM_IUPAC_TRADITIONAL_NAME>
3-(6-bromo-2-pyridyl)-2-(2-fluoro-6-methoxy-phenyl)thiazolidin-4-one
> <PUBCHEM_IUPAC_INCHI>
InChI=1S/C15H12BrFN2O2S/c1-21-10-5-2-4-9(17)14(10)15-19(13(20)8-22-15)12-7-3-6-11(16)18-12/h2-7,15H,8H2,1H3
> <PUBCHEM_IUPAC_INCHIKEY>
LPQHIMLNUZVTAM-UHFFFAOYSA-N
> <PUBCHEM_XLOGP3_AA>
3.7
> <PUBCHEM_EXACT_MASS>
381.97869
> <PUBCHEM_MOLECULAR_FORMULA>
C15H12BrFN2O2S
> <PUBCHEM_MOLECULAR_WEIGHT>
383.2
> <PUBCHEM_OPENEYE_CAN_SMILES>
COC1=C(C(=CC=C1)F)C2N(C(=O)CS2)C3=NC(=CC=C3)Br
> <PUBCHEM_OPENEYE_ISO_SMILES>
COC1=C(C(=CC=C1)F)C2N(C(=O)CS2)C3=NC(=CC=C3)Br
> <PUBCHEM_CACTVS_TPSA>
67.7
> <PUBCHEM_MONOISOTOPIC_WEIGHT>
381.97869
> <PUBCHEM_TOTAL_CHARGE>
0
> <PUBCHEM_HEAVY_ATOM_COUNT>
22
> <PUBCHEM_ATOM_DEF_STEREO_COUNT>
0
> <PUBCHEM_ATOM_UDEF_STEREO_COUNT>
1
> <PUBCHEM_BOND_DEF_STEREO_COUNT>
0
> <PUBCHEM_BOND_UDEF_STEREO_COUNT>
0
> <PUBCHEM_ISOTOPIC_ATOM_COUNT>
0
> <PUBCHEM_COMPONENT_COUNT>
1
> <PUBCHEM_CACTVS_TAUTO_COUNT>
-1
> <PUBCHEM_COORDINATE_TYPE>
1
5
255
> <PUBCHEM_BONDANNOTATIONS>
12  16  8
13  15  8
14  17  8
15  18  8
16  19  8
17  18  8
19  21  8
20  21  8
7  12  8
7  20  8
8  9  3
9  13  8
9  14  8
$$$$
