513699
  -OEChem-10302200282D
104117  0     1  0  0  0  0  0999 V2000
    4.8216   -7.0634    0.0000 O   0  0  0  0  0  0  0  0  0  0  0  0
    5.6044    7.4791    0.0000 O   0  0  0  0  0  0  0  0  0  0  0  0
    5.3015   -9.6653    0.0000 O   0  0  0  0  0  0  0  0  0  0  0  0
    4.2857    9.7728    0.0000 O   0  0  0  0  0  0  0  0  0  0  0  0
    5.3416   -4.4693    0.0000 N   0  0  3  0  0  0  0  0  0  0  0  0
    5.9778    4.8598    0.0000 N   0  0  3  0  0  0  0  0  0  0  0  0
    4.7815  -12.2594    0.0000 N   0  0  0  0  0  0  0  0  0  0  0  0
    3.9123   12.3920    0.0000 N   0  0  0  0  0  0  0  0  0  0  0  0
    6.0958   -2.1580    0.0000 C   0  0  3  0  0  0  0  0  0  0  0  0
    6.9938   -2.6857    0.0000 C   0  0  3  0  0  0  0  0  0  0  0  0
    6.1118   -1.1165    0.0000 C   0  0  0  0  0  0  0  0  0  0  0  0
    4.7531   -2.0604    0.0000 C   0  0  0  0  0  0  0  0  0  0  0  0
    4.7890   -3.0103    0.0000 C   0  0  0  0  0  0  0  0  0  0  0  0
    5.2458   -0.6165    0.0000 C   0  0  0  0  0  0  0  0  0  0  0  0
    6.8851   -4.2421    0.0000 C   0  0  0  0  0  0  0  0  0  0  0  0
    4.3519   -1.1511    0.0000 C   0  0  0  0  0  0  0  0  0  0  0  0
    6.9779   -0.6165    0.0000 C   0  0  0  0  0  0  0  0  0  0  0  0
    5.2458    0.3835    0.0000 C   0  0  0  0  0  0  0  0  0  0  0  0
    7.8959   -2.1649    0.0000 C   0  0  0  0  0  0  0  0  0  0  0  0
    7.8879   -1.1233    0.0000 C   0  0  0  0  0  0  0  0  0  0  0  0
    6.9779    0.3835    0.0000 C   0  0  0  0  0  0  0  0  0  0  0  0
    6.1118    0.8835    0.0000 C   0  0  0  0  0  0  0  0  0  0  0  0
    3.4458   -0.6373    0.0000 C   0  0  0  0  0  0  0  0  0  0  0  0
    4.3519    0.9182    0.0000 C   0  0  0  0  0  0  0  0  0  0  0  0
    6.4989   -3.5904    0.0000 C   0  0  0  0  0  0  0  0  0  0  0  0
    3.9483   -2.7308    0.0000 C   0  0  0  0  0  0  0  0  0  0  0  0
    5.7467    1.8078    0.0000 C   0  0  0  0  0  0  0  0  0  0  0  0
    3.4458    0.4043    0.0000 C   0  0  0  0  0  0  0  0  0  0  0  0
    4.7531    1.8274    0.0000 C   0  0  0  0  0  0  0  0  0  0  0  0
    7.6692    1.0830    0.0000 C   0  0  0  0  0  0  0  0  0  0  0  0
    8.4747   -0.3212    0.0000 C   0  0  0  0  0  0  0  0  0  0  0  0
    6.1724    3.2976    0.0000 C   0  0  3  0  0  0  0  0  0  0  0  0
    5.2122    3.4842    0.0000 C   0  0  3  0  0  0  0  0  0  0  0  0
    6.5389    2.3907    0.0000 C   0  0  0  0  0  0  0  0  0  0  0  0
    2.7096   -1.3824    0.0000 C   0  0  0  0  0  0  0  0  0  0  0  0
    3.9483    2.4979    0.0000 C   0  0  0  0  0  0  0  0  0  0  0  0
    5.4835   -3.7702    0.0000 C   0  0  0  0  0  0  0  0  0  0  0  0
    2.7096    1.1495    0.0000 C   0  0  0  0  0  0  0  0  0  0  0  0
    2.9541   -2.4010    0.0000 C   0  0  0  0  0  0  0  0  0  0  0  0
    2.0000    0.3787    0.0000 C   0  0  0  0  0  0  0  0  0  0  0  0
    4.8349   -5.3314    0.0000 C   0  0  0  0  0  0  0  0  0  0  0  0
    7.4591    2.0437    0.0000 C   0  0  0  0  0  0  0  0  0  0  0  0
    6.6416    4.1493    0.0000 C   0  0  0  0  0  0  0  0  0  0  0  0
    5.0962    4.4496    0.0000 C   0  0  0  0  0  0  0  0  0  0  0  0
    2.9541    2.1680    0.0000 C   0  0  0  0  0  0  0  0  0  0  0  0
    5.3282   -6.2013    0.0000 C   0  0  0  0  0  0  0  0  0  0  0  0
    6.1685    5.8415    0.0000 C   0  0  0  0  0  0  0  0  0  0  0  0
    5.4137    6.4975    0.0000 C   0  0  0  0  0  0  0  0  0  0  0  0
    5.3149   -7.9333    0.0000 C   0  0  0  0  0  0  0  0  0  0  0  0
    4.8082   -8.7954    0.0000 C   0  0  0  0  0  0  0  0  0  0  0  0
    4.8497    8.1351    0.0000 C   0  0  0  0  0  0  0  0  0  0  0  0
    5.0404    9.1168    0.0000 C   0  0  0  0  0  0  0  0  0  0  0  0
    4.7949  -10.5274    0.0000 C   0  0  0  0  0  0  0  0  0  0  0  0
    5.2882  -11.3973    0.0000 C   0  0  0  0  0  0  0  0  0  0  0  0
    4.4764   10.7544    0.0000 C   0  0  0  0  0  0  0  0  0  0  0  0
    3.7216   11.4104    0.0000 C   0  0  0  0  0  0  0  0  0  0  0  0
    4.4885   -2.4680    0.0000 H   0  0  0  0  0  0  0  0  0  0  0  0
    4.2265   -3.2710    0.0000 H   0  0  0  0  0  0  0  0  0  0  0  0
    6.9311   -4.8604    0.0000 H   0  0  0  0  0  0  0  0  0  0  0  0
    7.5051   -4.2407    0.0000 H   0  0  0  0  0  0  0  0  0  0  0  0
    8.4340   -2.4729    0.0000 H   0  0  0  0  0  0  0  0  0  0  0  0
    6.8605   -4.0940    0.0000 H   0  0  0  0  0  0  0  0  0  0  0  0
    6.7913    3.2606    0.0000 H   0  0  0  0  0  0  0  0  0  0  0  0
    8.9193   -0.7533    0.0000 H   0  0  0  0  0  0  0  0  0  0  0  0
    8.9644    0.0590    0.0000 H   0  0  0  0  0  0  0  0  0  0  0  0
    4.6398    3.7223    0.0000 H   0  0  0  0  0  0  0  0  0  0  0  0
    5.3543   -4.3766    0.0000 H   0  0  0  0  0  0  0  0  0  0  0  0
    2.4975   -2.8204    0.0000 H   0  0  0  0  0  0  0  0  0  0  0  0
    1.6107    0.8612    0.0000 H   0  0  0  0  0  0  0  0  0  0  0  0
    1.4654    0.0647    0.0000 H   0  0  0  0  0  0  0  0  0  0  0  0
    4.3631   -4.9293    0.0000 H   0  0  0  0  0  0  0  0  0  0  0  0
    4.3569   -5.7263    0.0000 H   0  0  0  0  0  0  0  0  0  0  0  0
    7.9282    2.4492    0.0000 H   0  0  0  0  0  0  0  0  0  0  0  0
    7.1502    3.7948    0.0000 H   0  0  0  0  0  0  0  0  0  0  0  0
    7.0476    4.6179    0.0000 H   0  0  0  0  0  0  0  0  0  0  0  0
    4.8951    5.0361    0.0000 H   0  0  0  0  0  0  0  0  0  0  0  0
    4.4918    4.3113    0.0000 H   0  0  0  0  0  0  0  0  0  0  0  0
    2.4975    2.5875    0.0000 H   0  0  0  0  0  0  0  0  0  0  0  0
    5.8001   -6.6035    0.0000 H   0  0  0  0  0  0  0  0  0  0  0  0
    5.8062   -5.8064    0.0000 H   0  0  0  0  0  0  0  0  0  0  0  0
    6.7473    5.6193    0.0000 H   0  0  0  0  0  0  0  0  0  0  0  0
    6.4878    6.3730    0.0000 H   0  0  0  0  0  0  0  0  0  0  0  0
    4.8349    6.7196    0.0000 H   0  0  0  0  0  0  0  0  0  0  0  0
    5.0944    5.9660    0.0000 H   0  0  0  0  0  0  0  0  0  0  0  0
    5.7867   -8.3355    0.0000 H   0  0  0  0  0  0  0  0  0  0  0  0
    5.7929   -7.5384    0.0000 H   0  0  0  0  0  0  0  0  0  0  0  0
    4.3364   -8.3933    0.0000 H   0  0  0  0  0  0  0  0  0  0  0  0
    4.3302   -9.1903    0.0000 H   0  0  0  0  0  0  0  0  0  0  0  0
    4.2708    8.3572    0.0000 H   0  0  0  0  0  0  0  0  0  0  0  0
    4.5304    7.6036    0.0000 H   0  0  0  0  0  0  0  0  0  0  0  0
    5.6192    8.8946    0.0000 H   0  0  0  0  0  0  0  0  0  0  0  0
    5.3597    9.6482    0.0000 H   0  0  0  0  0  0  0  0  0  0  0  0
    4.3230  -10.1253    0.0000 H   0  0  0  0  0  0  0  0  0  0  0  0
    4.3169  -10.9223    0.0000 H   0  0  0  0  0  0  0  0  0  0  0  0
    5.7600  -11.7995    0.0000 H   0  0  0  0  0  0  0  0  0  0  0  0
    5.7662  -11.0024    0.0000 H   0  0  0  0  0  0  0  0  0  0  0  0
    5.0552   10.5323    0.0000 H   0  0  0  0  0  0  0  0  0  0  0  0
    4.7957   11.2859    0.0000 H   0  0  0  0  0  0  0  0  0  0  0  0
    3.1428   11.6325    0.0000 H   0  0  0  0  0  0  0  0  0  0  0  0
    3.4023   10.8789    0.0000 H   0  0  0  0  0  0  0  0  0  0  0  0
    5.0874  -12.7988    0.0000 H   0  0  0  0  0  0  0  0  0  0  0  0
    4.1615  -12.2547    0.0000 H   0  0  0  0  0  0  0  0  0  0  0  0
    3.4444   12.7988    0.0000 H   0  0  0  0  0  0  0  0  0  0  0  0
    4.4986   12.5939    0.0000 H   0  0  0  0  0  0  0  0  0  0  0  0
  1 46  1  0  0  0  0
  1 49  1  0  0  0  0
  2 48  1  0  0  0  0
  2 51  1  0  0  0  0
  3 50  1  0  0  0  0
  3 53  1  0  0  0  0
  4 52  1  0  0  0  0
  4 55  1  0  0  0  0
  5 13  1  0  0  0  0
  5 15  1  0  0  0  0
  5 41  1  0  0  0  0
  6 43  1  0  0  0  0
  6 44  1  0  0  0  0
  6 47  1  0  0  0  0
  7 54  1  0  0  0  0
  7101  1  0  0  0  0
  7102  1  0  0  0  0
  8 56  1  0  0  0  0
  8103  1  0  0  0  0
  8104  1  0  0  0  0
  9 10  1  0  0  0  0
  9 11  1  0  0  0  0
  9 12  1  0  0  0  0
  9 13  1  0  0  0  0
 10 15  1  0  0  0  0
 10 19  1  0  0  0  0
 10 25  1  0  0  0  0
 11 14  1  0  0  0  0
 11 17  2  0  0  0  0
 12 16  1  0  0  0  0
 12 26  2  0  0  0  0
 13 57  1  0  0  0  0
 13 58  1  0  0  0  0
 14 16  2  0  0  0  0
 14 18  1  0  0  0  0
 15 59  1  0  0  0  0
 15 60  1  0  0  0  0
 16 23  1  0  0  0  0
 17 20  1  0  0  0  0
 17 21  1  0  0  0  0
 18 22  1  0  0  0  0
 18 24  2  0  0  0  0
 19 20  2  0  0  0  0
 19 61  1  0  0  0  0
 20 31  1  0  0  0  0
 21 22  2  0  0  0  0
 21 30  1  0  0  0  0
 22 27  1  0  0  0  0
 23 28  2  0  0  0  0
 23 35  1  0  0  0  0
 24 28  1  0  0  0  0
 24 29  1  0  0  0  0
 25 37  2  0  0  0  0
 25 62  1  0  0  0  0
 26 37  1  0  0  0  0
 26 39  1  0  0  0  0
 27 29  1  0  0  0  0
 27 34  2  0  0  0  0
 28 38  1  0  0  0  0
 29 36  2  0  0  0  0
 30 31  1  0  0  0  0
 30 42  2  0  0  0  0
 31 64  1  0  0  0  0
 31 65  1  0  0  0  0
 32 33  1  0  0  0  0
 32 34  1  0  0  0  0
 32 43  1  0  0  0  0
 32 63  1  0  0  0  0
 33 36  1  0  0  0  0
 33 44  1  0  0  0  0
 33 66  1  0  0  0  0
 34 42  1  0  0  0  0
 35 39  2  0  0  0  0
 35 40  1  0  0  0  0
 36 45  1  0  0  0  0
 37 67  1  0  0  0  0
 38 40  1  0  0  0  0
 38 45  2  0  0  0  0
 39 68  1  0  0  0  0
 40 69  1  0  0  0  0
 40 70  1  0  0  0  0
 41 46  1  0  0  0  0
 41 71  1  0  0  0  0
 41 72  1  0  0  0  0
 42 73  1  0  0  0  0
 43 74  1  0  0  0  0
 43 75  1  0  0  0  0
 44 76  1  0  0  0  0
 44 77  1  0  0  0  0
 45 78  1  0  0  0  0
 46 79  1  0  0  0  0
 46 80  1  0  0  0  0
 47 48  1  0  0  0  0
 47 81  1  0  0  0  0
 47 82  1  0  0  0  0
 48 83  1  0  0  0  0
 48 84  1  0  0  0  0
 49 50  1  0  0  0  0
 49 85  1  0  0  0  0
 49 86  1  0  0  0  0
 50 87  1  0  0  0  0
 50 88  1  0  0  0  0
 51 52  1  0  0  0  0
 51 89  1  0  0  0  0
 51 90  1  0  0  0  0
 52 91  1  0  0  0  0
 52 92  1  0  0  0  0
 53 54  1  0  0  0  0
 53 93  1  0  0  0  0
 53 94  1  0  0  0  0
 54 95  1  0  0  0  0
 54 96  1  0  0  0  0
 55 56  1  0  0  0  0
 55 97  1  0  0  0  0
 55 98  1  0  0  0  0
 56 99  1  0  0  0  0
 56100  1  0  0  0  0
M  END
> <PUBCHEM_COMPOUND_CID>
513699
> <PUBCHEM_COMPOUND_CANONICALIZED>
1
> <PUBCHEM_CACTVS_COMPLEXITY>
1670
> <PUBCHEM_CACTVS_HBOND_ACCEPTOR>
8
> <PUBCHEM_CACTVS_HBOND_DONOR>
2
> <PUBCHEM_CACTVS_ROTATABLE_BOND>
16
> <PUBCHEM_CACTVS_SUBSKEYS>
AAADcfB/uAAAAAAAAAAAAAAAAAAAAePGDBAwYMGDAAAAAHjBVAAAHgAQAAAADwDhmAYwAMNABACAAiBCAAACAAAgAAAIiIAIAIgLICKAkRGHIAAgkACaiAcQgMAPwAACAAAQAACAAAQAACAAAQAACAAAAA==
> <PUBCHEM_IUPAC_OPENEYE_NAME>
2-[2-[2-[35-[2-[2-(2-aminoethoxy)ethoxy]ethyl]-13,35-diazatetradecacyclo[18.16.1.118,21.01,33.04,32.06,30.08,29.010,27.011,15.016,26.022,33.023,31.024,28.025,38]octatriaconta-2,4(32),5,8,10(27),16(26),17,20(37),21,23(31),24(28),25(38),29-tridecaen-13-yl]ethoxy]ethoxy]ethanamine
> <PUBCHEM_IUPAC_CAS_NAME>
2-[2-[2-[35-[2-[2-(2-aminoethoxy)ethoxy]ethyl]-13,35-diazatetradecacyclo[18.16.1.118,21.01,33.04,32.06,30.08,29.010,27.011,15.016,26.022,33.023,31.024,28.025,38]octatriaconta-2,4(32),5,8,10(27),16(26),17,20(37),21,23(31),24(28),25(38),29-tridecaen-13-yl]ethoxy]ethoxy]ethanamine
> <PUBCHEM_IUPAC_NAME_MARKUP>
2-[2-[2-[35-[2-[2-(2-aminoethoxy)ethoxy]ethyl]-13,35-diazatetradecacyclo[18.16.1.1<SUP>18,21</SUP>.0<SUP>1,33</SUP>.0<SUP>4,32</SUP>.0<SUP>6,30</SUP>.0<SUP>8,29</SUP>.0<SUP>10,27</SUP>.0<SUP>11,15</SUP>.0<SUP>16,26</SUP>.0<SUP>22,33</SUP>.0<SUP>23,31</SUP>.0<SUP>24,28</SUP>.0<SUP>25,38</SUP>]octatriaconta-2,4(32),5,8,10(27),16(26),17,20(37),21,23(31),24(28),25(38),29-tridecaen-13-yl]ethoxy]ethoxy]ethanamine
> <PUBCHEM_IUPAC_NAME>
2-[2-[2-[35-[2-[2-(2-aminoethoxy)ethoxy]ethyl]-13,35-diazatetradecacyclo[18.16.1.118,21.01,33.04,32.06,30.08,29.010,27.011,15.016,26.022,33.023,31.024,28.025,38]octatriaconta-2,4(32),5,8,10(27),16(26),17,20(37),21,23(31),24(28),25(38),29-tridecaen-13-yl]ethoxy]ethoxy]ethanamine
> <PUBCHEM_IUPAC_SYSTEMATIC_NAME>
2-[2-[2-[35-[2-[2-(2-azanylethoxy)ethoxy]ethyl]-13,35-diazatetradecacyclo[18.16.1.118,21.01,33.04,32.06,30.08,29.010,27.011,15.016,26.022,33.023,31.024,28.025,38]octatriaconta-2,4(32),5,8,10(27),16(26),17,20(37),21,23(31),24(28),25(38),29-tridecaen-13-yl]ethoxy]ethoxy]ethanamine
> <PUBCHEM_IUPAC_TRADITIONAL_NAME>
2-[2-[2-[13-[2-[2-(2-aminoethoxy)ethoxy]ethyl]-13,35-diazatetradecacyclo[18.16.1.118,21.01,33.04,32.06,30.08,29.010,27.011,15.016,26.022,33.023,31.024,28.025,38]octatriaconta-2,4(32),5,8,10(27),16(26),17,20(37),21,23(31),24(28),25(38),29-tridecaen-35-yl]ethoxy]ethoxy]ethylamine
> <PUBCHEM_IUPAC_INCHI>
InChI=1S/C48H48N4O4/c49-3-7-53-11-13-55-9-5-51-21-32-30-18-27-16-26-15-25-1-2-47-20-29-17-28-19-31(33(32)22-51)39-38(30)40-34(27)35(26)43-44-42(40)41(39)36(28)37(29)46(44)48(47,45(25)43)24-52(23-47)6-10-56-14-12-54-8-4-50/h1-2,15,18-20,32-33H,3-14,16-17,21-24,49-50H2
> <PUBCHEM_IUPAC_INCHIKEY>
ZCCXTBWFEDOKIB-UHFFFAOYSA-N
> <PUBCHEM_XLOGP3_AA>
4.2
> <PUBCHEM_EXACT_MASS>
744.36755603
> <PUBCHEM_MOLECULAR_FORMULA>
C48H48N4O4
> <PUBCHEM_MOLECULAR_WEIGHT>
744.9
> <PUBCHEM_OPENEYE_CAN_SMILES>
C1C2C(CN1CCOCCOCCN)C3=C4C5=C2C=C6CC7=CC8=C9C1=C2C(=C5C6=C71)C4=C1C(=C3)CC3=CC4(C9(C2=C31)CN(C4)CCOCCOCCN)C=C8
> <PUBCHEM_OPENEYE_ISO_SMILES>
C1C2C(CN1CCOCCOCCN)C3=C4C5=C2C=C6CC7=CC8=C9C1=C2C(=C5C6=C71)C4=C1C(=C3)CC3=CC4(C9(C2=C31)CN(C4)CCOCCOCCN)C=C8
> <PUBCHEM_CACTVS_TPSA>
95.4
> <PUBCHEM_MONOISOTOPIC_WEIGHT>
744.36755603
> <PUBCHEM_TOTAL_CHARGE>
0
> <PUBCHEM_HEAVY_ATOM_COUNT>
56
> <PUBCHEM_ATOM_DEF_STEREO_COUNT>
0
> <PUBCHEM_ATOM_UDEF_STEREO_COUNT>
4
> <PUBCHEM_BOND_DEF_STEREO_COUNT>
0
> <PUBCHEM_BOND_UDEF_STEREO_COUNT>
0
> <PUBCHEM_ISOTOPIC_ATOM_COUNT>
0
> <PUBCHEM_COMPONENT_COUNT>
1
> <PUBCHEM_CACTVS_TAUTO_COUNT>
-1
> <PUBCHEM_COORDINATE_TYPE>
1
5
255
> <PUBCHEM_BONDANNOTATIONS>
10  15  3
11  14  8
11  17  8
12  16  8
12  26  8
14  16  8
14  18  8
16  23  8
17  21  8
18  22  8
18  24  8
21  22  8
21  30  8
22  27  8
23  28  8
23  35  8
24  28  8
24  29  8
26  39  8
27  34  8
28  38  8
29  36  8
30  42  8
32  43  3
33  44  3
34  42  8
35  39  8
36  45  8
38  45  8
9  13  3
$$$$
