513662
  -OEChem-10302200282D
 70 73  0     1  0  0  0  0  0999 V2000
    8.0622   -0.7694    0.0000 S   0  0  0  0  0  0  0  0  0  0  0  0
   11.6065   -0.9647    0.0000 S   0  0  0  0  0  0  0  0  0  0  0  0
    5.4641    0.7306    0.0000 O   0  0  0  0  0  0  0  0  0  0  0  0
    2.8660    1.2306    0.0000 O   0  0  0  0  0  0  0  0  0  0  0  0
    2.3660    3.7694    0.0000 O   0  0  0  0  0  0  0  0  0  0  0  0
    7.5622   -1.6354    0.0000 O   0  0  0  0  0  0  0  0  0  0  0  0
    8.5622    0.0966    0.0000 O   0  0  0  0  0  0  0  0  0  0  0  0
    4.5981    1.2306    0.0000 O   0  0  0  0  0  0  0  0  0  0  0  0
    7.1962   -0.2694    0.0000 N   0  0  3  0  0  0  0  0  0  0  0  0
    3.7320   -0.2694    0.0000 N   0  0  0  0  0  0  0  0  0  0  0  0
   11.6065   -2.5742    0.0000 N   0  0  0  0  0  0  0  0  0  0  0  0
    5.4641   -0.2694    0.0000 C   0  0  1  0  0  0  0  0  0  0  0  0
    4.5981   -0.7694    0.0000 C   0  0  2  0  0  0  0  0  0  0  0  0
    6.3301   -0.7694    0.0000 C   0  0  0  0  0  0  0  0  0  0  0  0
    7.1962    0.7306    0.0000 C   0  0  0  0  0  0  0  0  0  0  0  0
    4.5981   -1.7694    0.0000 C   0  0  0  0  0  0  0  0  0  0  0  0
    8.0622    1.2306    0.0000 C   0  0  0  0  0  0  0  0  0  0  0  0
    2.8660    2.2306    0.0000 C   0  0  3  0  0  0  0  0  0  0  0  0
    3.7320   -2.2694    0.0000 C   0  0  0  0  0  0  0  0  0  0  0  0
    8.9282   -1.2694    0.0000 C   0  0  0  0  0  0  0  0  0  0  0  0
    8.0622    2.2306    0.0000 C   0  0  0  0  0  0  0  0  0  0  0  0
    8.9282    0.7306    0.0000 C   0  0  0  0  0  0  0  0  0  0  0  0
    3.6750    2.8184    0.0000 C   0  0  0  0  0  0  0  0  0  0  0  0
    2.0570    2.8184    0.0000 C   0  0  0  0  0  0  0  0  0  0  0  0
    3.7320    0.7306    0.0000 C   0  0  0  0  0  0  0  0  0  0  0  0
    3.3660    3.7694    0.0000 C   0  0  0  0  0  0  0  0  0  0  0  0
    9.7942   -0.7694    0.0000 C   0  0  0  0  0  0  0  0  0  0  0  0
    8.9282   -2.2694    0.0000 C   0  0  0  0  0  0  0  0  0  0  0  0
    3.7320   -3.2694    0.0000 C   0  0  0  0  0  0  0  0  0  0  0  0
    2.8660   -1.7694    0.0000 C   0  0  0  0  0  0  0  0  0  0  0  0
   10.6603   -1.2694    0.0000 C   0  0  0  0  0  0  0  0  0  0  0  0
    9.7942   -2.7694    0.0000 C   0  0  0  0  0  0  0  0  0  0  0  0
   10.6603   -2.2694    0.0000 C   0  0  0  0  0  0  0  0  0  0  0  0
    2.8660   -3.7694    0.0000 C   0  0  0  0  0  0  0  0  0  0  0  0
    2.0000   -2.2694    0.0000 C   0  0  0  0  0  0  0  0  0  0  0  0
    2.0000   -3.2694    0.0000 C   0  0  0  0  0  0  0  0  0  0  0  0
   12.1901   -1.7694    0.0000 C   0  0  0  0  0  0  0  0  0  0  0  0
    6.0010    0.0406    0.0000 H   0  0  0  0  0  0  0  0  0  0  0  0
    4.5981   -0.1494    0.0000 H   0  0  0  0  0  0  0  0  0  0  0  0
    5.9316   -1.2444    0.0000 H   0  0  0  0  0  0  0  0  0  0  0  0
    6.7287   -1.2444    0.0000 H   0  0  0  0  0  0  0  0  0  0  0  0
    6.9841    1.3132    0.0000 H   0  0  0  0  0  0  0  0  0  0  0  0
    6.5856    0.6229    0.0000 H   0  0  0  0  0  0  0  0  0  0  0  0
    4.8101   -2.3520    0.0000 H   0  0  0  0  0  0  0  0  0  0  0  0
    5.2087   -1.6618    0.0000 H   0  0  0  0  0  0  0  0  0  0  0  0
    8.0622    0.6106    0.0000 H   0  0  0  0  0  0  0  0  0  0  0  0
    3.1951   -0.5794    0.0000 H   0  0  0  0  0  0  0  0  0  0  0  0
    3.4184    1.9491    0.0000 H   0  0  0  0  0  0  0  0  0  0  0  0
    8.6822    2.2306    0.0000 H   0  0  0  0  0  0  0  0  0  0  0  0
    8.0622    2.8506    0.0000 H   0  0  0  0  0  0  0  0  0  0  0  0
    7.4422    2.2306    0.0000 H   0  0  0  0  0  0  0  0  0  0  0  0
    8.6182    0.1936    0.0000 H   0  0  0  0  0  0  0  0  0  0  0  0
    9.4651    0.4206    0.0000 H   0  0  0  0  0  0  0  0  0  0  0  0
    9.2382    1.2675    0.0000 H   0  0  0  0  0  0  0  0  0  0  0  0
    3.9850    2.2814    0.0000 H   0  0  0  0  0  0  0  0  0  0  0  0
    4.2414    3.0705    0.0000 H   0  0  0  0  0  0  0  0  0  0  0  0
    6.0010    1.0406    0.0000 H   0  0  0  0  0  0  0  0  0  0  0  0
    1.4906    3.0705    0.0000 H   0  0  0  0  0  0  0  0  0  0  0  0
    1.7470    2.2814    0.0000 H   0  0  0  0  0  0  0  0  0  0  0  0
    3.9725    3.8983    0.0000 H   0  0  0  0  0  0  0  0  0  0  0  0
    3.3012    4.3860    0.0000 H   0  0  0  0  0  0  0  0  0  0  0  0
    9.7942   -0.1494    0.0000 H   0  0  0  0  0  0  0  0  0  0  0  0
    8.3913   -2.5794    0.0000 H   0  0  0  0  0  0  0  0  0  0  0  0
    4.2690   -3.5794    0.0000 H   0  0  0  0  0  0  0  0  0  0  0  0
    2.8660   -1.1494    0.0000 H   0  0  0  0  0  0  0  0  0  0  0  0
    9.7942   -3.3894    0.0000 H   0  0  0  0  0  0  0  0  0  0  0  0
    2.8660   -4.3894    0.0000 H   0  0  0  0  0  0  0  0  0  0  0  0
    1.4631   -1.9594    0.0000 H   0  0  0  0  0  0  0  0  0  0  0  0
    1.4631   -3.5794    0.0000 H   0  0  0  0  0  0  0  0  0  0  0  0
   12.8101   -1.7694    0.0000 H   0  0  0  0  0  0  0  0  0  0  0  0
  1  6  2  0  0  0  0
  1  7  2  0  0  0  0
  1  9  1  0  0  0  0
  1 20  1  0  0  0  0
  2 31  1  0  0  0  0
  2 37  1  0  0  0  0
 12  3  1  6  0  0  0
  3 57  1  0  0  0  0
  4 18  1  0  0  0  0
  4 25  1  0  0  0  0
  5 24  1  0  0  0  0
  5 26  1  0  0  0  0
  8 25  2  0  0  0  0
  9 14  1  0  0  0  0
  9 15  1  0  0  0  0
 13 10  1  6  0  0  0
 10 25  1  0  0  0  0
 10 47  1  0  0  0  0
 11 33  1  0  0  0  0
 11 37  2  0  0  0  0
 12 13  1  0  0  0  0
 12 14  1  0  0  0  0
 12 38  1  0  0  0  0
 13 16  1  0  0  0  0
 13 39  1  0  0  0  0
 14 40  1  0  0  0  0
 14 41  1  0  0  0  0
 15 17  1  0  0  0  0
 15 42  1  0  0  0  0
 15 43  1  0  0  0  0
 16 19  1  0  0  0  0
 16 44  1  0  0  0  0
 16 45  1  0  0  0  0
 17 21  1  0  0  0  0
 17 22  1  0  0  0  0
 17 46  1  0  0  0  0
 18 23  1  0  0  0  0
 18 24  1  0  0  0  0
 18 48  1  0  0  0  0
 19 29  2  0  0  0  0
 19 30  1  0  0  0  0
 20 27  2  0  0  0  0
 20 28  1  0  0  0  0
 21 49  1  0  0  0  0
 21 50  1  0  0  0  0
 21 51  1  0  0  0  0
 22 52  1  0  0  0  0
 22 53  1  0  0  0  0
 22 54  1  0  0  0  0
 23 26  1  0  0  0  0
 23 55  1  0  0  0  0
 23 56  1  0  0  0  0
 24 58  1  0  0  0  0
 24 59  1  0  0  0  0
 26 60  1  0  0  0  0
 26 61  1  0  0  0  0
 27 31  1  0  0  0  0
 27 62  1  0  0  0  0
 28 32  2  0  0  0  0
 28 63  1  0  0  0  0
 29 34  1  0  0  0  0
 29 64  1  0  0  0  0
 30 35  2  0  0  0  0
 30 65  1  0  0  0  0
 31 33  2  0  0  0  0
 32 33  1  0  0  0  0
 32 66  1  0  0  0  0
 34 36  2  0  0  0  0
 34 67  1  0  0  0  0
 35 36  1  0  0  0  0
 35 68  1  0  0  0  0
 36 69  1  0  0  0  0
 37 70  1  0  0  0  0
M  END
> <PUBCHEM_COMPOUND_CID>
513662
> <PUBCHEM_COMPOUND_CANONICALIZED>
1
> <PUBCHEM_CACTVS_COMPLEXITY>
833
> <PUBCHEM_CACTVS_HBOND_ACCEPTOR>
9
> <PUBCHEM_CACTVS_HBOND_DONOR>
2
> <PUBCHEM_CACTVS_ROTATABLE_BOND>
12
> <PUBCHEM_CACTVS_SUBSKEYS>
AAADcfB7OABgAAAAAAAAAAAAAAAAAWJAAAAwYAAAAAAAAFgB9AAAHgQQSAAADTzh3ga2ybLIFgqsAyRjXHDD8LBxCjhI2Lw4ZJkLMKLg0ZGOYAhllgDayAeQwKAOAAQAAEAAAQAACAAAgAACAAAAAAAAAA==
> <PUBCHEM_IUPAC_OPENEYE_NAME>
tetrahydrofuran-3-yl N-[(1S,2R)-3-[1,3-benzothiazol-6-ylsulfonyl(isobutyl)amino]-1-benzyl-2-hydroxy-propyl]carbamate
> <PUBCHEM_IUPAC_CAS_NAME>
N-[(2S,3R)-4-[1,3-benzothiazol-6-ylsulfonyl(2-methylpropyl)amino]-3-hydroxy-1-phenylbutan-2-yl]carbamic acid 3-oxolanyl ester
> <PUBCHEM_IUPAC_NAME_MARKUP>
oxolan-3-yl <I>N</I>-[(2<I>S</I>,3<I>R</I>)-4-[1,3-benzothiazol-6-ylsulfonyl(2-methylpropyl)amino]-3-hydroxy-1-phenylbutan-2-yl]carbamate
> <PUBCHEM_IUPAC_NAME>
oxolan-3-yl N-[(2S,3R)-4-[1,3-benzothiazol-6-ylsulfonyl(2-methylpropyl)amino]-3-hydroxy-1-phenylbutan-2-yl]carbamate
> <PUBCHEM_IUPAC_SYSTEMATIC_NAME>
oxolan-3-yl N-[(2S,3R)-4-[1,3-benzothiazol-6-ylsulfonyl(2-methylpropyl)amino]-3-oxidanyl-1-phenyl-butan-2-yl]carbamate
> <PUBCHEM_IUPAC_TRADITIONAL_NAME>
N-[(1S,2R)-3-[1,3-benzothiazol-6-ylsulfonyl(isobutyl)amino]-1-benzyl-2-hydroxy-propyl]carbamic acid tetrahydrofuran-3-yl ester
> <PUBCHEM_IUPAC_INCHI>
InChI=1S/C26H33N3O6S2/c1-18(2)14-29(37(32,33)21-8-9-22-25(13-21)36-17-27-22)15-24(30)23(12-19-6-4-3-5-7-19)28-26(31)35-20-10-11-34-16-20/h3-9,13,17-18,20,23-24,30H,10-12,14-16H2,1-2H3,(H,28,31)/t20?,23-,24+/m0/s1
> <PUBCHEM_IUPAC_INCHIKEY>
VAKLDLCRQMBZHZ-VXSFFCHMSA-N
> <PUBCHEM_XLOGP3_AA>
4
> <PUBCHEM_EXACT_MASS>
547.18107813
> <PUBCHEM_MOLECULAR_FORMULA>
C26H33N3O6S2
> <PUBCHEM_MOLECULAR_WEIGHT>
547.7
> <PUBCHEM_OPENEYE_CAN_SMILES>
CC(C)CN(CC(C(CC1=CC=CC=C1)NC(=O)OC2CCOC2)O)S(=O)(=O)C3=CC4=C(C=C3)N=CS4
> <PUBCHEM_OPENEYE_ISO_SMILES>
CC(C)CN(C[C@H]([C@H](CC1=CC=CC=C1)NC(=O)OC2CCOC2)O)S(=O)(=O)C3=CC4=C(C=C3)N=CS4
> <PUBCHEM_CACTVS_TPSA>
155
> <PUBCHEM_MONOISOTOPIC_WEIGHT>
547.18107813
> <PUBCHEM_TOTAL_CHARGE>
0
> <PUBCHEM_HEAVY_ATOM_COUNT>
37
> <PUBCHEM_ATOM_DEF_STEREO_COUNT>
2
> <PUBCHEM_ATOM_UDEF_STEREO_COUNT>
1
> <PUBCHEM_BOND_DEF_STEREO_COUNT>
0
> <PUBCHEM_BOND_UDEF_STEREO_COUNT>
0
> <PUBCHEM_ISOTOPIC_ATOM_COUNT>
0
> <PUBCHEM_COMPONENT_COUNT>
1
> <PUBCHEM_CACTVS_TAUTO_COUNT>
-1
> <PUBCHEM_COORDINATE_TYPE>
1
5
255
> <PUBCHEM_BONDANNOTATIONS>
13  10  6
11  33  8
11  37  8
19  29  8
19  30  8
2  31  8
2  37  8
20  27  8
20  28  8
27  31  8
28  32  8
29  34  8
12  3  6
30  35  8
31  33  8
32  33  8
34  36  8
35  36  8
18  4  3
$$$$
