513644
  -OEChem-10302200282D
 72 74  0     1  0  0  0  0  0999 V2000
    4.5981   -2.3450    0.0000 S   0  0  0  0  0  0  0  0  0  0  0  0
    4.5981    0.6550    0.0000 O   0  0  0  0  0  0  0  0  0  0  0  0
    5.5981   -2.3450    0.0000 O   0  0  0  0  0  0  0  0  0  0  0  0
    3.5981   -2.3450    0.0000 O   0  0  0  0  0  0  0  0  0  0  0  0
    5.4641    3.1550    0.0000 O   0  0  0  0  0  0  0  0  0  0  0  0
    4.5981    1.6550    0.0000 O   0  0  0  0  0  0  0  0  0  0  0  0
    4.5981   -1.3450    0.0000 N   0  0  3  0  0  0  0  0  0  0  0  0
    6.3301    1.6550    0.0000 N   0  0  0  0  0  0  0  0  0  0  0  0
    4.5981   -6.3450    0.0000 N   0  0  0  0  0  0  0  0  0  0  0  0
    5.4641    0.1550    0.0000 C   0  0  2  0  0  0  0  0  0  0  0  0
    5.4641   -0.8450    0.0000 C   0  0  0  0  0  0  0  0  0  0  0  0
    6.3301    0.6550    0.0000 C   0  0  2  0  0  0  0  0  0  0  0  0
    3.7320   -0.8450    0.0000 C   0  0  0  0  0  0  0  0  0  0  0  0
    2.8660   -1.3450    0.0000 C   0  0  0  0  0  0  0  0  0  0  0  0
    7.1962    0.1550    0.0000 C   0  0  0  0  0  0  0  0  0  0  0  0
    2.0000   -0.8450    0.0000 C   0  0  0  0  0  0  0  0  0  0  0  0
    2.8660   -2.3450    0.0000 C   0  0  0  0  0  0  0  0  0  0  0  0
    8.0622    0.6550    0.0000 C   0  0  0  0  0  0  0  0  0  0  0  0
    4.5981   -3.3450    0.0000 C   0  0  0  0  0  0  0  0  0  0  0  0
    5.4641    2.1550    0.0000 C   0  0  0  0  0  0  0  0  0  0  0  0
    3.7320   -3.8450    0.0000 C   0  0  0  0  0  0  0  0  0  0  0  0
    5.4641   -3.8450    0.0000 C   0  0  0  0  0  0  0  0  0  0  0  0
    8.0622    1.6550    0.0000 C   0  0  0  0  0  0  0  0  0  0  0  0
    8.9282    0.1550    0.0000 C   0  0  0  0  0  0  0  0  0  0  0  0
    3.7320   -4.8450    0.0000 C   0  0  0  0  0  0  0  0  0  0  0  0
    5.4641   -4.8450    0.0000 C   0  0  0  0  0  0  0  0  0  0  0  0
    8.9282    2.1550    0.0000 C   0  0  0  0  0  0  0  0  0  0  0  0
    9.7942    0.6550    0.0000 C   0  0  0  0  0  0  0  0  0  0  0  0
    4.5981   -5.3450    0.0000 C   0  0  0  0  0  0  0  0  0  0  0  0
    9.7942    1.6550    0.0000 C   0  0  0  0  0  0  0  0  0  0  0  0
    4.5981    3.6550    0.0000 C   0  0  0  0  0  0  0  0  0  0  0  0
    4.5981    4.6550    0.0000 C   0  0  0  0  0  0  0  0  0  0  0  0
    3.7320    5.1550    0.0000 C   0  0  0  0  0  0  0  0  0  0  0  0
    5.4641    5.1550    0.0000 C   0  0  0  0  0  0  0  0  0  0  0  0
    3.7320    6.1550    0.0000 C   0  0  0  0  0  0  0  0  0  0  0  0
    5.4641    6.1550    0.0000 C   0  0  0  0  0  0  0  0  0  0  0  0
    4.5981    6.6550    0.0000 C   0  0  0  0  0  0  0  0  0  0  0  0
    5.4641    0.7750    0.0000 H   0  0  0  0  0  0  0  0  0  0  0  0
    5.6762   -1.4276    0.0000 H   0  0  0  0  0  0  0  0  0  0  0  0
    6.0747   -0.7373    0.0000 H   0  0  0  0  0  0  0  0  0  0  0  0
    6.8671    0.9650    0.0000 H   0  0  0  0  0  0  0  0  0  0  0  0
    4.1306   -0.3701    0.0000 H   0  0  0  0  0  0  0  0  0  0  0  0
    3.3335   -0.3701    0.0000 H   0  0  0  0  0  0  0  0  0  0  0  0
    2.8660   -0.7250    0.0000 H   0  0  0  0  0  0  0  0  0  0  0  0
    6.7976   -0.3199    0.0000 H   0  0  0  0  0  0  0  0  0  0  0  0
    7.5947   -0.3199    0.0000 H   0  0  0  0  0  0  0  0  0  0  0  0
    6.8671    1.9650    0.0000 H   0  0  0  0  0  0  0  0  0  0  0  0
    2.3100   -0.3081    0.0000 H   0  0  0  0  0  0  0  0  0  0  0  0
    1.4631   -0.5350    0.0000 H   0  0  0  0  0  0  0  0  0  0  0  0
    1.6900   -1.3819    0.0000 H   0  0  0  0  0  0  0  0  0  0  0  0
    2.2460   -2.3450    0.0000 H   0  0  0  0  0  0  0  0  0  0  0  0
    2.8660   -2.9650    0.0000 H   0  0  0  0  0  0  0  0  0  0  0  0
    3.4860   -2.3450    0.0000 H   0  0  0  0  0  0  0  0  0  0  0  0
    4.0611    0.3450    0.0000 H   0  0  0  0  0  0  0  0  0  0  0  0
    3.1951   -3.5350    0.0000 H   0  0  0  0  0  0  0  0  0  0  0  0
    6.0010   -3.5350    0.0000 H   0  0  0  0  0  0  0  0  0  0  0  0
    7.5252    1.9650    0.0000 H   0  0  0  0  0  0  0  0  0  0  0  0
    8.9282   -0.4650    0.0000 H   0  0  0  0  0  0  0  0  0  0  0  0
    3.1951   -5.1550    0.0000 H   0  0  0  0  0  0  0  0  0  0  0  0
    6.0010   -5.1550    0.0000 H   0  0  0  0  0  0  0  0  0  0  0  0
    8.9282    2.7750    0.0000 H   0  0  0  0  0  0  0  0  0  0  0  0
   10.3312    0.3450    0.0000 H   0  0  0  0  0  0  0  0  0  0  0  0
   10.3312    1.9650    0.0000 H   0  0  0  0  0  0  0  0  0  0  0  0
    3.9875    3.7627    0.0000 H   0  0  0  0  0  0  0  0  0  0  0  0
    4.3860    3.0724    0.0000 H   0  0  0  0  0  0  0  0  0  0  0  0
    4.0611   -6.6550    0.0000 H   0  0  0  0  0  0  0  0  0  0  0  0
    5.1350   -6.6550    0.0000 H   0  0  0  0  0  0  0  0  0  0  0  0
    3.1951    4.8450    0.0000 H   0  0  0  0  0  0  0  0  0  0  0  0
    6.0010    4.8450    0.0000 H   0  0  0  0  0  0  0  0  0  0  0  0
    3.1951    6.4650    0.0000 H   0  0  0  0  0  0  0  0  0  0  0  0
    6.0010    6.4650    0.0000 H   0  0  0  0  0  0  0  0  0  0  0  0
    4.5981    7.2750    0.0000 H   0  0  0  0  0  0  0  0  0  0  0  0
  1  3  2  0  0  0  0
  1  4  2  0  0  0  0
  1  7  1  0  0  0  0
  1 19  1  0  0  0  0
 10  2  1  1  0  0  0
  2 54  1  0  0  0  0
  5 20  1  0  0  0  0
  5 31  1  0  0  0  0
  6 20  2  0  0  0  0
  7 11  1  0  0  0  0
  7 13  1  0  0  0  0
 12  8  1  1  0  0  0
  8 20  1  0  0  0  0
  8 47  1  0  0  0  0
  9 29  1  0  0  0  0
  9 66  1  0  0  0  0
  9 67  1  0  0  0  0
 10 11  1  0  0  0  0
 10 12  1  0  0  0  0
 10 38  1  0  0  0  0
 11 39  1  0  0  0  0
 11 40  1  0  0  0  0
 12 15  1  0  0  0  0
 12 41  1  0  0  0  0
 13 14  1  0  0  0  0
 13 42  1  0  0  0  0
 13 43  1  0  0  0  0
 14 16  1  0  0  0  0
 14 17  1  0  0  0  0
 14 44  1  0  0  0  0
 15 18  1  0  0  0  0
 15 45  1  0  0  0  0
 15 46  1  0  0  0  0
 16 48  1  0  0  0  0
 16 49  1  0  0  0  0
 16 50  1  0  0  0  0
 17 51  1  0  0  0  0
 17 52  1  0  0  0  0
 17 53  1  0  0  0  0
 18 23  2  0  0  0  0
 18 24  1  0  0  0  0
 19 21  2  0  0  0  0
 19 22  1  0  0  0  0
 21 25  1  0  0  0  0
 21 55  1  0  0  0  0
 22 26  2  0  0  0  0
 22 56  1  0  0  0  0
 23 27  1  0  0  0  0
 23 57  1  0  0  0  0
 24 28  2  0  0  0  0
 24 58  1  0  0  0  0
 25 29  2  0  0  0  0
 25 59  1  0  0  0  0
 26 29  1  0  0  0  0
 26 60  1  0  0  0  0
 27 30  2  0  0  0  0
 27 61  1  0  0  0  0
 28 30  1  0  0  0  0
 28 62  1  0  0  0  0
 30 63  1  0  0  0  0
 31 32  1  0  0  0  0
 31 64  1  0  0  0  0
 31 65  1  0  0  0  0
 32 33  2  0  0  0  0
 32 34  1  0  0  0  0
 33 35  1  0  0  0  0
 33 68  1  0  0  0  0
 34 36  2  0  0  0  0
 34 69  1  0  0  0  0
 35 37  2  0  0  0  0
 35 70  1  0  0  0  0
 36 37  1  0  0  0  0
 36 71  1  0  0  0  0
 37 72  1  0  0  0  0
M  END
> <PUBCHEM_COMPOUND_CID>
513644
> <PUBCHEM_COMPOUND_CANONICALIZED>
1
> <PUBCHEM_CACTVS_COMPLEXITY>
767
> <PUBCHEM_CACTVS_HBOND_ACCEPTOR>
7
> <PUBCHEM_CACTVS_HBOND_DONOR>
3
> <PUBCHEM_CACTVS_ROTATABLE_BOND>
13
> <PUBCHEM_CACTVS_SUBSKEYS>
AAADcfB7OABAAAAAAAAAAAAAAAAAAAAAAAAwYMAAAAAAAAABUAAAHgQQSAAADTzh2AYyyYLABgKIAiRCWHDCABAgAgAIiJgIbIkKNiKA8ZmMcABk1gGY6AeQwKAOAAQAAAAAAAAACAAAAAAAAAAAAAAAAA==
> <PUBCHEM_IUPAC_OPENEYE_NAME>
benzyl N-[(1S,2R)-3-[(4-aminophenyl)sulfonyl-isobutyl-amino]-1-benzyl-2-hydroxy-propyl]carbamate
> <PUBCHEM_IUPAC_CAS_NAME>
N-[(2S,3R)-4-[(4-aminophenyl)sulfonyl-(2-methylpropyl)amino]-3-hydroxy-1-phenylbutan-2-yl]carbamic acid (phenylmethyl) ester
> <PUBCHEM_IUPAC_NAME_MARKUP>
benzyl <I>N</I>-[(2<I>S</I>,3<I>R</I>)-4-[(4-aminophenyl)sulfonyl-(2-methylpropyl)amino]-3-hydroxy-1-phenylbutan-2-yl]carbamate
> <PUBCHEM_IUPAC_NAME>
benzyl N-[(2S,3R)-4-[(4-aminophenyl)sulfonyl-(2-methylpropyl)amino]-3-hydroxy-1-phenylbutan-2-yl]carbamate
> <PUBCHEM_IUPAC_SYSTEMATIC_NAME>
(phenylmethyl) N-[(2S,3R)-4-[(4-aminophenyl)sulfonyl-(2-methylpropyl)amino]-3-oxidanyl-1-phenyl-butan-2-yl]carbamate
> <PUBCHEM_IUPAC_TRADITIONAL_NAME>
N-[(1S,2R)-1-benzyl-2-hydroxy-3-[isobutyl(sulfanilyl)amino]propyl]carbamic acid benzyl ester
> <PUBCHEM_IUPAC_INCHI>
InChI=1S/C28H35N3O5S/c1-21(2)18-31(37(34,35)25-15-13-24(29)14-16-25)19-27(32)26(17-22-9-5-3-6-10-22)30-28(33)36-20-23-11-7-4-8-12-23/h3-16,21,26-27,32H,17-20,29H2,1-2H3,(H,30,33)/t26-,27+/m0/s1
> <PUBCHEM_IUPAC_INCHIKEY>
CLVKOWDYQHARFT-RRPNLBNLSA-N
> <PUBCHEM_XLOGP3_AA>
4.3
> <PUBCHEM_EXACT_MASS>
525.22974240
> <PUBCHEM_MOLECULAR_FORMULA>
C28H35N3O5S
> <PUBCHEM_MOLECULAR_WEIGHT>
525.7
> <PUBCHEM_OPENEYE_CAN_SMILES>
CC(C)CN(CC(C(CC1=CC=CC=C1)NC(=O)OCC2=CC=CC=C2)O)S(=O)(=O)C3=CC=C(C=C3)N
> <PUBCHEM_OPENEYE_ISO_SMILES>
CC(C)CN(C[C@H]([C@H](CC1=CC=CC=C1)NC(=O)OCC2=CC=CC=C2)O)S(=O)(=O)C3=CC=C(C=C3)N
> <PUBCHEM_CACTVS_TPSA>
130
> <PUBCHEM_MONOISOTOPIC_WEIGHT>
525.22974240
> <PUBCHEM_TOTAL_CHARGE>
0
> <PUBCHEM_HEAVY_ATOM_COUNT>
37
> <PUBCHEM_ATOM_DEF_STEREO_COUNT>
2
> <PUBCHEM_ATOM_UDEF_STEREO_COUNT>
0
> <PUBCHEM_BOND_DEF_STEREO_COUNT>
0
> <PUBCHEM_BOND_UDEF_STEREO_COUNT>
0
> <PUBCHEM_ISOTOPIC_ATOM_COUNT>
0
> <PUBCHEM_COMPONENT_COUNT>
1
> <PUBCHEM_CACTVS_TAUTO_COUNT>
-1
> <PUBCHEM_COORDINATE_TYPE>
1
5
255
> <PUBCHEM_BONDANNOTATIONS>
18  23  8
18  24  8
19  21  8
19  22  8
10  2  5
21  25  8
22  26  8
23  27  8
24  28  8
25  29  8
26  29  8
27  30  8
28  30  8
32  33  8
32  34  8
33  35  8
34  36  8
35  37  8
36  37  8
12  8  5
$$$$
