513617
  -OEChem-10302200282D
 39 40  0     1  0  0  0  0  0999 V2000
    5.4641    2.2500    0.0000 P   0  0  0  0  0  0  0  0  0  0  0  0
    6.3301    0.7500    0.0000 O   0  0  0  0  0  0  0  0  0  0  0  0
    7.1962    0.2500    0.0000 O   0  0  0  0  0  0  0  0  0  0  0  0
    5.4641    3.2500    0.0000 O   0  0  0  0  0  0  0  0  0  0  0  0
    4.4641    2.2500    0.0000 O   0  0  0  0  0  0  0  0  0  0  0  0
    6.4641    2.2500    0.0000 O   0  0  0  0  0  0  0  0  0  0  0  0
    6.3301   -0.2500    0.0000 N   0  0  0  0  0  0  0  0  0  0  0  0
    8.1424   -2.0547    0.0000 N   0  0  0  0  0  0  0  0  0  0  0  0
    8.1424   -0.4453    0.0000 N   0  0  0  0  0  0  0  0  0  0  0  0
    5.4641   -1.7500    0.0000 N   0  0  0  0  0  0  0  0  0  0  0  0
    6.3301   -3.2500    0.0000 N   0  0  0  0  0  0  0  0  0  0  0  0
    7.1962   -0.7500    0.0000 C   0  0  3  0  0  0  0  0  0  0  0  0
    7.1962   -1.7500    0.0000 C   0  0  0  0  0  0  0  0  0  0  0  0
    5.4641   -0.7500    0.0000 C   0  0  0  0  0  0  0  0  0  0  0  0
    4.5981   -0.2500    0.0000 C   0  0  0  0  0  0  0  0  0  0  0  0
    3.7320   -0.7500    0.0000 C   0  0  0  0  0  0  0  0  0  0  0  0
    6.3301   -2.2500    0.0000 C   0  0  0  0  0  0  0  0  0  0  0  0
    2.8660   -0.2500    0.0000 C   0  0  0  0  0  0  0  0  0  0  0  0
    8.7260   -1.2500    0.0000 C   0  0  0  0  0  0  0  0  0  0  0  0
    5.4641    1.2500    0.0000 C   0  0  0  0  0  0  0  0  0  0  0  0
    2.0000   -0.7500    0.0000 C   0  0  0  0  0  0  0  0  0  0  0  0
    4.9966    0.2249    0.0000 H   0  0  0  0  0  0  0  0  0  0  0  0
    4.1996    0.2249    0.0000 H   0  0  0  0  0  0  0  0  0  0  0  0
    3.3335   -1.2250    0.0000 H   0  0  0  0  0  0  0  0  0  0  0  0
    4.1306   -1.2250    0.0000 H   0  0  0  0  0  0  0  0  0  0  0  0
    8.3350   -2.6440    0.0000 H   0  0  0  0  0  0  0  0  0  0  0  0
    3.2646    0.2249    0.0000 H   0  0  0  0  0  0  0  0  0  0  0  0
    2.4675    0.2249    0.0000 H   0  0  0  0  0  0  0  0  0  0  0  0
    9.3460   -1.2500    0.0000 H   0  0  0  0  0  0  0  0  0  0  0  0
    7.7331    0.5600    0.0000 H   0  0  0  0  0  0  0  0  0  0  0  0
    4.8535    1.3577    0.0000 H   0  0  0  0  0  0  0  0  0  0  0  0
    5.2520    0.6674    0.0000 H   0  0  0  0  0  0  0  0  0  0  0  0
    1.6900   -0.2131    0.0000 H   0  0  0  0  0  0  0  0  0  0  0  0
    1.4631   -1.0600    0.0000 H   0  0  0  0  0  0  0  0  0  0  0  0
    2.3100   -1.2869    0.0000 H   0  0  0  0  0  0  0  0  0  0  0  0
    5.7932   -3.5600    0.0000 H   0  0  0  0  0  0  0  0  0  0  0  0
    6.8671   -3.5600    0.0000 H   0  0  0  0  0  0  0  0  0  0  0  0
    4.9272    3.5600    0.0000 H   0  0  0  0  0  0  0  0  0  0  0  0
    4.1541    2.7869    0.0000 H   0  0  0  0  0  0  0  0  0  0  0  0
  1  4  1  0  0  0  0
  1  5  1  0  0  0  0
  1  6  2  0  0  0  0
  1 20  1  0  0  0  0
  2  7  1  0  0  0  0
  2 20  1  0  0  0  0
  3 12  1  0  0  0  0
  3 30  1  0  0  0  0
  4 38  1  0  0  0  0
  5 39  1  0  0  0  0
  7 12  1  0  0  0  0
  7 14  1  0  0  0  0
  8 13  1  0  0  0  0
  8 19  1  0  0  0  0
  8 26  1  0  0  0  0
  9 12  1  0  0  0  0
  9 19  2  0  0  0  0
 10 14  2  0  0  0  0
 10 17  1  0  0  0  0
 11 17  1  0  0  0  0
 11 36  1  0  0  0  0
 11 37  1  0  0  0  0
 12 13  1  0  0  0  0
 13 17  2  0  0  0  0
 14 15  1  0  0  0  0
 15 16  1  0  0  0  0
 15 22  1  0  0  0  0
 15 23  1  0  0  0  0
 16 18  1  0  0  0  0
 16 24  1  0  0  0  0
 16 25  1  0  0  0  0
 18 21  1  0  0  0  0
 18 27  1  0  0  0  0
 18 28  1  0  0  0  0
 19 29  1  0  0  0  0
 20 31  1  0  0  0  0
 20 32  1  0  0  0  0
 21 33  1  0  0  0  0
 21 34  1  0  0  0  0
 21 35  1  0  0  0  0
M  END
> <PUBCHEM_COMPOUND_CID>
513617
> <PUBCHEM_COMPOUND_CANONICALIZED>
1
> <PUBCHEM_CACTVS_COMPLEXITY>
556
> <PUBCHEM_CACTVS_HBOND_ACCEPTOR>
8
> <PUBCHEM_CACTVS_HBOND_DONOR>
5
> <PUBCHEM_CACTVS_ROTATABLE_BOND>
6
> <PUBCHEM_CACTVS_SUBSKEYS>
AAADceBzuAIAAAAAAAAAAAAAAAAAAQAAAAAgAAAAAAAAAEAAAAAAHggUCCAACAiBgAYDAALQAhCgQAZhZICAAAEAAAAhAIA4AACCRAIAiAAUAAAAAAKQEAAQAAAAAAAAAAAAAAAAAAAAAAAAAAAAAAAAAA==
> <PUBCHEM_IUPAC_OPENEYE_NAME>
(6-amino-2-butyl-4-hydroxy-7H-purin-3-yl)oxymethylphosphonic acid
> <PUBCHEM_IUPAC_CAS_NAME>
(6-amino-2-butyl-4-hydroxy-7H-purin-3-yl)oxymethylphosphonic acid
> <PUBCHEM_IUPAC_NAME_MARKUP>
(6-amino-2-butyl-4-hydroxy-7<I>H</I>-purin-3-yl)oxymethylphosphonic acid
> <PUBCHEM_IUPAC_NAME>
(6-amino-2-butyl-4-hydroxy-7H-purin-3-yl)oxymethylphosphonic acid
> <PUBCHEM_IUPAC_SYSTEMATIC_NAME>
(6-azanyl-2-butyl-4-oxidanyl-7H-purin-3-yl)oxymethylphosphonic acid
> <PUBCHEM_IUPAC_TRADITIONAL_NAME>
(6-amino-2-butyl-4-hydroxy-7H-purin-3-yl)oxymethylphosphonic acid
> <PUBCHEM_IUPAC_INCHI>
InChI=1S/C10H18N5O5P/c1-2-3-4-7-14-9(11)8-10(16,13-5-12-8)15(7)20-6-21(17,18)19/h5,16H,2-4,6,11H2,1H3,(H,12,13)(H2,17,18,19)
> <PUBCHEM_IUPAC_INCHIKEY>
PZGDMXKZTZFQRP-UHFFFAOYSA-N
> <PUBCHEM_XLOGP3_AA>
-2.9
> <PUBCHEM_EXACT_MASS>
319.10455569
> <PUBCHEM_MOLECULAR_FORMULA>
C10H18N5O5P
> <PUBCHEM_MOLECULAR_WEIGHT>
319.25
> <PUBCHEM_OPENEYE_CAN_SMILES>
CCCCC1=NC(=C2C(N1OCP(=O)(O)O)(N=CN2)O)N
> <PUBCHEM_OPENEYE_ISO_SMILES>
CCCCC1=NC(=C2C(N1OCP(=O)(O)O)(N=CN2)O)N
> <PUBCHEM_CACTVS_TPSA>
153
> <PUBCHEM_MONOISOTOPIC_WEIGHT>
319.10455569
> <PUBCHEM_TOTAL_CHARGE>
0
> <PUBCHEM_HEAVY_ATOM_COUNT>
21
> <PUBCHEM_ATOM_DEF_STEREO_COUNT>
0
> <PUBCHEM_ATOM_UDEF_STEREO_COUNT>
1
> <PUBCHEM_BOND_DEF_STEREO_COUNT>
0
> <PUBCHEM_BOND_UDEF_STEREO_COUNT>
0
> <PUBCHEM_ISOTOPIC_ATOM_COUNT>
0
> <PUBCHEM_COMPONENT_COUNT>
1
> <PUBCHEM_CACTVS_TAUTO_COUNT>
-1
> <PUBCHEM_COORDINATE_TYPE>
1
5
255
> <PUBCHEM_BONDANNOTATIONS>
12  3  3
$$$$
