513614
  -OEChem-10302200282D
 27 28  0     1  0  0  0  0  0999 V2000
    6.2781   -2.0718    0.0000 P   0  0  0  0  0  0  0  0  0  0  0  0
    6.6353   -0.3770    0.0000 O   0  0  0  0  0  0  0  0  0  0  0  0
    6.5888   -3.0223    0.0000 O   0  0  0  0  0  0  0  0  0  0  0  0
    7.2286   -1.7612    0.0000 O   0  0  0  0  0  0  0  0  0  0  0  0
    5.3276   -2.3825    0.0000 O   0  0  0  0  0  0  0  0  0  0  0  0
    4.6783    0.0355    0.0000 N   0  0  0  0  0  0  0  0  0  0  0  0
    4.6783    1.6449    0.0000 N   0  0  0  0  0  0  0  0  0  0  0  0
    2.8660   -0.1598    0.0000 N   0  0  0  0  0  0  0  0  0  0  0  0
    2.0000    1.3402    0.0000 N   0  0  0  0  0  0  0  0  0  0  0  0
    2.8660    2.8402    0.0000 N   0  0  0  0  0  0  0  0  0  0  0  0
    4.9889   -0.9151    0.0000 C   0  0  0  0  0  0  0  0  0  0  0  0
    5.9674   -1.1213    0.0000 C   0  0  3  0  0  0  0  0  0  0  0  0
    3.7320    0.3402    0.0000 C   0  0  0  0  0  0  0  0  0  0  0  0
    3.7320    1.3402    0.0000 C   0  0  0  0  0  0  0  0  0  0  0  0
    5.2619    0.8402    0.0000 C   0  0  0  0  0  0  0  0  0  0  0  0
    2.8660    1.8402    0.0000 C   0  0  0  0  0  0  0  0  0  0  0  0
    2.0000    0.3402    0.0000 C   0  0  0  0  0  0  0  0  0  0  0  0
    4.3751   -1.0024    0.0000 H   0  0  0  0  0  0  0  0  0  0  0  0
    4.9684   -1.5347    0.0000 H   0  0  0  0  0  0  0  0  0  0  0  0
    5.7748   -0.5320    0.0000 H   0  0  0  0  0  0  0  0  0  0  0  0
    5.8819    0.8402    0.0000 H   0  0  0  0  0  0  0  0  0  0  0  0
    7.2420   -0.5048    0.0000 H   0  0  0  0  0  0  0  0  0  0  0  0
    7.1954   -3.1502    0.0000 H   0  0  0  0  0  0  0  0  0  0  0  0
    7.6901   -2.1752    0.0000 H   0  0  0  0  0  0  0  0  0  0  0  0
    1.4631    0.0302    0.0000 H   0  0  0  0  0  0  0  0  0  0  0  0
    2.3291    3.1502    0.0000 H   0  0  0  0  0  0  0  0  0  0  0  0
    3.4030    3.1502    0.0000 H   0  0  0  0  0  0  0  0  0  0  0  0
  1  3  1  0  0  0  0
  1  4  1  0  0  0  0
  1  5  2  0  0  0  0
  1 12  1  0  0  0  0
  2 12  1  0  0  0  0
  2 22  1  0  0  0  0
  3 23  1  0  0  0  0
  4 24  1  0  0  0  0
  6 11  1  0  0  0  0
  6 13  1  0  0  0  0
  6 15  1  0  0  0  0
  7 14  1  0  0  0  0
  7 15  2  0  0  0  0
  8 13  2  0  0  0  0
  8 17  1  0  0  0  0
  9 16  1  0  0  0  0
  9 17  2  0  0  0  0
 10 16  1  0  0  0  0
 10 26  1  0  0  0  0
 10 27  1  0  0  0  0
 11 12  1  0  0  0  0
 11 18  1  0  0  0  0
 11 19  1  0  0  0  0
 12 20  1  0  0  0  0
 13 14  1  0  0  0  0
 14 16  2  0  0  0  0
 15 21  1  0  0  0  0
 17 25  1  0  0  0  0
M  END
> <PUBCHEM_COMPOUND_CID>
513614
> <PUBCHEM_COMPOUND_CANONICALIZED>
1
> <PUBCHEM_CACTVS_COMPLEXITY>
325
> <PUBCHEM_CACTVS_HBOND_ACCEPTOR>
8
> <PUBCHEM_CACTVS_HBOND_DONOR>
4
> <PUBCHEM_CACTVS_ROTATABLE_BOND>
3
> <PUBCHEM_CACTVS_SUBSKEYS>
AAADccBjuAIAAAAAAAAAAAAAAAAAAWAAAAAsAAAAAAAAAFgB+AAAHggQCCAACAjplwYF8L9MEhCgQQZhZICAgC0REKABUCAoVBCCWABASEAUBAgIAALQACAAAAAAAAAAAAAAAAAAAAAAAAAAAAAAAAAAAA==
> <PUBCHEM_IUPAC_OPENEYE_NAME>
[2-(6-aminopurin-9-yl)-1-hydroxy-ethyl]phosphonic acid
> <PUBCHEM_IUPAC_CAS_NAME>
[2-(6-aminopurin-9-yl)-1-hydroxyethyl]phosphonic acid
> <PUBCHEM_IUPAC_NAME_MARKUP>
[2-(6-aminopurin-9-yl)-1-hydroxyethyl]phosphonic acid
> <PUBCHEM_IUPAC_NAME>
[2-(6-aminopurin-9-yl)-1-hydroxyethyl]phosphonic acid
> <PUBCHEM_IUPAC_SYSTEMATIC_NAME>
[2-(6-aminopurin-9-yl)-1-oxidanyl-ethyl]phosphonic acid
> <PUBCHEM_IUPAC_TRADITIONAL_NAME>
(2-adenin-9-yl-1-hydroxy-ethyl)phosphonic acid
> <PUBCHEM_IUPAC_INCHI>
InChI=1S/C7H10N5O4P/c8-6-5-7(10-2-9-6)12(3-11-5)1-4(13)17(14,15)16/h2-4,13H,1H2,(H2,8,9,10)(H2,14,15,16)
> <PUBCHEM_IUPAC_INCHIKEY>
XLNVTSBXZILISA-UHFFFAOYSA-N
> <PUBCHEM_XLOGP3>
-2.5
> <PUBCHEM_EXACT_MASS>
259.04704081
> <PUBCHEM_MOLECULAR_FORMULA>
C7H10N5O4P
> <PUBCHEM_MOLECULAR_WEIGHT>
259.16
> <PUBCHEM_OPENEYE_CAN_SMILES>
C1=NC(=C2C(=N1)N(C=N2)CC(O)P(=O)(O)O)N
> <PUBCHEM_OPENEYE_ISO_SMILES>
C1=NC(=C2C(=N1)N(C=N2)CC(O)P(=O)(O)O)N
> <PUBCHEM_CACTVS_TPSA>
147
> <PUBCHEM_MONOISOTOPIC_WEIGHT>
259.04704081
> <PUBCHEM_TOTAL_CHARGE>
0
> <PUBCHEM_HEAVY_ATOM_COUNT>
17
> <PUBCHEM_ATOM_DEF_STEREO_COUNT>
0
> <PUBCHEM_ATOM_UDEF_STEREO_COUNT>
1
> <PUBCHEM_BOND_DEF_STEREO_COUNT>
0
> <PUBCHEM_BOND_UDEF_STEREO_COUNT>
0
> <PUBCHEM_ISOTOPIC_ATOM_COUNT>
0
> <PUBCHEM_COMPONENT_COUNT>
1
> <PUBCHEM_CACTVS_TAUTO_COUNT>
-1
> <PUBCHEM_COORDINATE_TYPE>
1
5
255
> <PUBCHEM_BONDANNOTATIONS>
13  14  8
14  16  8
12  2  3
6  13  8
6  15  8
7  14  8
7  15  8
8  13  8
8  17  8
9  16  8
9  17  8
$$$$
