513653
  -OEChem-10302200282D
 75 77  0     1  0  0  0  0  0999 V2000
    8.9282   -0.6830    0.0000 S   0  0  0  0  0  0  0  0  0  0  0  0
    2.8660    2.8170    0.0000 S   0  0  0  0  0  0  0  0  0  0  0  0
   12.4725   -0.8783    0.0000 S   0  0  0  0  0  0  0  0  0  0  0  0
    6.3301    0.8170    0.0000 O   0  0  0  0  0  0  0  0  0  0  0  0
    8.4282   -1.5490    0.0000 O   0  0  0  0  0  0  0  0  0  0  0  0
    9.4282    0.1830    0.0000 O   0  0  0  0  0  0  0  0  0  0  0  0
    5.4641    1.3170    0.0000 O   0  0  0  0  0  0  0  0  0  0  0  0
    3.3660    3.6830    0.0000 O   0  0  0  0  0  0  0  0  0  0  0  0
    2.3660    1.9510    0.0000 O   0  0  0  0  0  0  0  0  0  0  0  0
    8.0622   -0.1830    0.0000 N   0  0  3  0  0  0  0  0  0  0  0  0
    4.5981   -0.1830    0.0000 N   0  0  0  0  0  0  0  0  0  0  0  0
   12.4725   -2.4878    0.0000 N   0  0  0  0  0  0  0  0  0  0  0  0
   14.0561   -1.6830    0.0000 N   0  0  0  0  0  0  0  0  0  0  0  0
    5.4641   -0.6830    0.0000 C   0  0  2  0  0  0  0  0  0  0  0  0
    6.3301   -0.1830    0.0000 C   0  0  1  0  0  0  0  0  0  0  0  0
    7.1962   -0.6830    0.0000 C   0  0  0  0  0  0  0  0  0  0  0  0
    8.0622    0.8170    0.0000 C   0  0  0  0  0  0  0  0  0  0  0  0
    5.4641   -1.6830    0.0000 C   0  0  0  0  0  0  0  0  0  0  0  0
    8.9282    1.3170    0.0000 C   0  0  0  0  0  0  0  0  0  0  0  0
    3.7320    1.3170    0.0000 C   0  0  2  0  0  0  0  0  0  0  0  0
    4.5981    0.8170    0.0000 C   0  0  0  0  0  0  0  0  0  0  0  0
    4.5981   -2.1830    0.0000 C   0  0  0  0  0  0  0  0  0  0  0  0
    9.7942   -1.1830    0.0000 C   0  0  0  0  0  0  0  0  0  0  0  0
    3.7320    2.3170    0.0000 C   0  0  0  0  0  0  0  0  0  0  0  0
    8.9282    2.3170    0.0000 C   0  0  0  0  0  0  0  0  0  0  0  0
    9.7942    0.8170    0.0000 C   0  0  0  0  0  0  0  0  0  0  0  0
    2.8660    0.8170    0.0000 C   0  0  0  0  0  0  0  0  0  0  0  0
    4.5981   -3.1830    0.0000 C   0  0  0  0  0  0  0  0  0  0  0  0
    3.7320   -1.6830    0.0000 C   0  0  0  0  0  0  0  0  0  0  0  0
   10.6603   -0.6830    0.0000 C   0  0  0  0  0  0  0  0  0  0  0  0
    9.7942   -2.1830    0.0000 C   0  0  0  0  0  0  0  0  0  0  0  0
   11.5263   -1.1830    0.0000 C   0  0  0  0  0  0  0  0  0  0  0  0
   10.6603   -2.6830    0.0000 C   0  0  0  0  0  0  0  0  0  0  0  0
    2.0000    3.3170    0.0000 C   0  0  0  0  0  0  0  0  0  0  0  0
   11.5263   -2.1830    0.0000 C   0  0  0  0  0  0  0  0  0  0  0  0
    3.7320   -3.6830    0.0000 C   0  0  0  0  0  0  0  0  0  0  0  0
    2.8660   -2.1830    0.0000 C   0  0  0  0  0  0  0  0  0  0  0  0
    2.8660   -3.1830    0.0000 C   0  0  0  0  0  0  0  0  0  0  0  0
   13.0561   -1.6830    0.0000 C   0  0  0  0  0  0  0  0  0  0  0  0
    5.4641   -0.0630    0.0000 H   0  0  0  0  0  0  0  0  0  0  0  0
    6.8671    0.1270    0.0000 H   0  0  0  0  0  0  0  0  0  0  0  0
    6.7976   -1.1580    0.0000 H   0  0  0  0  0  0  0  0  0  0  0  0
    7.5947   -1.1580    0.0000 H   0  0  0  0  0  0  0  0  0  0  0  0
    7.8501    1.3996    0.0000 H   0  0  0  0  0  0  0  0  0  0  0  0
    7.4516    0.7093    0.0000 H   0  0  0  0  0  0  0  0  0  0  0  0
    5.6762   -2.2656    0.0000 H   0  0  0  0  0  0  0  0  0  0  0  0
    6.0747   -1.5754    0.0000 H   0  0  0  0  0  0  0  0  0  0  0  0
    9.4651    1.6270    0.0000 H   0  0  0  0  0  0  0  0  0  0  0  0
    4.0611   -0.4930    0.0000 H   0  0  0  0  0  0  0  0  0  0  0  0
    3.7320    0.6970    0.0000 H   0  0  0  0  0  0  0  0  0  0  0  0
    6.8671    1.1270    0.0000 H   0  0  0  0  0  0  0  0  0  0  0  0
    4.3426    2.2093    0.0000 H   0  0  0  0  0  0  0  0  0  0  0  0
    3.9441    2.8996    0.0000 H   0  0  0  0  0  0  0  0  0  0  0  0
    9.5482    2.3170    0.0000 H   0  0  0  0  0  0  0  0  0  0  0  0
    8.9282    2.9370    0.0000 H   0  0  0  0  0  0  0  0  0  0  0  0
    8.3082    2.3170    0.0000 H   0  0  0  0  0  0  0  0  0  0  0  0
    9.4842    0.2801    0.0000 H   0  0  0  0  0  0  0  0  0  0  0  0
   10.3312    0.5070    0.0000 H   0  0  0  0  0  0  0  0  0  0  0  0
   10.1042    1.3539    0.0000 H   0  0  0  0  0  0  0  0  0  0  0  0
    2.5560    1.3539    0.0000 H   0  0  0  0  0  0  0  0  0  0  0  0
    2.3291    0.5070    0.0000 H   0  0  0  0  0  0  0  0  0  0  0  0
    3.1760    0.2801    0.0000 H   0  0  0  0  0  0  0  0  0  0  0  0
    5.1350   -3.4930    0.0000 H   0  0  0  0  0  0  0  0  0  0  0  0
    3.7320   -1.0630    0.0000 H   0  0  0  0  0  0  0  0  0  0  0  0
   10.6603   -0.0630    0.0000 H   0  0  0  0  0  0  0  0  0  0  0  0
    9.2573   -2.4930    0.0000 H   0  0  0  0  0  0  0  0  0  0  0  0
   10.6603   -3.3030    0.0000 H   0  0  0  0  0  0  0  0  0  0  0  0
    2.3100    3.8539    0.0000 H   0  0  0  0  0  0  0  0  0  0  0  0
    1.4631    3.6270    0.0000 H   0  0  0  0  0  0  0  0  0  0  0  0
    1.6900    2.7800    0.0000 H   0  0  0  0  0  0  0  0  0  0  0  0
    3.7320   -4.3030    0.0000 H   0  0  0  0  0  0  0  0  0  0  0  0
    2.3291   -1.8730    0.0000 H   0  0  0  0  0  0  0  0  0  0  0  0
    2.3291   -3.4930    0.0000 H   0  0  0  0  0  0  0  0  0  0  0  0
   14.3661   -2.2200    0.0000 H   0  0  0  0  0  0  0  0  0  0  0  0
   14.3661   -1.1461    0.0000 H   0  0  0  0  0  0  0  0  0  0  0  0
  1  5  2  0  0  0  0
  1  6  2  0  0  0  0
  1 10  1  0  0  0  0
  1 23  1  0  0  0  0
  2  8  2  0  0  0  0
  2  9  2  0  0  0  0
  2 24  1  0  0  0  0
  2 34  1  0  0  0  0
  3 32  1  0  0  0  0
  3 39  1  0  0  0  0
 15  4  1  6  0  0  0
  4 51  1  0  0  0  0
  7 21  2  0  0  0  0
 10 16  1  0  0  0  0
 10 17  1  0  0  0  0
 14 11  1  6  0  0  0
 11 21  1  0  0  0  0
 11 49  1  0  0  0  0
 12 35  1  0  0  0  0
 12 39  2  0  0  0  0
 13 39  1  0  0  0  0
 13 74  1  0  0  0  0
 13 75  1  0  0  0  0
 14 15  1  0  0  0  0
 14 18  1  0  0  0  0
 14 40  1  0  0  0  0
 15 16  1  0  0  0  0
 15 41  1  0  0  0  0
 16 42  1  0  0  0  0
 16 43  1  0  0  0  0
 17 19  1  0  0  0  0
 17 44  1  0  0  0  0
 17 45  1  0  0  0  0
 18 22  1  0  0  0  0
 18 46  1  0  0  0  0
 18 47  1  0  0  0  0
 19 25  1  0  0  0  0
 19 26  1  0  0  0  0
 19 48  1  0  0  0  0
 20 21  1  0  0  0  0
 20 24  1  0  0  0  0
 20 27  1  1  0  0  0
 20 50  1  0  0  0  0
 22 28  2  0  0  0  0
 22 29  1  0  0  0  0
 23 30  2  0  0  0  0
 23 31  1  0  0  0  0
 24 52  1  0  0  0  0
 24 53  1  0  0  0  0
 25 54  1  0  0  0  0
 25 55  1  0  0  0  0
 25 56  1  0  0  0  0
 26 57  1  0  0  0  0
 26 58  1  0  0  0  0
 26 59  1  0  0  0  0
 27 60  1  0  0  0  0
 27 61  1  0  0  0  0
 27 62  1  0  0  0  0
 28 36  1  0  0  0  0
 28 63  1  0  0  0  0
 29 37  2  0  0  0  0
 29 64  1  0  0  0  0
 30 32  1  0  0  0  0
 30 65  1  0  0  0  0
 31 33  2  0  0  0  0
 31 66  1  0  0  0  0
 32 35  2  0  0  0  0
 33 35  1  0  0  0  0
 33 67  1  0  0  0  0
 34 68  1  0  0  0  0
 34 69  1  0  0  0  0
 34 70  1  0  0  0  0
 36 38  2  0  0  0  0
 36 71  1  0  0  0  0
 37 38  1  0  0  0  0
 37 72  1  0  0  0  0
 38 73  1  0  0  0  0
M  END
> <PUBCHEM_COMPOUND_CID>
513653
> <PUBCHEM_COMPOUND_CANONICALIZED>
1
> <PUBCHEM_CACTVS_COMPLEXITY>
1010
> <PUBCHEM_CACTVS_HBOND_ACCEPTOR>
10
> <PUBCHEM_CACTVS_HBOND_DONOR>
3
> <PUBCHEM_CACTVS_ROTATABLE_BOND>
13
> <PUBCHEM_CACTVS_SUBSKEYS>
AAADcfB7uABgAAAAAAAAAAAAAAAAAWAAAAAwYAAAAAAAAFgB9AAAHgQQSAAADTzl3gaz0bLIEgqsAyVydHDD8LlhCjlImL04ZJiKMKLg0ZGEYAhklgLYyCeQwKAOAAQAAEAAAQAACAAAgAACAAAAAAAAAA==
> <PUBCHEM_IUPAC_OPENEYE_NAME>
(2R)-N-[(1S,2R)-3-[(2-amino-1,3-benzothiazol-6-yl)sulfonyl-isobutyl-amino]-1-benzyl-2-hydroxy-propyl]-2-methyl-3-methylsulfonyl-propanamide
> <PUBCHEM_IUPAC_CAS_NAME>
(2R)-N-[(2S,3R)-4-[(2-amino-1,3-benzothiazol-6-yl)sulfonyl-(2-methylpropyl)amino]-3-hydroxy-1-phenylbutan-2-yl]-2-methyl-3-methylsulfonylpropanamide
> <PUBCHEM_IUPAC_NAME_MARKUP>
(2<I>R</I>)-<I>N</I>-[(2<I>S</I>,3<I>R</I>)-4-[(2-amino-1,3-benzothiazol-6-yl)sulfonyl-(2-methylpropyl)amino]-3-hydroxy-1-phenylbutan-2-yl]-2-methyl-3-methylsulfonylpropanamide
> <PUBCHEM_IUPAC_NAME>
(2R)-N-[(2S,3R)-4-[(2-amino-1,3-benzothiazol-6-yl)sulfonyl-(2-methylpropyl)amino]-3-hydroxy-1-phenylbutan-2-yl]-2-methyl-3-methylsulfonylpropanamide
> <PUBCHEM_IUPAC_SYSTEMATIC_NAME>
(2R)-N-[(2S,3R)-4-[(2-azanyl-1,3-benzothiazol-6-yl)sulfonyl-(2-methylpropyl)amino]-3-oxidanyl-1-phenyl-butan-2-yl]-2-methyl-3-methylsulfonyl-propanamide
> <PUBCHEM_IUPAC_TRADITIONAL_NAME>
(2R)-N-[(1S,2R)-3-[(2-amino-1,3-benzothiazol-6-yl)sulfonyl-isobutyl-amino]-1-benzyl-2-hydroxy-propyl]-3-mesyl-2-methyl-propionamide
> <PUBCHEM_IUPAC_INCHI>
InChI=1S/C26H36N4O6S3/c1-17(2)14-30(39(35,36)20-10-11-21-24(13-20)37-26(27)29-21)15-23(31)22(12-19-8-6-5-7-9-19)28-25(32)18(3)16-38(4,33)34/h5-11,13,17-18,22-23,31H,12,14-16H2,1-4H3,(H2,27,29)(H,28,32)/t18-,22-,23+/m0/s1
> <PUBCHEM_IUPAC_INCHIKEY>
GUFWTXHGNXYERJ-OFAXGOBFSA-N
> <PUBCHEM_XLOGP3_AA>
3.1
> <PUBCHEM_EXACT_MASS>
596.17969840
> <PUBCHEM_MOLECULAR_FORMULA>
C26H36N4O6S3
> <PUBCHEM_MOLECULAR_WEIGHT>
596.8
> <PUBCHEM_OPENEYE_CAN_SMILES>
CC(C)CN(CC(C(CC1=CC=CC=C1)NC(=O)C(C)CS(=O)(=O)C)O)S(=O)(=O)C2=CC3=C(C=C2)N=C(S3)N
> <PUBCHEM_OPENEYE_ISO_SMILES>
C[C@@H](CS(=O)(=O)C)C(=O)N[C@@H](CC1=CC=CC=C1)[C@@H](CN(CC(C)C)S(=O)(=O)C2=CC3=C(C=C2)N=C(S3)N)O
> <PUBCHEM_CACTVS_TPSA>
205
> <PUBCHEM_MONOISOTOPIC_WEIGHT>
596.17969840
> <PUBCHEM_TOTAL_CHARGE>
0
> <PUBCHEM_HEAVY_ATOM_COUNT>
39
> <PUBCHEM_ATOM_DEF_STEREO_COUNT>
3
> <PUBCHEM_ATOM_UDEF_STEREO_COUNT>
0
> <PUBCHEM_BOND_DEF_STEREO_COUNT>
0
> <PUBCHEM_BOND_UDEF_STEREO_COUNT>
0
> <PUBCHEM_ISOTOPIC_ATOM_COUNT>
0
> <PUBCHEM_COMPONENT_COUNT>
1
> <PUBCHEM_CACTVS_TAUTO_COUNT>
-1
> <PUBCHEM_COORDINATE_TYPE>
1
5
255
> <PUBCHEM_BONDANNOTATIONS>
14  11  6
12  35  8
12  39  8
20  27  5
22  28  8
22  29  8
23  30  8
23  31  8
28  36  8
29  37  8
3  32  8
3  39  8
30  32  8
31  33  8
32  35  8
33  35  8
36  38  8
37  38  8
15  4  6
$$$$
