513673
  -OEChem-10302200282D
 36 38  0     1  0  0  0  0  0999 V2000
    6.3301   -2.9529    0.0000 Cl  0  0  0  0  0  0  0  0  0  0  0  0
    3.7891    0.6349    0.0000 S   0  0  0  0  0  0  0  0  0  0  0  0
    6.4641   -1.4529    0.0000 F   0  0  0  0  0  0  0  0  0  0  0  0
    2.3660   -1.8189    0.0000 F   0  0  0  0  0  0  0  0  0  0  0  0
    2.0000   -0.4529    0.0000 F   0  0  0  0  0  0  0  0  0  0  0  0
    3.3660   -0.0868    0.0000 F   0  0  0  0  0  0  0  0  0  0  0  0
    5.6859    2.3950    0.0000 O   0  0  0  0  0  0  0  0  0  0  0  0
    5.4071    0.6349    0.0000 N   0  0  0  0  0  0  0  0  0  0  0  0
    7.0544    0.0997    0.0000 N   0  0  0  0  0  0  0  0  0  0  0  0
    4.5981    0.0471    0.0000 C   0  0  3  0  0  0  0  0  0  0  0  0
    4.5981   -0.9529    0.0000 C   0  0  0  0  0  0  0  0  0  0  0  0
    4.0981    1.5860    0.0000 C   0  0  0  0  0  0  0  0  0  0  0  0
    5.0981    1.5860    0.0000 C   0  0  0  0  0  0  0  0  0  0  0  0
    3.7320   -1.4529    0.0000 C   0  0  0  0  0  0  0  0  0  0  0  0
    6.3852    0.8428    0.0000 C   0  0  0  0  0  0  0  0  0  0  0  0
    5.4641   -1.4529    0.0000 C   0  0  0  0  0  0  0  0  0  0  0  0
    3.7320   -2.4529    0.0000 C   0  0  0  0  0  0  0  0  0  0  0  0
    6.6943    1.7939    0.0000 C   0  0  0  0  0  0  0  0  0  0  0  0
    2.8660   -0.9529    0.0000 C   0  0  0  0  0  0  0  0  0  0  0  0
    5.4641   -2.4529    0.0000 C   0  0  0  0  0  0  0  0  0  0  0  0
    4.5981   -2.9529    0.0000 C   0  0  0  0  0  0  0  0  0  0  0  0
    7.6724    2.0018    0.0000 C   0  0  0  0  0  0  0  0  0  0  0  0
    8.3415    1.2587    0.0000 C   0  0  0  0  0  0  0  0  0  0  0  0
    8.0325    0.3076    0.0000 C   0  0  0  0  0  0  0  0  0  0  0  0
    7.9814    2.9529    0.0000 C   0  0  0  0  0  0  0  0  0  0  0  0
    5.1505   -0.2343    0.0000 H   0  0  0  0  0  0  0  0  0  0  0  0
    4.1629    2.2026    0.0000 H   0  0  0  0  0  0  0  0  0  0  0  0
    3.4916    1.7149    0.0000 H   0  0  0  0  0  0  0  0  0  0  0  0
    3.1951   -2.7629    0.0000 H   0  0  0  0  0  0  0  0  0  0  0  0
    6.2794    2.2546    0.0000 H   0  0  0  0  0  0  0  0  0  0  0  0
    4.5981   -3.5729    0.0000 H   0  0  0  0  0  0  0  0  0  0  0  0
    8.9480    1.3876    0.0000 H   0  0  0  0  0  0  0  0  0  0  0  0
    8.4474   -0.1531    0.0000 H   0  0  0  0  0  0  0  0  0  0  0  0
    8.5711    2.7613    0.0000 H   0  0  0  0  0  0  0  0  0  0  0  0
    8.1730    3.5425    0.0000 H   0  0  0  0  0  0  0  0  0  0  0  0
    7.3918    3.1444    0.0000 H   0  0  0  0  0  0  0  0  0  0  0  0
  1 20  1  0  0  0  0
  2 10  1  0  0  0  0
  2 12  1  0  0  0  0
  3 16  1  0  0  0  0
  4 19  1  0  0  0  0
  5 19  1  0  0  0  0
  6 19  1  0  0  0  0
  7 13  2  0  0  0  0
  8 10  1  0  0  0  0
  8 13  1  0  0  0  0
  8 15  1  0  0  0  0
  9 15  2  0  0  0  0
  9 24  1  0  0  0  0
 10 11  1  0  0  0  0
 10 26  1  0  0  0  0
 11 14  2  0  0  0  0
 11 16  1  0  0  0  0
 12 13  1  0  0  0  0
 12 27  1  0  0  0  0
 12 28  1  0  0  0  0
 14 17  1  0  0  0  0
 14 19  1  0  0  0  0
 15 18  1  0  0  0  0
 16 20  2  0  0  0  0
 17 21  2  0  0  0  0
 17 29  1  0  0  0  0
 18 22  2  0  0  0  0
 18 30  1  0  0  0  0
 20 21  1  0  0  0  0
 21 31  1  0  0  0  0
 22 23  1  0  0  0  0
 22 25  1  0  0  0  0
 23 24  2  0  0  0  0
 23 32  1  0  0  0  0
 24 33  1  0  0  0  0
 25 34  1  0  0  0  0
 25 35  1  0  0  0  0
 25 36  1  0  0  0  0
M  END
> <PUBCHEM_COMPOUND_CID>
513673
> <PUBCHEM_COMPOUND_CANONICALIZED>
1
> <PUBCHEM_CACTVS_COMPLEXITY>
509
> <PUBCHEM_CACTVS_HBOND_ACCEPTOR>
7
> <PUBCHEM_CACTVS_HBOND_DONOR>
0
> <PUBCHEM_CACTVS_ROTATABLE_BOND>
2
> <PUBCHEM_CACTVS_SUBSKEYS>
AAADccB7IcBEAAAAAAAAAAAAAAAAAWAAAAA8QAAAAAAAAAABwAAAHwYAAAAADALF2jy/sJMIEAioAjN3dACCgClxBzAJ2CA4ZpiIIGLhm5GEIAhohwLoyCcQgIAOhAAAIAAQAAAIAABAACAAAAAAAAAAAA==
> <PUBCHEM_IUPAC_OPENEYE_NAME>
2-[3-chloro-2-fluoro-6-(trifluoromethyl)phenyl]-3-(4-methyl-2-pyridyl)thiazolidin-4-one
> <PUBCHEM_IUPAC_CAS_NAME>
2-[3-chloro-2-fluoro-6-(trifluoromethyl)phenyl]-3-(4-methyl-2-pyridinyl)-4-thiazolidinone
> <PUBCHEM_IUPAC_NAME_MARKUP>
2-[3-chloro-2-fluoro-6-(trifluoromethyl)phenyl]-3-(4-methylpyridin-2-yl)-1,3-thiazolidin-4-one
> <PUBCHEM_IUPAC_NAME>
2-[3-chloro-2-fluoro-6-(trifluoromethyl)phenyl]-3-(4-methylpyridin-2-yl)-1,3-thiazolidin-4-one
> <PUBCHEM_IUPAC_SYSTEMATIC_NAME>
2-[3-chloranyl-2-fluoranyl-6-(trifluoromethyl)phenyl]-3-(4-methylpyridin-2-yl)-1,3-thiazolidin-4-one
> <PUBCHEM_IUPAC_TRADITIONAL_NAME>
2-[3-chloro-2-fluoro-6-(trifluoromethyl)phenyl]-3-(4-methyl-2-pyridyl)thiazolidin-4-one
> <PUBCHEM_IUPAC_INCHI>
InChI=1S/C16H11ClF4N2OS/c1-8-4-5-22-11(6-8)23-12(24)7-25-15(23)13-9(16(19,20)21)2-3-10(17)14(13)18/h2-6,15H,7H2,1H3
> <PUBCHEM_IUPAC_INCHIKEY>
ZYWVSNYQFRZUDH-UHFFFAOYSA-N
> <PUBCHEM_XLOGP3_AA>
4.6
> <PUBCHEM_EXACT_MASS>
390.0216745
> <PUBCHEM_MOLECULAR_FORMULA>
C16H11ClF4N2OS
> <PUBCHEM_MOLECULAR_WEIGHT>
390.8
> <PUBCHEM_OPENEYE_CAN_SMILES>
CC1=CC(=NC=C1)N2C(SCC2=O)C3=C(C=CC(=C3F)Cl)C(F)(F)F
> <PUBCHEM_OPENEYE_ISO_SMILES>
CC1=CC(=NC=C1)N2C(SCC2=O)C3=C(C=CC(=C3F)Cl)C(F)(F)F
> <PUBCHEM_CACTVS_TPSA>
58.5
> <PUBCHEM_MONOISOTOPIC_WEIGHT>
390.0216745
> <PUBCHEM_TOTAL_CHARGE>
0
> <PUBCHEM_HEAVY_ATOM_COUNT>
25
> <PUBCHEM_ATOM_DEF_STEREO_COUNT>
0
> <PUBCHEM_ATOM_UDEF_STEREO_COUNT>
1
> <PUBCHEM_BOND_DEF_STEREO_COUNT>
0
> <PUBCHEM_BOND_UDEF_STEREO_COUNT>
0
> <PUBCHEM_ISOTOPIC_ATOM_COUNT>
0
> <PUBCHEM_COMPONENT_COUNT>
1
> <PUBCHEM_CACTVS_TAUTO_COUNT>
-1
> <PUBCHEM_COORDINATE_TYPE>
1
5
255
> <PUBCHEM_BONDANNOTATIONS>
10  11  3
11  14  8
11  16  8
14  17  8
15  18  8
16  20  8
17  21  8
18  22  8
20  21  8
22  23  8
23  24  8
9  15  8
9  24  8
$$$$
