513697
  -OEChem-10302200282D
 79 90  0     1  0  0  0  0  0999 V2000
    7.2880    0.0000    0.0000 Cl  0  5  0  0  0  0  0  0  0  0  0  0
   10.3517    5.9503    0.0000 O   0  0  0  0  0  0  0  0  0  0  0  0
   12.3053    4.1661    0.0000 O   0  0  0  0  0  0  0  0  0  0  0  0
    7.8754    6.8820    0.0000 N   0  3  0  0  0  0  0  0  0  0  0  0
   14.7816    3.2345    0.0000 N   0  0  0  0  0  0  0  0  0  0  0  0
    6.3479    7.4202    0.0000 C   0  0  3  0  0  0  0  0  0  0  0  0
    6.9606    8.2184    0.0000 C   0  0  3  0  0  0  0  0  0  0  0  0
    6.9165    6.5972    0.0000 C   0  0  0  0  0  0  0  0  0  0  0  0
    7.9026    7.8819    0.0000 C   0  0  0  0  0  0  0  0  0  0  0  0
    5.3448    7.4994    0.0000 C   0  0  0  0  0  0  0  0  0  0  0  0
    6.5473    9.7965    0.0000 C   0  0  0  0  0  0  0  0  0  0  0  0
    5.1666    8.5316    0.0000 C   0  0  0  0  0  0  0  0  0  0  0  0
    5.6464    9.4019    0.0000 C   0  0  0  0  0  0  0  0  0  0  0  0
    4.1786    8.6388    0.0000 C   0  0  0  0  0  0  0  0  0  0  0  0
    5.0285   10.1803    0.0000 C   0  0  0  0  0  0  0  0  0  0  0  0
    4.1625    9.6803    0.0000 C   0  0  0  0  0  0  0  0  0  0  0  0
    8.8750    6.8556    0.0000 C   0  0  0  0  0  0  0  0  0  0  0  0
    3.2805    8.1110    0.0000 C   0  0  0  0  0  0  0  0  0  0  0  0
    5.0285   11.1803    0.0000 C   0  0  0  0  0  0  0  0  0  0  0  0
    3.2965   10.1803    0.0000 C   0  0  0  0  0  0  0  0  0  0  0  0
    8.1592    5.9231    0.0000 C   0  0  0  0  0  0  0  0  0  0  0  0
    2.3865    9.6734    0.0000 C   0  0  0  0  0  0  0  0  0  0  0  0
    3.2965   11.1803    0.0000 C   0  0  0  0  0  0  0  0  0  0  0  0
    2.3784    8.6318    0.0000 C   0  0  0  0  0  0  0  0  0  0  0  0
    4.1625   11.6803    0.0000 C   0  0  0  0  0  0  0  0  0  0  0  0
    3.5577    7.1009    0.0000 C   0  0  0  0  0  0  0  0  0  0  0  0
    5.9799   11.4293    0.0000 C   0  0  0  0  0  0  0  0  0  0  0  0
    4.5621    6.8034    0.0000 C   0  0  0  0  0  0  0  0  0  0  0  0
    6.7069   10.7669    0.0000 C   0  0  0  0  0  0  0  0  0  0  0  0
    1.7997   10.4755    0.0000 C   0  0  0  0  0  0  0  0  0  0  0  0
    2.3134   11.3262    0.0000 C   0  0  0  0  0  0  0  0  0  0  0  0
    1.6778    7.3669    0.0000 C   0  0  0  0  0  0  0  0  0  0  0  0
    5.6872   12.3800    0.0000 C   0  0  0  0  0  0  0  0  0  0  0  0
    1.3650    8.3669    0.0000 C   0  0  0  0  0  0  0  0  0  0  0  0
    3.9024   12.6287    0.0000 C   0  0  0  0  0  0  0  0  0  0  0  0
    9.3520    5.9767    0.0000 C   0  0  0  0  0  0  0  0  0  0  0  0
    0.8166   10.1138    0.0000 C   0  0  0  0  0  0  0  0  0  0  0  0
    2.2047   12.3037    0.0000 C   0  0  0  0  0  0  0  0  0  0  0  0
    0.6052    9.0879    0.0000 C   0  0  0  0  0  0  0  0  0  0  0  0
    2.9653   12.9271    0.0000 C   0  0  0  0  0  0  0  0  0  0  0  0
    0.5944   11.7015    0.0000 C   0  0  0  0  0  0  0  0  0  0  0  0
    1.2361   12.4398    0.0000 C   0  0  0  0  0  0  0  0  0  0  0  0
   10.8286    5.0714    0.0000 C   0  0  0  0  0  0  0  0  0  0  0  0
   11.8283    5.0450    0.0000 C   0  0  0  0  0  0  0  0  0  0  0  0
   13.3049    4.1398    0.0000 C   0  0  0  0  0  0  0  0  0  0  0  0
   13.7819    3.2608    0.0000 C   0  0  0  0  0  0  0  0  0  0  0  0
    6.0385    6.8830    0.0000 H   0  0  0  0  0  0  0  0  0  0  0  0
    7.4177    8.6374    0.0000 H   0  0  0  0  0  0  0  0  0  0  0  0
    6.3721    6.3004    0.0000 H   0  0  0  0  0  0  0  0  0  0  0  0
    7.1544    6.0247    0.0000 H   0  0  0  0  0  0  0  0  0  0  0  0
    8.5172    7.8000    0.0000 H   0  0  0  0  0  0  0  0  0  0  0  0
    8.0487    8.4844    0.0000 H   0  0  0  0  0  0  0  0  0  0  0  0
    9.4630    7.0522    0.0000 H   0  0  0  0  0  0  0  0  0  0  0  0
    8.7835    7.4688    0.0000 H   0  0  0  0  0  0  0  0  0  0  0  0
    7.5647    5.7471    0.0000 H   0  0  0  0  0  0  0  0  0  0  0  0
    8.3352    5.3286    0.0000 H   0  0  0  0  0  0  0  0  0  0  0  0
    8.7537    6.0991    0.0000 H   0  0  0  0  0  0  0  0  0  0  0  0
    4.6970    6.1982    0.0000 H   0  0  0  0  0  0  0  0  0  0  0  0
    7.2926   10.9704    0.0000 H   0  0  0  0  0  0  0  0  0  0  0  0
    1.0652    7.2710    0.0000 H   0  0  0  0  0  0  0  0  0  0  0  0
    1.6823    6.7469    0.0000 H   0  0  0  0  0  0  0  0  0  0  0  0
    6.3000   12.4744    0.0000 H   0  0  0  0  0  0  0  0  0  0  0  0
    5.6828   13.0000    0.0000 H   0  0  0  0  0  0  0  0  0  0  0  0
    8.7640    5.7801    0.0000 H   0  0  0  0  0  0  0  0  0  0  0  0
    9.4435    5.3635    0.0000 H   0  0  0  0  0  0  0  0  0  0  0  0
    0.0136    8.9022    0.0000 H   0  0  0  0  0  0  0  0  0  0  0  0
    2.8487   13.5361    0.0000 H   0  0  0  0  0  0  0  0  0  0  0  0
    0.0000   11.8778    0.0000 H   0  0  0  0  0  0  0  0  0  0  0  0
    1.0189   13.0205    0.0000 H   0  0  0  0  0  0  0  0  0  0  0  0
   10.2406    4.8748    0.0000 H   0  0  0  0  0  0  0  0  0  0  0  0
   10.9202    4.4582    0.0000 H   0  0  0  0  0  0  0  0  0  0  0  0
   12.4163    5.2417    0.0000 H   0  0  0  0  0  0  0  0  0  0  0  0
   11.7368    5.6582    0.0000 H   0  0  0  0  0  0  0  0  0  0  0  0
   13.8929    4.3364    0.0000 H   0  0  0  0  0  0  0  0  0  0  0  0
   13.2134    4.7530    0.0000 H   0  0  0  0  0  0  0  0  0  0  0  0
   13.1939    3.0642    0.0000 H   0  0  0  0  0  0  0  0  0  0  0  0
   13.8735    2.6476    0.0000 H   0  0  0  0  0  0  0  0  0  0  0  0
   15.0773    2.6896    0.0000 H   0  0  0  0  0  0  0  0  0  0  0  0
   15.1056    3.7631    0.0000 H   0  0  0  0  0  0  0  0  0  0  0  0
  2 36  1  0  0  0  0
  2 43  1  0  0  0  0
  3 44  1  0  0  0  0
  3 45  1  0  0  0  0
  4  8  1  0  0  0  0
  4  9  1  0  0  0  0
  4 17  1  0  0  0  0
  4 21  1  0  0  0  0
  5 46  1  0  0  0  0
  5 78  1  0  0  0  0
  5 79  1  0  0  0  0
  6  7  1  0  0  0  0
  6  8  1  0  0  0  0
  6 10  1  0  0  0  0
  6 47  1  0  0  0  0
  7  9  1  0  0  0  0
  7 11  1  0  0  0  0
  7 48  1  0  0  0  0
  8 49  1  0  0  0  0
  8 50  1  0  0  0  0
  9 51  1  0  0  0  0
  9 52  1  0  0  0  0
 10 12  2  0  0  0  0
 10 28  1  0  0  0  0
 11 13  2  0  0  0  0
 11 29  1  0  0  0  0
 12 13  1  0  0  0  0
 12 14  1  0  0  0  0
 13 15  1  0  0  0  0
 14 16  1  0  0  0  0
 14 18  2  0  0  0  0
 15 16  1  0  0  0  0
 15 19  2  0  0  0  0
 16 20  2  0  0  0  0
 17 36  1  0  0  0  0
 17 53  1  0  0  0  0
 17 54  1  0  0  0  0
 18 24  1  0  0  0  0
 18 26  1  0  0  0  0
 19 25  1  0  0  0  0
 19 27  1  0  0  0  0
 20 22  1  0  0  0  0
 20 23  1  0  0  0  0
 21 55  1  0  0  0  0
 21 56  1  0  0  0  0
 21 57  1  0  0  0  0
 22 24  1  0  0  0  0
 22 30  2  0  0  0  0
 23 25  1  0  0  0  0
 23 31  2  0  0  0  0
 24 34  2  0  0  0  0
 25 35  2  0  0  0  0
 26 28  2  0  0  0  0
 26 32  1  0  0  0  0
 27 29  2  0  0  0  0
 27 33  1  0  0  0  0
 28 58  1  0  0  0  0
 29 59  1  0  0  0  0
 30 31  1  0  0  0  0
 30 37  1  0  0  0  0
 31 38  1  0  0  0  0
 32 34  1  0  0  0  0
 32 60  1  0  0  0  0
 32 61  1  0  0  0  0
 33 35  1  0  0  0  0
 33 62  1  0  0  0  0
 33 63  1  0  0  0  0
 34 39  1  0  0  0  0
 35 40  1  0  0  0  0
 36 64  1  0  0  0  0
 36 65  1  0  0  0  0
 37 39  2  0  0  0  0
 37 41  1  0  0  0  0
 38 40  2  0  0  0  0
 38 42  1  0  0  0  0
 39 66  1  0  0  0  0
 40 67  1  0  0  0  0
 41 42  2  0  0  0  0
 41 68  1  0  0  0  0
 42 69  1  0  0  0  0
 43 44  1  0  0  0  0
 43 70  1  0  0  0  0
 43 71  1  0  0  0  0
 44 72  1  0  0  0  0
 44 73  1  0  0  0  0
 45 46  1  0  0  0  0
 45 74  1  0  0  0  0
 45 75  1  0  0  0  0
 46 76  1  0  0  0  0
 46 77  1  0  0  0  0
M  CHG  2   1  -1   4   1
M  END
> <PUBCHEM_COMPOUND_CID>
513697
> <PUBCHEM_COMPOUND_CANONICALIZED>
1
> <PUBCHEM_CACTVS_COMPLEXITY>
1200
> <PUBCHEM_CACTVS_HBOND_ACCEPTOR>
4
> <PUBCHEM_CACTVS_HBOND_DONOR>
1
> <PUBCHEM_CACTVS_ROTATABLE_BOND>
8
> <PUBCHEM_CACTVS_SUBSKEYS>
AAADcfB/MAAEAAAAAAAAAAAAAAAAAeMGDBAwYMGDAAAAAHjBVAAAHgAQAAAADQDhmAYyAMNABACAAiBCAAACAAAgAAAIiIAIAIgLICKAkRGHIAAgkACaiAcQgMAOwAACAAAQAACAAAQAACAAAQAACAAAAA==
> <PUBCHEM_IUPAC_OPENEYE_NAME>
2-[2-[2-(4-methyl-4-azoniatridecacyclo[18.13.1.118,21.02,6.07,32.09,30.011,29.013,27.016,26.022,33.023,31.024,28.025,35]pentatriaconta-1(33),7(32),8,11(29),12,14,16,18(35),20(34),21,23,25,27,30-tetradecaen-4-yl)ethoxy]ethoxy]ethanamine;chloride
> <PUBCHEM_IUPAC_CAS_NAME>
2-[2-[2-(4-methyl-4-azoniatridecacyclo[18.13.1.118,21.02,6.07,32.09,30.011,29.013,27.016,26.022,33.023,31.024,28.025,35]pentatriaconta-1(33),7(32),8,11(29),12,14,16,18(35),20(34),21,23,25,27,30-tetradecaen-4-yl)ethoxy]ethoxy]ethanamine;chloride
> <PUBCHEM_IUPAC_NAME_MARKUP>
2-[2-[2-(4-methyl-4-azoniatridecacyclo[18.13.1.1<SUP>18,21</SUP>.0<SUP>2,6</SUP>.0<SUP>7,32</SUP>.0<SUP>9,30</SUP>.0<SUP>11,29</SUP>.0<SUP>13,27</SUP>.0<SUP>16,26</SUP>.0<SUP>22,33</SUP>.0<SUP>23,31</SUP>.0<SUP>24,28</SUP>.0<SUP>25,35</SUP>]pentatriaconta-1(33),7(32),8,11(29),12,14,16,18(35),20(34),21,23,25,27,30-tetradecaen-4-yl)ethoxy]ethoxy]ethanamine;chloride
> <PUBCHEM_IUPAC_NAME>
2-[2-[2-(4-methyl-4-azoniatridecacyclo[18.13.1.118,21.02,6.07,32.09,30.011,29.013,27.016,26.022,33.023,31.024,28.025,35]pentatriaconta-1(33),7(32),8,11(29),12,14,16,18(35),20(34),21,23,25,27,30-tetradecaen-4-yl)ethoxy]ethoxy]ethanamine;chloride
> <PUBCHEM_IUPAC_SYSTEMATIC_NAME>
2-[2-[2-(4-methyl-4-azoniatridecacyclo[18.13.1.118,21.02,6.07,32.09,30.011,29.013,27.016,26.022,33.023,31.024,28.025,35]pentatriaconta-1(33),7(32),8,11(29),12,14,16,18(35),20(34),21,23,25,27,30-tetradecaen-4-yl)ethoxy]ethoxy]ethanamine;chloride
> <PUBCHEM_IUPAC_TRADITIONAL_NAME>
2-[2-[2-(4-methyl-4-azoniatridecacyclo[18.13.1.118,21.02,6.07,32.09,30.011,29.013,27.016,26.022,33.023,31.024,28.025,35]pentatriaconta-1(33),7(32),8,11(29),12,14,16,18(35),20(34),21,23,25,27,30-tetradecaen-4-yl)ethoxy]ethoxy]ethylamine;chloride
> <PUBCHEM_IUPAC_INCHI>
InChI=1S/C41H33N2O2.ClH/c1-43(5-7-45-9-8-44-6-4-42)16-26-24-14-22-12-20-10-18-2-3-19-11-21-13-23-15-25(27(26)17-43)35-34(24)38-32(22)30(20)36-28(18)29(19)37-31(21)33(23)39(35)41(38)40(36)37;/h2-3,10-11,14-15,26-27H,4-9,12-13,16-17,42H2,1H3;1H/q+1;/p-1
> <PUBCHEM_IUPAC_INCHIKEY>
FYCQOLQDBZSLIP-UHFFFAOYSA-M
> <PUBCHEM_EXACT_MASS>
620.2230560
> <PUBCHEM_MOLECULAR_FORMULA>
C41H33ClN2O2
> <PUBCHEM_MOLECULAR_WEIGHT>
621.2
> <PUBCHEM_OPENEYE_CAN_SMILES>
C[N+]1(CC2C(C1)C3=C4C5=C2C=C6CC7=C8C6=C5C9=C1C8=C2C(=C7)C=CC5=CC6=C(C1=C52)C(=C49)C(=C3)C6)CCOCCOCCN.[Cl-]
> <PUBCHEM_OPENEYE_ISO_SMILES>
C[N+]1(CC2C(C1)C3=C4C5=C2C=C6CC7=C8C6=C5C9=C1C8=C2C(=C7)C=CC5=CC6=C(C1=C52)C(=C49)C(=C3)C6)CCOCCOCCN.[Cl-]
> <PUBCHEM_CACTVS_TPSA>
44.5
> <PUBCHEM_MONOISOTOPIC_WEIGHT>
620.2230560
> <PUBCHEM_TOTAL_CHARGE>
0
> <PUBCHEM_HEAVY_ATOM_COUNT>
46
> <PUBCHEM_ATOM_DEF_STEREO_COUNT>
0
> <PUBCHEM_ATOM_UDEF_STEREO_COUNT>
2
> <PUBCHEM_BOND_DEF_STEREO_COUNT>
0
> <PUBCHEM_BOND_UDEF_STEREO_COUNT>
0
> <PUBCHEM_ISOTOPIC_ATOM_COUNT>
0
> <PUBCHEM_COMPONENT_COUNT>
2
> <PUBCHEM_CACTVS_TAUTO_COUNT>
-1
> <PUBCHEM_COORDINATE_TYPE>
1
5
255
> <PUBCHEM_BONDANNOTATIONS>
10  12  8
10  28  8
11  13  8
11  29  8
12  13  8
12  14  8
13  15  8
14  16  8
14  18  8
15  16  8
15  19  8
16  20  8
18  24  8
18  26  8
19  25  8
19  27  8
20  22  8
20  23  8
22  24  8
22  30  8
23  25  8
23  31  8
24  34  8
25  35  8
26  28  8
27  29  8
30  31  8
30  37  8
31  38  8
34  39  8
35  40  8
37  39  8
37  41  8
38  40  8
38  42  8
41  42  8
6  8  3
7  9  3
$$$$
