513787
  -OEChem-10302200282D
 79 81  0     1  0  0  0  0  0999 V2000
    3.7320   -2.8644    0.0000 S   0  0  0  0  0  0  0  0  0  0  0  0
    5.5211    6.2234    0.0000 S   0  0  0  0  0  0  0  0  0  0  0  0
    6.3301   -1.3644    0.0000 O   0  0  0  0  0  0  0  0  0  0  0  0
    4.7320   -2.8644    0.0000 O   0  0  0  0  0  0  0  0  0  0  0  0
    2.7320   -2.8644    0.0000 O   0  0  0  0  0  0  0  0  0  0  0  0
    8.0622    2.6356    0.0000 O   0  0  0  0  0  0  0  0  0  0  0  0
    3.7320   -1.8644    0.0000 N   0  0  3  0  0  0  0  0  0  0  0  0
    6.3301    2.6356    0.0000 N   0  0  0  0  0  0  0  0  0  0  0  0
    7.1962    4.1356    0.0000 N   0  0  0  0  0  0  0  0  0  0  0  0
    3.7320   -6.8644    0.0000 N   0  0  0  0  0  0  0  0  0  0  0  0
    4.5981   -1.3644    0.0000 C   0  0  1  0  0  0  0  0  0  0  0  0
    4.5981   -0.3644    0.0000 C   0  0  0  0  0  0  0  0  0  0  0  0
    2.8660   -1.3644    0.0000 C   0  0  0  0  0  0  0  0  0  0  0  0
    5.4641    0.1356    0.0000 C   0  0  0  0  0  0  0  0  0  0  0  0
    2.8660   -0.3644    0.0000 C   0  0  0  0  0  0  0  0  0  0  0  0
    5.4641   -1.8644    0.0000 C   0  0  0  0  0  0  0  0  0  0  0  0
    5.4641    1.1356    0.0000 C   0  0  0  0  0  0  0  0  0  0  0  0
    3.7320   -3.8644    0.0000 C   0  0  0  0  0  0  0  0  0  0  0  0
    2.0000    0.1356    0.0000 C   0  0  0  0  0  0  0  0  0  0  0  0
    3.7320    0.1356    0.0000 C   0  0  0  0  0  0  0  0  0  0  0  0
    6.3301    1.6356    0.0000 C   0  0  0  0  0  0  0  0  0  0  0  0
    2.8660   -4.3644    0.0000 C   0  0  0  0  0  0  0  0  0  0  0  0
    4.5981   -4.3644    0.0000 C   0  0  0  0  0  0  0  0  0  0  0  0
    2.8660   -5.3644    0.0000 C   0  0  0  0  0  0  0  0  0  0  0  0
    4.5981   -5.3644    0.0000 C   0  0  0  0  0  0  0  0  0  0  0  0
    7.1962    3.1356    0.0000 C   0  0  0  0  0  0  0  0  0  0  0  0
    3.7320   -5.8644    0.0000 C   0  0  0  0  0  0  0  0  0  0  0  0
    8.0622    4.6356    0.0000 C   0  0  0  0  0  0  0  0  0  0  0  0
    6.3301    4.6356    0.0000 C   0  0  0  0  0  0  0  0  0  0  0  0
    8.9282    4.1356    0.0000 C   0  0  0  0  0  0  0  0  0  0  0  0
    6.3301    5.6356    0.0000 C   0  0  0  0  0  0  0  0  0  0  0  0
    9.7942    4.6356    0.0000 C   0  0  0  0  0  0  0  0  0  0  0  0
    8.9282    3.1356    0.0000 C   0  0  0  0  0  0  0  0  0  0  0  0
    7.1391    6.2234    0.0000 C   0  0  0  0  0  0  0  0  0  0  0  0
   10.6603    4.1356    0.0000 C   0  0  0  0  0  0  0  0  0  0  0  0
    9.7942    2.6356    0.0000 C   0  0  0  0  0  0  0  0  0  0  0  0
    6.8301    7.1744    0.0000 C   0  0  0  0  0  0  0  0  0  0  0  0
    5.8301    7.1744    0.0000 C   0  0  0  0  0  0  0  0  0  0  0  0
   10.6603    3.1356    0.0000 C   0  0  0  0  0  0  0  0  0  0  0  0
    4.5981   -1.9844    0.0000 H   0  0  0  0  0  0  0  0  0  0  0  0
    4.3860    0.2182    0.0000 H   0  0  0  0  0  0  0  0  0  0  0  0
    3.9875   -0.4721    0.0000 H   0  0  0  0  0  0  0  0  0  0  0  0
    2.2554   -1.2568    0.0000 H   0  0  0  0  0  0  0  0  0  0  0  0
    2.6540   -1.9470    0.0000 H   0  0  0  0  0  0  0  0  0  0  0  0
    5.6762   -0.4470    0.0000 H   0  0  0  0  0  0  0  0  0  0  0  0
    6.0747    0.2432    0.0000 H   0  0  0  0  0  0  0  0  0  0  0  0
    2.8660    0.2556    0.0000 H   0  0  0  0  0  0  0  0  0  0  0  0
    5.0656   -2.3394    0.0000 H   0  0  0  0  0  0  0  0  0  0  0  0
    5.8626   -2.3394    0.0000 H   0  0  0  0  0  0  0  0  0  0  0  0
    5.2520    1.7182    0.0000 H   0  0  0  0  0  0  0  0  0  0  0  0
    4.8535    1.0279    0.0000 H   0  0  0  0  0  0  0  0  0  0  0  0
    2.3100    0.6725    0.0000 H   0  0  0  0  0  0  0  0  0  0  0  0
    1.4631    0.4456    0.0000 H   0  0  0  0  0  0  0  0  0  0  0  0
    1.6900   -0.4014    0.0000 H   0  0  0  0  0  0  0  0  0  0  0  0
    4.0420   -0.4014    0.0000 H   0  0  0  0  0  0  0  0  0  0  0  0
    4.2690    0.4456    0.0000 H   0  0  0  0  0  0  0  0  0  0  0  0
    3.4220    0.6725    0.0000 H   0  0  0  0  0  0  0  0  0  0  0  0
    6.5422    1.0530    0.0000 H   0  0  0  0  0  0  0  0  0  0  0  0
    6.9407    1.7432    0.0000 H   0  0  0  0  0  0  0  0  0  0  0  0
    6.8671   -1.6744    0.0000 H   0  0  0  0  0  0  0  0  0  0  0  0
    2.3291   -4.0544    0.0000 H   0  0  0  0  0  0  0  0  0  0  0  0
    5.1350   -4.0544    0.0000 H   0  0  0  0  0  0  0  0  0  0  0  0
    5.7932    2.9456    0.0000 H   0  0  0  0  0  0  0  0  0  0  0  0
    2.3291   -5.6744    0.0000 H   0  0  0  0  0  0  0  0  0  0  0  0
    5.1350   -5.6744    0.0000 H   0  0  0  0  0  0  0  0  0  0  0  0
    8.4607    5.1105    0.0000 H   0  0  0  0  0  0  0  0  0  0  0  0
    7.6636    5.1105    0.0000 H   0  0  0  0  0  0  0  0  0  0  0  0
    5.7196    4.7432    0.0000 H   0  0  0  0  0  0  0  0  0  0  0  0
    6.1181    4.0530    0.0000 H   0  0  0  0  0  0  0  0  0  0  0  0
    3.1951   -7.1744    0.0000 H   0  0  0  0  0  0  0  0  0  0  0  0
    4.2690   -7.1744    0.0000 H   0  0  0  0  0  0  0  0  0  0  0  0
    9.7942    5.2556    0.0000 H   0  0  0  0  0  0  0  0  0  0  0  0
    8.3913    2.8256    0.0000 H   0  0  0  0  0  0  0  0  0  0  0  0
    7.7288    6.0318    0.0000 H   0  0  0  0  0  0  0  0  0  0  0  0
   11.1972    4.4456    0.0000 H   0  0  0  0  0  0  0  0  0  0  0  0
    9.7942    2.0156    0.0000 H   0  0  0  0  0  0  0  0  0  0  0  0
    7.1946    7.6760    0.0000 H   0  0  0  0  0  0  0  0  0  0  0  0
    5.4657    7.6760    0.0000 H   0  0  0  0  0  0  0  0  0  0  0  0
   11.1972    2.8256    0.0000 H   0  0  0  0  0  0  0  0  0  0  0  0
  1  4  2  0  0  0  0
  1  5  2  0  0  0  0
  1  7  1  0  0  0  0
  1 18  1  0  0  0  0
  2 31  1  0  0  0  0
  2 38  1  0  0  0  0
  3 16  1  0  0  0  0
  3 60  1  0  0  0  0
  6 26  2  0  0  0  0
 11  7  1  1  0  0  0
  7 13  1  0  0  0  0
  8 21  1  0  0  0  0
  8 26  1  0  0  0  0
  8 63  1  0  0  0  0
  9 26  1  0  0  0  0
  9 28  1  0  0  0  0
  9 29  1  0  0  0  0
 10 27  1  0  0  0  0
 10 70  1  0  0  0  0
 10 71  1  0  0  0  0
 11 12  1  0  0  0  0
 11 16  1  0  0  0  0
 11 40  1  0  0  0  0
 12 14  1  0  0  0  0
 12 41  1  0  0  0  0
 12 42  1  0  0  0  0
 13 15  1  0  0  0  0
 13 43  1  0  0  0  0
 13 44  1  0  0  0  0
 14 17  1  0  0  0  0
 14 45  1  0  0  0  0
 14 46  1  0  0  0  0
 15 19  1  0  0  0  0
 15 20  1  0  0  0  0
 15 47  1  0  0  0  0
 16 48  1  0  0  0  0
 16 49  1  0  0  0  0
 17 21  1  0  0  0  0
 17 50  1  0  0  0  0
 17 51  1  0  0  0  0
 18 22  2  0  0  0  0
 18 23  1  0  0  0  0
 19 52  1  0  0  0  0
 19 53  1  0  0  0  0
 19 54  1  0  0  0  0
 20 55  1  0  0  0  0
 20 56  1  0  0  0  0
 20 57  1  0  0  0  0
 21 58  1  0  0  0  0
 21 59  1  0  0  0  0
 22 24  1  0  0  0  0
 22 61  1  0  0  0  0
 23 25  2  0  0  0  0
 23 62  1  0  0  0  0
 24 27  2  0  0  0  0
 24 64  1  0  0  0  0
 25 27  1  0  0  0  0
 25 65  1  0  0  0  0
 28 30  1  0  0  0  0
 28 66  1  0  0  0  0
 28 67  1  0  0  0  0
 29 31  1  0  0  0  0
 29 68  1  0  0  0  0
 29 69  1  0  0  0  0
 30 32  2  0  0  0  0
 30 33  1  0  0  0  0
 31 34  2  0  0  0  0
 32 35  1  0  0  0  0
 32 72  1  0  0  0  0
 33 36  2  0  0  0  0
 33 73  1  0  0  0  0
 34 37  1  0  0  0  0
 34 74  1  0  0  0  0
 35 39  2  0  0  0  0
 35 75  1  0  0  0  0
 36 39  1  0  0  0  0
 36 76  1  0  0  0  0
 37 38  2  0  0  0  0
 37 77  1  0  0  0  0
 38 78  1  0  0  0  0
 39 79  1  0  0  0  0
M  END
> <PUBCHEM_COMPOUND_CID>
513787
> <PUBCHEM_COMPOUND_CANONICALIZED>
1
> <PUBCHEM_CACTVS_COMPLEXITY>
809
> <PUBCHEM_CACTVS_HBOND_ACCEPTOR>
7
> <PUBCHEM_CACTVS_HBOND_DONOR>
3
> <PUBCHEM_CACTVS_ROTATABLE_BOND>
15
> <PUBCHEM_CACTVS_SUBSKEYS>
AAADcfB7uABgAAAAAAAAAAAAAAAAASAAAAAwYAAAAAAAAAAB0AAAHgQQSAAADSjl2AazwYPAAgqMAiRCUHDDAJAgChBIiJgIZIiKMCKgkZGEYAhslgK4yAeQwAAOAAQAAAAAAAAACAAAAAAAAAAAAAAAAA==
> <PUBCHEM_IUPAC_OPENEYE_NAME>
3-[(5S)-5-[(4-aminophenyl)sulfonyl-isobutyl-amino]-6-hydroxy-hexyl]-1-benzyl-1-(2-thienylmethyl)urea
> <PUBCHEM_IUPAC_CAS_NAME>
3-[(5S)-5-[(4-aminophenyl)sulfonyl-(2-methylpropyl)amino]-6-hydroxyhexyl]-1-(phenylmethyl)-1-(thiophen-2-ylmethyl)urea
> <PUBCHEM_IUPAC_NAME_MARKUP>
3-[(5<I>S</I>)-5-[(4-aminophenyl)sulfonyl-(2-methylpropyl)amino]-6-hydroxyhexyl]-1-benzyl-1-(thiophen-2-ylmethyl)urea
> <PUBCHEM_IUPAC_NAME>
3-[(5S)-5-[(4-aminophenyl)sulfonyl-(2-methylpropyl)amino]-6-hydroxyhexyl]-1-benzyl-1-(thiophen-2-ylmethyl)urea
> <PUBCHEM_IUPAC_SYSTEMATIC_NAME>
3-[(5S)-5-[(4-aminophenyl)sulfonyl-(2-methylpropyl)amino]-6-oxidanyl-hexyl]-1-(phenylmethyl)-1-(thiophen-2-ylmethyl)urea
> <PUBCHEM_IUPAC_TRADITIONAL_NAME>
1-benzyl-3-[(5S)-6-hydroxy-5-[isobutyl(sulfanilyl)amino]hexyl]-1-(2-thenyl)urea
> <PUBCHEM_IUPAC_INCHI>
InChI=1S/C29H40N4O4S2/c1-23(2)19-33(39(36,37)28-15-13-25(30)14-16-28)26(22-34)11-6-7-17-31-29(35)32(21-27-12-8-18-38-27)20-24-9-4-3-5-10-24/h3-5,8-10,12-16,18,23,26,34H,6-7,11,17,19-22,30H2,1-2H3,(H,31,35)/t26-/m0/s1
> <PUBCHEM_IUPAC_INCHIKEY>
BELVCNIPCAQSDE-SANMLTNESA-N
> <PUBCHEM_XLOGP3_AA>
4.2
> <PUBCHEM_EXACT_MASS>
572.24909812
> <PUBCHEM_MOLECULAR_FORMULA>
C29H40N4O4S2
> <PUBCHEM_MOLECULAR_WEIGHT>
572.8
> <PUBCHEM_OPENEYE_CAN_SMILES>
CC(C)CN(C(CCCCNC(=O)N(CC1=CC=CC=C1)CC2=CC=CS2)CO)S(=O)(=O)C3=CC=C(C=C3)N
> <PUBCHEM_OPENEYE_ISO_SMILES>
CC(C)CN([C@@H](CCCCNC(=O)N(CC1=CC=CC=C1)CC2=CC=CS2)CO)S(=O)(=O)C3=CC=C(C=C3)N
> <PUBCHEM_CACTVS_TPSA>
153
> <PUBCHEM_MONOISOTOPIC_WEIGHT>
572.24909812
> <PUBCHEM_TOTAL_CHARGE>
0
> <PUBCHEM_HEAVY_ATOM_COUNT>
39
> <PUBCHEM_ATOM_DEF_STEREO_COUNT>
1
> <PUBCHEM_ATOM_UDEF_STEREO_COUNT>
0
> <PUBCHEM_BOND_DEF_STEREO_COUNT>
0
> <PUBCHEM_BOND_UDEF_STEREO_COUNT>
0
> <PUBCHEM_ISOTOPIC_ATOM_COUNT>
0
> <PUBCHEM_COMPONENT_COUNT>
1
> <PUBCHEM_CACTVS_TAUTO_COUNT>
-1
> <PUBCHEM_COORDINATE_TYPE>
1
5
255
> <PUBCHEM_BONDANNOTATIONS>
18  22  8
18  23  8
2  31  8
2  38  8
22  24  8
23  25  8
24  27  8
25  27  8
30  32  8
30  33  8
31  34  8
32  35  8
33  36  8
34  37  8
35  39  8
36  39  8
37  38  8
11  7  5
$$$$
