513710
  -OEChem-10302200282D
112125  0     1  0  0  0  0  0999 V2000
    6.4184    3.1846    0.0000 O   0  0  0  0  0  0  0  0  0  0  0  0
   11.7572   -5.4117    0.0000 O   0  0  0  0  0  0  0  0  0  0  0  0
    7.5321    5.5846    0.0000 O   0  0  0  0  0  0  0  0  0  0  0  0
   13.7109   -7.1958    0.0000 O   0  0  0  0  0  0  0  0  0  0  0  0
    6.2750    0.5428    0.0000 N   0  3  3  0  0  0  0  0  0  0  0  0
    9.2809   -4.4800    0.0000 N   0  3  0  0  0  0  0  0  0  0  0  0
    7.6754    8.2264    0.0000 N   0  0  0  0  0  0  0  0  0  0  0  0
   16.1872   -8.1275    0.0000 N   0  0  0  0  0  0  0  0  0  0  0  0
    5.5681   -1.6817    0.0000 C   0  0  0  0  0  0  0  0  0  0  0  0
    4.7020   -1.1817    0.0000 C   0  0  0  0  0  0  0  0  0  0  0  0
    6.8163   -0.8538    0.0000 C   0  0  0  0  0  0  0  0  0  0  0  0
    4.7949    0.3132    0.0000 C   0  0  0  0  0  0  0  0  0  0  0  0
    5.5841   -2.7232    0.0000 C   0  0  0  0  0  0  0  0  0  0  0  0
    6.4341   -1.1817    0.0000 C   0  0  0  0  0  0  0  0  0  0  0  0
    3.7920   -1.6885    0.0000 C   0  0  0  0  0  0  0  0  0  0  0  0
    4.7020   -0.1817    0.0000 C   0  0  0  0  0  0  0  0  0  0  0  0
    6.5722   -2.8303    0.0000 C   0  0  0  0  0  0  0  0  0  0  0  0
    7.0520   -1.9600    0.0000 C   0  0  0  0  0  0  0  0  0  0  0  0
    4.6861   -3.2510    0.0000 C   0  0  0  0  0  0  0  0  0  0  0  0
    6.4341   -0.1817    0.0000 C   0  0  0  0  0  0  0  0  0  0  0  0
    3.7840   -2.7301    0.0000 C   0  0  0  0  0  0  0  0  0  0  0  0
    5.5681    0.3183    0.0000 C   0  0  0  0  0  0  0  0  0  0  0  0
    3.2052   -0.8865    0.0000 C   0  0  0  0  0  0  0  0  0  0  0  0
    3.7190   -0.0357    0.0000 C   0  0  0  0  0  0  0  0  0  0  0  0
    7.7535   -3.9418    0.0000 C   0  0  3  0  0  0  0  0  0  0  0  0
    8.3662   -3.1436    0.0000 C   0  0  3  0  0  0  0  0  0  0  0  0
    6.7504   -3.8625    0.0000 C   0  0  0  0  0  0  0  0  0  0  0  0
    7.9528   -1.5655    0.0000 C   0  0  0  0  0  0  0  0  0  0  0  0
    5.9994    1.5040    0.0000 C   0  0  0  0  0  0  0  0  0  0  0  0
    6.7134    1.4416    0.0000 C   0  0  0  0  0  0  0  0  0  0  0  0
    4.9633   -4.2611    0.0000 C   0  0  0  0  0  0  0  0  0  0  0  0
    7.3855    0.0673    0.0000 C   0  0  0  0  0  0  0  0  0  0  0  0
    2.7706   -2.9951    0.0000 C   0  0  0  0  0  0  0  0  0  0  0  0
    5.3080    1.2668    0.0000 C   0  0  0  0  0  0  0  0  0  0  0  0
    8.3220   -4.7648    0.0000 C   0  0  0  0  0  0  0  0  0  0  0  0
    9.3082   -3.4801    0.0000 C   0  0  0  0  0  0  0  0  0  0  0  0
    3.0833   -3.9951    0.0000 C   0  0  0  0  0  0  0  0  0  0  0  0
    7.0928    1.0180    0.0000 C   0  0  0  0  0  0  0  0  0  0  0  0
    5.9676   -4.5586    0.0000 C   0  0  0  0  0  0  0  0  0  0  0  0
    8.1125   -0.5950    0.0000 C   0  0  0  0  0  0  0  0  0  0  0  0
    2.2222   -1.2482    0.0000 C   0  0  0  0  0  0  0  0  0  0  0  0
    3.6103    0.9417    0.0000 C   0  0  0  0  0  0  0  0  0  0  0  0
    2.0107   -2.2741    0.0000 C   0  0  0  0  0  0  0  0  0  0  0  0
    4.3709    1.5652    0.0000 C   0  0  0  0  0  0  0  0  0  0  0  0
    6.6940    2.2234    0.0000 C   0  0  0  0  0  0  0  0  0  0  0  0
   10.2806   -4.5064    0.0000 C   0  0  0  0  0  0  0  0  0  0  0  0
    2.0000    0.3396    0.0000 C   0  0  0  0  0  0  0  0  0  0  0  0
    2.6417    1.0778    0.0000 C   0  0  0  0  0  0  0  0  0  0  0  0
    9.5648   -5.4389    0.0000 C   0  0  0  0  0  0  0  0  0  0  0  0
   10.7576   -5.3853    0.0000 C   0  0  0  0  0  0  0  0  0  0  0  0
    7.1130    3.9040    0.0000 C   0  0  0  0  0  0  0  0  0  0  0  0
    6.8374    4.8652    0.0000 C   0  0  0  0  0  0  0  0  0  0  0  0
   12.2342   -6.2906    0.0000 C   0  0  0  0  0  0  0  0  0  0  0  0
   13.2339   -6.3169    0.0000 C   0  0  0  0  0  0  0  0  0  0  0  0
    7.2564    6.5458    0.0000 C   0  0  0  0  0  0  0  0  0  0  0  0
    7.9511    7.2652    0.0000 C   0  0  0  0  0  0  0  0  0  0  0  0
   14.7105   -7.2222    0.0000 C   0  0  0  0  0  0  0  0  0  0  0  0
   15.1875   -8.1011    0.0000 C   0  0  0  0  0  0  0  0  0  0  0  0
    7.1209   -1.3938    0.0000 H   0  0  0  0  0  0  0  0  0  0  0  0
    7.3768   -0.5888    0.0000 H   0  0  0  0  0  0  0  0  0  0  0  0
    4.7442    0.9311    0.0000 H   0  0  0  0  0  0  0  0  0  0  0  0
    4.1749    0.3071    0.0000 H   0  0  0  0  0  0  0  0  0  0  0  0
    7.4441   -4.4790    0.0000 H   0  0  0  0  0  0  0  0  0  0  0  0
    8.8232   -2.7246    0.0000 H   0  0  0  0  0  0  0  0  0  0  0  0
    5.6349    2.0056    0.0000 H   0  0  0  0  0  0  0  0  0  0  0  0
    5.4421    1.2322    0.0000 H   0  0  0  0  0  0  0  0  0  0  0  0
    7.2706    1.1698    0.0000 H   0  0  0  0  0  0  0  0  0  0  0  0
    6.9852    1.9988    0.0000 H   0  0  0  0  0  0  0  0  0  0  0  0
    6.1561    1.7134    0.0000 H   0  0  0  0  0  0  0  0  0  0  0  0
    7.7777   -5.0616    0.0000 H   0  0  0  0  0  0  0  0  0  0  0  0
    8.5600   -5.3373    0.0000 H   0  0  0  0  0  0  0  0  0  0  0  0
    9.9227   -3.5620    0.0000 H   0  0  0  0  0  0  0  0  0  0  0  0
    9.4542   -2.8776    0.0000 H   0  0  0  0  0  0  0  0  0  0  0  0
    2.4708   -4.0910    0.0000 H   0  0  0  0  0  0  0  0  0  0  0  0
    3.0879   -4.6151    0.0000 H   0  0  0  0  0  0  0  0  0  0  0  0
    7.7056    1.1125    0.0000 H   0  0  0  0  0  0  0  0  0  0  0  0
    7.0883    1.6380    0.0000 H   0  0  0  0  0  0  0  0  0  0  0  0
    6.1026   -5.1638    0.0000 H   0  0  0  0  0  0  0  0  0  0  0  0
    8.6981   -0.3915    0.0000 H   0  0  0  0  0  0  0  0  0  0  0  0
    1.4192   -2.4598    0.0000 H   0  0  0  0  0  0  0  0  0  0  0  0
    4.2543    2.1741    0.0000 H   0  0  0  0  0  0  0  0  0  0  0  0
    7.0584    1.7218    0.0000 H   0  0  0  0  0  0  0  0  0  0  0  0
    7.2513    2.4952    0.0000 H   0  0  0  0  0  0  0  0  0  0  0  0
   10.8686   -4.3098    0.0000 H   0  0  0  0  0  0  0  0  0  0  0  0
   10.1891   -3.8932    0.0000 H   0  0  0  0  0  0  0  0  0  0  0  0
    1.4056    0.5158    0.0000 H   0  0  0  0  0  0  0  0  0  0  0  0
    2.4245    1.6586    0.0000 H   0  0  0  0  0  0  0  0  0  0  0  0
    8.9703   -5.6149    0.0000 H   0  0  0  0  0  0  0  0  0  0  0  0
    9.7407   -6.0334    0.0000 H   0  0  0  0  0  0  0  0  0  0  0  0
   10.1593   -5.2629    0.0000 H   0  0  0  0  0  0  0  0  0  0  0  0
   10.1696   -5.5819    0.0000 H   0  0  0  0  0  0  0  0  0  0  0  0
   10.8491   -5.9985    0.0000 H   0  0  0  0  0  0  0  0  0  0  0  0
    7.4775    3.4024    0.0000 H   0  0  0  0  0  0  0  0  0  0  0  0
    7.6703    4.1758    0.0000 H   0  0  0  0  0  0  0  0  0  0  0  0
    6.4730    5.3668    0.0000 H   0  0  0  0  0  0  0  0  0  0  0  0
    6.2802    4.5934    0.0000 H   0  0  0  0  0  0  0  0  0  0  0  0
   11.6462   -6.4872    0.0000 H   0  0  0  0  0  0  0  0  0  0  0  0
   12.3257   -6.9038    0.0000 H   0  0  0  0  0  0  0  0  0  0  0  0
   13.8219   -6.1203    0.0000 H   0  0  0  0  0  0  0  0  0  0  0  0
   13.1423   -5.7037    0.0000 H   0  0  0  0  0  0  0  0  0  0  0  0
    6.8920    7.0474    0.0000 H   0  0  0  0  0  0  0  0  0  0  0  0
    6.6992    6.2740    0.0000 H   0  0  0  0  0  0  0  0  0  0  0  0
    8.3155    6.7636    0.0000 H   0  0  0  0  0  0  0  0  0  0  0  0
    8.5083    7.5370    0.0000 H   0  0  0  0  0  0  0  0  0  0  0  0
   15.2985   -7.0256    0.0000 H   0  0  0  0  0  0  0  0  0  0  0  0
   14.6190   -6.6090    0.0000 H   0  0  0  0  0  0  0  0  0  0  0  0
   14.5995   -8.2977    0.0000 H   0  0  0  0  0  0  0  0  0  0  0  0
   15.2790   -8.7143    0.0000 H   0  0  0  0  0  0  0  0  0  0  0  0
    8.1061    8.6724    0.0000 H   0  0  0  0  0  0  0  0  0  0  0  0
    7.0739    8.3764    0.0000 H   0  0  0  0  0  0  0  0  0  0  0  0
   16.4829   -8.6724    0.0000 H   0  0  0  0  0  0  0  0  0  0  0  0
   16.5112   -7.5989    0.0000 H   0  0  0  0  0  0  0  0  0  0  0  0
  1 45  1  0  0  0  0
  1 51  1  0  0  0  0
  2 50  1  0  0  0  0
  2 53  1  0  0  0  0
  3 52  1  0  0  0  0
  3 55  1  0  0  0  0
  4 54  1  0  0  0  0
  4 57  1  0  0  0  0
  5 11  1  0  0  0  0
  5 12  1  0  0  0  0
  5 29  1  0  0  0  0
  5 30  1  0  0  0  0
  6 35  1  0  0  0  0
  6 36  1  0  0  0  0
  6 46  1  0  0  0  0
  6 49  1  0  0  0  0
  7 56  1  0  0  0  0
  7109  1  0  0  0  0
  7110  1  0  0  0  0
  8 58  1  0  0  0  0
  8111  1  0  0  0  0
  8112  1  0  0  0  0
  9 10  1  0  0  0  0
  9 11  1  0  0  0  0
  9 13  1  0  0  0  0
  9 14  1  0  0  0  0
 10 12  1  0  0  0  0
 10 15  1  0  0  0  0
 10 16  1  0  0  0  0
 11 59  1  0  0  0  0
 11 60  1  0  0  0  0
 12 61  1  0  0  0  0
 12 62  1  0  0  0  0
 13 17  1  0  0  0  0
 13 19  2  0  0  0  0
 14 18  1  0  0  0  0
 14 20  2  0  0  0  0
 15 21  1  0  0  0  0
 15 23  2  0  0  0  0
 16 22  1  0  0  0  0
 16 24  2  0  0  0  0
 17 18  1  0  0  0  0
 17 27  2  0  0  0  0
 18 28  2  0  0  0  0
 19 21  1  0  0  0  0
 19 31  1  0  0  0  0
 20 22  1  0  0  0  0
 20 32  1  0  0  0  0
 21 33  2  0  0  0  0
 22 34  2  0  0  0  0
 23 24  1  0  0  0  0
 23 41  1  0  0  0  0
 24 42  1  0  0  0  0
 25 26  1  0  0  0  0
 25 27  1  0  0  0  0
 25 35  1  0  0  0  0
 25 63  1  0  0  0  0
 26 28  1  0  0  0  0
 26 36  1  0  0  0  0
 26 64  1  0  0  0  0
 27 39  1  0  0  0  0
 28 40  1  0  0  0  0
 29 45  1  0  0  0  0
 29 65  1  0  0  0  0
 29 66  1  0  0  0  0
 30 67  1  0  0  0  0
 30 68  1  0  0  0  0
 30 69  1  0  0  0  0
 31 37  1  0  0  0  0
 31 39  2  0  0  0  0
 32 38  1  0  0  0  0
 32 40  2  0  0  0  0
 33 37  1  0  0  0  0
 33 43  1  0  0  0  0
 34 38  1  0  0  0  0
 34 44  1  0  0  0  0
 35 70  1  0  0  0  0
 35 71  1  0  0  0  0
 36 72  1  0  0  0  0
 36 73  1  0  0  0  0
 37 74  1  0  0  0  0
 37 75  1  0  0  0  0
 38 76  1  0  0  0  0
 38 77  1  0  0  0  0
 39 78  1  0  0  0  0
 40 79  1  0  0  0  0
 41 43  2  0  0  0  0
 41 47  1  0  0  0  0
 42 44  2  0  0  0  0
 42 48  1  0  0  0  0
 43 80  1  0  0  0  0
 44 81  1  0  0  0  0
 45 82  1  0  0  0  0
 45 83  1  0  0  0  0
 46 50  1  0  0  0  0
 46 84  1  0  0  0  0
 46 85  1  0  0  0  0
 47 48  2  0  0  0  0
 47 86  1  0  0  0  0
 48 87  1  0  0  0  0
 49 88  1  0  0  0  0
 49 89  1  0  0  0  0
 49 90  1  0  0  0  0
 50 91  1  0  0  0  0
 50 92  1  0  0  0  0
 51 52  1  0  0  0  0
 51 93  1  0  0  0  0
 51 94  1  0  0  0  0
 52 95  1  0  0  0  0
 52 96  1  0  0  0  0
 53 54  1  0  0  0  0
 53 97  1  0  0  0  0
 53 98  1  0  0  0  0
 54 99  1  0  0  0  0
 54100  1  0  0  0  0
 55 56  1  0  0  0  0
 55101  1  0  0  0  0
 55102  1  0  0  0  0
 56103  1  0  0  0  0
 56104  1  0  0  0  0
 57 58  1  0  0  0  0
 57105  1  0  0  0  0
 57106  1  0  0  0  0
 58107  1  0  0  0  0
 58108  1  0  0  0  0
M  CHG  2   5   1   6   1
M  END
> <PUBCHEM_COMPOUND_CID>
513710
> <PUBCHEM_COMPOUND_CANONICALIZED>
1
> <PUBCHEM_CACTVS_COMPLEXITY>
1580
> <PUBCHEM_CACTVS_HBOND_ACCEPTOR>
6
> <PUBCHEM_CACTVS_HBOND_DONOR>
2
> <PUBCHEM_CACTVS_ROTATABLE_BOND>
16
> <PUBCHEM_CACTVS_SUBSKEYS>
AAADcfB/uAAAAAAAAAAAAAAAAAAAAePGDBAwYMGDAAAAAHjBVAAAHgAQAAAADwDhmAYyAMNABACAAiBCAAACAAAgAAAIiIAIAIgLICKAkRGHIAAgkACaiAcQgMAPwAACAAAQAACAAAQAACAAAQAACAAAAA==
> <PUBCHEM_IUPAC_OPENEYE_NAME>
2-[2-[2-[25-[2-[2-(2-aminoethoxy)ethoxy]ethyl]-4,25-dimethyl-4,25-diazoniatetradecacyclo[18.16.1.118,21.02,6.07,35.09,33.011,32.013,30.016,29.022,36.023,27.023,34.027,31.028,38]octatriaconta-1(36),7(35),8,11(32),12,14,16,18(38),20(37),21,28,30,33-tridecaen-4-yl]ethoxy]ethoxy]ethanamine
> <PUBCHEM_IUPAC_CAS_NAME>
2-[2-[2-[25-[2-[2-(2-aminoethoxy)ethoxy]ethyl]-4,25-dimethyl-4,25-diazoniatetradecacyclo[18.16.1.118,21.02,6.07,35.09,33.011,32.013,30.016,29.022,36.023,27.023,34.027,31.028,38]octatriaconta-1(36),7(35),8,11(32),12,14,16,18(38),20(37),21,28,30,33-tridecaen-4-yl]ethoxy]ethoxy]ethanamine
> <PUBCHEM_IUPAC_NAME_MARKUP>
2-[2-[2-[25-[2-[2-(2-aminoethoxy)ethoxy]ethyl]-4,25-dimethyl-4,25-diazoniatetradecacyclo[18.16.1.1<SUP>18,21</SUP>.0<SUP>2,6</SUP>.0<SUP>7,35</SUP>.0<SUP>9,33</SUP>.0<SUP>11,32</SUP>.0<SUP>13,30</SUP>.0<SUP>16,29</SUP>.0<SUP>22,36</SUP>.0<SUP>23,27</SUP>.0<SUP>23,34</SUP>.0<SUP>27,31</SUP>.0<SUP>28,38</SUP>]octatriaconta-1(36),7(35),8,11(32),12,14,16,18(38),20(37),21,28,30,33-tridecaen-4-yl]ethoxy]ethoxy]ethanamine
> <PUBCHEM_IUPAC_NAME>
2-[2-[2-[25-[2-[2-(2-aminoethoxy)ethoxy]ethyl]-4,25-dimethyl-4,25-diazoniatetradecacyclo[18.16.1.118,21.02,6.07,35.09,33.011,32.013,30.016,29.022,36.023,27.023,34.027,31.028,38]octatriaconta-1(36),7(35),8,11(32),12,14,16,18(38),20(37),21,28,30,33-tridecaen-4-yl]ethoxy]ethoxy]ethanamine
> <PUBCHEM_IUPAC_SYSTEMATIC_NAME>
2-[2-[2-[25-[2-[2-(2-azanylethoxy)ethoxy]ethyl]-4,25-dimethyl-4,25-diazoniatetradecacyclo[18.16.1.118,21.02,6.07,35.09,33.011,32.013,30.016,29.022,36.023,27.023,34.027,31.028,38]octatriaconta-1(36),7(35),8,11(32),12,14,16,18(38),20(37),21,28,30,33-tridecaen-4-yl]ethoxy]ethoxy]ethanamine
> <PUBCHEM_IUPAC_TRADITIONAL_NAME>
2-[2-[2-[4-[2-[2-(2-aminoethoxy)ethoxy]ethyl]-4,25-dimethyl-4,25-diazoniatetradecacyclo[18.16.1.118,21.02,6.07,35.09,33.011,32.013,30.016,29.022,36.023,27.023,34.027,31.028,38]octatriaconta-1(36),7(35),8,11(32),12,14,16,18(38),20(37),21,28,30,33-tridecaen-25-yl]ethoxy]ethoxy]ethylamine
> <PUBCHEM_IUPAC_INCHI>
InChI=1S/C50H54N4O4/c1-53(7-11-57-15-13-55-9-5-51)23-35-33-21-31-19-29-17-27-3-4-28-18-30-20-32-22-34(36(35)24-53)44-43(33)47-41(31)39(29)45-37(27)38(28)46-40(30)42(32)48(44)50(47)26-54(2,25-49(45,46)50)8-12-58-16-14-56-10-6-52/h3-4,17-18,21-22,35-36H,5-16,19-20,23-26,51-52H2,1-2H3/q+2
> <PUBCHEM_IUPAC_INCHIKEY>
PSRKRMXXPRUUNG-UHFFFAOYSA-N
> <PUBCHEM_XLOGP3_AA>
3.8
> <PUBCHEM_EXACT_MASS>
774.41450622
> <PUBCHEM_MOLECULAR_FORMULA>
C50H54N4O4+2
> <PUBCHEM_MOLECULAR_WEIGHT>
775.0
> <PUBCHEM_OPENEYE_CAN_SMILES>
C[N+]1(CC2C(C1)C3=C4C5=C2C=C6CC7=C8C6=C5C91C4=C2C(=C3)CC3=C2C2=C4C(=C3)C=CC(=C7)C4=C8C29C[N+](C1)(C)CCOCCOCCN)CCOCCOCCN
> <PUBCHEM_OPENEYE_ISO_SMILES>
C[N+]1(CC2C(C1)C3=C4C5=C2C=C6CC7=C8C6=C5C91C4=C2C(=C3)CC3=C2C2=C4C(=C3)C=CC(=C7)C4=C8C29C[N+](C1)(C)CCOCCOCCN)CCOCCOCCN
> <PUBCHEM_CACTVS_TPSA>
89
> <PUBCHEM_MONOISOTOPIC_WEIGHT>
774.41450622
> <PUBCHEM_TOTAL_CHARGE>
2
> <PUBCHEM_HEAVY_ATOM_COUNT>
58
> <PUBCHEM_ATOM_DEF_STEREO_COUNT>
0
> <PUBCHEM_ATOM_UDEF_STEREO_COUNT>
3
> <PUBCHEM_BOND_DEF_STEREO_COUNT>
0
> <PUBCHEM_BOND_UDEF_STEREO_COUNT>
0
> <PUBCHEM_ISOTOPIC_ATOM_COUNT>
0
> <PUBCHEM_COMPONENT_COUNT>
1
> <PUBCHEM_CACTVS_TAUTO_COUNT>
-1
> <PUBCHEM_COORDINATE_TYPE>
1
5
255
> <PUBCHEM_BONDANNOTATIONS>
13  17  8
13  19  8
14  18  8
14  20  8
15  21  8
15  23  8
16  22  8
16  24  8
17  18  8
17  27  8
18  28  8
19  21  8
19  31  8
20  22  8
20  32  8
21  33  8
22  34  8
23  24  8
23  41  8
24  42  8
25  35  3
26  36  3
27  39  8
28  40  8
31  39  8
32  40  8
33  43  8
34  44  8
41  43  8
41  47  8
42  44  8
42  48  8
47  48  8
5  30  3
$$$$
