513776
  -OEChem-10302200282D
 79 81  0     1  0  0  0  0  0999 V2000
   12.4133    3.8625    0.0000 S   0  0  0  0  0  0  0  0  0  0  0  0
   11.4813    1.0110    0.0000 O   0  0  0  0  0  0  0  0  0  0  0  0
   12.2071    4.8410    0.0000 O   0  0  0  0  0  0  0  0  0  0  0  0
   12.6195    2.8840    0.0000 O   0  0  0  0  0  0  0  0  0  0  0  0
    7.9244   -1.5088    0.0000 O   0  0  0  0  0  0  0  0  0  0  0  0
    7.6138   -2.4593    0.0000 O   0  0  0  0  0  0  0  0  0  0  0  0
    6.3246   -3.6160    0.0000 O   0  0  0  0  0  0  0  0  0  0  0  0
   11.4348    3.6563    0.0000 N   0  0  3  0  0  0  0  0  0  0  0  0
    7.5673    0.1861    0.0000 N   0  0  0  0  0  0  0  0  0  0  0  0
    6.2781   -0.9707    0.0000 N   0  0  0  0  0  0  0  0  0  0  0  0
    4.6783   -4.6874    0.0000 N   0  0  0  0  0  0  0  0  0  0  0  0
   16.3273    4.6874    0.0000 N   0  0  0  0  0  0  0  0  0  0  0  0
   11.1241    2.7058    0.0000 C   0  0  1  0  0  0  0  0  0  0  0  0
   10.1456    2.4996    0.0000 C   0  0  0  0  0  0  0  0  0  0  0  0
   10.7669    4.4006    0.0000 C   0  0  0  0  0  0  0  0  0  0  0  0
    9.8349    1.5490    0.0000 C   0  0  0  0  0  0  0  0  0  0  0  0
    9.7884    4.1944    0.0000 C   0  0  0  0  0  0  0  0  0  0  0  0
   11.7920    1.9615    0.0000 C   0  0  0  0  0  0  0  0  0  0  0  0
    8.8564    1.3428    0.0000 C   0  0  0  0  0  0  0  0  0  0  0  0
   13.3918    4.0687    0.0000 C   0  0  0  0  0  0  0  0  0  0  0  0
    9.1206    4.9387    0.0000 C   0  0  0  0  0  0  0  0  0  0  0  0
    9.4778    3.2439    0.0000 C   0  0  0  0  0  0  0  0  0  0  0  0
    8.5458    0.3923    0.0000 C   0  0  0  0  0  0  0  0  0  0  0  0
   13.7024    5.0193    0.0000 C   0  0  0  0  0  0  0  0  0  0  0  0
   14.0596    3.3244    0.0000 C   0  0  0  0  0  0  0  0  0  0  0  0
    5.9674   -1.9212    0.0000 C   0  0  1  0  0  0  0  0  0  0  0  0
    4.9889   -2.1274    0.0000 C   0  0  0  0  0  0  0  0  0  0  0  0
   14.6810    5.2255    0.0000 C   0  0  0  0  0  0  0  0  0  0  0  0
   15.0381    3.5306    0.0000 C   0  0  0  0  0  0  0  0  0  0  0  0
    7.2566   -0.7644    0.0000 C   0  0  0  0  0  0  0  0  0  0  0  0
    4.6783   -3.0779    0.0000 C   0  0  0  0  0  0  0  0  0  0  0  0
   15.3488    4.4812    0.0000 C   0  0  0  0  0  0  0  0  0  0  0  0
    3.7320   -3.3826    0.0000 C   0  0  0  0  0  0  0  0  0  0  0  0
    3.7320   -4.3826    0.0000 C   0  0  0  0  0  0  0  0  0  0  0  0
    5.2619   -3.8826    0.0000 C   0  0  0  0  0  0  0  0  0  0  0  0
    6.6353   -2.6655    0.0000 C   0  0  0  0  0  0  0  0  0  0  0  0
    2.8660   -2.8826    0.0000 C   0  0  0  0  0  0  0  0  0  0  0  0
    2.8660   -4.8826    0.0000 C   0  0  0  0  0  0  0  0  0  0  0  0
    2.0000   -3.3826    0.0000 C   0  0  0  0  0  0  0  0  0  0  0  0
    2.0000   -4.3826    0.0000 C   0  0  0  0  0  0  0  0  0  0  0  0
   11.7308    2.8336    0.0000 H   0  0  0  0  0  0  0  0  0  0  0  0
   10.1250    3.1192    0.0000 H   0  0  0  0  0  0  0  0  0  0  0  0
    9.5318    2.5869    0.0000 H   0  0  0  0  0  0  0  0  0  0  0  0
   11.2933    4.7282    0.0000 H   0  0  0  0  0  0  0  0  0  0  0  0
   10.5357    4.9758    0.0000 H   0  0  0  0  0  0  0  0  0  0  0  0
    9.8555    0.9294    0.0000 H   0  0  0  0  0  0  0  0  0  0  0  0
   10.4488    1.4617    0.0000 H   0  0  0  0  0  0  0  0  0  0  0  0
    9.9810    4.7837    0.0000 H   0  0  0  0  0  0  0  0  0  0  0  0
   12.3389    1.6694    0.0000 H   0  0  0  0  0  0  0  0  0  0  0  0
   12.1745    2.4494    0.0000 H   0  0  0  0  0  0  0  0  0  0  0  0
    8.8359    1.9625    0.0000 H   0  0  0  0  0  0  0  0  0  0  0  0
    8.2426    1.4302    0.0000 H   0  0  0  0  0  0  0  0  0  0  0  0
    9.5820    5.3527    0.0000 H   0  0  0  0  0  0  0  0  0  0  0  0
    8.7065    5.4001    0.0000 H   0  0  0  0  0  0  0  0  0  0  0  0
    8.6591    4.5246    0.0000 H   0  0  0  0  0  0  0  0  0  0  0  0
    8.8884    3.4365    0.0000 H   0  0  0  0  0  0  0  0  0  0  0  0
    9.2852    2.6545    0.0000 H   0  0  0  0  0  0  0  0  0  0  0  0
   10.0671    3.0512    0.0000 H   0  0  0  0  0  0  0  0  0  0  0  0
    8.5663   -0.2274    0.0000 H   0  0  0  0  0  0  0  0  0  0  0  0
    9.1596    0.3049    0.0000 H   0  0  0  0  0  0  0  0  0  0  0  0
   11.8954    0.5495    0.0000 H   0  0  0  0  0  0  0  0  0  0  0  0
   13.2884    5.4807    0.0000 H   0  0  0  0  0  0  0  0  0  0  0  0
   13.8670    2.7351    0.0000 H   0  0  0  0  0  0  0  0  0  0  0  0
    7.1532    0.6475    0.0000 H   0  0  0  0  0  0  0  0  0  0  0  0
    5.5534   -1.4597    0.0000 H   0  0  0  0  0  0  0  0  0  0  0  0
    4.9684   -1.5077    0.0000 H   0  0  0  0  0  0  0  0  0  0  0  0
    4.3751   -2.0400    0.0000 H   0  0  0  0  0  0  0  0  0  0  0  0
   14.8736    5.8148    0.0000 H   0  0  0  0  0  0  0  0  0  0  0  0
   15.4522    3.0692    0.0000 H   0  0  0  0  0  0  0  0  0  0  0  0
    5.8640   -0.5092    0.0000 H   0  0  0  0  0  0  0  0  0  0  0  0
    5.8819   -3.8826    0.0000 H   0  0  0  0  0  0  0  0  0  0  0  0
    4.8709   -5.2767    0.0000 H   0  0  0  0  0  0  0  0  0  0  0  0
    2.8660   -2.2626    0.0000 H   0  0  0  0  0  0  0  0  0  0  0  0
    2.8660   -5.5026    0.0000 H   0  0  0  0  0  0  0  0  0  0  0  0
   16.5199    5.2767    0.0000 H   0  0  0  0  0  0  0  0  0  0  0  0
   16.7414    4.2259    0.0000 H   0  0  0  0  0  0  0  0  0  0  0  0
    1.4631   -3.0726    0.0000 H   0  0  0  0  0  0  0  0  0  0  0  0
    1.4631   -4.6927    0.0000 H   0  0  0  0  0  0  0  0  0  0  0  0
    8.0279   -2.9207    0.0000 H   0  0  0  0  0  0  0  0  0  0  0  0
  1  3  2  0  0  0  0
  1  4  2  0  0  0  0
  1  8  1  0  0  0  0
  1 20  1  0  0  0  0
  2 18  1  0  0  0  0
  2 61  1  0  0  0  0
  5 30  2  0  0  0  0
  6 36  1  0  0  0  0
  6 79  1  0  0  0  0
  7 36  2  0  0  0  0
 13  8  1  6  0  0  0
  8 15  1  0  0  0  0
  9 23  1  0  0  0  0
  9 30  1  0  0  0  0
  9 64  1  0  0  0  0
 26 10  1  6  0  0  0
 10 30  1  0  0  0  0
 10 70  1  0  0  0  0
 11 34  1  0  0  0  0
 11 35  1  0  0  0  0
 11 72  1  0  0  0  0
 12 32  1  0  0  0  0
 12 75  1  0  0  0  0
 12 76  1  0  0  0  0
 13 14  1  0  0  0  0
 13 18  1  0  0  0  0
 13 41  1  0  0  0  0
 14 16  1  0  0  0  0
 14 42  1  0  0  0  0
 14 43  1  0  0  0  0
 15 17  1  0  0  0  0
 15 44  1  0  0  0  0
 15 45  1  0  0  0  0
 16 19  1  0  0  0  0
 16 46  1  0  0  0  0
 16 47  1  0  0  0  0
 17 21  1  0  0  0  0
 17 22  1  0  0  0  0
 17 48  1  0  0  0  0
 18 49  1  0  0  0  0
 18 50  1  0  0  0  0
 19 23  1  0  0  0  0
 19 51  1  0  0  0  0
 19 52  1  0  0  0  0
 20 24  2  0  0  0  0
 20 25  1  0  0  0  0
 21 53  1  0  0  0  0
 21 54  1  0  0  0  0
 21 55  1  0  0  0  0
 22 56  1  0  0  0  0
 22 57  1  0  0  0  0
 22 58  1  0  0  0  0
 23 59  1  0  0  0  0
 23 60  1  0  0  0  0
 24 28  1  0  0  0  0
 24 62  1  0  0  0  0
 25 29  2  0  0  0  0
 25 63  1  0  0  0  0
 26 27  1  0  0  0  0
 26 36  1  0  0  0  0
 26 65  1  0  0  0  0
 27 31  1  0  0  0  0
 27 66  1  0  0  0  0
 27 67  1  0  0  0  0
 28 32  2  0  0  0  0
 28 68  1  0  0  0  0
 29 32  1  0  0  0  0
 29 69  1  0  0  0  0
 31 33  1  0  0  0  0
 31 35  2  0  0  0  0
 33 34  1  0  0  0  0
 33 37  2  0  0  0  0
 34 38  2  0  0  0  0
 35 71  1  0  0  0  0
 37 39  1  0  0  0  0
 37 73  1  0  0  0  0
 38 40  1  0  0  0  0
 38 74  1  0  0  0  0
 39 40  2  0  0  0  0
 39 77  1  0  0  0  0
 40 78  1  0  0  0  0
M  END
> <PUBCHEM_COMPOUND_CID>
513776
> <PUBCHEM_COMPOUND_CANONICALIZED>
1
> <PUBCHEM_CACTVS_COMPLEXITY>
905
> <PUBCHEM_CACTVS_HBOND_ACCEPTOR>
8
> <PUBCHEM_CACTVS_HBOND_DONOR>
6
> <PUBCHEM_CACTVS_ROTATABLE_BOND>
15
> <PUBCHEM_CACTVS_SUBSKEYS>
AAADcfB7uABAAAAAAAAAAAAAAAAAAWAAAAAwYAAAAAAAAFgB9AAAHgQQSAAADSjh3gY/yfLJkgKoAzT3XHDCgDAxAiAI2bm4ZJiKMPLAkbGEYAhslgLYyAeY2fKOgAQAAAACAAAACAAAAAQAAAAAAAAAAA==
> <PUBCHEM_IUPAC_OPENEYE_NAME>
(2S)-2-[[(5S)-5-[(4-aminophenyl)sulfonyl-isobutyl-amino]-6-hydroxy-hexyl]carbamoylamino]-3-(1H-indol-3-yl)propanoic acid
> <PUBCHEM_IUPAC_CAS_NAME>
(2S)-2-[[[[(5S)-5-[(4-aminophenyl)sulfonyl-(2-methylpropyl)amino]-6-hydroxyhexyl]amino]-oxomethyl]amino]-3-(1H-indol-3-yl)propanoic acid
> <PUBCHEM_IUPAC_NAME_MARKUP>
(2<I>S</I>)-2-[[(5<I>S</I>)-5-[(4-aminophenyl)sulfonyl-(2-methylpropyl)amino]-6-hydroxyhexyl]carbamoylamino]-3-(1<I>H</I>-indol-3-yl)propanoic acid
> <PUBCHEM_IUPAC_NAME>
(2S)-2-[[(5S)-5-[(4-aminophenyl)sulfonyl-(2-methylpropyl)amino]-6-hydroxyhexyl]carbamoylamino]-3-(1H-indol-3-yl)propanoic acid
> <PUBCHEM_IUPAC_SYSTEMATIC_NAME>
(2S)-2-[[(5S)-5-[(4-aminophenyl)sulfonyl-(2-methylpropyl)amino]-6-oxidanyl-hexyl]carbamoylamino]-3-(1H-indol-3-yl)propanoic acid
> <PUBCHEM_IUPAC_TRADITIONAL_NAME>
(2S)-2-[[(5S)-6-hydroxy-5-[isobutyl(sulfanilyl)amino]hexyl]carbamoylamino]-3-(1H-indol-3-yl)propionic acid
> <PUBCHEM_IUPAC_INCHI>
InChI=1S/C28H39N5O6S/c1-19(2)17-33(40(38,39)23-12-10-21(29)11-13-23)22(18-34)7-5-6-14-30-28(37)32-26(27(35)36)15-20-16-31-25-9-4-3-8-24(20)25/h3-4,8-13,16,19,22,26,31,34H,5-7,14-15,17-18,29H2,1-2H3,(H,35,36)(H2,30,32,37)/t22-,26-/m0/s1
> <PUBCHEM_IUPAC_INCHIKEY>
OJSDWHRUDLTCNX-NVQXNPDNSA-N
> <PUBCHEM_XLOGP3_AA>
3
> <PUBCHEM_EXACT_MASS>
573.26210515
> <PUBCHEM_MOLECULAR_FORMULA>
C28H39N5O6S
> <PUBCHEM_MOLECULAR_WEIGHT>
573.7
> <PUBCHEM_OPENEYE_CAN_SMILES>
CC(C)CN(C(CCCCNC(=O)NC(CC1=CNC2=CC=CC=C21)C(=O)O)CO)S(=O)(=O)C3=CC=C(C=C3)N
> <PUBCHEM_OPENEYE_ISO_SMILES>
CC(C)CN([C@@H](CCCCNC(=O)N[C@@H](CC1=CNC2=CC=CC=C21)C(=O)O)CO)S(=O)(=O)C3=CC=C(C=C3)N
> <PUBCHEM_CACTVS_TPSA>
186
> <PUBCHEM_MONOISOTOPIC_WEIGHT>
573.26210515
> <PUBCHEM_TOTAL_CHARGE>
0
> <PUBCHEM_HEAVY_ATOM_COUNT>
40
> <PUBCHEM_ATOM_DEF_STEREO_COUNT>
2
> <PUBCHEM_ATOM_UDEF_STEREO_COUNT>
0
> <PUBCHEM_BOND_DEF_STEREO_COUNT>
0
> <PUBCHEM_BOND_UDEF_STEREO_COUNT>
0
> <PUBCHEM_ISOTOPIC_ATOM_COUNT>
0
> <PUBCHEM_COMPONENT_COUNT>
1
> <PUBCHEM_CACTVS_TAUTO_COUNT>
-1
> <PUBCHEM_COORDINATE_TYPE>
1
5
255
> <PUBCHEM_BONDANNOTATIONS>
26  10  6
11  34  8
11  35  8
20  24  8
20  25  8
24  28  8
25  29  8
28  32  8
29  32  8
31  33  8
31  35  8
33  34  8
33  37  8
34  38  8
37  39  8
38  40  8
39  40  8
13  8  6
$$$$
