513711
  -OEChem-10302200282D
131144  0     1  0  0  0  0  0999 V2000
    6.9902    4.9052    0.0000 O   0  0  0  0  0  0  0  0  0  0  0  0
    5.2900    5.2356    0.0000 O   0  0  0  0  0  0  0  0  0  0  0  0
    7.5543    3.2676    0.0000 O   0  0  0  0  0  0  0  0  0  0  0  0
    4.1537    3.9283    0.0000 O   0  0  0  0  0  0  0  0  0  0  0  0
    4.8216   -7.6885    0.0000 O   0  0  0  0  0  0  0  0  0  0  0  0
    9.0719    6.5382    0.0000 O   0  0  0  0  0  0  0  0  0  0  0  0
    3.9712    7.5292    0.0000 O   0  0  0  0  0  0  0  0  0  0  0  0
    5.3015  -10.2903    0.0000 O   0  0  0  0  0  0  0  0  0  0  0  0
   10.3989    8.8271    0.0000 O   0  0  0  0  0  0  0  0  0  0  0  0
    3.5979   10.1485    0.0000 O   0  0  0  0  0  0  0  0  0  0  0  0
   12.4806   10.4600    0.0000 O   0  0  0  0  0  0  0  0  0  0  0  0
    2.2791   12.4421    0.0000 O   0  0  0  0  0  0  0  0  0  0  0  0
    5.3416   -5.0943    0.0000 N   0  0  3  0  0  0  0  0  0  0  0  0
    4.7815  -12.8845    0.0000 N   0  0  0  0  0  0  0  0  0  0  0  0
    6.1724    2.6726    0.0000 C   0  0  3  0  0  0  0  0  0  0  0  0
    5.2122    2.8592    0.0000 C   0  0  3  0  0  0  0  0  0  0  0  0
    6.0958   -2.7830    0.0000 C   0  0  3  0  0  0  0  0  0  0  0  0
    5.8540    3.5979    0.0000 C   0  0  0  0  0  0  0  0  0  0  0  0
    6.9938   -3.3108    0.0000 C   0  0  3  0  0  0  0  0  0  0  0  0
    6.1118   -1.7415    0.0000 C   0  0  0  0  0  0  0  0  0  0  0  0
    6.5389    1.7657    0.0000 C   0  0  0  0  0  0  0  0  0  0  0  0
    3.9483    1.8728    0.0000 C   0  0  0  0  0  0  0  0  0  0  0  0
    4.7531   -2.6854    0.0000 C   0  0  0  0  0  0  0  0  0  0  0  0
    5.2458   -1.2415    0.0000 C   0  0  0  0  0  0  0  0  0  0  0  0
    5.7467    1.1828    0.0000 C   0  0  0  0  0  0  0  0  0  0  0  0
    4.7531    1.2024    0.0000 C   0  0  0  0  0  0  0  0  0  0  0  0
    5.2458   -0.2415    0.0000 C   0  0  0  0  0  0  0  0  0  0  0  0
    6.1118    0.2585    0.0000 C   0  0  0  0  0  0  0  0  0  0  0  0
    4.7890   -3.6353    0.0000 C   0  0  0  0  0  0  0  0  0  0  0  0
    4.3519   -1.7762    0.0000 C   0  0  0  0  0  0  0  0  0  0  0  0
    6.9779   -1.2415    0.0000 C   0  0  0  0  0  0  0  0  0  0  0  0
    4.3519    0.2932    0.0000 C   0  0  0  0  0  0  0  0  0  0  0  0
    6.9779   -0.2415    0.0000 C   0  0  0  0  0  0  0  0  0  0  0  0
    6.8851   -4.8671    0.0000 C   0  0  0  0  0  0  0  0  0  0  0  0
    7.8879   -1.7483    0.0000 C   0  0  0  0  0  0  0  0  0  0  0  0
    3.4458   -0.2207    0.0000 C   0  0  0  0  0  0  0  0  0  0  0  0
    3.4458   -1.2623    0.0000 C   0  0  0  0  0  0  0  0  0  0  0  0
    7.8959   -2.7899    0.0000 C   0  0  0  0  0  0  0  0  0  0  0  0
    7.6692    0.4580    0.0000 C   0  0  0  0  0  0  0  0  0  0  0  0
    7.4591    1.4187    0.0000 C   0  0  0  0  0  0  0  0  0  0  0  0
    3.9483   -3.3558    0.0000 C   0  0  0  0  0  0  0  0  0  0  0  0
    6.4989   -4.2154    0.0000 C   0  0  0  0  0  0  0  0  0  0  0  0
    8.4747   -0.9463    0.0000 C   0  0  0  0  0  0  0  0  0  0  0  0
    2.7096    0.5245    0.0000 C   0  0  0  0  0  0  0  0  0  0  0  0
    2.9541    1.5430    0.0000 C   0  0  0  0  0  0  0  0  0  0  0  0
    6.7995    3.9236    0.0000 C   0  0  0  0  0  0  0  0  0  0  0  0
    5.0992    4.2539    0.0000 C   0  0  0  0  0  0  0  0  0  0  0  0
    2.7096   -2.0075    0.0000 C   0  0  0  0  0  0  0  0  0  0  0  0
    2.0000   -0.2464    0.0000 C   0  0  0  0  0  0  0  0  0  0  0  0
    5.4835   -4.3952    0.0000 C   0  0  0  0  0  0  0  0  0  0  0  0
    2.9541   -3.0260    0.0000 C   0  0  0  0  0  0  0  0  0  0  0  0
    4.8349   -5.9565    0.0000 C   0  0  0  0  0  0  0  0  0  0  0  0
    5.3282   -6.8263    0.0000 C   0  0  0  0  0  0  0  0  0  0  0  0
    7.9357    5.2309    0.0000 C   0  0  0  0  0  0  0  0  0  0  0  0
    4.5352    5.8916    0.0000 C   0  0  0  0  0  0  0  0  0  0  0  0
    8.1264    6.2125    0.0000 C   0  0  0  0  0  0  0  0  0  0  0  0
    4.7259    6.8732    0.0000 C   0  0  0  0  0  0  0  0  0  0  0  0
    5.3149   -8.5583    0.0000 C   0  0  0  0  0  0  0  0  0  0  0  0
    4.8082   -9.4205    0.0000 C   0  0  0  0  0  0  0  0  0  0  0  0
    9.2627    7.5198    0.0000 C   0  0  0  0  0  0  0  0  0  0  0  0
    4.1619    8.5108    0.0000 C   0  0  0  0  0  0  0  0  0  0  0  0
   10.2082    7.8454    0.0000 C   0  0  0  0  0  0  0  0  0  0  0  0
    3.4071    9.1668    0.0000 C   0  0  0  0  0  0  0  0  0  0  0  0
    4.7949  -11.1525    0.0000 C   0  0  0  0  0  0  0  0  0  0  0  0
    5.2882  -12.0223    0.0000 C   0  0  0  0  0  0  0  0  0  0  0  0
   11.3444    9.1527    0.0000 C   0  0  0  0  0  0  0  0  0  0  0  0
    2.8431   10.8045    0.0000 C   0  0  0  0  0  0  0  0  0  0  0  0
   11.5351   10.1344    0.0000 C   0  0  0  0  0  0  0  0  0  0  0  0
    3.0338   11.7861    0.0000 C   0  0  0  0  0  0  0  0  0  0  0  0
   12.6713   11.4417    0.0000 C   0  0  0  0  0  0  0  0  0  0  0  0
    2.4698   13.4238    0.0000 C   0  0  0  0  0  0  0  0  0  0  0  0
    6.7532    2.8897    0.0000 H   0  0  0  0  0  0  0  0  0  0  0  0
    4.7855    3.3089    0.0000 H   0  0  0  0  0  0  0  0  0  0  0  0
    4.4885   -3.0930    0.0000 H   0  0  0  0  0  0  0  0  0  0  0  0
    4.2265   -3.8960    0.0000 H   0  0  0  0  0  0  0  0  0  0  0  0
    6.9311   -5.4854    0.0000 H   0  0  0  0  0  0  0  0  0  0  0  0
    7.5051   -4.8657    0.0000 H   0  0  0  0  0  0  0  0  0  0  0  0
    8.4340   -3.0979    0.0000 H   0  0  0  0  0  0  0  0  0  0  0  0
    7.9282    1.8242    0.0000 H   0  0  0  0  0  0  0  0  0  0  0  0
    6.8605   -4.7190    0.0000 H   0  0  0  0  0  0  0  0  0  0  0  0
    8.9193   -1.3783    0.0000 H   0  0  0  0  0  0  0  0  0  0  0  0
    8.9644   -0.5660    0.0000 H   0  0  0  0  0  0  0  0  0  0  0  0
    2.4975    1.9625    0.0000 H   0  0  0  0  0  0  0  0  0  0  0  0
    1.6107    0.2362    0.0000 H   0  0  0  0  0  0  0  0  0  0  0  0
    1.4654   -0.5603    0.0000 H   0  0  0  0  0  0  0  0  0  0  0  0
    5.3543   -5.0016    0.0000 H   0  0  0  0  0  0  0  0  0  0  0  0
    2.4975   -3.4454    0.0000 H   0  0  0  0  0  0  0  0  0  0  0  0
    4.3631   -5.5543    0.0000 H   0  0  0  0  0  0  0  0  0  0  0  0
    4.3569   -6.3513    0.0000 H   0  0  0  0  0  0  0  0  0  0  0  0
    5.8001   -7.2285    0.0000 H   0  0  0  0  0  0  0  0  0  0  0  0
    5.8062   -6.4315    0.0000 H   0  0  0  0  0  0  0  0  0  0  0  0
    8.0328    4.6185    0.0000 H   0  0  0  0  0  0  0  0  0  0  0  0
    8.5556    5.2201    0.0000 H   0  0  0  0  0  0  0  0  0  0  0  0
    3.9564    6.1137    0.0000 H   0  0  0  0  0  0  0  0  0  0  0  0
    4.2159    5.3601    0.0000 H   0  0  0  0  0  0  0  0  0  0  0  0
    8.0294    6.8249    0.0000 H   0  0  0  0  0  0  0  0  0  0  0  0
    7.5065    6.2233    0.0000 H   0  0  0  0  0  0  0  0  0  0  0  0
    5.3048    6.6511    0.0000 H   0  0  0  0  0  0  0  0  0  0  0  0
    5.0452    7.4047    0.0000 H   0  0  0  0  0  0  0  0  0  0  0  0
    5.7867   -8.9605    0.0000 H   0  0  0  0  0  0  0  0  0  0  0  0
    5.7929   -8.1635    0.0000 H   0  0  0  0  0  0  0  0  0  0  0  0
    4.3364   -9.0183    0.0000 H   0  0  0  0  0  0  0  0  0  0  0  0
    4.3302   -9.8153    0.0000 H   0  0  0  0  0  0  0  0  0  0  0  0
    9.1656    8.1322    0.0000 H   0  0  0  0  0  0  0  0  0  0  0  0
    8.6428    7.5306    0.0000 H   0  0  0  0  0  0  0  0  0  0  0  0
    4.7407    8.2887    0.0000 H   0  0  0  0  0  0  0  0  0  0  0  0
    4.4812    9.0423    0.0000 H   0  0  0  0  0  0  0  0  0  0  0  0
   10.3052    7.2331    0.0000 H   0  0  0  0  0  0  0  0  0  0  0  0
   10.8281    7.8347    0.0000 H   0  0  0  0  0  0  0  0  0  0  0  0
    2.8283    9.3890    0.0000 H   0  0  0  0  0  0  0  0  0  0  0  0
    3.0879    8.6354    0.0000 H   0  0  0  0  0  0  0  0  0  0  0  0
    4.3230  -10.7503    0.0000 H   0  0  0  0  0  0  0  0  0  0  0  0
    4.3169  -11.5473    0.0000 H   0  0  0  0  0  0  0  0  0  0  0  0
    5.7600  -12.4245    0.0000 H   0  0  0  0  0  0  0  0  0  0  0  0
    5.7662  -11.6275    0.0000 H   0  0  0  0  0  0  0  0  0  0  0  0
   11.4414    8.5404    0.0000 H   0  0  0  0  0  0  0  0  0  0  0  0
   11.9643    9.1420    0.0000 H   0  0  0  0  0  0  0  0  0  0  0  0
    2.2643   11.0266    0.0000 H   0  0  0  0  0  0  0  0  0  0  0  0
    2.5238   10.2730    0.0000 H   0  0  0  0  0  0  0  0  0  0  0  0
    5.0874  -13.4238    0.0000 H   0  0  0  0  0  0  0  0  0  0  0  0
    4.1615  -12.8797    0.0000 H   0  0  0  0  0  0  0  0  0  0  0  0
   11.4381   10.7467    0.0000 H   0  0  0  0  0  0  0  0  0  0  0  0
   10.9152   10.1451    0.0000 H   0  0  0  0  0  0  0  0  0  0  0  0
    3.6127   11.5640    0.0000 H   0  0  0  0  0  0  0  0  0  0  0  0
    3.3531   12.3176    0.0000 H   0  0  0  0  0  0  0  0  0  0  0  0
   13.2799   11.3234    0.0000 H   0  0  0  0  0  0  0  0  0  0  0  0
   12.7896   12.0503    0.0000 H   0  0  0  0  0  0  0  0  0  0  0  0
   12.0627   11.5599    0.0000 H   0  0  0  0  0  0  0  0  0  0  0  0
    3.0784   13.3055    0.0000 H   0  0  0  0  0  0  0  0  0  0  0  0
    2.5880   14.0324    0.0000 H   0  0  0  0  0  0  0  0  0  0  0  0
    1.8612   13.5420    0.0000 H   0  0  0  0  0  0  0  0  0  0  0  0
  1 46  1  0  0  0  0
  1 54  1  0  0  0  0
  2 47  1  0  0  0  0
  2 55  1  0  0  0  0
  3 46  2  0  0  0  0
  4 47  2  0  0  0  0
  5 53  1  0  0  0  0
  5 58  1  0  0  0  0
  6 56  1  0  0  0  0
  6 60  1  0  0  0  0
  7 57  1  0  0  0  0
  7 61  1  0  0  0  0
  8 59  1  0  0  0  0
  8 64  1  0  0  0  0
  9 62  1  0  0  0  0
  9 66  1  0  0  0  0
 10 63  1  0  0  0  0
 10 67  1  0  0  0  0
 11 68  1  0  0  0  0
 11 70  1  0  0  0  0
 12 69  1  0  0  0  0
 12 71  1  0  0  0  0
 13 29  1  0  0  0  0
 13 34  1  0  0  0  0
 13 52  1  0  0  0  0
 14 65  1  0  0  0  0
 14120  1  0  0  0  0
 14121  1  0  0  0  0
 15 16  1  0  0  0  0
 15 18  1  0  0  0  0
 15 21  1  0  0  0  0
 15 72  1  0  0  0  0
 16 18  1  0  0  0  0
 16 22  1  0  0  0  0
 16 73  1  0  0  0  0
 17 19  1  0  0  0  0
 17 20  1  0  0  0  0
 17 23  1  0  0  0  0
 17 29  1  0  0  0  0
 18 46  1  0  0  0  0
 18 47  1  0  0  0  0
 19 34  1  0  0  0  0
 19 38  1  0  0  0  0
 19 42  1  0  0  0  0
 20 24  1  0  0  0  0
 20 31  2  0  0  0  0
 21 25  2  0  0  0  0
 21 40  1  0  0  0  0
 22 26  2  0  0  0  0
 22 45  1  0  0  0  0
 23 30  1  0  0  0  0
 23 41  2  0  0  0  0
 24 27  1  0  0  0  0
 24 30  2  0  0  0  0
 25 26  1  0  0  0  0
 25 28  1  0  0  0  0
 26 32  1  0  0  0  0
 27 28  1  0  0  0  0
 27 32  2  0  0  0  0
 28 33  2  0  0  0  0
 29 74  1  0  0  0  0
 29 75  1  0  0  0  0
 30 37  1  0  0  0  0
 31 33  1  0  0  0  0
 31 35  1  0  0  0  0
 32 36  1  0  0  0  0
 33 39  1  0  0  0  0
 34 76  1  0  0  0  0
 34 77  1  0  0  0  0
 35 38  2  0  0  0  0
 35 43  1  0  0  0  0
 36 37  2  0  0  0  0
 36 44  1  0  0  0  0
 37 48  1  0  0  0  0
 38 78  1  0  0  0  0
 39 40  2  0  0  0  0
 39 43  1  0  0  0  0
 40 79  1  0  0  0  0
 41 50  1  0  0  0  0
 41 51  1  0  0  0  0
 42 50  2  0  0  0  0
 42 80  1  0  0  0  0
 43 81  1  0  0  0  0
 43 82  1  0  0  0  0
 44 45  2  0  0  0  0
 44 49  1  0  0  0  0
 45 83  1  0  0  0  0
 48 49  1  0  0  0  0
 48 51  2  0  0  0  0
 49 84  1  0  0  0  0
 49 85  1  0  0  0  0
 50 86  1  0  0  0  0
 51 87  1  0  0  0  0
 52 53  1  0  0  0  0
 52 88  1  0  0  0  0
 52 89  1  0  0  0  0
 53 90  1  0  0  0  0
 53 91  1  0  0  0  0
 54 56  1  0  0  0  0
 54 92  1  0  0  0  0
 54 93  1  0  0  0  0
 55 57  1  0  0  0  0
 55 94  1  0  0  0  0
 55 95  1  0  0  0  0
 56 96  1  0  0  0  0
 56 97  1  0  0  0  0
 57 98  1  0  0  0  0
 57 99  1  0  0  0  0
 58 59  1  0  0  0  0
 58100  1  0  0  0  0
 58101  1  0  0  0  0
 59102  1  0  0  0  0
 59103  1  0  0  0  0
 60 62  1  0  0  0  0
 60104  1  0  0  0  0
 60105  1  0  0  0  0
 61 63  1  0  0  0  0
 61106  1  0  0  0  0
 61107  1  0  0  0  0
 62108  1  0  0  0  0
 62109  1  0  0  0  0
 63110  1  0  0  0  0
 63111  1  0  0  0  0
 64 65  1  0  0  0  0
 64112  1  0  0  0  0
 64113  1  0  0  0  0
 65114  1  0  0  0  0
 65115  1  0  0  0  0
 66 68  1  0  0  0  0
 66116  1  0  0  0  0
 66117  1  0  0  0  0
 67 69  1  0  0  0  0
 67118  1  0  0  0  0
 67119  1  0  0  0  0
 68122  1  0  0  0  0
 68123  1  0  0  0  0
 69124  1  0  0  0  0
 69125  1  0  0  0  0
 70126  1  0  0  0  0
 70127  1  0  0  0  0
 70128  1  0  0  0  0
 71129  1  0  0  0  0
 71130  1  0  0  0  0
 71131  1  0  0  0  0
M  END
> <PUBCHEM_COMPOUND_CID>
513711
> <PUBCHEM_COMPOUND_CANONICALIZED>
1
> <PUBCHEM_CACTVS_COMPLEXITY>
2070
> <PUBCHEM_CACTVS_HBOND_ACCEPTOR>
14
> <PUBCHEM_CACTVS_HBOND_DONOR>
1
> <PUBCHEM_CACTVS_ROTATABLE_BOND>
30
> <PUBCHEM_CACTVS_SUBSKEYS>
AAADcfB/PAAAAAAAAAAAAAAAGAAAAeMGDBAwYMGDBgAAAGDBVAAAHgAQAAAADwDhmAYyCMNABACIAiDSCAACAAAgAAAIiIEIAIgLIDaIkRGHIAAlsACaiAeYyPCPwAACAAAQAACAAAQAACAAAQAACAAAAA==
> <PUBCHEM_IUPAC_OPENEYE_NAME>
bis[2-[2-(2-methoxyethoxy)ethoxy]ethyl] 33-[2-[2-(2-aminoethoxy)ethoxy]ethyl]-33-azatetradecacyclo[16.16.1.116,19.01,31.04,30.06,28.08,27.010,25.011,13.014,24.020,31.021,29.022,26.023,36]hexatriaconta-2,4(30),5,8,10(25),14(24),15,18(35),19,21(29),22(26),23(36),27-tridecaene-12,12-dicarboxylate
> <PUBCHEM_IUPAC_CAS_NAME>
33-[2-[2-(2-aminoethoxy)ethoxy]ethyl]-33-azatetradecacyclo[16.16.1.116,19.01,31.04,30.06,28.08,27.010,25.011,13.014,24.020,31.021,29.022,26.023,36]hexatriaconta-2,4(30),5,8,10(25),14(24),15,18(35),19,21(29),22(26),23(36),27-tridecaene-12,12-dicarboxylic acid bis[2-[2-(2-methoxyethoxy)ethoxy]ethyl] ester
> <PUBCHEM_IUPAC_NAME_MARKUP>
bis[2-[2-(2-methoxyethoxy)ethoxy]ethyl] 33-[2-[2-(2-aminoethoxy)ethoxy]ethyl]-33-azatetradecacyclo[16.16.1.1<SUP>16,19</SUP>.0<SUP>1,31</SUP>.0<SUP>4,30</SUP>.0<SUP>6,28</SUP>.0<SUP>8,27</SUP>.0<SUP>10,25</SUP>.0<SUP>11,13</SUP>.0<SUP>14,24</SUP>.0<SUP>20,31</SUP>.0<SUP>21,29</SUP>.0<SUP>22,26</SUP>.0<SUP>23,36</SUP>]hexatriaconta-2,4(30),5,8,10(25),14(24),15,18(35),19,21(29),22(26),23(36),27-tridecaene-12,12-dicarboxylate
> <PUBCHEM_IUPAC_NAME>
bis[2-[2-(2-methoxyethoxy)ethoxy]ethyl] 33-[2-[2-(2-aminoethoxy)ethoxy]ethyl]-33-azatetradecacyclo[16.16.1.116,19.01,31.04,30.06,28.08,27.010,25.011,13.014,24.020,31.021,29.022,26.023,36]hexatriaconta-2,4(30),5,8,10(25),14(24),15,18(35),19,21(29),22(26),23(36),27-tridecaene-12,12-dicarboxylate
> <PUBCHEM_IUPAC_SYSTEMATIC_NAME>
bis[2-[2-(2-methoxyethoxy)ethoxy]ethyl] 33-[2-[2-(2-azanylethoxy)ethoxy]ethyl]-33-azatetradecacyclo[16.16.1.116,19.01,31.04,30.06,28.08,27.010,25.011,13.014,24.020,31.021,29.022,26.023,36]hexatriaconta-2,4(30),5,8,10(25),14(24),15,18(35),19,21(29),22(26),23(36),27-tridecaene-12,12-dicarboxylate
> <PUBCHEM_IUPAC_TRADITIONAL_NAME>
33-[2-[2-(2-aminoethoxy)ethoxy]ethyl]-33-azatetradecacyclo[16.16.1.116,19.01,31.04,30.06,28.08,27.010,25.011,13.014,24.020,31.021,29.022,26.023,36]hexatriaconta-2,4(30),5,8,10(25),14(24),15,18(35),19,21(29),22(26),23(36),27-tridecaene-12,12-dicarboxylic acid bis[2-[2-(2-methoxyethoxy)ethoxy]ethyl] ester
> <PUBCHEM_IUPAC_INCHI>
InChI=1S/C57H60N2O12/c1-62-9-11-66-15-17-68-19-21-70-53(60)57(54(61)71-22-20-69-18-16-67-12-10-63-2)50-36-26-33-24-32-23-31-3-4-55-28-35-25-34-27-37(51(50)57)43-42(36)44-38(33)39(32)47-48-46(44)45(43)40(34)41(35)52(48)56(55,49(31)47)30-59(29-55)6-8-65-14-13-64-7-5-58/h3-4,23,26-28,50-51H,5-22,24-25,29-30,58H2,1-2H3
> <PUBCHEM_IUPAC_INCHIKEY>
RLEKDGJWEKEEPR-UHFFFAOYSA-N
> <PUBCHEM_XLOGP3_AA>
4.2
> <PUBCHEM_EXACT_MASS>
964.41462535
> <PUBCHEM_MOLECULAR_FORMULA>
C57H60N2O12
> <PUBCHEM_MOLECULAR_WEIGHT>
965.1
> <PUBCHEM_OPENEYE_CAN_SMILES>
COCCOCCOCCOC(=O)C1(C2C1C3=C4C5=C2C=C6CC7=CC8=C9C1=C2C(=C5C6=C71)C4=C1C(=C3)CC3=CC4(C9(C2=C31)CN(C4)CCOCCOCCN)C=C8)C(=O)OCCOCCOCCOC
> <PUBCHEM_OPENEYE_ISO_SMILES>
COCCOCCOCCOC(=O)C1(C2C1C3=C4C5=C2C=C6CC7=CC8=C9C1=C2C(=C5C6=C71)C4=C1C(=C3)CC3=CC4(C9(C2=C31)CN(C4)CCOCCOCCN)C=C8)C(=O)OCCOCCOCCOC
> <PUBCHEM_CACTVS_TPSA>
156
> <PUBCHEM_MONOISOTOPIC_WEIGHT>
964.41462535
> <PUBCHEM_TOTAL_CHARGE>
0
> <PUBCHEM_HEAVY_ATOM_COUNT>
71
> <PUBCHEM_ATOM_DEF_STEREO_COUNT>
0
> <PUBCHEM_ATOM_UDEF_STEREO_COUNT>
4
> <PUBCHEM_BOND_DEF_STEREO_COUNT>
0
> <PUBCHEM_BOND_UDEF_STEREO_COUNT>
0
> <PUBCHEM_ISOTOPIC_ATOM_COUNT>
0
> <PUBCHEM_COMPONENT_COUNT>
1
> <PUBCHEM_CACTVS_TAUTO_COUNT>
-1
> <PUBCHEM_COORDINATE_TYPE>
1
5
255
> <PUBCHEM_BONDANNOTATIONS>
15  18  3
16  18  3
17  29  3
19  34  3
20  24  8
20  31  8
21  25  8
21  40  8
22  26  8
22  45  8
23  30  8
23  41  8
24  27  8
24  30  8
25  28  8
26  32  8
27  28  8
27  32  8
28  33  8
30  37  8
31  33  8
32  36  8
33  39  8
36  37  8
36  44  8
37  48  8
39  40  8
41  51  8
44  45  8
48  51  8
$$$$
