513774
  -OEChem-10302200282D
 85 87  0     1  0  0  0  0  0999 V2000
    3.7320   -3.5600    0.0000 S   0  0  0  0  0  0  0  0  0  0  0  0
    6.3301   -2.0600    0.0000 O   0  0  0  0  0  0  0  0  0  0  0  0
    4.7320   -3.5600    0.0000 O   0  0  0  0  0  0  0  0  0  0  0  0
    2.7320   -3.5600    0.0000 O   0  0  0  0  0  0  0  0  0  0  0  0
    8.0622    1.9400    0.0000 O   0  0  0  0  0  0  0  0  0  0  0  0
    3.7320   -2.5600    0.0000 N   0  0  3  0  0  0  0  0  0  0  0  0
    6.3301    1.9400    0.0000 N   0  0  0  0  0  0  0  0  0  0  0  0
    7.1962    3.4400    0.0000 N   0  0  0  0  0  0  0  0  0  0  0  0
    4.5981    6.9400    0.0000 N   0  0  0  0  0  0  0  0  0  0  0  0
    4.5981   -2.0600    0.0000 C   0  0  1  0  0  0  0  0  0  0  0  0
    4.5981   -1.0600    0.0000 C   0  0  0  0  0  0  0  0  0  0  0  0
    2.8660   -2.0600    0.0000 C   0  0  0  0  0  0  0  0  0  0  0  0
    5.4641   -0.5600    0.0000 C   0  0  0  0  0  0  0  0  0  0  0  0
    2.8660   -1.0600    0.0000 C   0  0  0  0  0  0  0  0  0  0  0  0
    5.4641   -2.5600    0.0000 C   0  0  0  0  0  0  0  0  0  0  0  0
    5.4641    0.4400    0.0000 C   0  0  0  0  0  0  0  0  0  0  0  0
    3.7320   -4.5600    0.0000 C   0  0  0  0  0  0  0  0  0  0  0  0
    2.0000   -0.5600    0.0000 C   0  0  0  0  0  0  0  0  0  0  0  0
    3.7320   -0.5600    0.0000 C   0  0  0  0  0  0  0  0  0  0  0  0
    6.3301    0.9400    0.0000 C   0  0  0  0  0  0  0  0  0  0  0  0
    2.8660   -5.0600    0.0000 C   0  0  0  0  0  0  0  0  0  0  0  0
    4.5981   -5.0600    0.0000 C   0  0  0  0  0  0  0  0  0  0  0  0
    2.8660   -6.0600    0.0000 C   0  0  0  0  0  0  0  0  0  0  0  0
    4.5981   -6.0600    0.0000 C   0  0  0  0  0  0  0  0  0  0  0  0
    3.7320   -6.5600    0.0000 C   0  0  0  0  0  0  0  0  0  0  0  0
    7.1962    2.4400    0.0000 C   0  0  0  0  0  0  0  0  0  0  0  0
    6.3301    3.9400    0.0000 C   0  0  0  0  0  0  0  0  0  0  0  0
    8.0622    3.9400    0.0000 C   0  0  0  0  0  0  0  0  0  0  0  0
    3.7320   -7.5600    0.0000 C   0  0  0  0  0  0  0  0  0  0  0  0
    6.3301    4.9400    0.0000 C   0  0  0  0  0  0  0  0  0  0  0  0
    8.9282    3.4400    0.0000 C   0  0  0  0  0  0  0  0  0  0  0  0
    5.4641    5.4400    0.0000 C   0  0  0  0  0  0  0  0  0  0  0  0
    7.1962    5.4400    0.0000 C   0  0  0  0  0  0  0  0  0  0  0  0
    9.7942    3.9400    0.0000 C   0  0  0  0  0  0  0  0  0  0  0  0
    8.9282    2.4400    0.0000 C   0  0  0  0  0  0  0  0  0  0  0  0
    5.4641    6.4400    0.0000 C   0  0  0  0  0  0  0  0  0  0  0  0
    7.1962    6.4400    0.0000 C   0  0  0  0  0  0  0  0  0  0  0  0
   10.6603    3.4400    0.0000 C   0  0  0  0  0  0  0  0  0  0  0  0
    9.7942    1.9400    0.0000 C   0  0  0  0  0  0  0  0  0  0  0  0
    6.3301    6.9400    0.0000 C   0  0  0  0  0  0  0  0  0  0  0  0
   10.6603    2.4400    0.0000 C   0  0  0  0  0  0  0  0  0  0  0  0
    4.5981   -2.6800    0.0000 H   0  0  0  0  0  0  0  0  0  0  0  0
    4.3860   -0.4774    0.0000 H   0  0  0  0  0  0  0  0  0  0  0  0
    3.9875   -1.1677    0.0000 H   0  0  0  0  0  0  0  0  0  0  0  0
    2.2554   -1.9523    0.0000 H   0  0  0  0  0  0  0  0  0  0  0  0
    2.6540   -2.6426    0.0000 H   0  0  0  0  0  0  0  0  0  0  0  0
    5.6762   -1.1426    0.0000 H   0  0  0  0  0  0  0  0  0  0  0  0
    6.0747   -0.4523    0.0000 H   0  0  0  0  0  0  0  0  0  0  0  0
    2.8660   -0.4400    0.0000 H   0  0  0  0  0  0  0  0  0  0  0  0
    5.0656   -3.0349    0.0000 H   0  0  0  0  0  0  0  0  0  0  0  0
    5.8626   -3.0349    0.0000 H   0  0  0  0  0  0  0  0  0  0  0  0
    5.2520    1.0226    0.0000 H   0  0  0  0  0  0  0  0  0  0  0  0
    4.8535    0.3323    0.0000 H   0  0  0  0  0  0  0  0  0  0  0  0
    2.3100   -0.0231    0.0000 H   0  0  0  0  0  0  0  0  0  0  0  0
    1.4631   -0.2500    0.0000 H   0  0  0  0  0  0  0  0  0  0  0  0
    1.6900   -1.0969    0.0000 H   0  0  0  0  0  0  0  0  0  0  0  0
    4.0420   -1.0969    0.0000 H   0  0  0  0  0  0  0  0  0  0  0  0
    4.2690   -0.2500    0.0000 H   0  0  0  0  0  0  0  0  0  0  0  0
    3.4220   -0.0231    0.0000 H   0  0  0  0  0  0  0  0  0  0  0  0
    6.5422    0.3574    0.0000 H   0  0  0  0  0  0  0  0  0  0  0  0
    6.9407    1.0477    0.0000 H   0  0  0  0  0  0  0  0  0  0  0  0
    6.8671   -2.3700    0.0000 H   0  0  0  0  0  0  0  0  0  0  0  0
    2.3291   -4.7500    0.0000 H   0  0  0  0  0  0  0  0  0  0  0  0
    5.1350   -4.7500    0.0000 H   0  0  0  0  0  0  0  0  0  0  0  0
    5.7932    2.2500    0.0000 H   0  0  0  0  0  0  0  0  0  0  0  0
    2.3291   -6.3700    0.0000 H   0  0  0  0  0  0  0  0  0  0  0  0
    5.1350   -6.3700    0.0000 H   0  0  0  0  0  0  0  0  0  0  0  0
    5.7196    4.0477    0.0000 H   0  0  0  0  0  0  0  0  0  0  0  0
    6.1181    3.3574    0.0000 H   0  0  0  0  0  0  0  0  0  0  0  0
    8.4607    4.4150    0.0000 H   0  0  0  0  0  0  0  0  0  0  0  0
    7.6636    4.4150    0.0000 H   0  0  0  0  0  0  0  0  0  0  0  0
    3.1120   -7.5600    0.0000 H   0  0  0  0  0  0  0  0  0  0  0  0
    3.7320   -8.1800    0.0000 H   0  0  0  0  0  0  0  0  0  0  0  0
    4.3520   -7.5600    0.0000 H   0  0  0  0  0  0  0  0  0  0  0  0
    4.9272    5.1300    0.0000 H   0  0  0  0  0  0  0  0  0  0  0  0
    7.7331    5.1300    0.0000 H   0  0  0  0  0  0  0  0  0  0  0  0
    9.7942    4.5600    0.0000 H   0  0  0  0  0  0  0  0  0  0  0  0
    8.3913    2.1300    0.0000 H   0  0  0  0  0  0  0  0  0  0  0  0
    7.7331    6.7500    0.0000 H   0  0  0  0  0  0  0  0  0  0  0  0
   11.1972    3.7500    0.0000 H   0  0  0  0  0  0  0  0  0  0  0  0
    9.7942    1.3200    0.0000 H   0  0  0  0  0  0  0  0  0  0  0  0
    6.3301    7.5600    0.0000 H   0  0  0  0  0  0  0  0  0  0  0  0
   11.1972    2.1300    0.0000 H   0  0  0  0  0  0  0  0  0  0  0  0
    4.5981    7.5600    0.0000 H   0  0  0  0  0  0  0  0  0  0  0  0
    4.0611    6.6300    0.0000 H   0  0  0  0  0  0  0  0  0  0  0  0
  1  3  2  0  0  0  0
  1  4  2  0  0  0  0
  1  6  1  0  0  0  0
  1 17  1  0  0  0  0
  2 15  1  0  0  0  0
  2 62  1  0  0  0  0
  5 26  2  0  0  0  0
 10  6  1  1  0  0  0
  6 12  1  0  0  0  0
  7 20  1  0  0  0  0
  7 26  1  0  0  0  0
  7 65  1  0  0  0  0
  8 26  1  0  0  0  0
  8 27  1  0  0  0  0
  8 28  1  0  0  0  0
  9 36  1  0  0  0  0
  9 84  1  0  0  0  0
  9 85  1  0  0  0  0
 10 11  1  0  0  0  0
 10 15  1  0  0  0  0
 10 42  1  0  0  0  0
 11 13  1  0  0  0  0
 11 43  1  0  0  0  0
 11 44  1  0  0  0  0
 12 14  1  0  0  0  0
 12 45  1  0  0  0  0
 12 46  1  0  0  0  0
 13 16  1  0  0  0  0
 13 47  1  0  0  0  0
 13 48  1  0  0  0  0
 14 18  1  0  0  0  0
 14 19  1  0  0  0  0
 14 49  1  0  0  0  0
 15 50  1  0  0  0  0
 15 51  1  0  0  0  0
 16 20  1  0  0  0  0
 16 52  1  0  0  0  0
 16 53  1  0  0  0  0
 17 21  2  0  0  0  0
 17 22  1  0  0  0  0
 18 54  1  0  0  0  0
 18 55  1  0  0  0  0
 18 56  1  0  0  0  0
 19 57  1  0  0  0  0
 19 58  1  0  0  0  0
 19 59  1  0  0  0  0
 20 60  1  0  0  0  0
 20 61  1  0  0  0  0
 21 23  1  0  0  0  0
 21 63  1  0  0  0  0
 22 24  2  0  0  0  0
 22 64  1  0  0  0  0
 23 25  2  0  0  0  0
 23 66  1  0  0  0  0
 24 25  1  0  0  0  0
 24 67  1  0  0  0  0
 25 29  1  0  0  0  0
 27 30  1  0  0  0  0
 27 68  1  0  0  0  0
 27 69  1  0  0  0  0
 28 31  1  0  0  0  0
 28 70  1  0  0  0  0
 28 71  1  0  0  0  0
 29 72  1  0  0  0  0
 29 73  1  0  0  0  0
 29 74  1  0  0  0  0
 30 32  2  0  0  0  0
 30 33  1  0  0  0  0
 31 34  2  0  0  0  0
 31 35  1  0  0  0  0
 32 36  1  0  0  0  0
 32 75  1  0  0  0  0
 33 37  2  0  0  0  0
 33 76  1  0  0  0  0
 34 38  1  0  0  0  0
 34 77  1  0  0  0  0
 35 39  2  0  0  0  0
 35 78  1  0  0  0  0
 36 40  2  0  0  0  0
 37 40  1  0  0  0  0
 37 79  1  0  0  0  0
 38 41  2  0  0  0  0
 38 80  1  0  0  0  0
 39 41  1  0  0  0  0
 39 81  1  0  0  0  0
 40 82  1  0  0  0  0
 41 83  1  0  0  0  0
M  END
> <PUBCHEM_COMPOUND_CID>
513774
> <PUBCHEM_COMPOUND_CANONICALIZED>
1
> <PUBCHEM_CACTVS_COMPLEXITY>
850
> <PUBCHEM_CACTVS_HBOND_ACCEPTOR>
6
> <PUBCHEM_CACTVS_HBOND_DONOR>
3
> <PUBCHEM_CACTVS_ROTATABLE_BOND>
15
> <PUBCHEM_CACTVS_SUBSKEYS>
AAADcfB/uABAAAAAAAAAAAAAAAAAAAAAAAAwYMAAAAAAAAABUAAAHgQQSAAADSjh2AYzwYPAAgKIAiRCUHDCABAgAgAIiJgIZIiKMCKAkZGEYAhslgKYyAeQwAAOEAAAQAAAAAAgAACAAAAAAAAAAAAAAA==
> <PUBCHEM_IUPAC_OPENEYE_NAME>
1-[(3-aminophenyl)methyl]-1-benzyl-3-[(5S)-6-hydroxy-5-[isobutyl(p-tolylsulfonyl)amino]hexyl]urea
> <PUBCHEM_IUPAC_CAS_NAME>
1-[(3-aminophenyl)methyl]-3-[(5S)-6-hydroxy-5-[(4-methylphenyl)sulfonyl-(2-methylpropyl)amino]hexyl]-1-(phenylmethyl)urea
> <PUBCHEM_IUPAC_NAME_MARKUP>
1-[(3-aminophenyl)methyl]-1-benzyl-3-[(5<I>S</I>)-6-hydroxy-5-[(4-methylphenyl)sulfonyl-(2-methylpropyl)amino]hexyl]urea
> <PUBCHEM_IUPAC_NAME>
1-[(3-aminophenyl)methyl]-1-benzyl-3-[(5S)-6-hydroxy-5-[(4-methylphenyl)sulfonyl-(2-methylpropyl)amino]hexyl]urea
> <PUBCHEM_IUPAC_SYSTEMATIC_NAME>
1-[(3-aminophenyl)methyl]-3-[(5S)-5-[(4-methylphenyl)sulfonyl-(2-methylpropyl)amino]-6-oxidanyl-hexyl]-1-(phenylmethyl)urea
> <PUBCHEM_IUPAC_TRADITIONAL_NAME>
1-(3-aminobenzyl)-1-benzyl-3-[(5S)-6-hydroxy-5-[isobutyl(tosyl)amino]hexyl]urea
> <PUBCHEM_IUPAC_INCHI>
InChI=1S/C32H44N4O4S/c1-25(2)21-36(41(39,40)31-17-15-26(3)16-18-31)30(24-37)14-7-8-19-34-32(38)35(22-27-10-5-4-6-11-27)23-28-12-9-13-29(33)20-28/h4-6,9-13,15-18,20,25,30,37H,7-8,14,19,21-24,33H2,1-3H3,(H,34,38)/t30-/m0/s1
> <PUBCHEM_IUPAC_INCHIKEY>
ZBVHDYIGORBTAN-PMERELPUSA-N
> <PUBCHEM_XLOGP3_AA>
4.9
> <PUBCHEM_EXACT_MASS>
580.30832707
> <PUBCHEM_MOLECULAR_FORMULA>
C32H44N4O4S
> <PUBCHEM_MOLECULAR_WEIGHT>
580.8
> <PUBCHEM_OPENEYE_CAN_SMILES>
CC1=CC=C(C=C1)S(=O)(=O)N(CC(C)C)C(CCCCNC(=O)N(CC2=CC=CC=C2)CC3=CC(=CC=C3)N)CO
> <PUBCHEM_OPENEYE_ISO_SMILES>
CC1=CC=C(C=C1)S(=O)(=O)N(CC(C)C)[C@@H](CCCCNC(=O)N(CC2=CC=CC=C2)CC3=CC(=CC=C3)N)CO
> <PUBCHEM_CACTVS_TPSA>
124
> <PUBCHEM_MONOISOTOPIC_WEIGHT>
580.30832707
> <PUBCHEM_TOTAL_CHARGE>
0
> <PUBCHEM_HEAVY_ATOM_COUNT>
41
> <PUBCHEM_ATOM_DEF_STEREO_COUNT>
1
> <PUBCHEM_ATOM_UDEF_STEREO_COUNT>
0
> <PUBCHEM_BOND_DEF_STEREO_COUNT>
0
> <PUBCHEM_BOND_UDEF_STEREO_COUNT>
0
> <PUBCHEM_ISOTOPIC_ATOM_COUNT>
0
> <PUBCHEM_COMPONENT_COUNT>
1
> <PUBCHEM_CACTVS_TAUTO_COUNT>
-1
> <PUBCHEM_COORDINATE_TYPE>
1
5
255
> <PUBCHEM_BONDANNOTATIONS>
17  21  8
17  22  8
21  23  8
22  24  8
23  25  8
24  25  8
30  32  8
30  33  8
31  34  8
31  35  8
32  36  8
33  37  8
34  38  8
35  39  8
36  40  8
37  40  8
38  41  8
39  41  8
10  6  5
$$$$
