513760
  -OEChem-10302200282D
 84 86  0     1  0  0  0  0  0999 V2000
    4.5981   -0.0950    0.0000 S   0  0  0  0  0  0  0  0  0  0  0  0
    5.5981   -0.0950    0.0000 O   0  0  0  0  0  0  0  0  0  0  0  0
    3.5981   -0.0950    0.0000 O   0  0  0  0  0  0  0  0  0  0  0  0
    6.3301    2.9050    0.0000 O   0  0  0  0  0  0  0  0  0  0  0  0
    4.5981    2.9050    0.0000 O   0  0  0  0  0  0  0  0  0  0  0  0
   10.6603    2.4050    0.0000 O   0  0  0  0  0  0  0  0  0  0  0  0
   14.9904   -2.0950    0.0000 O   0  0  0  0  0  0  0  0  0  0  0  0
    4.5981    0.9050    0.0000 N   0  0  3  0  0  0  0  0  0  0  0  0
    9.7942    0.9050    0.0000 N   0  0  0  0  0  0  0  0  0  0  0  0
   11.5263    0.9050    0.0000 N   0  0  0  0  0  0  0  0  0  0  0  0
    4.5981   -4.0950    0.0000 N   0  0  0  0  0  0  0  0  0  0  0  0
   12.3923    4.4050    0.0000 N   0  0  0  0  0  0  0  0  0  0  0  0
    5.4641    1.4050    0.0000 C   0  0  1  0  0  0  0  0  0  0  0  0
    6.3301    0.9050    0.0000 C   0  0  0  0  0  0  0  0  0  0  0  0
    3.7320    1.4050    0.0000 C   0  0  0  0  0  0  0  0  0  0  0  0
    2.8660    0.9050    0.0000 C   0  0  0  0  0  0  0  0  0  0  0  0
    7.1962    1.4050    0.0000 C   0  0  0  0  0  0  0  0  0  0  0  0
    8.0622    0.9050    0.0000 C   0  0  0  0  0  0  0  0  0  0  0  0
    5.4641    2.4050    0.0000 C   0  0  0  0  0  0  0  0  0  0  0  0
    2.0000    1.4050    0.0000 C   0  0  0  0  0  0  0  0  0  0  0  0
    2.8660   -0.0950    0.0000 C   0  0  0  0  0  0  0  0  0  0  0  0
    4.5981   -1.0950    0.0000 C   0  0  0  0  0  0  0  0  0  0  0  0
    8.9282    1.4050    0.0000 C   0  0  0  0  0  0  0  0  0  0  0  0
    3.7320   -1.5950    0.0000 C   0  0  0  0  0  0  0  0  0  0  0  0
    5.4641   -1.5950    0.0000 C   0  0  0  0  0  0  0  0  0  0  0  0
    3.7320   -2.5950    0.0000 C   0  0  0  0  0  0  0  0  0  0  0  0
    5.4641   -2.5950    0.0000 C   0  0  0  0  0  0  0  0  0  0  0  0
   10.6603    1.4050    0.0000 C   0  0  0  0  0  0  0  0  0  0  0  0
    4.5981   -3.0950    0.0000 C   0  0  0  0  0  0  0  0  0  0  0  0
   11.5263   -0.0950    0.0000 C   0  0  0  0  0  0  0  0  0  0  0  0
   12.3923    1.4050    0.0000 C   0  0  0  0  0  0  0  0  0  0  0  0
   12.3923   -0.5950    0.0000 C   0  0  0  0  0  0  0  0  0  0  0  0
   12.3923    2.4050    0.0000 C   0  0  0  0  0  0  0  0  0  0  0  0
   12.3923   -1.5950    0.0000 C   0  0  0  0  0  0  0  0  0  0  0  0
   13.2583   -0.0950    0.0000 C   0  0  0  0  0  0  0  0  0  0  0  0
   13.2583    2.9050    0.0000 C   0  0  0  0  0  0  0  0  0  0  0  0
   11.5263    2.9050    0.0000 C   0  0  0  0  0  0  0  0  0  0  0  0
   13.2583   -2.0950    0.0000 C   0  0  0  0  0  0  0  0  0  0  0  0
   14.1244   -0.5950    0.0000 C   0  0  0  0  0  0  0  0  0  0  0  0
   14.1244   -1.5950    0.0000 C   0  0  0  0  0  0  0  0  0  0  0  0
   13.2583    3.9050    0.0000 C   0  0  0  0  0  0  0  0  0  0  0  0
   11.5263    3.9050    0.0000 C   0  0  0  0  0  0  0  0  0  0  0  0
   14.9904   -3.0950    0.0000 C   0  0  0  0  0  0  0  0  0  0  0  0
    5.4641    0.7850    0.0000 H   0  0  0  0  0  0  0  0  0  0  0  0
    5.9316    0.4301    0.0000 H   0  0  0  0  0  0  0  0  0  0  0  0
    6.7287    0.4301    0.0000 H   0  0  0  0  0  0  0  0  0  0  0  0
    4.1306    1.8800    0.0000 H   0  0  0  0  0  0  0  0  0  0  0  0
    3.3335    1.8800    0.0000 H   0  0  0  0  0  0  0  0  0  0  0  0
    2.8660    1.5250    0.0000 H   0  0  0  0  0  0  0  0  0  0  0  0
    7.5947    1.8800    0.0000 H   0  0  0  0  0  0  0  0  0  0  0  0
    6.7976    1.8800    0.0000 H   0  0  0  0  0  0  0  0  0  0  0  0
    7.6636    0.4301    0.0000 H   0  0  0  0  0  0  0  0  0  0  0  0
    8.4607    0.4301    0.0000 H   0  0  0  0  0  0  0  0  0  0  0  0
    2.3100    1.9419    0.0000 H   0  0  0  0  0  0  0  0  0  0  0  0
    1.4631    1.7150    0.0000 H   0  0  0  0  0  0  0  0  0  0  0  0
    1.6900    0.8681    0.0000 H   0  0  0  0  0  0  0  0  0  0  0  0
    2.2460   -0.0950    0.0000 H   0  0  0  0  0  0  0  0  0  0  0  0
    2.8660   -0.7150    0.0000 H   0  0  0  0  0  0  0  0  0  0  0  0
    3.4860   -0.0950    0.0000 H   0  0  0  0  0  0  0  0  0  0  0  0
    9.3267    1.8800    0.0000 H   0  0  0  0  0  0  0  0  0  0  0  0
    8.5297    1.8800    0.0000 H   0  0  0  0  0  0  0  0  0  0  0  0
    3.1951   -1.2850    0.0000 H   0  0  0  0  0  0  0  0  0  0  0  0
    6.0010   -1.2850    0.0000 H   0  0  0  0  0  0  0  0  0  0  0  0
    9.7942    0.2850    0.0000 H   0  0  0  0  0  0  0  0  0  0  0  0
    6.3301    3.5250    0.0000 H   0  0  0  0  0  0  0  0  0  0  0  0
    3.1951   -2.9050    0.0000 H   0  0  0  0  0  0  0  0  0  0  0  0
    6.0010   -2.9050    0.0000 H   0  0  0  0  0  0  0  0  0  0  0  0
   10.9157    0.0127    0.0000 H   0  0  0  0  0  0  0  0  0  0  0  0
   11.3142   -0.6776    0.0000 H   0  0  0  0  0  0  0  0  0  0  0  0
   12.6044    0.8224    0.0000 H   0  0  0  0  0  0  0  0  0  0  0  0
   13.0029    1.5127    0.0000 H   0  0  0  0  0  0  0  0  0  0  0  0
    4.0611   -4.4050    0.0000 H   0  0  0  0  0  0  0  0  0  0  0  0
    5.1350   -4.4050    0.0000 H   0  0  0  0  0  0  0  0  0  0  0  0
   11.8554   -1.9050    0.0000 H   0  0  0  0  0  0  0  0  0  0  0  0
   13.2583    0.5250    0.0000 H   0  0  0  0  0  0  0  0  0  0  0  0
   13.7953    2.5950    0.0000 H   0  0  0  0  0  0  0  0  0  0  0  0
   10.9893    2.5950    0.0000 H   0  0  0  0  0  0  0  0  0  0  0  0
   13.2583   -2.7150    0.0000 H   0  0  0  0  0  0  0  0  0  0  0  0
   14.6613   -0.2850    0.0000 H   0  0  0  0  0  0  0  0  0  0  0  0
   13.7953    4.2150    0.0000 H   0  0  0  0  0  0  0  0  0  0  0  0
   10.9893    4.2150    0.0000 H   0  0  0  0  0  0  0  0  0  0  0  0
   14.3704   -3.0950    0.0000 H   0  0  0  0  0  0  0  0  0  0  0  0
   14.9904   -3.7150    0.0000 H   0  0  0  0  0  0  0  0  0  0  0  0
   15.6104   -3.0950    0.0000 H   0  0  0  0  0  0  0  0  0  0  0  0
  1  2  2  0  0  0  0
  1  3  2  0  0  0  0
  1  8  1  0  0  0  0
  1 22  1  0  0  0  0
  4 19  1  0  0  0  0
  4 65  1  0  0  0  0
  5 19  2  0  0  0  0
  6 28  2  0  0  0  0
  7 40  1  0  0  0  0
  7 43  1  0  0  0  0
 13  8  1  6  0  0  0
  8 15  1  0  0  0  0
  9 23  1  0  0  0  0
  9 28  1  0  0  0  0
  9 64  1  0  0  0  0
 10 28  1  0  0  0  0
 10 30  1  0  0  0  0
 10 31  1  0  0  0  0
 11 29  1  0  0  0  0
 11 72  1  0  0  0  0
 11 73  1  0  0  0  0
 12 41  2  0  0  0  0
 12 42  1  0  0  0  0
 13 14  1  0  0  0  0
 13 19  1  0  0  0  0
 13 44  1  0  0  0  0
 14 17  1  0  0  0  0
 14 45  1  0  0  0  0
 14 46  1  0  0  0  0
 15 16  1  0  0  0  0
 15 47  1  0  0  0  0
 15 48  1  0  0  0  0
 16 20  1  0  0  0  0
 16 21  1  0  0  0  0
 16 49  1  0  0  0  0
 17 18  1  0  0  0  0
 17 50  1  0  0  0  0
 17 51  1  0  0  0  0
 18 23  1  0  0  0  0
 18 52  1  0  0  0  0
 18 53  1  0  0  0  0
 20 54  1  0  0  0  0
 20 55  1  0  0  0  0
 20 56  1  0  0  0  0
 21 57  1  0  0  0  0
 21 58  1  0  0  0  0
 21 59  1  0  0  0  0
 22 24  2  0  0  0  0
 22 25  1  0  0  0  0
 23 60  1  0  0  0  0
 23 61  1  0  0  0  0
 24 26  1  0  0  0  0
 24 62  1  0  0  0  0
 25 27  2  0  0  0  0
 25 63  1  0  0  0  0
 26 29  2  0  0  0  0
 26 66  1  0  0  0  0
 27 29  1  0  0  0  0
 27 67  1  0  0  0  0
 30 32  1  0  0  0  0
 30 68  1  0  0  0  0
 30 69  1  0  0  0  0
 31 33  1  0  0  0  0
 31 70  1  0  0  0  0
 31 71  1  0  0  0  0
 32 34  2  0  0  0  0
 32 35  1  0  0  0  0
 33 36  2  0  0  0  0
 33 37  1  0  0  0  0
 34 38  1  0  0  0  0
 34 74  1  0  0  0  0
 35 39  2  0  0  0  0
 35 75  1  0  0  0  0
 36 41  1  0  0  0  0
 36 76  1  0  0  0  0
 37 42  2  0  0  0  0
 37 77  1  0  0  0  0
 38 40  2  0  0  0  0
 38 78  1  0  0  0  0
 39 40  1  0  0  0  0
 39 79  1  0  0  0  0
 41 80  1  0  0  0  0
 42 81  1  0  0  0  0
 43 82  1  0  0  0  0
 43 83  1  0  0  0  0
 43 84  1  0  0  0  0
M  END
> <PUBCHEM_COMPOUND_CID>
513760
> <PUBCHEM_COMPOUND_CANONICALIZED>
1
> <PUBCHEM_CACTVS_COMPLEXITY>
939
> <PUBCHEM_CACTVS_HBOND_ACCEPTOR>
9
> <PUBCHEM_CACTVS_HBOND_DONOR>
3
> <PUBCHEM_CACTVS_ROTATABLE_BOND>
16
> <PUBCHEM_CACTVS_SUBSKEYS>
AAADcfB7uABAAAAAAAAAAAAAAAAAAAAAAAA8YIAAAAAAAAAB0AAAHgQQSAAADSzB2gY/z5PIFgKoAjT3XHDCiDAxIiAI2Lm+bJiOJnLEsbuEcChs1hPY6AeY2AIOIAQAAAAAAABACAAAAAAAAAAAAAAAAA==
> <PUBCHEM_IUPAC_OPENEYE_NAME>
(2S)-2-[(4-aminophenyl)sulfonyl-isobutyl-amino]-6-[[(4-methoxyphenyl)methyl-(4-pyridylmethyl)carbamoyl]amino]hexanoic acid
> <PUBCHEM_IUPAC_CAS_NAME>
(2S)-2-[(4-aminophenyl)sulfonyl-(2-methylpropyl)amino]-6-[[[(4-methoxyphenyl)methyl-(pyridin-4-ylmethyl)amino]-oxomethyl]amino]hexanoic acid
> <PUBCHEM_IUPAC_NAME_MARKUP>
(2<I>S</I>)-2-[(4-aminophenyl)sulfonyl-(2-methylpropyl)amino]-6-[[(4-methoxyphenyl)methyl-(pyridin-4-ylmethyl)carbamoyl]amino]hexanoic acid
> <PUBCHEM_IUPAC_NAME>
(2S)-2-[(4-aminophenyl)sulfonyl-(2-methylpropyl)amino]-6-[[(4-methoxyphenyl)methyl-(pyridin-4-ylmethyl)carbamoyl]amino]hexanoic acid
> <PUBCHEM_IUPAC_SYSTEMATIC_NAME>
(2S)-2-[(4-aminophenyl)sulfonyl-(2-methylpropyl)amino]-6-[[(4-methoxyphenyl)methyl-(pyridin-4-ylmethyl)carbamoyl]amino]hexanoic acid
> <PUBCHEM_IUPAC_TRADITIONAL_NAME>
(2S)-2-[isobutyl(sulfanilyl)amino]-6-[[p-anisyl(4-pyridylmethyl)carbamoyl]amino]hexanoic acid
> <PUBCHEM_IUPAC_INCHI>
InChI=1S/C31H41N5O6S/c1-23(2)20-36(43(40,41)28-13-9-26(32)10-14-28)29(30(37)38)6-4-5-17-34-31(39)35(22-25-15-18-33-19-16-25)21-24-7-11-27(42-3)12-8-24/h7-16,18-19,23,29H,4-6,17,20-22,32H2,1-3H3,(H,34,39)(H,37,38)/t29-/m0/s1
> <PUBCHEM_IUPAC_INCHIKEY>
UYNLNUKVPCOIQP-LJAQVGFWSA-N
> <PUBCHEM_XLOGP3_AA>
3.6
> <PUBCHEM_EXACT_MASS>
611.27775522
> <PUBCHEM_MOLECULAR_FORMULA>
C31H41N5O6S
> <PUBCHEM_MOLECULAR_WEIGHT>
611.8
> <PUBCHEM_OPENEYE_CAN_SMILES>
CC(C)CN(C(CCCCNC(=O)N(CC1=CC=C(C=C1)OC)CC2=CC=NC=C2)C(=O)O)S(=O)(=O)C3=CC=C(C=C3)N
> <PUBCHEM_OPENEYE_ISO_SMILES>
CC(C)CN([C@@H](CCCCNC(=O)N(CC1=CC=C(C=C1)OC)CC2=CC=NC=C2)C(=O)O)S(=O)(=O)C3=CC=C(C=C3)N
> <PUBCHEM_CACTVS_TPSA>
164
> <PUBCHEM_MONOISOTOPIC_WEIGHT>
611.27775522
> <PUBCHEM_TOTAL_CHARGE>
0
> <PUBCHEM_HEAVY_ATOM_COUNT>
43
> <PUBCHEM_ATOM_DEF_STEREO_COUNT>
1
> <PUBCHEM_ATOM_UDEF_STEREO_COUNT>
0
> <PUBCHEM_BOND_DEF_STEREO_COUNT>
0
> <PUBCHEM_BOND_UDEF_STEREO_COUNT>
0
> <PUBCHEM_ISOTOPIC_ATOM_COUNT>
0
> <PUBCHEM_COMPONENT_COUNT>
1
> <PUBCHEM_CACTVS_TAUTO_COUNT>
-1
> <PUBCHEM_COORDINATE_TYPE>
1
5
255
> <PUBCHEM_BONDANNOTATIONS>
12  41  8
12  42  8
22  24  8
22  25  8
24  26  8
25  27  8
26  29  8
27  29  8
32  34  8
32  35  8
33  36  8
33  37  8
34  38  8
35  39  8
36  41  8
37  42  8
38  40  8
39  40  8
13  8  6
$$$$
