513742
  -OEChem-10302200282D
 78 80  0     1  0  0  0  0  0999 V2000
   13.8420   -0.6022    0.0000 S   0  0  0  0  0  0  0  0  0  0  0  0
   14.0482   -1.5807    0.0000 O   0  0  0  0  0  0  0  0  0  0  0  0
   13.6358    0.3763    0.0000 O   0  0  0  0  0  0  0  0  0  0  0  0
   11.8385    1.6307    0.0000 O   0  0  0  0  0  0  0  0  0  0  0  0
   13.4848    1.0926    0.0000 O   0  0  0  0  0  0  0  0  0  0  0  0
   12.8635   -0.8084    0.0000 N   0  0  3  0  0  0  0  0  0  0  0  0
    7.9244    0.8058    0.0000 N   0  0  0  0  0  0  0  0  0  0  0  0
    6.2781    1.3439    0.0000 N   0  0  0  0  0  0  0  0  0  0  0  0
    4.6783   -2.3728    0.0000 N   0  0  0  0  0  0  0  0  0  0  0  0
    7.5673    2.5007    0.0000 N   0  0  0  0  0  0  0  0  0  0  0  0
    9.5243    2.9131    0.0000 N   0  0  0  0  0  0  0  0  0  0  0  0
   12.1957   -0.0641    0.0000 C   0  0  1  0  0  0  0  0  0  0  0  0
   12.5528   -1.7589    0.0000 C   0  0  0  0  0  0  0  0  0  0  0  0
   11.2171   -0.2703    0.0000 C   0  0  0  0  0  0  0  0  0  0  0  0
   11.5743   -1.9652    0.0000 C   0  0  0  0  0  0  0  0  0  0  0  0
   10.5493    0.4740    0.0000 C   0  0  0  0  0  0  0  0  0  0  0  0
    9.5708    0.2678    0.0000 C   0  0  0  0  0  0  0  0  0  0  0  0
   12.5063    0.8864    0.0000 C   0  0  0  0  0  0  0  0  0  0  0  0
   11.2637   -2.9157    0.0000 C   0  0  0  0  0  0  0  0  0  0  0  0
   10.9065   -1.2208    0.0000 C   0  0  0  0  0  0  0  0  0  0  0  0
   14.8205   -0.3960    0.0000 C   0  0  0  0  0  0  0  0  0  0  0  0
    8.9030    1.0121    0.0000 C   0  0  0  0  0  0  0  0  0  0  0  0
   15.4884   -1.1403    0.0000 C   0  0  0  0  0  0  0  0  0  0  0  0
   15.1312    0.5545    0.0000 C   0  0  0  0  0  0  0  0  0  0  0  0
   16.4669   -0.9341    0.0000 C   0  0  0  0  0  0  0  0  0  0  0  0
   16.1097    0.7608    0.0000 C   0  0  0  0  0  0  0  0  0  0  0  0
   16.7775    0.0165    0.0000 C   0  0  0  0  0  0  0  0  0  0  0  0
    4.9889    0.1872    0.0000 C   0  0  0  0  0  0  0  0  0  0  0  0
    4.6783   -0.7633    0.0000 C   0  0  0  0  0  0  0  0  0  0  0  0
    5.9674    0.3934    0.0000 C   0  0  0  0  0  0  0  0  0  0  0  0
    7.2566    1.5501    0.0000 C   0  0  0  0  0  0  0  0  0  0  0  0
    3.7320   -1.0681    0.0000 C   0  0  0  0  0  0  0  0  0  0  0  0
    3.7320   -2.0681    0.0000 C   0  0  0  0  0  0  0  0  0  0  0  0
   17.7560    0.2227    0.0000 C   0  0  0  0  0  0  0  0  0  0  0  0
    5.2619   -1.5681    0.0000 C   0  0  0  0  0  0  0  0  0  0  0  0
    2.8660   -0.5681    0.0000 C   0  0  0  0  0  0  0  0  0  0  0  0
    2.8660   -2.5681    0.0000 C   0  0  0  0  0  0  0  0  0  0  0  0
    2.0000   -1.0681    0.0000 C   0  0  0  0  0  0  0  0  0  0  0  0
    2.0000   -2.0681    0.0000 C   0  0  0  0  0  0  0  0  0  0  0  0
    8.5458    2.7069    0.0000 C   0  0  0  0  0  0  0  0  0  0  0  0
   12.0030   -0.6534    0.0000 H   0  0  0  0  0  0  0  0  0  0  0  0
   12.5734   -2.3786    0.0000 H   0  0  0  0  0  0  0  0  0  0  0  0
   13.1667   -1.8463    0.0000 H   0  0  0  0  0  0  0  0  0  0  0  0
   10.6908   -0.5980    0.0000 H   0  0  0  0  0  0  0  0  0  0  0  0
   11.4484   -0.8456    0.0000 H   0  0  0  0  0  0  0  0  0  0  0  0
   11.7669   -1.3758    0.0000 H   0  0  0  0  0  0  0  0  0  0  0  0
   11.0757    0.8016    0.0000 H   0  0  0  0  0  0  0  0  0  0  0  0
   10.3180    1.0492    0.0000 H   0  0  0  0  0  0  0  0  0  0  0  0
    9.0444   -0.0599    0.0000 H   0  0  0  0  0  0  0  0  0  0  0  0
    9.8021   -0.3075    0.0000 H   0  0  0  0  0  0  0  0  0  0  0  0
   10.6743   -2.7231    0.0000 H   0  0  0  0  0  0  0  0  0  0  0  0
   11.0711   -3.5050    0.0000 H   0  0  0  0  0  0  0  0  0  0  0  0
   11.8530   -3.1083    0.0000 H   0  0  0  0  0  0  0  0  0  0  0  0
   11.3680   -0.8068    0.0000 H   0  0  0  0  0  0  0  0  0  0  0  0
   10.4924   -0.7594    0.0000 H   0  0  0  0  0  0  0  0  0  0  0  0
   10.4450   -1.6349    0.0000 H   0  0  0  0  0  0  0  0  0  0  0  0
    9.4293    1.3397    0.0000 H   0  0  0  0  0  0  0  0  0  0  0  0
    8.6717    1.5873    0.0000 H   0  0  0  0  0  0  0  0  0  0  0  0
   15.2957   -1.7296    0.0000 H   0  0  0  0  0  0  0  0  0  0  0  0
   14.7171    1.0160    0.0000 H   0  0  0  0  0  0  0  0  0  0  0  0
   12.0311    2.2200    0.0000 H   0  0  0  0  0  0  0  0  0  0  0  0
   16.8809   -1.3955    0.0000 H   0  0  0  0  0  0  0  0  0  0  0  0
   16.3023    1.3501    0.0000 H   0  0  0  0  0  0  0  0  0  0  0  0
    4.9684    0.8068    0.0000 H   0  0  0  0  0  0  0  0  0  0  0  0
    4.3751    0.2745    0.0000 H   0  0  0  0  0  0  0  0  0  0  0  0
    5.9880   -0.2263    0.0000 H   0  0  0  0  0  0  0  0  0  0  0  0
    6.5812    0.3060    0.0000 H   0  0  0  0  0  0  0  0  0  0  0  0
    5.8640    1.8054    0.0000 H   0  0  0  0  0  0  0  0  0  0  0  0
   17.8839   -0.3840    0.0000 H   0  0  0  0  0  0  0  0  0  0  0  0
   18.3627    0.3505    0.0000 H   0  0  0  0  0  0  0  0  0  0  0  0
   17.6282    0.8294    0.0000 H   0  0  0  0  0  0  0  0  0  0  0  0
    5.8819   -1.5681    0.0000 H   0  0  0  0  0  0  0  0  0  0  0  0
    4.8709   -2.9621    0.0000 H   0  0  0  0  0  0  0  0  0  0  0  0
    2.8660    0.0519    0.0000 H   0  0  0  0  0  0  0  0  0  0  0  0
    2.8660   -3.1881    0.0000 H   0  0  0  0  0  0  0  0  0  0  0  0
    7.1532    2.9621    0.0000 H   0  0  0  0  0  0  0  0  0  0  0  0
    1.4631   -0.7581    0.0000 H   0  0  0  0  0  0  0  0  0  0  0  0
    1.4631   -2.3781    0.0000 H   0  0  0  0  0  0  0  0  0  0  0  0
  1  2  2  0  0  0  0
  1  3  2  0  0  0  0
  1  6  1  0  0  0  0
  1 21  1  0  0  0  0
  4 18  1  0  0  0  0
  4 61  1  0  0  0  0
  5 18  2  0  0  0  0
 12  6  1  1  0  0  0
  6 13  1  0  0  0  0
  7 22  1  0  0  0  0
  7 31  2  0  0  0  0
  8 30  1  0  0  0  0
  8 31  1  0  0  0  0
  8 68  1  0  0  0  0
  9 33  1  0  0  0  0
  9 35  1  0  0  0  0
  9 73  1  0  0  0  0
 10 31  1  0  0  0  0
 10 40  1  0  0  0  0
 10 76  1  0  0  0  0
 11 40  3  0  0  0  0
 12 14  1  0  0  0  0
 12 18  1  0  0  0  0
 12 41  1  0  0  0  0
 13 15  1  0  0  0  0
 13 42  1  0  0  0  0
 13 43  1  0  0  0  0
 14 16  1  0  0  0  0
 14 44  1  0  0  0  0
 14 45  1  0  0  0  0
 15 19  1  0  0  0  0
 15 20  1  0  0  0  0
 15 46  1  0  0  0  0
 16 17  1  0  0  0  0
 16 47  1  0  0  0  0
 16 48  1  0  0  0  0
 17 22  1  0  0  0  0
 17 49  1  0  0  0  0
 17 50  1  0  0  0  0
 19 51  1  0  0  0  0
 19 52  1  0  0  0  0
 19 53  1  0  0  0  0
 20 54  1  0  0  0  0
 20 55  1  0  0  0  0
 20 56  1  0  0  0  0
 21 23  2  0  0  0  0
 21 24  1  0  0  0  0
 22 57  1  0  0  0  0
 22 58  1  0  0  0  0
 23 25  1  0  0  0  0
 23 59  1  0  0  0  0
 24 26  2  0  0  0  0
 24 60  1  0  0  0  0
 25 27  2  0  0  0  0
 25 62  1  0  0  0  0
 26 27  1  0  0  0  0
 26 63  1  0  0  0  0
 27 34  1  0  0  0  0
 28 29  1  0  0  0  0
 28 30  1  0  0  0  0
 28 64  1  0  0  0  0
 28 65  1  0  0  0  0
 29 32  1  0  0  0  0
 29 35  2  0  0  0  0
 30 66  1  0  0  0  0
 30 67  1  0  0  0  0
 32 33  1  0  0  0  0
 32 36  2  0  0  0  0
 33 37  2  0  0  0  0
 34 69  1  0  0  0  0
 34 70  1  0  0  0  0
 34 71  1  0  0  0  0
 35 72  1  0  0  0  0
 36 38  1  0  0  0  0
 36 74  1  0  0  0  0
 37 39  1  0  0  0  0
 37 75  1  0  0  0  0
 38 39  2  0  0  0  0
 38 77  1  0  0  0  0
 39 78  1  0  0  0  0
M  END
> <PUBCHEM_COMPOUND_CID>
513742
> <PUBCHEM_COMPOUND_CANONICALIZED>
1
> <PUBCHEM_CACTVS_COMPLEXITY>
980
> <PUBCHEM_CACTVS_HBOND_ACCEPTOR>
7
> <PUBCHEM_CACTVS_HBOND_DONOR>
4
> <PUBCHEM_CACTVS_ROTATABLE_BOND>
16
> <PUBCHEM_CACTVS_SUBSKEYS>
AAADcfB7uABAAAAAAAAAAAAAAAAAAWAAAAAwYAAAAAAAAFgB9AAAHgQQSAAADSjB3gQ/yfLJkgK4AzT3bHDCgDExAiAJ2bm4ZJiKIPLAmbGEYAhskALYyAeYyMAOkAAAAAACAAAgAAAAAAQAAAAAAAAAAA==
> <PUBCHEM_IUPAC_OPENEYE_NAME>
(2S)-6-[[(cyanoamino)-[2-(1H-indol-3-yl)ethylamino]methylene]amino]-2-[isobutyl(p-tolylsulfonyl)amino]hexanoic acid
> <PUBCHEM_IUPAC_CAS_NAME>
(2S)-6-[[(cyanoamino)-[2-(1H-indol-3-yl)ethylamino]methylidene]amino]-2-[(4-methylphenyl)sulfonyl-(2-methylpropyl)amino]hexanoic acid
> <PUBCHEM_IUPAC_NAME_MARKUP>
(2<I>S</I>)-6-[[(cyanoamino)-[2-(1<I>H</I>-indol-3-yl)ethylamino]methylidene]amino]-2-[(4-methylphenyl)sulfonyl-(2-methylpropyl)amino]hexanoic acid
> <PUBCHEM_IUPAC_NAME>
(2S)-6-[[(cyanoamino)-[2-(1H-indol-3-yl)ethylamino]methylidene]amino]-2-[(4-methylphenyl)sulfonyl-(2-methylpropyl)amino]hexanoic acid
> <PUBCHEM_IUPAC_SYSTEMATIC_NAME>
(2S)-6-[[(cyanoamino)-[2-(1H-indol-3-yl)ethylamino]methylidene]amino]-2-[(4-methylphenyl)sulfonyl-(2-methylpropyl)amino]hexanoic acid
> <PUBCHEM_IUPAC_TRADITIONAL_NAME>
(2S)-6-[[(cyanoamino)-[2-(1H-indol-3-yl)ethylamino]methylene]amino]-2-[isobutyl(tosyl)amino]hexanoic acid
> <PUBCHEM_IUPAC_INCHI>
InChI=1S/C29H38N6O4S/c1-21(2)19-35(40(38,39)24-13-11-22(3)12-14-24)27(28(36)37)10-6-7-16-31-29(34-20-30)32-17-15-23-18-33-26-9-5-4-8-25(23)26/h4-5,8-9,11-14,18,21,27,33H,6-7,10,15-17,19H2,1-3H3,(H,36,37)(H2,31,32,34)/t27-/m0/s1
> <PUBCHEM_IUPAC_INCHIKEY>
JEPTYNLMVRUZRZ-MHZLTWQESA-N
> <PUBCHEM_XLOGP3_AA>
4.9
> <PUBCHEM_EXACT_MASS>
566.26752489
> <PUBCHEM_MOLECULAR_FORMULA>
C29H38N6O4S
> <PUBCHEM_MOLECULAR_WEIGHT>
566.7
> <PUBCHEM_OPENEYE_CAN_SMILES>
CC1=CC=C(C=C1)S(=O)(=O)N(CC(C)C)C(CCCCN=C(NCCC2=CNC3=CC=CC=C32)NC#N)C(=O)O
> <PUBCHEM_OPENEYE_ISO_SMILES>
CC1=CC=C(C=C1)S(=O)(=O)N(CC(C)C)[C@@H](CCCCN=C(NCCC2=CNC3=CC=CC=C32)NC#N)C(=O)O
> <PUBCHEM_CACTVS_TPSA>
159
> <PUBCHEM_MONOISOTOPIC_WEIGHT>
566.26752489
> <PUBCHEM_TOTAL_CHARGE>
0
> <PUBCHEM_HEAVY_ATOM_COUNT>
40
> <PUBCHEM_ATOM_DEF_STEREO_COUNT>
1
> <PUBCHEM_ATOM_UDEF_STEREO_COUNT>
0
> <PUBCHEM_BOND_DEF_STEREO_COUNT>
0
> <PUBCHEM_BOND_UDEF_STEREO_COUNT>
0
> <PUBCHEM_ISOTOPIC_ATOM_COUNT>
0
> <PUBCHEM_COMPONENT_COUNT>
1
> <PUBCHEM_CACTVS_TAUTO_COUNT>
-1
> <PUBCHEM_COORDINATE_TYPE>
1
5
255
> <PUBCHEM_BONDANNOTATIONS>
21  23  8
21  24  8
23  25  8
24  26  8
25  27  8
26  27  8
29  32  8
29  35  8
32  33  8
32  36  8
33  37  8
36  38  8
37  39  8
38  39  8
12  6  5
9  33  8
9  35  8
$$$$
