513792
  -OEChem-10302200282D
 82 85  0     1  0  0  0  0  0999 V2000
    6.0010    3.2912    0.0000 S   0  0  0  0  0  0  0  0  0  0  0  0
    8.3825   -5.9112    0.0000 S   0  0  0  0  0  0  0  0  0  0  0  0
    6.0010    0.2912    0.0000 O   0  0  0  0  0  0  0  0  0  0  0  0
    6.5010    4.1572    0.0000 O   0  0  0  0  0  0  0  0  0  0  0  0
    5.5010    2.4252    0.0000 O   0  0  0  0  0  0  0  0  0  0  0  0
    8.5991   -3.2088    0.0000 O   0  0  0  0  0  0  0  0  0  0  0  0
   14.7415   -2.9040    0.0000 O   0  0  0  0  0  0  0  0  0  0  0  0
   14.7415   -4.5135    0.0000 O   0  0  0  0  0  0  0  0  0  0  0  0
    6.8671    2.7912    0.0000 N   0  0  3  0  0  0  0  0  0  0  0  0
    9.4651   -1.7088    0.0000 N   0  0  0  0  0  0  0  0  0  0  0  0
   10.3312   -3.2088    0.0000 N   0  0  0  0  0  0  0  0  0  0  0  0
    2.5369    5.2912    0.0000 N   0  0  0  0  0  0  0  0  0  0  0  0
    6.8671    1.7912    0.0000 C   0  0  1  0  0  0  0  0  0  0  0  0
    7.7331    1.2912    0.0000 C   0  0  0  0  0  0  0  0  0  0  0  0
    7.7331    3.2912    0.0000 C   0  0  0  0  0  0  0  0  0  0  0  0
    7.7331    0.2912    0.0000 C   0  0  0  0  0  0  0  0  0  0  0  0
    8.5991    2.7912    0.0000 C   0  0  0  0  0  0  0  0  0  0  0  0
    6.0010    1.2912    0.0000 C   0  0  0  0  0  0  0  0  0  0  0  0
    8.5991   -0.2088    0.0000 C   0  0  0  0  0  0  0  0  0  0  0  0
    5.1350    3.7912    0.0000 C   0  0  0  0  0  0  0  0  0  0  0  0
    9.4651    3.2912    0.0000 C   0  0  0  0  0  0  0  0  0  0  0  0
    8.5991    1.7912    0.0000 C   0  0  0  0  0  0  0  0  0  0  0  0
    8.5991   -1.2088    0.0000 C   0  0  0  0  0  0  0  0  0  0  0  0
    5.1350    4.7912    0.0000 C   0  0  0  0  0  0  0  0  0  0  0  0
    4.2690    3.2912    0.0000 C   0  0  0  0  0  0  0  0  0  0  0  0
    4.2690    5.2912    0.0000 C   0  0  0  0  0  0  0  0  0  0  0  0
    3.4030    3.7912    0.0000 C   0  0  0  0  0  0  0  0  0  0  0  0
    9.4651   -2.7088    0.0000 C   0  0  0  0  0  0  0  0  0  0  0  0
    3.4030    4.7912    0.0000 C   0  0  0  0  0  0  0  0  0  0  0  0
   11.1972   -2.7088    0.0000 C   0  0  0  0  0  0  0  0  0  0  0  0
   10.3312   -4.2088    0.0000 C   0  0  0  0  0  0  0  0  0  0  0  0
   12.0632   -3.2088    0.0000 C   0  0  0  0  0  0  0  0  0  0  0  0
    9.4651   -4.7088    0.0000 C   0  0  0  0  0  0  0  0  0  0  0  0
   12.9292   -2.7088    0.0000 C   0  0  0  0  0  0  0  0  0  0  0  0
   12.0632   -4.2088    0.0000 C   0  0  0  0  0  0  0  0  0  0  0  0
   13.7953   -3.2088    0.0000 C   0  0  0  0  0  0  0  0  0  0  0  0
   13.7953   -4.2088    0.0000 C   0  0  0  0  0  0  0  0  0  0  0  0
   12.9292   -4.7088    0.0000 C   0  0  0  0  0  0  0  0  0  0  0  0
    8.5516   -4.3021    0.0000 C   0  0  0  0  0  0  0  0  0  0  0  0
    9.3606   -5.7033    0.0000 C   0  0  0  0  0  0  0  0  0  0  0  0
   15.3251   -3.7088    0.0000 C   0  0  0  0  0  0  0  0  0  0  0  0
    7.8825   -5.0452    0.0000 C   0  0  0  0  0  0  0  0  0  0  0  0
    6.3301    2.1012    0.0000 H   0  0  0  0  0  0  0  0  0  0  0  0
    8.3437    1.1836    0.0000 H   0  0  0  0  0  0  0  0  0  0  0  0
    7.9451    1.8738    0.0000 H   0  0  0  0  0  0  0  0  0  0  0  0
    8.1316    3.7662    0.0000 H   0  0  0  0  0  0  0  0  0  0  0  0
    7.3346    3.7662    0.0000 H   0  0  0  0  0  0  0  0  0  0  0  0
    7.1225    0.3989    0.0000 H   0  0  0  0  0  0  0  0  0  0  0  0
    7.5210   -0.2914    0.0000 H   0  0  0  0  0  0  0  0  0  0  0  0
    8.5991    3.4112    0.0000 H   0  0  0  0  0  0  0  0  0  0  0  0
    5.7890    1.8738    0.0000 H   0  0  0  0  0  0  0  0  0  0  0  0
    5.3905    1.1836    0.0000 H   0  0  0  0  0  0  0  0  0  0  0  0
    9.2097   -0.3164    0.0000 H   0  0  0  0  0  0  0  0  0  0  0  0
    8.8112    0.3738    0.0000 H   0  0  0  0  0  0  0  0  0  0  0  0
    9.7751    2.7543    0.0000 H   0  0  0  0  0  0  0  0  0  0  0  0
   10.0021    3.6012    0.0000 H   0  0  0  0  0  0  0  0  0  0  0  0
    9.1551    3.8282    0.0000 H   0  0  0  0  0  0  0  0  0  0  0  0
    7.9791    1.7912    0.0000 H   0  0  0  0  0  0  0  0  0  0  0  0
    8.5991    1.1712    0.0000 H   0  0  0  0  0  0  0  0  0  0  0  0
    9.2191    1.7912    0.0000 H   0  0  0  0  0  0  0  0  0  0  0  0
    7.9885   -1.1011    0.0000 H   0  0  0  0  0  0  0  0  0  0  0  0
    8.3871   -1.7914    0.0000 H   0  0  0  0  0  0  0  0  0  0  0  0
    5.4641   -0.0188    0.0000 H   0  0  0  0  0  0  0  0  0  0  0  0
    5.6720    5.1012    0.0000 H   0  0  0  0  0  0  0  0  0  0  0  0
    4.2690    2.6712    0.0000 H   0  0  0  0  0  0  0  0  0  0  0  0
   10.0021   -1.3988    0.0000 H   0  0  0  0  0  0  0  0  0  0  0  0
    4.2690    5.9112    0.0000 H   0  0  0  0  0  0  0  0  0  0  0  0
    2.8660    3.4812    0.0000 H   0  0  0  0  0  0  0  0  0  0  0  0
   11.5957   -2.2338    0.0000 H   0  0  0  0  0  0  0  0  0  0  0  0
   10.7987   -2.2338    0.0000 H   0  0  0  0  0  0  0  0  0  0  0  0
   10.5432   -4.7914    0.0000 H   0  0  0  0  0  0  0  0  0  0  0  0
   10.9417   -4.1011    0.0000 H   0  0  0  0  0  0  0  0  0  0  0  0
    2.5369    5.9112    0.0000 H   0  0  0  0  0  0  0  0  0  0  0  0
    2.0000    4.9812    0.0000 H   0  0  0  0  0  0  0  0  0  0  0  0
   12.9292   -2.0888    0.0000 H   0  0  0  0  0  0  0  0  0  0  0  0
   11.5263   -4.5188    0.0000 H   0  0  0  0  0  0  0  0  0  0  0  0
   12.9292   -5.3288    0.0000 H   0  0  0  0  0  0  0  0  0  0  0  0
    8.4227   -3.6956    0.0000 H   0  0  0  0  0  0  0  0  0  0  0  0
    9.8214   -6.1182    0.0000 H   0  0  0  0  0  0  0  0  0  0  0  0
   15.7860   -4.1235    0.0000 H   0  0  0  0  0  0  0  0  0  0  0  0
   15.7860   -3.2940    0.0000 H   0  0  0  0  0  0  0  0  0  0  0  0
    7.2659   -4.9804    0.0000 H   0  0  0  0  0  0  0  0  0  0  0  0
  1  4  2  0  0  0  0
  1  5  2  0  0  0  0
  1  9  1  0  0  0  0
  1 20  1  0  0  0  0
  2 40  1  0  0  0  0
  2 42  1  0  0  0  0
  3 18  1  0  0  0  0
  3 63  1  0  0  0  0
  6 28  2  0  0  0  0
  7 36  1  0  0  0  0
  7 41  1  0  0  0  0
  8 37  1  0  0  0  0
  8 41  1  0  0  0  0
 13  9  1  1  0  0  0
  9 15  1  0  0  0  0
 10 23  1  0  0  0  0
 10 28  1  0  0  0  0
 10 66  1  0  0  0  0
 11 28  1  0  0  0  0
 11 30  1  0  0  0  0
 11 31  1  0  0  0  0
 12 29  1  0  0  0  0
 12 73  1  0  0  0  0
 12 74  1  0  0  0  0
 13 14  1  0  0  0  0
 13 18  1  0  0  0  0
 13 43  1  0  0  0  0
 14 16  1  0  0  0  0
 14 44  1  0  0  0  0
 14 45  1  0  0  0  0
 15 17  1  0  0  0  0
 15 46  1  0  0  0  0
 15 47  1  0  0  0  0
 16 19  1  0  0  0  0
 16 48  1  0  0  0  0
 16 49  1  0  0  0  0
 17 21  1  0  0  0  0
 17 22  1  0  0  0  0
 17 50  1  0  0  0  0
 18 51  1  0  0  0  0
 18 52  1  0  0  0  0
 19 23  1  0  0  0  0
 19 53  1  0  0  0  0
 19 54  1  0  0  0  0
 20 24  2  0  0  0  0
 20 25  1  0  0  0  0
 21 55  1  0  0  0  0
 21 56  1  0  0  0  0
 21 57  1  0  0  0  0
 22 58  1  0  0  0  0
 22 59  1  0  0  0  0
 22 60  1  0  0  0  0
 23 61  1  0  0  0  0
 23 62  1  0  0  0  0
 24 26  1  0  0  0  0
 24 64  1  0  0  0  0
 25 27  2  0  0  0  0
 25 65  1  0  0  0  0
 26 29  2  0  0  0  0
 26 67  1  0  0  0  0
 27 29  1  0  0  0  0
 27 68  1  0  0  0  0
 30 32  1  0  0  0  0
 30 69  1  0  0  0  0
 30 70  1  0  0  0  0
 31 33  1  0  0  0  0
 31 71  1  0  0  0  0
 31 72  1  0  0  0  0
 32 34  2  0  0  0  0
 32 35  1  0  0  0  0
 33 39  1  0  0  0  0
 33 40  2  0  0  0  0
 34 36  1  0  0  0  0
 34 75  1  0  0  0  0
 35 38  2  0  0  0  0
 35 76  1  0  0  0  0
 36 37  2  0  0  0  0
 37 38  1  0  0  0  0
 38 77  1  0  0  0  0
 39 42  2  0  0  0  0
 39 78  1  0  0  0  0
 40 79  1  0  0  0  0
 41 80  1  0  0  0  0
 41 81  1  0  0  0  0
 42 82  1  0  0  0  0
M  END
> <PUBCHEM_COMPOUND_CID>
513792
> <PUBCHEM_COMPOUND_CANONICALIZED>
1
> <PUBCHEM_CACTVS_COMPLEXITY>
927
> <PUBCHEM_CACTVS_HBOND_ACCEPTOR>
9
> <PUBCHEM_CACTVS_HBOND_DONOR>
3
> <PUBCHEM_CACTVS_ROTATABLE_BOND>
15
> <PUBCHEM_CACTVS_SUBSKEYS>
AAADcfB7uABgAAAAAAAAAAAAAAAAASJAAAAwYAAAAAAAAEgB0AAAHgQQSAAADSzl2Aezz4PABgqMAiRCUHDDCJAgKhBIiJgO7IifNiKksZukcCps1hO+6Aew0BIOIAQBAAAAQABACAIAAACAAAAAAAAAAA==
> <PUBCHEM_IUPAC_OPENEYE_NAME>
3-[(5S)-5-[(4-aminophenyl)sulfonyl-isobutyl-amino]-6-hydroxy-hexyl]-1-(1,3-benzodioxol-5-ylmethyl)-1-(3-thienylmethyl)urea
> <PUBCHEM_IUPAC_CAS_NAME>
3-[(5S)-5-[(4-aminophenyl)sulfonyl-(2-methylpropyl)amino]-6-hydroxyhexyl]-1-(1,3-benzodioxol-5-ylmethyl)-1-(3-thiophenylmethyl)urea
> <PUBCHEM_IUPAC_NAME_MARKUP>
3-[(5<I>S</I>)-5-[(4-aminophenyl)sulfonyl-(2-methylpropyl)amino]-6-hydroxyhexyl]-1-(1,3-benzodioxol-5-ylmethyl)-1-(thiophen-3-ylmethyl)urea
> <PUBCHEM_IUPAC_NAME>
3-[(5S)-5-[(4-aminophenyl)sulfonyl-(2-methylpropyl)amino]-6-hydroxyhexyl]-1-(1,3-benzodioxol-5-ylmethyl)-1-(thiophen-3-ylmethyl)urea
> <PUBCHEM_IUPAC_SYSTEMATIC_NAME>
3-[(5S)-5-[(4-aminophenyl)sulfonyl-(2-methylpropyl)amino]-6-oxidanyl-hexyl]-1-(1,3-benzodioxol-5-ylmethyl)-1-(thiophen-3-ylmethyl)urea
> <PUBCHEM_IUPAC_TRADITIONAL_NAME>
3-[(5S)-6-hydroxy-5-[isobutyl(sulfanilyl)amino]hexyl]-1-piperonyl-1-(3-thenyl)urea
> <PUBCHEM_IUPAC_INCHI>
InChI=1S/C30H40N4O6S2/c1-22(2)16-34(42(37,38)27-9-7-25(31)8-10-27)26(19-35)5-3-4-13-32-30(36)33(18-24-12-14-41-20-24)17-23-6-11-28-29(15-23)40-21-39-28/h6-12,14-15,20,22,26,35H,3-5,13,16-19,21,31H2,1-2H3,(H,32,36)/t26-/m0/s1
> <PUBCHEM_IUPAC_INCHIKEY>
CULKWWDNMBXCFU-SANMLTNESA-N
> <PUBCHEM_XLOGP3_AA>
4
> <PUBCHEM_EXACT_MASS>
616.23892736
> <PUBCHEM_MOLECULAR_FORMULA>
C30H40N4O6S2
> <PUBCHEM_MOLECULAR_WEIGHT>
616.8
> <PUBCHEM_OPENEYE_CAN_SMILES>
CC(C)CN(C(CCCCNC(=O)N(CC1=CC2=C(C=C1)OCO2)CC3=CSC=C3)CO)S(=O)(=O)C4=CC=C(C=C4)N
> <PUBCHEM_OPENEYE_ISO_SMILES>
CC(C)CN([C@@H](CCCCNC(=O)N(CC1=CC2=C(C=C1)OCO2)CC3=CSC=C3)CO)S(=O)(=O)C4=CC=C(C=C4)N
> <PUBCHEM_CACTVS_TPSA>
171
> <PUBCHEM_MONOISOTOPIC_WEIGHT>
616.23892736
> <PUBCHEM_TOTAL_CHARGE>
0
> <PUBCHEM_HEAVY_ATOM_COUNT>
42
> <PUBCHEM_ATOM_DEF_STEREO_COUNT>
1
> <PUBCHEM_ATOM_UDEF_STEREO_COUNT>
0
> <PUBCHEM_BOND_DEF_STEREO_COUNT>
0
> <PUBCHEM_BOND_UDEF_STEREO_COUNT>
0
> <PUBCHEM_ISOTOPIC_ATOM_COUNT>
0
> <PUBCHEM_COMPONENT_COUNT>
1
> <PUBCHEM_CACTVS_TAUTO_COUNT>
-1
> <PUBCHEM_COORDINATE_TYPE>
1
5
255
> <PUBCHEM_BONDANNOTATIONS>
2  40  8
2  42  8
20  24  8
20  25  8
24  26  8
25  27  8
26  29  8
27  29  8
32  34  8
32  35  8
33  39  8
33  40  8
34  36  8
35  38  8
36  37  8
37  38  8
39  42  8
13  9  5
$$$$
