513709
  -OEChem-10302200282D
114125  0     1  0  0  0  0  0999 V2000
   17.2565    7.0802    0.0000 Cl  0  5  0  0  0  0  0  0  0  0  0  0
   17.2565    9.7688    0.0000 Cl  0  5  0  0  0  0  0  0  0  0  0  0
    5.0128   11.8990    0.0000 O   0  0  0  0  0  0  0  0  0  0  0  0
   10.3517    3.3027    0.0000 O   0  0  0  0  0  0  0  0  0  0  0  0
    6.1265   14.2989    0.0000 O   0  0  0  0  0  0  0  0  0  0  0  0
   12.3053    1.5185    0.0000 O   0  0  0  0  0  0  0  0  0  0  0  0
    4.8694    9.2571    0.0000 N   0  3  3  0  0  0  0  0  0  0  0  0
    7.8754    4.2343    0.0000 N   0  3  0  0  0  0  0  0  0  0  0  0
    6.2699   16.9408    0.0000 N   0  0  0  0  0  0  0  0  0  0  0  0
   14.7816    0.5868    0.0000 N   0  0  0  0  0  0  0  0  0  0  0  0
    4.1625    7.0326    0.0000 C   0  0  0  0  0  0  0  0  0  0  0  0
    3.2965    7.5326    0.0000 C   0  0  0  0  0  0  0  0  0  0  0  0
    5.4107    7.8605    0.0000 C   0  0  0  0  0  0  0  0  0  0  0  0
    3.3893    9.0276    0.0000 C   0  0  0  0  0  0  0  0  0  0  0  0
    5.0285    7.5326    0.0000 C   0  0  0  0  0  0  0  0  0  0  0  0
    4.1786    5.9911    0.0000 C   0  0  0  0  0  0  0  0  0  0  0  0
    3.2965    8.5326    0.0000 C   0  0  0  0  0  0  0  0  0  0  0  0
    2.3865    7.0258    0.0000 C   0  0  0  0  0  0  0  0  0  0  0  0
    5.6464    6.7543    0.0000 C   0  0  0  0  0  0  0  0  0  0  0  0
    5.1666    5.8840    0.0000 C   0  0  0  0  0  0  0  0  0  0  0  0
    5.0285    8.5326    0.0000 C   0  0  0  0  0  0  0  0  0  0  0  0
    3.2805    5.4634    0.0000 C   0  0  0  0  0  0  0  0  0  0  0  0
    4.1625    9.0326    0.0000 C   0  0  0  0  0  0  0  0  0  0  0  0
    2.3784    5.9842    0.0000 C   0  0  0  0  0  0  0  0  0  0  0  0
    2.3134    8.6786    0.0000 C   0  0  0  0  0  0  0  0  0  0  0  0
    1.7997    7.8279    0.0000 C   0  0  0  0  0  0  0  0  0  0  0  0
    6.9606    5.5708    0.0000 C   0  0  3  0  0  0  0  0  0  0  0  0
    6.3479    4.7726    0.0000 C   0  0  3  0  0  0  0  0  0  0  0  0
    6.5473    7.1489    0.0000 C   0  0  0  0  0  0  0  0  0  0  0  0
    5.3448    4.8518    0.0000 C   0  0  0  0  0  0  0  0  0  0  0  0
    4.5938   10.2184    0.0000 C   0  0  0  0  0  0  0  0  0  0  0  0
    5.3078   10.1559    0.0000 C   0  0  0  0  0  0  0  0  0  0  0  0
    5.9799    8.7817    0.0000 C   0  0  0  0  0  0  0  0  0  0  0  0
    3.5577    4.4533    0.0000 C   0  0  0  0  0  0  0  0  0  0  0  0
    3.9024    9.9811    0.0000 C   0  0  0  0  0  0  0  0  0  0  0  0
    1.3650    5.7192    0.0000 C   0  0  0  0  0  0  0  0  0  0  0  0
    7.9026    5.2342    0.0000 C   0  0  0  0  0  0  0  0  0  0  0  0
    6.9165    3.9496    0.0000 C   0  0  0  0  0  0  0  0  0  0  0  0
    5.6872    9.7323    0.0000 C   0  0  0  0  0  0  0  0  0  0  0  0
    1.6778    4.7192    0.0000 C   0  0  0  0  0  0  0  0  0  0  0  0
    6.7069    8.1193    0.0000 C   0  0  0  0  0  0  0  0  0  0  0  0
    4.5621    4.1557    0.0000 C   0  0  0  0  0  0  0  0  0  0  0  0
    2.2047    9.6560    0.0000 C   0  0  0  0  0  0  0  0  0  0  0  0
    0.8166    7.4661    0.0000 C   0  0  0  0  0  0  0  0  0  0  0  0
    2.9653   10.2795    0.0000 C   0  0  0  0  0  0  0  0  0  0  0  0
    0.6052    6.4402    0.0000 C   0  0  0  0  0  0  0  0  0  0  0  0
    5.2884   10.9377    0.0000 C   0  0  0  0  0  0  0  0  0  0  0  0
    8.8750    4.2080    0.0000 C   0  0  0  0  0  0  0  0  0  0  0  0
    1.2361    9.7922    0.0000 C   0  0  0  0  0  0  0  0  0  0  0  0
    0.5944    9.0539    0.0000 C   0  0  0  0  0  0  0  0  0  0  0  0
    8.1592    3.2755    0.0000 C   0  0  0  0  0  0  0  0  0  0  0  0
    9.3520    3.3290    0.0000 C   0  0  0  0  0  0  0  0  0  0  0  0
    5.7075   12.6183    0.0000 C   0  0  0  0  0  0  0  0  0  0  0  0
    5.4318   13.5796    0.0000 C   0  0  0  0  0  0  0  0  0  0  0  0
   10.8286    2.4238    0.0000 C   0  0  0  0  0  0  0  0  0  0  0  0
   11.8283    2.3974    0.0000 C   0  0  0  0  0  0  0  0  0  0  0  0
    5.8508   15.2602    0.0000 C   0  0  0  0  0  0  0  0  0  0  0  0
    6.5455   15.9795    0.0000 C   0  0  0  0  0  0  0  0  0  0  0  0
   13.3049    1.4921    0.0000 C   0  0  0  0  0  0  0  0  0  0  0  0
   13.7819    0.6132    0.0000 C   0  0  0  0  0  0  0  0  0  0  0  0
    5.7154    7.3205    0.0000 H   0  0  0  0  0  0  0  0  0  0  0  0
    5.9712    8.1256    0.0000 H   0  0  0  0  0  0  0  0  0  0  0  0
    3.3386    9.6455    0.0000 H   0  0  0  0  0  0  0  0  0  0  0  0
    2.7694    9.0214    0.0000 H   0  0  0  0  0  0  0  0  0  0  0  0
    7.4177    5.9897    0.0000 H   0  0  0  0  0  0  0  0  0  0  0  0
    6.0385    4.2353    0.0000 H   0  0  0  0  0  0  0  0  0  0  0  0
    4.2294   10.7199    0.0000 H   0  0  0  0  0  0  0  0  0  0  0  0
    4.0365    9.9466    0.0000 H   0  0  0  0  0  0  0  0  0  0  0  0
    5.8650    9.8841    0.0000 H   0  0  0  0  0  0  0  0  0  0  0  0
    5.5796   10.7131    0.0000 H   0  0  0  0  0  0  0  0  0  0  0  0
    4.7505   10.4277    0.0000 H   0  0  0  0  0  0  0  0  0  0  0  0
    8.5172    5.1523    0.0000 H   0  0  0  0  0  0  0  0  0  0  0  0
    8.0487    5.8368    0.0000 H   0  0  0  0  0  0  0  0  0  0  0  0
    6.3721    3.6528    0.0000 H   0  0  0  0  0  0  0  0  0  0  0  0
    7.1544    3.3771    0.0000 H   0  0  0  0  0  0  0  0  0  0  0  0
    6.3000    9.8268    0.0000 H   0  0  0  0  0  0  0  0  0  0  0  0
    5.6828   10.3523    0.0000 H   0  0  0  0  0  0  0  0  0  0  0  0
    1.0652    4.6234    0.0000 H   0  0  0  0  0  0  0  0  0  0  0  0
    1.6823    4.0993    0.0000 H   0  0  0  0  0  0  0  0  0  0  0  0
    7.2926    8.3228    0.0000 H   0  0  0  0  0  0  0  0  0  0  0  0
    4.6970    3.5506    0.0000 H   0  0  0  0  0  0  0  0  0  0  0  0
    2.8487   10.8884    0.0000 H   0  0  0  0  0  0  0  0  0  0  0  0
    0.0136    6.2545    0.0000 H   0  0  0  0  0  0  0  0  0  0  0  0
    5.6529   10.4361    0.0000 H   0  0  0  0  0  0  0  0  0  0  0  0
    5.8457   11.2095    0.0000 H   0  0  0  0  0  0  0  0  0  0  0  0
    9.4630    4.4046    0.0000 H   0  0  0  0  0  0  0  0  0  0  0  0
    8.7835    4.8212    0.0000 H   0  0  0  0  0  0  0  0  0  0  0  0
    1.0189   10.3729    0.0000 H   0  0  0  0  0  0  0  0  0  0  0  0
    0.0000    9.2301    0.0000 H   0  0  0  0  0  0  0  0  0  0  0  0
    7.5647    3.0995    0.0000 H   0  0  0  0  0  0  0  0  0  0  0  0
    8.3352    2.6810    0.0000 H   0  0  0  0  0  0  0  0  0  0  0  0
    8.7537    3.4514    0.0000 H   0  0  0  0  0  0  0  0  0  0  0  0
    8.7640    3.1324    0.0000 H   0  0  0  0  0  0  0  0  0  0  0  0
    9.4435    2.7158    0.0000 H   0  0  0  0  0  0  0  0  0  0  0  0
    6.0719   12.1167    0.0000 H   0  0  0  0  0  0  0  0  0  0  0  0
    6.2647   12.8901    0.0000 H   0  0  0  0  0  0  0  0  0  0  0  0
    5.0674   14.0812    0.0000 H   0  0  0  0  0  0  0  0  0  0  0  0
    4.8746   13.3078    0.0000 H   0  0  0  0  0  0  0  0  0  0  0  0
   10.2406    2.2272    0.0000 H   0  0  0  0  0  0  0  0  0  0  0  0
   10.9202    1.8106    0.0000 H   0  0  0  0  0  0  0  0  0  0  0  0
   12.4163    2.5940    0.0000 H   0  0  0  0  0  0  0  0  0  0  0  0
   11.7368    3.0106    0.0000 H   0  0  0  0  0  0  0  0  0  0  0  0
    5.4864   15.7618    0.0000 H   0  0  0  0  0  0  0  0  0  0  0  0
    5.2936   14.9884    0.0000 H   0  0  0  0  0  0  0  0  0  0  0  0
    6.9099   15.4779    0.0000 H   0  0  0  0  0  0  0  0  0  0  0  0
    7.1028   16.2513    0.0000 H   0  0  0  0  0  0  0  0  0  0  0  0
   13.8929    1.6887    0.0000 H   0  0  0  0  0  0  0  0  0  0  0  0
   13.2134    2.1053    0.0000 H   0  0  0  0  0  0  0  0  0  0  0  0
   13.1939    0.4166    0.0000 H   0  0  0  0  0  0  0  0  0  0  0  0
   13.8735    0.0000    0.0000 H   0  0  0  0  0  0  0  0  0  0  0  0
    6.7006   17.3868    0.0000 H   0  0  0  0  0  0  0  0  0  0  0  0
    5.6683   17.0908    0.0000 H   0  0  0  0  0  0  0  0  0  0  0  0
   15.0773    0.0419    0.0000 H   0  0  0  0  0  0  0  0  0  0  0  0
   15.1056    1.1154    0.0000 H   0  0  0  0  0  0  0  0  0  0  0  0
  3 47  1  0  0  0  0
  3 53  1  0  0  0  0
  4 52  1  0  0  0  0
  4 55  1  0  0  0  0
  5 54  1  0  0  0  0
  5 57  1  0  0  0  0
  6 56  1  0  0  0  0
  6 59  1  0  0  0  0
  7 13  1  0  0  0  0
  7 14  1  0  0  0  0
  7 31  1  0  0  0  0
  7 32  1  0  0  0  0
  8 37  1  0  0  0  0
  8 38  1  0  0  0  0
  8 48  1  0  0  0  0
  8 51  1  0  0  0  0
  9 58  1  0  0  0  0
  9111  1  0  0  0  0
  9112  1  0  0  0  0
 10 60  1  0  0  0  0
 10113  1  0  0  0  0
 10114  1  0  0  0  0
 11 12  1  0  0  0  0
 11 13  1  0  0  0  0
 11 15  1  0  0  0  0
 11 16  1  0  0  0  0
 12 14  1  0  0  0  0
 12 17  1  0  0  0  0
 12 18  1  0  0  0  0
 13 61  1  0  0  0  0
 13 62  1  0  0  0  0
 14 63  1  0  0  0  0
 14 64  1  0  0  0  0
 15 19  1  0  0  0  0
 15 21  2  0  0  0  0
 16 20  1  0  0  0  0
 16 22  2  0  0  0  0
 17 23  1  0  0  0  0
 17 25  2  0  0  0  0
 18 24  1  0  0  0  0
 18 26  2  0  0  0  0
 19 20  1  0  0  0  0
 19 29  2  0  0  0  0
 20 30  2  0  0  0  0
 21 23  1  0  0  0  0
 21 33  1  0  0  0  0
 22 24  1  0  0  0  0
 22 34  1  0  0  0  0
 23 35  2  0  0  0  0
 24 36  2  0  0  0  0
 25 26  1  0  0  0  0
 25 43  1  0  0  0  0
 26 44  1  0  0  0  0
 27 28  1  0  0  0  0
 27 29  1  0  0  0  0
 27 37  1  0  0  0  0
 27 65  1  0  0  0  0
 28 30  1  0  0  0  0
 28 38  1  0  0  0  0
 28 66  1  0  0  0  0
 29 41  1  0  0  0  0
 30 42  1  0  0  0  0
 31 47  1  0  0  0  0
 31 67  1  0  0  0  0
 31 68  1  0  0  0  0
 32 69  1  0  0  0  0
 32 70  1  0  0  0  0
 32 71  1  0  0  0  0
 33 39  1  0  0  0  0
 33 41  2  0  0  0  0
 34 40  1  0  0  0  0
 34 42  2  0  0  0  0
 35 39  1  0  0  0  0
 35 45  1  0  0  0  0
 36 40  1  0  0  0  0
 36 46  1  0  0  0  0
 37 72  1  0  0  0  0
 37 73  1  0  0  0  0
 38 74  1  0  0  0  0
 38 75  1  0  0  0  0
 39 76  1  0  0  0  0
 39 77  1  0  0  0  0
 40 78  1  0  0  0  0
 40 79  1  0  0  0  0
 41 80  1  0  0  0  0
 42 81  1  0  0  0  0
 43 45  2  0  0  0  0
 43 49  1  0  0  0  0
 44 46  2  0  0  0  0
 44 50  1  0  0  0  0
 45 82  1  0  0  0  0
 46 83  1  0  0  0  0
 47 84  1  0  0  0  0
 47 85  1  0  0  0  0
 48 52  1  0  0  0  0
 48 86  1  0  0  0  0
 48 87  1  0  0  0  0
 49 50  2  0  0  0  0
 49 88  1  0  0  0  0
 50 89  1  0  0  0  0
 51 90  1  0  0  0  0
 51 91  1  0  0  0  0
 51 92  1  0  0  0  0
 52 93  1  0  0  0  0
 52 94  1  0  0  0  0
 53 54  1  0  0  0  0
 53 95  1  0  0  0  0
 53 96  1  0  0  0  0
 54 97  1  0  0  0  0
 54 98  1  0  0  0  0
 55 56  1  0  0  0  0
 55 99  1  0  0  0  0
 55100  1  0  0  0  0
 56101  1  0  0  0  0
 56102  1  0  0  0  0
 57 58  1  0  0  0  0
 57103  1  0  0  0  0
 57104  1  0  0  0  0
 58105  1  0  0  0  0
 58106  1  0  0  0  0
 59 60  1  0  0  0  0
 59107  1  0  0  0  0
 59108  1  0  0  0  0
 60109  1  0  0  0  0
 60110  1  0  0  0  0
M  CHG  4   1  -1   2  -1   7   1   8   1
M  END
> <PUBCHEM_COMPOUND_CID>
513709
> <PUBCHEM_COMPOUND_CANONICALIZED>
1
> <PUBCHEM_CACTVS_COMPLEXITY>
1580
> <PUBCHEM_CACTVS_HBOND_ACCEPTOR>
8
> <PUBCHEM_CACTVS_HBOND_DONOR>
2
> <PUBCHEM_CACTVS_ROTATABLE_BOND>
16
> <PUBCHEM_CACTVS_SUBSKEYS>
AAADcfB/uAAGAAAAAAAAAAAAAAAAAePGDBAwYMGDAAAAAHjBVAAAHgAQAAAADwDhmAYyAMNABACAAiBCAAACAAAgAAAIiIAIAIgLICKAkRGHIAAgkACaiAcQgMAPwAACAAAQAACAAAQAACAAAQAACAAAAA==
> <PUBCHEM_IUPAC_OPENEYE_NAME>
2-[2-[2-[25-[2-[2-(2-aminoethoxy)ethoxy]ethyl]-4,25-dimethyl-4,25-diazoniatetradecacyclo[18.16.1.118,21.02,6.07,35.09,33.011,32.013,30.016,29.022,36.023,27.023,34.027,31.028,38]octatriaconta-1(36),7(35),8,11(32),12,14,16,18(38),20(37),21,28,30,33-tridecaen-4-yl]ethoxy]ethoxy]ethanamine;dichloride
> <PUBCHEM_IUPAC_CAS_NAME>
2-[2-[2-[25-[2-[2-(2-aminoethoxy)ethoxy]ethyl]-4,25-dimethyl-4,25-diazoniatetradecacyclo[18.16.1.118,21.02,6.07,35.09,33.011,32.013,30.016,29.022,36.023,27.023,34.027,31.028,38]octatriaconta-1(36),7(35),8,11(32),12,14,16,18(38),20(37),21,28,30,33-tridecaen-4-yl]ethoxy]ethoxy]ethanamine;dichloride
> <PUBCHEM_IUPAC_NAME_MARKUP>
2-[2-[2-[25-[2-[2-(2-aminoethoxy)ethoxy]ethyl]-4,25-dimethyl-4,25-diazoniatetradecacyclo[18.16.1.1<SUP>18,21</SUP>.0<SUP>2,6</SUP>.0<SUP>7,35</SUP>.0<SUP>9,33</SUP>.0<SUP>11,32</SUP>.0<SUP>13,30</SUP>.0<SUP>16,29</SUP>.0<SUP>22,36</SUP>.0<SUP>23,27</SUP>.0<SUP>23,34</SUP>.0<SUP>27,31</SUP>.0<SUP>28,38</SUP>]octatriaconta-1(36),7(35),8,11(32),12,14,16,18(38),20(37),21,28,30,33-tridecaen-4-yl]ethoxy]ethoxy]ethanamine;dichloride
> <PUBCHEM_IUPAC_NAME>
2-[2-[2-[25-[2-[2-(2-aminoethoxy)ethoxy]ethyl]-4,25-dimethyl-4,25-diazoniatetradecacyclo[18.16.1.118,21.02,6.07,35.09,33.011,32.013,30.016,29.022,36.023,27.023,34.027,31.028,38]octatriaconta-1(36),7(35),8,11(32),12,14,16,18(38),20(37),21,28,30,33-tridecaen-4-yl]ethoxy]ethoxy]ethanamine;dichloride
> <PUBCHEM_IUPAC_SYSTEMATIC_NAME>
2-[2-[2-[25-[2-[2-(2-azanylethoxy)ethoxy]ethyl]-4,25-dimethyl-4,25-diazoniatetradecacyclo[18.16.1.118,21.02,6.07,35.09,33.011,32.013,30.016,29.022,36.023,27.023,34.027,31.028,38]octatriaconta-1(36),7(35),8,11(32),12,14,16,18(38),20(37),21,28,30,33-tridecaen-4-yl]ethoxy]ethoxy]ethanamine;dichloride
> <PUBCHEM_IUPAC_TRADITIONAL_NAME>
2-[2-[2-[4-[2-[2-(2-aminoethoxy)ethoxy]ethyl]-4,25-dimethyl-4,25-diazoniatetradecacyclo[18.16.1.118,21.02,6.07,35.09,33.011,32.013,30.016,29.022,36.023,27.023,34.027,31.028,38]octatriaconta-1(36),7(35),8,11(32),12,14,16,18(38),20(37),21,28,30,33-tridecaen-25-yl]ethoxy]ethoxy]ethylamine;dichloride
> <PUBCHEM_IUPAC_INCHI>
InChI=1S/C50H54N4O4.2ClH/c1-53(7-11-57-15-13-55-9-5-51)23-35-33-21-31-19-29-17-27-3-4-28-18-30-20-32-22-34(36(35)24-53)44-43(33)47-41(31)39(29)45-37(27)38(28)46-40(30)42(32)48(44)50(47)26-54(2,25-49(45,46)50)8-12-58-16-14-56-10-6-52;;/h3-4,17-18,21-22,35-36H,5-16,19-20,23-26,51-52H2,1-2H3;2*1H/q+2;;/p-2
> <PUBCHEM_IUPAC_INCHIKEY>
ZZVGZPNSMSEDPX-UHFFFAOYSA-L
> <PUBCHEM_EXACT_MASS>
844.3522116
> <PUBCHEM_MOLECULAR_FORMULA>
C50H54Cl2N4O4
> <PUBCHEM_MOLECULAR_WEIGHT>
845.9
> <PUBCHEM_OPENEYE_CAN_SMILES>
C[N+]1(CC2C(C1)C3=C4C5=C2C=C6CC7=C8C6=C5C91C4=C2C(=C3)CC3=C2C2=C4C(=C3)C=CC(=C7)C4=C8C29C[N+](C1)(C)CCOCCOCCN)CCOCCOCCN.[Cl-].[Cl-]
> <PUBCHEM_OPENEYE_ISO_SMILES>
C[N+]1(CC2C(C1)C3=C4C5=C2C=C6CC7=C8C6=C5C91C4=C2C(=C3)CC3=C2C2=C4C(=C3)C=CC(=C7)C4=C8C29C[N+](C1)(C)CCOCCOCCN)CCOCCOCCN.[Cl-].[Cl-]
> <PUBCHEM_CACTVS_TPSA>
89
> <PUBCHEM_MONOISOTOPIC_WEIGHT>
844.3522116
> <PUBCHEM_TOTAL_CHARGE>
0
> <PUBCHEM_HEAVY_ATOM_COUNT>
60
> <PUBCHEM_ATOM_DEF_STEREO_COUNT>
0
> <PUBCHEM_ATOM_UDEF_STEREO_COUNT>
3
> <PUBCHEM_BOND_DEF_STEREO_COUNT>
0
> <PUBCHEM_BOND_UDEF_STEREO_COUNT>
0
> <PUBCHEM_ISOTOPIC_ATOM_COUNT>
0
> <PUBCHEM_COMPONENT_COUNT>
3
> <PUBCHEM_CACTVS_TAUTO_COUNT>
-1
> <PUBCHEM_COORDINATE_TYPE>
1
5
255
> <PUBCHEM_BONDANNOTATIONS>
15  19  8
15  21  8
16  20  8
16  22  8
17  23  8
17  25  8
18  24  8
18  26  8
19  20  8
19  29  8
20  30  8
21  23  8
21  33  8
22  24  8
22  34  8
23  35  8
24  36  8
25  26  8
25  43  8
26  44  8
27  37  3
28  38  3
29  41  8
30  42  8
33  41  8
34  42  8
35  45  8
36  46  8
43  45  8
43  49  8
44  46  8
44  50  8
49  50  8
7  32  3
$$$$
