513704
  -OEChem-10302200282D
112125  0     1  0  0  0  0  0999 V2000
    6.4457   -7.7309    0.0000 O   0  0  0  0  0  0  0  0  0  0  0  0
    5.7059    6.6343    0.0000 O   0  0  0  0  0  0  0  0  0  0  0  0
    8.3633   -9.5537    0.0000 O   0  0  0  0  0  0  0  0  0  0  0  0
    6.4302    9.1790    0.0000 O   0  0  0  0  0  0  0  0  0  0  0  0
    5.3416   -5.3266    0.0000 N   0  3  3  0  0  0  0  0  0  0  0  0
    5.9778    4.0026    0.0000 N   0  3  3  0  0  0  0  0  0  0  0  0
    9.4674  -11.9581    0.0000 N   0  0  0  0  0  0  0  0  0  0  0  0
    6.1583   11.8108    0.0000 N   0  0  0  0  0  0  0  0  0  0  0  0
    6.0958   -3.0152    0.0000 C   0  0  3  0  0  0  0  0  0  0  0  0
    6.9938   -3.5430    0.0000 C   0  0  3  0  0  0  0  0  0  0  0  0
    4.7890   -3.8675    0.0000 C   0  0  0  0  0  0  0  0  0  0  0  0
    6.1118   -1.9737    0.0000 C   0  0  0  0  0  0  0  0  0  0  0  0
    6.8851   -5.0994    0.0000 C   0  0  0  0  0  0  0  0  0  0  0  0
    4.7531   -2.9176    0.0000 C   0  0  0  0  0  0  0  0  0  0  0  0
    5.2458   -1.4737    0.0000 C   0  0  0  0  0  0  0  0  0  0  0  0
    4.3519   -2.0084    0.0000 C   0  0  0  0  0  0  0  0  0  0  0  0
    6.9779   -1.4737    0.0000 C   0  0  0  0  0  0  0  0  0  0  0  0
    7.8959   -3.0222    0.0000 C   0  0  0  0  0  0  0  0  0  0  0  0
    5.2458   -0.4737    0.0000 C   0  0  0  0  0  0  0  0  0  0  0  0
    7.8879   -1.9806    0.0000 C   0  0  0  0  0  0  0  0  0  0  0  0
    6.4989   -4.4476    0.0000 C   0  0  0  0  0  0  0  0  0  0  0  0
    6.9779   -0.4737    0.0000 C   0  0  0  0  0  0  0  0  0  0  0  0
    6.1118    0.0263    0.0000 C   0  0  0  0  0  0  0  0  0  0  0  0
    3.9483   -3.5881    0.0000 C   0  0  0  0  0  0  0  0  0  0  0  0
    3.4458   -1.4945    0.0000 C   0  0  0  0  0  0  0  0  0  0  0  0
    5.4384   -6.3218    0.0000 C   0  0  0  0  0  0  0  0  0  0  0  0
    4.3519    0.0609    0.0000 C   0  0  0  0  0  0  0  0  0  0  0  0
    6.1724    2.4404    0.0000 C   0  0  3  0  0  0  0  0  0  0  0  0
    5.7467    0.9506    0.0000 C   0  0  0  0  0  0  0  0  0  0  0  0
    5.2122    2.6269    0.0000 C   0  0  3  0  0  0  0  0  0  0  0  0
    4.7531    0.9702    0.0000 C   0  0  0  0  0  0  0  0  0  0  0  0
    4.4249   -5.7262    0.0000 C   0  0  0  0  0  0  0  0  0  0  0  0
    3.4458   -0.4529    0.0000 C   0  0  0  0  0  0  0  0  0  0  0  0
    7.6692    0.2257    0.0000 C   0  0  0  0  0  0  0  0  0  0  0  0
    8.4747   -1.1785    0.0000 C   0  0  0  0  0  0  0  0  0  0  0  0
    6.5389    1.5334    0.0000 C   0  0  0  0  0  0  0  0  0  0  0  0
    5.4835   -4.6274    0.0000 C   0  0  0  0  0  0  0  0  0  0  0  0
    3.9483    1.6406    0.0000 C   0  0  0  0  0  0  0  0  0  0  0  0
    2.7096   -2.2397    0.0000 C   0  0  0  0  0  0  0  0  0  0  0  0
    6.6416    3.2921    0.0000 C   0  0  0  0  0  0  0  0  0  0  0  0
    5.0962    3.5923    0.0000 C   0  0  0  0  0  0  0  0  0  0  0  0
    2.7096    0.2922    0.0000 C   0  0  0  0  0  0  0  0  0  0  0  0
    2.9541   -3.2582    0.0000 C   0  0  0  0  0  0  0  0  0  0  0  0
    7.4591    1.1865    0.0000 C   0  0  0  0  0  0  0  0  0  0  0  0
    2.0000   -0.4786    0.0000 C   0  0  0  0  0  0  0  0  0  0  0  0
    2.9541    1.3108    0.0000 C   0  0  0  0  0  0  0  0  0  0  0  0
    6.3488   -6.7356    0.0000 C   0  0  0  0  0  0  0  0  0  0  0  0
    5.5551    4.9089    0.0000 C   0  0  0  0  0  0  0  0  0  0  0  0
    6.7090    4.6847    0.0000 C   0  0  0  0  0  0  0  0  0  0  0  0
    6.1286    5.7281    0.0000 C   0  0  0  0  0  0  0  0  0  0  0  0
    7.3561   -8.1447    0.0000 C   0  0  0  0  0  0  0  0  0  0  0  0
    7.4529   -9.1400    0.0000 C   0  0  0  0  0  0  0  0  0  0  0  0
    6.2794    7.4535    0.0000 C   0  0  0  0  0  0  0  0  0  0  0  0
    5.8567    8.3598    0.0000 C   0  0  0  0  0  0  0  0  0  0  0  0
    8.4602  -10.5490    0.0000 C   0  0  0  0  0  0  0  0  0  0  0  0
    9.3706  -10.9628    0.0000 C   0  0  0  0  0  0  0  0  0  0  0  0
    6.0075   10.0853    0.0000 C   0  0  0  0  0  0  0  0  0  0  0  0
    6.5810   10.9045    0.0000 C   0  0  0  0  0  0  0  0  0  0  0  0
    4.4885   -3.3252    0.0000 H   0  0  0  0  0  0  0  0  0  0  0  0
    4.2265   -4.1282    0.0000 H   0  0  0  0  0  0  0  0  0  0  0  0
    6.9311   -5.7176    0.0000 H   0  0  0  0  0  0  0  0  0  0  0  0
    7.5051   -5.0980    0.0000 H   0  0  0  0  0  0  0  0  0  0  0  0
    8.4340   -3.3301    0.0000 H   0  0  0  0  0  0  0  0  0  0  0  0
    6.8605   -4.9512    0.0000 H   0  0  0  0  0  0  0  0  0  0  0  0
    4.8203   -6.2738    0.0000 H   0  0  0  0  0  0  0  0  0  0  0  0
    5.2838   -6.9222    0.0000 H   0  0  0  0  0  0  0  0  0  0  0  0
    6.7913    2.4034    0.0000 H   0  0  0  0  0  0  0  0  0  0  0  0
    4.6398    2.8651    0.0000 H   0  0  0  0  0  0  0  0  0  0  0  0
    4.1771   -5.1579    0.0000 H   0  0  0  0  0  0  0  0  0  0  0  0
    3.8566   -5.9740    0.0000 H   0  0  0  0  0  0  0  0  0  0  0  0
    4.6727   -6.2946    0.0000 H   0  0  0  0  0  0  0  0  0  0  0  0
    8.9193   -1.6106    0.0000 H   0  0  0  0  0  0  0  0  0  0  0  0
    8.9644   -0.7982    0.0000 H   0  0  0  0  0  0  0  0  0  0  0  0
    5.3543   -5.2338    0.0000 H   0  0  0  0  0  0  0  0  0  0  0  0
    7.1502    2.9375    0.0000 H   0  0  0  0  0  0  0  0  0  0  0  0
    7.0476    3.7606    0.0000 H   0  0  0  0  0  0  0  0  0  0  0  0
    4.8951    4.1788    0.0000 H   0  0  0  0  0  0  0  0  0  0  0  0
    4.4918    3.4540    0.0000 H   0  0  0  0  0  0  0  0  0  0  0  0
    2.4975   -3.6777    0.0000 H   0  0  0  0  0  0  0  0  0  0  0  0
    7.9282    1.5919    0.0000 H   0  0  0  0  0  0  0  0  0  0  0  0
    1.6107    0.0040    0.0000 H   0  0  0  0  0  0  0  0  0  0  0  0
    1.4654   -0.7925    0.0000 H   0  0  0  0  0  0  0  0  0  0  0  0
    2.4975    1.7302    0.0000 H   0  0  0  0  0  0  0  0  0  0  0  0
    6.9670   -6.7836    0.0000 H   0  0  0  0  0  0  0  0  0  0  0  0
    6.5034   -6.1352    0.0000 H   0  0  0  0  0  0  0  0  0  0  0  0
    5.1166    5.3472    0.0000 H   0  0  0  0  0  0  0  0  0  0  0  0
    5.0472    4.5532    0.0000 H   0  0  0  0  0  0  0  0  0  0  0  0
    7.1319    4.2312    0.0000 H   0  0  0  0  0  0  0  0  0  0  0  0
    7.1624    5.1075    0.0000 H   0  0  0  0  0  0  0  0  0  0  0  0
    6.2862    5.1380    0.0000 H   0  0  0  0  0  0  0  0  0  0  0  0
    6.5670    5.2897    0.0000 H   0  0  0  0  0  0  0  0  0  0  0  0
    6.6364    6.0837    0.0000 H   0  0  0  0  0  0  0  0  0  0  0  0
    7.9742   -8.1927    0.0000 H   0  0  0  0  0  0  0  0  0  0  0  0
    7.5107   -7.5443    0.0000 H   0  0  0  0  0  0  0  0  0  0  0  0
    6.8348   -9.0920    0.0000 H   0  0  0  0  0  0  0  0  0  0  0  0
    7.2983   -9.7404    0.0000 H   0  0  0  0  0  0  0  0  0  0  0  0
    6.7178    7.0152    0.0000 H   0  0  0  0  0  0  0  0  0  0  0  0
    6.7872    7.8092    0.0000 H   0  0  0  0  0  0  0  0  0  0  0  0
    5.4182    8.7982    0.0000 H   0  0  0  0  0  0  0  0  0  0  0  0
    5.3488    8.0041    0.0000 H   0  0  0  0  0  0  0  0  0  0  0  0
    7.8420  -10.5010    0.0000 H   0  0  0  0  0  0  0  0  0  0  0  0
    8.3055  -11.1494    0.0000 H   0  0  0  0  0  0  0  0  0  0  0  0
    9.9887  -11.0108    0.0000 H   0  0  0  0  0  0  0  0  0  0  0  0
    9.5252  -10.3624    0.0000 H   0  0  0  0  0  0  0  0  0  0  0  0
    5.5691   10.5236    0.0000 H   0  0  0  0  0  0  0  0  0  0  0  0
    5.4997    9.7296    0.0000 H   0  0  0  0  0  0  0  0  0  0  0  0
    7.0195   10.4661    0.0000 H   0  0  0  0  0  0  0  0  0  0  0  0
    7.0889   11.2601    0.0000 H   0  0  0  0  0  0  0  0  0  0  0  0
   10.0318  -12.2146    0.0000 H   0  0  0  0  0  0  0  0  0  0  0  0
    8.9630  -12.3187    0.0000 H   0  0  0  0  0  0  0  0  0  0  0  0
    6.5139   12.3187    0.0000 H   0  0  0  0  0  0  0  0  0  0  0  0
    5.5407   11.8647    0.0000 H   0  0  0  0  0  0  0  0  0  0  0  0
  1 47  1  0  0  0  0
  1 51  1  0  0  0  0
  2 50  1  0  0  0  0
  2 53  1  0  0  0  0
  3 52  1  0  0  0  0
  3 55  1  0  0  0  0
  4 54  1  0  0  0  0
  4 57  1  0  0  0  0
  5 11  1  0  0  0  0
  5 13  1  0  0  0  0
  5 26  1  0  0  0  0
  5 32  1  0  0  0  0
  6 40  1  0  0  0  0
  6 41  1  0  0  0  0
  6 48  1  0  0  0  0
  6 49  1  0  0  0  0
  7 56  1  0  0  0  0
  7109  1  0  0  0  0
  7110  1  0  0  0  0
  8 58  1  0  0  0  0
  8111  1  0  0  0  0
  8112  1  0  0  0  0
  9 10  1  0  0  0  0
  9 11  1  0  0  0  0
  9 12  1  0  0  0  0
  9 14  1  0  0  0  0
 10 13  1  0  0  0  0
 10 18  1  0  0  0  0
 10 21  1  0  0  0  0
 11 59  1  0  0  0  0
 11 60  1  0  0  0  0
 12 15  1  0  0  0  0
 12 17  2  0  0  0  0
 13 61  1  0  0  0  0
 13 62  1  0  0  0  0
 14 16  1  0  0  0  0
 14 24  2  0  0  0  0
 15 16  2  0  0  0  0
 15 19  1  0  0  0  0
 16 25  1  0  0  0  0
 17 20  1  0  0  0  0
 17 22  1  0  0  0  0
 18 20  2  0  0  0  0
 18 63  1  0  0  0  0
 19 23  1  0  0  0  0
 19 27  2  0  0  0  0
 20 35  1  0  0  0  0
 21 37  2  0  0  0  0
 21 64  1  0  0  0  0
 22 23  2  0  0  0  0
 22 34  1  0  0  0  0
 23 29  1  0  0  0  0
 24 37  1  0  0  0  0
 24 43  1  0  0  0  0
 25 33  2  0  0  0  0
 25 39  1  0  0  0  0
 26 47  1  0  0  0  0
 26 65  1  0  0  0  0
 26 66  1  0  0  0  0
 27 31  1  0  0  0  0
 27 33  1  0  0  0  0
 28 30  1  0  0  0  0
 28 36  1  0  0  0  0
 28 40  1  0  0  0  0
 28 67  1  0  0  0  0
 29 31  1  0  0  0  0
 29 36  2  0  0  0  0
 30 38  1  0  0  0  0
 30 41  1  0  0  0  0
 30 68  1  0  0  0  0
 31 38  2  0  0  0  0
 32 69  1  0  0  0  0
 32 70  1  0  0  0  0
 32 71  1  0  0  0  0
 33 42  1  0  0  0  0
 34 35  1  0  0  0  0
 34 44  2  0  0  0  0
 35 72  1  0  0  0  0
 35 73  1  0  0  0  0
 36 44  1  0  0  0  0
 37 74  1  0  0  0  0
 38 46  1  0  0  0  0
 39 43  2  0  0  0  0
 39 45  1  0  0  0  0
 40 75  1  0  0  0  0
 40 76  1  0  0  0  0
 41 77  1  0  0  0  0
 41 78  1  0  0  0  0
 42 45  1  0  0  0  0
 42 46  2  0  0  0  0
 43 79  1  0  0  0  0
 44 80  1  0  0  0  0
 45 81  1  0  0  0  0
 45 82  1  0  0  0  0
 46 83  1  0  0  0  0
 47 84  1  0  0  0  0
 47 85  1  0  0  0  0
 48 50  1  0  0  0  0
 48 86  1  0  0  0  0
 48 87  1  0  0  0  0
 49 88  1  0  0  0  0
 49 89  1  0  0  0  0
 49 90  1  0  0  0  0
 50 91  1  0  0  0  0
 50 92  1  0  0  0  0
 51 52  1  0  0  0  0
 51 93  1  0  0  0  0
 51 94  1  0  0  0  0
 52 95  1  0  0  0  0
 52 96  1  0  0  0  0
 53 54  1  0  0  0  0
 53 97  1  0  0  0  0
 53 98  1  0  0  0  0
 54 99  1  0  0  0  0
 54100  1  0  0  0  0
 55 56  1  0  0  0  0
 55101  1  0  0  0  0
 55102  1  0  0  0  0
 56103  1  0  0  0  0
 56104  1  0  0  0  0
 57 58  1  0  0  0  0
 57105  1  0  0  0  0
 57106  1  0  0  0  0
 58107  1  0  0  0  0
 58108  1  0  0  0  0
M  CHG  2   5   1   6   1
M  END
> <PUBCHEM_COMPOUND_CID>
513704
> <PUBCHEM_COMPOUND_CANONICALIZED>
1
> <PUBCHEM_CACTVS_COMPLEXITY>
1770
> <PUBCHEM_CACTVS_HBOND_ACCEPTOR>
6
> <PUBCHEM_CACTVS_HBOND_DONOR>
2
> <PUBCHEM_CACTVS_ROTATABLE_BOND>
16
> <PUBCHEM_CACTVS_SUBSKEYS>
AAADcfB/uAAAAAAAAAAAAAAAAAAAAePGDBAwYMGDAAAAAHjBVAAAHgAQAAAADwDhmAYyAMNABACAAiBCAAACAAAgAAAIiIAIAIgLICKAkRGHIAAgkACaiAcQgMAPwAACAAAQAACAAAQAACAAAQAACAAAAA==
> <PUBCHEM_IUPAC_OPENEYE_NAME>
2-[2-[2-[35-[2-[2-(2-aminoethoxy)ethoxy]ethyl]-13,35-dimethyl-13,35-diazoniatetradecacyclo[18.16.1.118,21.01,33.04,32.06,30.08,29.010,27.011,15.016,26.022,33.023,31.024,28.025,38]octatriaconta-2,4(32),5,8,10(27),16(26),17,20(37),21,23(31),24(28),25(38),29-tridecaen-13-yl]ethoxy]ethoxy]ethanamine
> <PUBCHEM_IUPAC_CAS_NAME>
2-[2-[2-[35-[2-[2-(2-aminoethoxy)ethoxy]ethyl]-13,35-dimethyl-13,35-diazoniatetradecacyclo[18.16.1.118,21.01,33.04,32.06,30.08,29.010,27.011,15.016,26.022,33.023,31.024,28.025,38]octatriaconta-2,4(32),5,8,10(27),16(26),17,20(37),21,23(31),24(28),25(38),29-tridecaen-13-yl]ethoxy]ethoxy]ethanamine
> <PUBCHEM_IUPAC_NAME_MARKUP>
2-[2-[2-[35-[2-[2-(2-aminoethoxy)ethoxy]ethyl]-13,35-dimethyl-13,35-diazoniatetradecacyclo[18.16.1.1<SUP>18,21</SUP>.0<SUP>1,33</SUP>.0<SUP>4,32</SUP>.0<SUP>6,30</SUP>.0<SUP>8,29</SUP>.0<SUP>10,27</SUP>.0<SUP>11,15</SUP>.0<SUP>16,26</SUP>.0<SUP>22,33</SUP>.0<SUP>23,31</SUP>.0<SUP>24,28</SUP>.0<SUP>25,38</SUP>]octatriaconta-2,4(32),5,8,10(27),16(26),17,20(37),21,23(31),24(28),25(38),29-tridecaen-13-yl]ethoxy]ethoxy]ethanamine
> <PUBCHEM_IUPAC_NAME>
2-[2-[2-[35-[2-[2-(2-aminoethoxy)ethoxy]ethyl]-13,35-dimethyl-13,35-diazoniatetradecacyclo[18.16.1.118,21.01,33.04,32.06,30.08,29.010,27.011,15.016,26.022,33.023,31.024,28.025,38]octatriaconta-2,4(32),5,8,10(27),16(26),17,20(37),21,23(31),24(28),25(38),29-tridecaen-13-yl]ethoxy]ethoxy]ethanamine
> <PUBCHEM_IUPAC_SYSTEMATIC_NAME>
2-[2-[2-[35-[2-[2-(2-azanylethoxy)ethoxy]ethyl]-13,35-dimethyl-13,35-diazoniatetradecacyclo[18.16.1.118,21.01,33.04,32.06,30.08,29.010,27.011,15.016,26.022,33.023,31.024,28.025,38]octatriaconta-2,4(32),5,8,10(27),16(26),17,20(37),21,23(31),24(28),25(38),29-tridecaen-13-yl]ethoxy]ethoxy]ethanamine
> <PUBCHEM_IUPAC_TRADITIONAL_NAME>
2-[2-[2-[13-[2-[2-(2-aminoethoxy)ethoxy]ethyl]-13,35-dimethyl-13,35-diazoniatetradecacyclo[18.16.1.118,21.01,33.04,32.06,30.08,29.010,27.011,15.016,26.022,33.023,31.024,28.025,38]octatriaconta-2,4(32),5,8,10(27),16(26),17,20(37),21,23(31),24(28),25(38),29-tridecaen-35-yl]ethoxy]ethoxy]ethylamine
> <PUBCHEM_IUPAC_INCHI>
InChI=1S/C50H54N4O4/c1-53(7-11-57-15-13-55-9-5-51)23-34-32-20-29-18-28-17-27-3-4-49-22-31-19-30-21-33(35(34)24-53)41-40(32)42-36(29)37(28)45-46-44(42)43(41)38(30)39(31)48(46)50(49,47(27)45)26-54(2,25-49)8-12-58-16-14-56-10-6-52/h3-4,17,20-22,34-35H,5-16,18-19,23-26,51-52H2,1-2H3/q+2
> <PUBCHEM_IUPAC_INCHIKEY>
XILONUCQHGWCKX-UHFFFAOYSA-N
> <PUBCHEM_XLOGP3_AA>
4.2
> <PUBCHEM_EXACT_MASS>
774.41450622
> <PUBCHEM_MOLECULAR_FORMULA>
C50H54N4O4+2
> <PUBCHEM_MOLECULAR_WEIGHT>
775.0
> <PUBCHEM_OPENEYE_CAN_SMILES>
C[N+]1(CC2C(C1)C3=C4C5=C2C=C6CC7=CC8=C9C1=C2C(=C5C6=C71)C4=C1C(=C3)CC3=CC4(C9(C2=C31)C[N+](C4)(C)CCOCCOCCN)C=C8)CCOCCOCCN
> <PUBCHEM_OPENEYE_ISO_SMILES>
C[N+]1(CC2C(C1)C3=C4C5=C2C=C6CC7=CC8=C9C1=C2C(=C5C6=C71)C4=C1C(=C3)CC3=CC4(C9(C2=C31)C[N+](C4)(C)CCOCCOCCN)C=C8)CCOCCOCCN
> <PUBCHEM_CACTVS_TPSA>
89
> <PUBCHEM_MONOISOTOPIC_WEIGHT>
774.41450622
> <PUBCHEM_TOTAL_CHARGE>
2
> <PUBCHEM_HEAVY_ATOM_COUNT>
58
> <PUBCHEM_ATOM_DEF_STEREO_COUNT>
0
> <PUBCHEM_ATOM_UDEF_STEREO_COUNT>
6
> <PUBCHEM_BOND_DEF_STEREO_COUNT>
0
> <PUBCHEM_BOND_UDEF_STEREO_COUNT>
0
> <PUBCHEM_ISOTOPIC_ATOM_COUNT>
0
> <PUBCHEM_COMPONENT_COUNT>
1
> <PUBCHEM_CACTVS_TAUTO_COUNT>
-1
> <PUBCHEM_COORDINATE_TYPE>
1
5
255
> <PUBCHEM_BONDANNOTATIONS>
10  13  3
12  15  8
12  17  8
14  16  8
14  24  8
15  16  8
15  19  8
16  25  8
17  22  8
19  23  8
19  27  8
22  23  8
22  34  8
23  29  8
24  43  8
25  33  8
25  39  8
27  31  8
27  33  8
28  40  3
29  36  8
30  41  3
31  38  8
33  42  8
34  44  8
36  44  8
38  46  8
39  43  8
42  46  8
5  32  3
6  49  3
9  11  3
$$$$
