513796
  -OEChem-10302200282D
 88 92  0     1  0  0  0  0  0999 V2000
    6.0010    3.9774    0.0000 S   0  0  0  0  0  0  0  0  0  0  0  0
    6.0010    0.9774    0.0000 O   0  0  0  0  0  0  0  0  0  0  0  0
    6.5010    4.8435    0.0000 O   0  0  0  0  0  0  0  0  0  0  0  0
    5.5010    3.1114    0.0000 O   0  0  0  0  0  0  0  0  0  0  0  0
    8.5991   -2.5226    0.0000 O   0  0  0  0  0  0  0  0  0  0  0  0
    8.3899   -6.4944    0.0000 O   0  0  0  0  0  0  0  0  0  0  0  0
   14.7415   -2.2178    0.0000 O   0  0  0  0  0  0  0  0  0  0  0  0
    6.9961   -5.6896    0.0000 O   0  0  0  0  0  0  0  0  0  0  0  0
   14.7415   -3.8273    0.0000 O   0  0  0  0  0  0  0  0  0  0  0  0
    6.8671    3.4774    0.0000 N   0  0  3  0  0  0  0  0  0  0  0  0
    9.4651   -1.0226    0.0000 N   0  0  0  0  0  0  0  0  0  0  0  0
   10.3312   -2.5226    0.0000 N   0  0  0  0  0  0  0  0  0  0  0  0
    2.5369    5.9774    0.0000 N   0  0  0  0  0  0  0  0  0  0  0  0
    6.8671    2.4774    0.0000 C   0  0  1  0  0  0  0  0  0  0  0  0
    7.7331    1.9774    0.0000 C   0  0  0  0  0  0  0  0  0  0  0  0
    7.7331    3.9774    0.0000 C   0  0  0  0  0  0  0  0  0  0  0  0
    7.7331    0.9774    0.0000 C   0  0  0  0  0  0  0  0  0  0  0  0
    8.5991    3.4774    0.0000 C   0  0  0  0  0  0  0  0  0  0  0  0
    6.0010    1.9774    0.0000 C   0  0  0  0  0  0  0  0  0  0  0  0
    8.5991    0.4774    0.0000 C   0  0  0  0  0  0  0  0  0  0  0  0
    5.1350    4.4774    0.0000 C   0  0  0  0  0  0  0  0  0  0  0  0
    9.4651    3.9774    0.0000 C   0  0  0  0  0  0  0  0  0  0  0  0
    8.5991    2.4774    0.0000 C   0  0  0  0  0  0  0  0  0  0  0  0
    8.5991   -0.5226    0.0000 C   0  0  0  0  0  0  0  0  0  0  0  0
    5.1350    5.4774    0.0000 C   0  0  0  0  0  0  0  0  0  0  0  0
    4.2690    3.9774    0.0000 C   0  0  0  0  0  0  0  0  0  0  0  0
    9.4651   -2.0226    0.0000 C   0  0  0  0  0  0  0  0  0  0  0  0
    4.2690    5.9774    0.0000 C   0  0  0  0  0  0  0  0  0  0  0  0
    3.4030    4.4774    0.0000 C   0  0  0  0  0  0  0  0  0  0  0  0
    3.4030    5.4774    0.0000 C   0  0  0  0  0  0  0  0  0  0  0  0
   10.3312   -3.5226    0.0000 C   0  0  0  0  0  0  0  0  0  0  0  0
   11.1972   -2.0226    0.0000 C   0  0  0  0  0  0  0  0  0  0  0  0
    9.4651   -4.0226    0.0000 C   0  0  0  0  0  0  0  0  0  0  0  0
   12.0632   -2.5226    0.0000 C   0  0  0  0  0  0  0  0  0  0  0  0
    9.4651   -5.0226    0.0000 C   0  0  0  0  0  0  0  0  0  0  0  0
   12.9292   -2.0226    0.0000 C   0  0  0  0  0  0  0  0  0  0  0  0
    8.5991   -3.5226    0.0000 C   0  0  0  0  0  0  0  0  0  0  0  0
   12.0632   -3.5226    0.0000 C   0  0  0  0  0  0  0  0  0  0  0  0
    8.5991   -5.5226    0.0000 C   0  0  0  0  0  0  0  0  0  0  0  0
   13.7953   -2.5226    0.0000 C   0  0  0  0  0  0  0  0  0  0  0  0
    7.7331   -5.0226    0.0000 C   0  0  0  0  0  0  0  0  0  0  0  0
   13.7953   -3.5226    0.0000 C   0  0  0  0  0  0  0  0  0  0  0  0
    7.7331   -4.0226    0.0000 C   0  0  0  0  0  0  0  0  0  0  0  0
   12.9292   -4.0226    0.0000 C   0  0  0  0  0  0  0  0  0  0  0  0
    7.4012   -6.5974    0.0000 C   0  0  0  0  0  0  0  0  0  0  0  0
   15.3251   -3.0226    0.0000 C   0  0  0  0  0  0  0  0  0  0  0  0
    6.3301    2.7874    0.0000 H   0  0  0  0  0  0  0  0  0  0  0  0
    8.3437    1.8698    0.0000 H   0  0  0  0  0  0  0  0  0  0  0  0
    7.9451    2.5600    0.0000 H   0  0  0  0  0  0  0  0  0  0  0  0
    8.1316    4.4524    0.0000 H   0  0  0  0  0  0  0  0  0  0  0  0
    7.3346    4.4524    0.0000 H   0  0  0  0  0  0  0  0  0  0  0  0
    7.1225    1.0851    0.0000 H   0  0  0  0  0  0  0  0  0  0  0  0
    7.5210    0.3948    0.0000 H   0  0  0  0  0  0  0  0  0  0  0  0
    8.5991    4.0974    0.0000 H   0  0  0  0  0  0  0  0  0  0  0  0
    5.7890    2.5600    0.0000 H   0  0  0  0  0  0  0  0  0  0  0  0
    5.3905    1.8698    0.0000 H   0  0  0  0  0  0  0  0  0  0  0  0
    9.2097    0.3698    0.0000 H   0  0  0  0  0  0  0  0  0  0  0  0
    8.8112    1.0600    0.0000 H   0  0  0  0  0  0  0  0  0  0  0  0
    9.7751    3.4405    0.0000 H   0  0  0  0  0  0  0  0  0  0  0  0
   10.0021    4.2874    0.0000 H   0  0  0  0  0  0  0  0  0  0  0  0
    9.1551    4.5144    0.0000 H   0  0  0  0  0  0  0  0  0  0  0  0
    7.9791    2.4774    0.0000 H   0  0  0  0  0  0  0  0  0  0  0  0
    8.5991    1.8574    0.0000 H   0  0  0  0  0  0  0  0  0  0  0  0
    9.2191    2.4774    0.0000 H   0  0  0  0  0  0  0  0  0  0  0  0
    7.9885   -0.4149    0.0000 H   0  0  0  0  0  0  0  0  0  0  0  0
    8.3871   -1.1052    0.0000 H   0  0  0  0  0  0  0  0  0  0  0  0
    5.4641    0.6674    0.0000 H   0  0  0  0  0  0  0  0  0  0  0  0
    5.6720    5.7874    0.0000 H   0  0  0  0  0  0  0  0  0  0  0  0
    4.2690    3.3574    0.0000 H   0  0  0  0  0  0  0  0  0  0  0  0
   10.0021   -0.7126    0.0000 H   0  0  0  0  0  0  0  0  0  0  0  0
    4.2690    6.5974    0.0000 H   0  0  0  0  0  0  0  0  0  0  0  0
    2.8660    4.1674    0.0000 H   0  0  0  0  0  0  0  0  0  0  0  0
   10.5432   -4.1052    0.0000 H   0  0  0  0  0  0  0  0  0  0  0  0
   10.9417   -3.4149    0.0000 H   0  0  0  0  0  0  0  0  0  0  0  0
   11.5957   -1.5476    0.0000 H   0  0  0  0  0  0  0  0  0  0  0  0
   10.7987   -1.5476    0.0000 H   0  0  0  0  0  0  0  0  0  0  0  0
    2.5369    6.5974    0.0000 H   0  0  0  0  0  0  0  0  0  0  0  0
    2.0000    5.6674    0.0000 H   0  0  0  0  0  0  0  0  0  0  0  0
   10.0021   -5.3326    0.0000 H   0  0  0  0  0  0  0  0  0  0  0  0
   12.9292   -1.4026    0.0000 H   0  0  0  0  0  0  0  0  0  0  0  0
    8.5991   -2.9026    0.0000 H   0  0  0  0  0  0  0  0  0  0  0  0
   11.5263   -3.8326    0.0000 H   0  0  0  0  0  0  0  0  0  0  0  0
    7.1962   -3.7126    0.0000 H   0  0  0  0  0  0  0  0  0  0  0  0
   12.9292   -4.6426    0.0000 H   0  0  0  0  0  0  0  0  0  0  0  0
    6.8116   -6.7892    0.0000 H   0  0  0  0  0  0  0  0  0  0  0  0
    7.5299   -7.2039    0.0000 H   0  0  0  0  0  0  0  0  0  0  0  0
   15.7860   -3.4373    0.0000 H   0  0  0  0  0  0  0  0  0  0  0  0
   15.7860   -2.6078    0.0000 H   0  0  0  0  0  0  0  0  0  0  0  0
  1  3  2  0  0  0  0
  1  4  2  0  0  0  0
  1 10  1  0  0  0  0
  1 21  1  0  0  0  0
  2 19  1  0  0  0  0
  2 67  1  0  0  0  0
  5 27  2  0  0  0  0
  6 39  1  0  0  0  0
  6 45  1  0  0  0  0
  7 40  1  0  0  0  0
  7 46  1  0  0  0  0
  8 41  1  0  0  0  0
  8 45  1  0  0  0  0
  9 42  1  0  0  0  0
  9 46  1  0  0  0  0
 14 10  1  1  0  0  0
 10 16  1  0  0  0  0
 11 24  1  0  0  0  0
 11 27  1  0  0  0  0
 11 70  1  0  0  0  0
 12 27  1  0  0  0  0
 12 31  1  0  0  0  0
 12 32  1  0  0  0  0
 13 30  1  0  0  0  0
 13 77  1  0  0  0  0
 13 78  1  0  0  0  0
 14 15  1  0  0  0  0
 14 19  1  0  0  0  0
 14 47  1  0  0  0  0
 15 17  1  0  0  0  0
 15 48  1  0  0  0  0
 15 49  1  0  0  0  0
 16 18  1  0  0  0  0
 16 50  1  0  0  0  0
 16 51  1  0  0  0  0
 17 20  1  0  0  0  0
 17 52  1  0  0  0  0
 17 53  1  0  0  0  0
 18 22  1  0  0  0  0
 18 23  1  0  0  0  0
 18 54  1  0  0  0  0
 19 55  1  0  0  0  0
 19 56  1  0  0  0  0
 20 24  1  0  0  0  0
 20 57  1  0  0  0  0
 20 58  1  0  0  0  0
 21 25  2  0  0  0  0
 21 26  1  0  0  0  0
 22 59  1  0  0  0  0
 22 60  1  0  0  0  0
 22 61  1  0  0  0  0
 23 62  1  0  0  0  0
 23 63  1  0  0  0  0
 23 64  1  0  0  0  0
 24 65  1  0  0  0  0
 24 66  1  0  0  0  0
 25 28  1  0  0  0  0
 25 68  1  0  0  0  0
 26 29  2  0  0  0  0
 26 69  1  0  0  0  0
 28 30  2  0  0  0  0
 28 71  1  0  0  0  0
 29 30  1  0  0  0  0
 29 72  1  0  0  0  0
 31 33  1  0  0  0  0
 31 73  1  0  0  0  0
 31 74  1  0  0  0  0
 32 34  1  0  0  0  0
 32 75  1  0  0  0  0
 32 76  1  0  0  0  0
 33 35  2  0  0  0  0
 33 37  1  0  0  0  0
 34 36  2  0  0  0  0
 34 38  1  0  0  0  0
 35 39  1  0  0  0  0
 35 79  1  0  0  0  0
 36 40  1  0  0  0  0
 36 80  1  0  0  0  0
 37 43  2  0  0  0  0
 37 81  1  0  0  0  0
 38 44  2  0  0  0  0
 38 82  1  0  0  0  0
 39 41  2  0  0  0  0
 40 42  2  0  0  0  0
 41 43  1  0  0  0  0
 42 44  1  0  0  0  0
 43 83  1  0  0  0  0
 44 84  1  0  0  0  0
 45 85  1  0  0  0  0
 45 86  1  0  0  0  0
 46 87  1  0  0  0  0
 46 88  1  0  0  0  0
M  END
> <PUBCHEM_COMPOUND_CID>
513796
> <PUBCHEM_COMPOUND_CANONICALIZED>
1
> <PUBCHEM_CACTVS_COMPLEXITY>
1020
> <PUBCHEM_CACTVS_HBOND_ACCEPTOR>
10
> <PUBCHEM_CACTVS_HBOND_DONOR>
3
> <PUBCHEM_CACTVS_ROTATABLE_BOND>
15
> <PUBCHEM_CACTVS_SUBSKEYS>
AAADcfB/vABAAAAAAAAAAAAAAAAAASJAAAAwYMAAAAAAAEgBUAAAHgQQSAAADSzh2Aczz4PABgKIAiRCUHDCCBAgIgAIiJgO7IifNiKEsZukcCps1hOe6Aew0BIOIAQBAAAAQABACAIAAACAAAAAAAAAAA==
> <PUBCHEM_IUPAC_OPENEYE_NAME>
3-[(5S)-5-[(4-aminophenyl)sulfonyl-isobutyl-amino]-6-hydroxy-hexyl]-1,1-bis(1,3-benzodioxol-5-ylmethyl)urea
> <PUBCHEM_IUPAC_CAS_NAME>
3-[(5S)-5-[(4-aminophenyl)sulfonyl-(2-methylpropyl)amino]-6-hydroxyhexyl]-1,1-bis(1,3-benzodioxol-5-ylmethyl)urea
> <PUBCHEM_IUPAC_NAME_MARKUP>
3-[(5<I>S</I>)-5-[(4-aminophenyl)sulfonyl-(2-methylpropyl)amino]-6-hydroxyhexyl]-1,1-bis(1,3-benzodioxol-5-ylmethyl)urea
> <PUBCHEM_IUPAC_NAME>
3-[(5S)-5-[(4-aminophenyl)sulfonyl-(2-methylpropyl)amino]-6-hydroxyhexyl]-1,1-bis(1,3-benzodioxol-5-ylmethyl)urea
> <PUBCHEM_IUPAC_SYSTEMATIC_NAME>
3-[(5S)-5-[(4-aminophenyl)sulfonyl-(2-methylpropyl)amino]-6-oxidanyl-hexyl]-1,1-bis(1,3-benzodioxol-5-ylmethyl)urea
> <PUBCHEM_IUPAC_TRADITIONAL_NAME>
3-[(5S)-6-hydroxy-5-[isobutyl(sulfanilyl)amino]hexyl]-1,1-dipiperonyl-urea
> <PUBCHEM_IUPAC_INCHI>
InChI=1S/C33H42N4O8S/c1-23(2)17-37(46(40,41)28-10-8-26(34)9-11-28)27(20-38)5-3-4-14-35-33(39)36(18-24-6-12-29-31(15-24)44-21-42-29)19-25-7-13-30-32(16-25)45-22-43-30/h6-13,15-16,23,27,38H,3-5,14,17-22,34H2,1-2H3,(H,35,39)/t27-/m0/s1
> <PUBCHEM_IUPAC_INCHIKEY>
SBGQHZJOYMMEFB-MHZLTWQESA-N
> <PUBCHEM_XLOGP3_AA>
4.1
> <PUBCHEM_EXACT_MASS>
654.27233548
> <PUBCHEM_MOLECULAR_FORMULA>
C33H42N4O8S
> <PUBCHEM_MOLECULAR_WEIGHT>
654.8
> <PUBCHEM_OPENEYE_CAN_SMILES>
CC(C)CN(C(CCCCNC(=O)N(CC1=CC2=C(C=C1)OCO2)CC3=CC4=C(C=C3)OCO4)CO)S(=O)(=O)C5=CC=C(C=C5)N
> <PUBCHEM_OPENEYE_ISO_SMILES>
CC(C)CN([C@@H](CCCCNC(=O)N(CC1=CC2=C(C=C1)OCO2)CC3=CC4=C(C=C3)OCO4)CO)S(=O)(=O)C5=CC=C(C=C5)N
> <PUBCHEM_CACTVS_TPSA>
161
> <PUBCHEM_MONOISOTOPIC_WEIGHT>
654.27233548
> <PUBCHEM_TOTAL_CHARGE>
0
> <PUBCHEM_HEAVY_ATOM_COUNT>
46
> <PUBCHEM_ATOM_DEF_STEREO_COUNT>
1
> <PUBCHEM_ATOM_UDEF_STEREO_COUNT>
0
> <PUBCHEM_BOND_DEF_STEREO_COUNT>
0
> <PUBCHEM_BOND_UDEF_STEREO_COUNT>
0
> <PUBCHEM_ISOTOPIC_ATOM_COUNT>
0
> <PUBCHEM_COMPONENT_COUNT>
1
> <PUBCHEM_CACTVS_TAUTO_COUNT>
-1
> <PUBCHEM_COORDINATE_TYPE>
1
5
255
> <PUBCHEM_BONDANNOTATIONS>
14  10  5
21  25  8
21  26  8
25  28  8
26  29  8
28  30  8
29  30  8
33  35  8
33  37  8
34  36  8
34  38  8
35  39  8
36  40  8
37  43  8
38  44  8
39  41  8
40  42  8
41  43  8
42  44  8
$$$$
