513712
  -OEChem-10302200282D
131144  0     1  0  0  0  0  0999 V2000
    9.4140   -3.2263    0.0000 O   0  0  0  0  0  0  0  0  0  0  0  0
   10.4687   -1.8524    0.0000 O   0  0  0  0  0  0  0  0  0  0  0  0
    7.6968   -2.9999    0.0000 O   0  0  0  0  0  0  0  0  0  0  0  0
    9.8062   -0.2520    0.0000 O   0  0  0  0  0  0  0  0  0  0  0  0
    6.3162    5.6358    0.0000 O   0  0  0  0  0  0  0  0  0  0  0  0
    9.9458   -5.8181    0.0000 O   0  0  0  0  0  0  0  0  0  0  0  0
   13.1098   -1.6963    0.0000 O   0  0  0  0  0  0  0  0  0  0  0  0
    5.3727    8.1076    0.0000 O   0  0  0  0  0  0  0  0  0  0  0  0
   11.4016   -8.0273    0.0000 O   0  0  0  0  0  0  0  0  0  0  0  0
   15.6203   -2.5316    0.0000 O   0  0  0  0  0  0  0  0  0  0  0  0
   11.9334  -10.6191    0.0000 O   0  0  0  0  0  0  0  0  0  0  0  0
   18.2614   -2.3755    0.0000 O   0  0  0  0  0  0  0  0  0  0  0  0
    6.2750    2.9904    0.0000 N   0  0  3  0  0  0  0  0  0  0  0  0
    5.4140   10.7530    0.0000 N   0  0  0  0  0  0  0  0  0  0  0  0
    5.5681    0.7659    0.0000 C   0  0  0  0  0  0  0  0  0  0  0  0
    4.7020    1.2659    0.0000 C   0  0  0  0  0  0  0  0  0  0  0  0
    8.3662   -0.6959    0.0000 C   0  0  3  0  0  0  0  0  0  0  0  0
    7.7535   -1.4941    0.0000 C   0  0  3  0  0  0  0  0  0  0  0  0
    6.4341    1.2659    0.0000 C   0  0  0  0  0  0  0  0  0  0  0  0
    5.5841   -0.2756    0.0000 C   0  0  0  0  0  0  0  0  0  0  0  0
    8.7515   -1.6260    0.0000 C   0  0  0  0  0  0  0  0  0  0  0  0
    7.0520    0.4876    0.0000 C   0  0  0  0  0  0  0  0  0  0  0  0
    6.5722   -0.3827    0.0000 C   0  0  0  0  0  0  0  0  0  0  0  0
    6.8163    1.5938    0.0000 C   0  0  0  0  0  0  0  0  0  0  0  0
    4.7020    2.2659    0.0000 C   0  0  0  0  0  0  0  0  0  0  0  0
    3.7920    0.7591    0.0000 C   0  0  0  0  0  0  0  0  0  0  0  0
    4.7949    2.7609    0.0000 C   0  0  0  0  0  0  0  0  0  0  0  0
    7.9528    0.8822    0.0000 C   0  0  0  0  0  0  0  0  0  0  0  0
    6.7504   -1.4149    0.0000 C   0  0  0  0  0  0  0  0  0  0  0  0
    6.4341    2.2659    0.0000 C   0  0  0  0  0  0  0  0  0  0  0  0
    4.6861   -0.8033    0.0000 C   0  0  0  0  0  0  0  0  0  0  0  0
    5.5681    2.7659    0.0000 C   0  0  0  0  0  0  0  0  0  0  0  0
    3.7840   -0.2825    0.0000 C   0  0  0  0  0  0  0  0  0  0  0  0
    3.7190    2.4119    0.0000 C   0  0  0  0  0  0  0  0  0  0  0  0
    3.2052    1.5612    0.0000 C   0  0  0  0  0  0  0  0  0  0  0  0
    7.3855    2.5149    0.0000 C   0  0  0  0  0  0  0  0  0  0  0  0
    4.9633   -1.8134    0.0000 C   0  0  0  0  0  0  0  0  0  0  0  0
    8.1125    1.8526    0.0000 C   0  0  0  0  0  0  0  0  0  0  0  0
    5.9676   -2.1110    0.0000 C   0  0  0  0  0  0  0  0  0  0  0  0
    5.3080    3.7144    0.0000 C   0  0  0  0  0  0  0  0  0  0  0  0
    2.7706   -0.5475    0.0000 C   0  0  0  0  0  0  0  0  0  0  0  0
    7.0928    3.4656    0.0000 C   0  0  0  0  0  0  0  0  0  0  0  0
    3.0833   -1.5475    0.0000 C   0  0  0  0  0  0  0  0  0  0  0  0
    8.6208   -2.6174    0.0000 C   0  0  0  0  0  0  0  0  0  0  0  0
    9.6755   -1.2435    0.0000 C   0  0  0  0  0  0  0  0  0  0  0  0
    3.6103    3.3893    0.0000 C   0  0  0  0  0  0  0  0  0  0  0  0
    2.2222    1.1994    0.0000 C   0  0  0  0  0  0  0  0  0  0  0  0
    6.6170    3.9301    0.0000 C   0  0  0  0  0  0  0  0  0  0  0  0
    4.3709    4.0128    0.0000 C   0  0  0  0  0  0  0  0  0  0  0  0
    2.0107    0.1735    0.0000 C   0  0  0  0  0  0  0  0  0  0  0  0
    2.6417    3.5254    0.0000 C   0  0  0  0  0  0  0  0  0  0  0  0
    2.0000    2.7872    0.0000 C   0  0  0  0  0  0  0  0  0  0  0  0
    5.9742    4.6961    0.0000 C   0  0  0  0  0  0  0  0  0  0  0  0
    9.2833   -4.2177    0.0000 C   0  0  0  0  0  0  0  0  0  0  0  0
   11.3927   -1.4699    0.0000 C   0  0  0  0  0  0  0  0  0  0  0  0
   10.0765   -4.8266    0.0000 C   0  0  0  0  0  0  0  0  0  0  0  0
   12.1859   -2.0788    0.0000 C   0  0  0  0  0  0  0  0  0  0  0  0
    5.6735    6.4019    0.0000 C   0  0  0  0  0  0  0  0  0  0  0  0
    6.0155    7.3416    0.0000 C   0  0  0  0  0  0  0  0  0  0  0  0
   10.7391   -6.4270    0.0000 C   0  0  0  0  0  0  0  0  0  0  0  0
   13.9031   -2.3052    0.0000 C   0  0  0  0  0  0  0  0  0  0  0  0
   10.6083   -7.4184    0.0000 C   0  0  0  0  0  0  0  0  0  0  0  0
   14.8270   -1.9227    0.0000 C   0  0  0  0  0  0  0  0  0  0  0  0
    5.7147    9.0473    0.0000 C   0  0  0  0  0  0  0  0  0  0  0  0
    5.0719    9.8133    0.0000 C   0  0  0  0  0  0  0  0  0  0  0  0
   11.2709   -9.0187    0.0000 C   0  0  0  0  0  0  0  0  0  0  0  0
   16.5442   -2.1491    0.0000 C   0  0  0  0  0  0  0  0  0  0  0  0
   12.0641   -9.6276    0.0000 C   0  0  0  0  0  0  0  0  0  0  0  0
   17.3375   -2.7580    0.0000 C   0  0  0  0  0  0  0  0  0  0  0  0
   12.7266  -11.2280    0.0000 C   0  0  0  0  0  0  0  0  0  0  0  0
   19.0546   -2.9844    0.0000 C   0  0  0  0  0  0  0  0  0  0  0  0
    8.9539   -0.4983    0.0000 H   0  0  0  0  0  0  0  0  0  0  0  0
    7.6885   -2.1107    0.0000 H   0  0  0  0  0  0  0  0  0  0  0  0
    7.1209    1.0538    0.0000 H   0  0  0  0  0  0  0  0  0  0  0  0
    7.3768    1.8588    0.0000 H   0  0  0  0  0  0  0  0  0  0  0  0
    4.7442    3.3788    0.0000 H   0  0  0  0  0  0  0  0  0  0  0  0
    4.1749    2.7547    0.0000 H   0  0  0  0  0  0  0  0  0  0  0  0
    8.6981    2.0561    0.0000 H   0  0  0  0  0  0  0  0  0  0  0  0
    6.1026   -2.7161    0.0000 H   0  0  0  0  0  0  0  0  0  0  0  0
    7.7056    3.5601    0.0000 H   0  0  0  0  0  0  0  0  0  0  0  0
    7.0883    4.0856    0.0000 H   0  0  0  0  0  0  0  0  0  0  0  0
    2.4708   -1.6433    0.0000 H   0  0  0  0  0  0  0  0  0  0  0  0
    3.0879   -2.1674    0.0000 H   0  0  0  0  0  0  0  0  0  0  0  0
    7.1540    3.6201    0.0000 H   0  0  0  0  0  0  0  0  0  0  0  0
    7.0156    4.4050    0.0000 H   0  0  0  0  0  0  0  0  0  0  0  0
    4.2543    4.6217    0.0000 H   0  0  0  0  0  0  0  0  0  0  0  0
    1.4192   -0.0122    0.0000 H   0  0  0  0  0  0  0  0  0  0  0  0
    2.4245    4.1062    0.0000 H   0  0  0  0  0  0  0  0  0  0  0  0
    1.4056    2.9634    0.0000 H   0  0  0  0  0  0  0  0  0  0  0  0
    5.4373    5.0061    0.0000 H   0  0  0  0  0  0  0  0  0  0  0  0
    5.5757    4.2212    0.0000 H   0  0  0  0  0  0  0  0  0  0  0  0
    8.6920   -4.0312    0.0000 H   0  0  0  0  0  0  0  0  0  0  0  0
    8.9969   -4.7676    0.0000 H   0  0  0  0  0  0  0  0  0  0  0  0
   11.8498   -1.0511    0.0000 H   0  0  0  0  0  0  0  0  0  0  0  0
   11.0596   -0.9469    0.0000 H   0  0  0  0  0  0  0  0  0  0  0  0
   10.6678   -5.0132    0.0000 H   0  0  0  0  0  0  0  0  0  0  0  0
   10.3629   -4.2768    0.0000 H   0  0  0  0  0  0  0  0  0  0  0  0
   11.7287   -2.4976    0.0000 H   0  0  0  0  0  0  0  0  0  0  0  0
   12.5189   -2.6018    0.0000 H   0  0  0  0  0  0  0  0  0  0  0  0
    5.1365    6.7119    0.0000 H   0  0  0  0  0  0  0  0  0  0  0  0
    5.2749    5.9269    0.0000 H   0  0  0  0  0  0  0  0  0  0  0  0
    6.5524    7.0316    0.0000 H   0  0  0  0  0  0  0  0  0  0  0  0
    6.4140    7.8165    0.0000 H   0  0  0  0  0  0  0  0  0  0  0  0
   11.3303   -6.6135    0.0000 H   0  0  0  0  0  0  0  0  0  0  0  0
   11.0255   -5.8771    0.0000 H   0  0  0  0  0  0  0  0  0  0  0  0
   13.4459   -2.7240    0.0000 H   0  0  0  0  0  0  0  0  0  0  0  0
   14.2361   -2.8282    0.0000 H   0  0  0  0  0  0  0  0  0  0  0  0
   10.0171   -7.2318    0.0000 H   0  0  0  0  0  0  0  0  0  0  0  0
   10.3220   -7.9683    0.0000 H   0  0  0  0  0  0  0  0  0  0  0  0
   15.2842   -1.5039    0.0000 H   0  0  0  0  0  0  0  0  0  0  0  0
   14.4940   -1.3997    0.0000 H   0  0  0  0  0  0  0  0  0  0  0  0
    6.2516    8.7373    0.0000 H   0  0  0  0  0  0  0  0  0  0  0  0
    6.1132    9.5222    0.0000 H   0  0  0  0  0  0  0  0  0  0  0  0
    4.5350   10.1233    0.0000 H   0  0  0  0  0  0  0  0  0  0  0  0
    4.6734    9.3384    0.0000 H   0  0  0  0  0  0  0  0  0  0  0  0
   10.6796   -8.8322    0.0000 H   0  0  0  0  0  0  0  0  0  0  0  0
   10.9845   -9.5686    0.0000 H   0  0  0  0  0  0  0  0  0  0  0  0
   17.0014   -1.7303    0.0000 H   0  0  0  0  0  0  0  0  0  0  0  0
   16.2112   -1.6261    0.0000 H   0  0  0  0  0  0  0  0  0  0  0  0
    5.0154   11.2280    0.0000 H   0  0  0  0  0  0  0  0  0  0  0  0
    6.0245   10.8607    0.0000 H   0  0  0  0  0  0  0  0  0  0  0  0
   12.6554   -9.8142    0.0000 H   0  0  0  0  0  0  0  0  0  0  0  0
   12.3505   -9.0778    0.0000 H   0  0  0  0  0  0  0  0  0  0  0  0
   16.8803   -3.1768    0.0000 H   0  0  0  0  0  0  0  0  0  0  0  0
   17.6705   -3.2810    0.0000 H   0  0  0  0  0  0  0  0  0  0  0  0
   12.3491  -11.7198    0.0000 H   0  0  0  0  0  0  0  0  0  0  0  0
   13.2184  -11.6055    0.0000 H   0  0  0  0  0  0  0  0  0  0  0  0
   13.1041  -10.7362    0.0000 H   0  0  0  0  0  0  0  0  0  0  0  0
   18.6771   -3.4762    0.0000 H   0  0  0  0  0  0  0  0  0  0  0  0
   19.5464   -3.3620    0.0000 H   0  0  0  0  0  0  0  0  0  0  0  0
   19.4322   -2.4926    0.0000 H   0  0  0  0  0  0  0  0  0  0  0  0
  1 44  1  0  0  0  0
  1 54  1  0  0  0  0
  2 45  1  0  0  0  0
  2 55  1  0  0  0  0
  3 44  2  0  0  0  0
  4 45  2  0  0  0  0
  5 53  1  0  0  0  0
  5 58  1  0  0  0  0
  6 56  1  0  0  0  0
  6 60  1  0  0  0  0
  7 57  1  0  0  0  0
  7 61  1  0  0  0  0
  8 59  1  0  0  0  0
  8 64  1  0  0  0  0
  9 62  1  0  0  0  0
  9 66  1  0  0  0  0
 10 63  1  0  0  0  0
 10 67  1  0  0  0  0
 11 68  1  0  0  0  0
 11 70  1  0  0  0  0
 12 69  1  0  0  0  0
 12 71  1  0  0  0  0
 13 24  1  0  0  0  0
 13 27  1  0  0  0  0
 13 48  1  0  0  0  0
 14 65  1  0  0  0  0
 14120  1  0  0  0  0
 14121  1  0  0  0  0
 15 16  1  0  0  0  0
 15 19  1  0  0  0  0
 15 20  1  0  0  0  0
 15 24  1  0  0  0  0
 16 25  1  0  0  0  0
 16 26  1  0  0  0  0
 16 27  1  0  0  0  0
 17 18  1  0  0  0  0
 17 21  1  0  0  0  0
 17 28  1  0  0  0  0
 17 72  1  0  0  0  0
 18 21  1  0  0  0  0
 18 29  1  0  0  0  0
 18 73  1  0  0  0  0
 19 22  1  0  0  0  0
 19 30  2  0  0  0  0
 20 23  1  0  0  0  0
 20 31  2  0  0  0  0
 21 44  1  0  0  0  0
 21 45  1  0  0  0  0
 22 23  1  0  0  0  0
 22 28  2  0  0  0  0
 23 29  2  0  0  0  0
 24 74  1  0  0  0  0
 24 75  1  0  0  0  0
 25 32  1  0  0  0  0
 25 34  2  0  0  0  0
 26 33  1  0  0  0  0
 26 35  2  0  0  0  0
 27 76  1  0  0  0  0
 27 77  1  0  0  0  0
 28 38  1  0  0  0  0
 29 39  1  0  0  0  0
 30 32  1  0  0  0  0
 30 36  1  0  0  0  0
 31 33  1  0  0  0  0
 31 37  1  0  0  0  0
 32 40  2  0  0  0  0
 33 41  2  0  0  0  0
 34 35  1  0  0  0  0
 34 46  1  0  0  0  0
 35 47  1  0  0  0  0
 36 38  2  0  0  0  0
 36 42  1  0  0  0  0
 37 39  2  0  0  0  0
 37 43  1  0  0  0  0
 38 78  1  0  0  0  0
 39 79  1  0  0  0  0
 40 42  1  0  0  0  0
 40 49  1  0  0  0  0
 41 43  1  0  0  0  0
 41 50  1  0  0  0  0
 42 80  1  0  0  0  0
 42 81  1  0  0  0  0
 43 82  1  0  0  0  0
 43 83  1  0  0  0  0
 46 49  2  0  0  0  0
 46 51  1  0  0  0  0
 47 50  2  0  0  0  0
 47 52  1  0  0  0  0
 48 53  1  0  0  0  0
 48 84  1  0  0  0  0
 48 85  1  0  0  0  0
 49 86  1  0  0  0  0
 50 87  1  0  0  0  0
 51 52  2  0  0  0  0
 51 88  1  0  0  0  0
 52 89  1  0  0  0  0
 53 90  1  0  0  0  0
 53 91  1  0  0  0  0
 54 56  1  0  0  0  0
 54 92  1  0  0  0  0
 54 93  1  0  0  0  0
 55 57  1  0  0  0  0
 55 94  1  0  0  0  0
 55 95  1  0  0  0  0
 56 96  1  0  0  0  0
 56 97  1  0  0  0  0
 57 98  1  0  0  0  0
 57 99  1  0  0  0  0
 58 59  1  0  0  0  0
 58100  1  0  0  0  0
 58101  1  0  0  0  0
 59102  1  0  0  0  0
 59103  1  0  0  0  0
 60 62  1  0  0  0  0
 60104  1  0  0  0  0
 60105  1  0  0  0  0
 61 63  1  0  0  0  0
 61106  1  0  0  0  0
 61107  1  0  0  0  0
 62108  1  0  0  0  0
 62109  1  0  0  0  0
 63110  1  0  0  0  0
 63111  1  0  0  0  0
 64 65  1  0  0  0  0
 64112  1  0  0  0  0
 64113  1  0  0  0  0
 65114  1  0  0  0  0
 65115  1  0  0  0  0
 66 68  1  0  0  0  0
 66116  1  0  0  0  0
 66117  1  0  0  0  0
 67 69  1  0  0  0  0
 67118  1  0  0  0  0
 67119  1  0  0  0  0
 68122  1  0  0  0  0
 68123  1  0  0  0  0
 69124  1  0  0  0  0
 69125  1  0  0  0  0
 70126  1  0  0  0  0
 70127  1  0  0  0  0
 70128  1  0  0  0  0
 71129  1  0  0  0  0
 71130  1  0  0  0  0
 71131  1  0  0  0  0
M  END
> <PUBCHEM_COMPOUND_CID>
513712
> <PUBCHEM_COMPOUND_CANONICALIZED>
1
> <PUBCHEM_CACTVS_COMPLEXITY>
1870
> <PUBCHEM_CACTVS_HBOND_ACCEPTOR>
14
> <PUBCHEM_CACTVS_HBOND_DONOR>
1
> <PUBCHEM_CACTVS_ROTATABLE_BOND>
30
> <PUBCHEM_CACTVS_SUBSKEYS>
AAADcfB/PAAAAAAAAAAAAAAAGAAAAeMGDBAwYMGDBgAAAHjBVAAAHgAQAAAADwDhmAYyCMNABACIAiDSCAACAAAgAAAIiIEIAIgLIDaIkRGHIAAlsACaiAeYyPCPwAACAAAQAACAAAQAACAAAQAACAAAAA==
> <PUBCHEM_IUPAC_OPENEYE_NAME>
bis[2-[2-(2-methoxyethoxy)ethoxy]ethyl] 6-[2-[2-(2-aminoethoxy)ethoxy]ethyl]-6-azatetradecacyclo[16.16.1.12,9.03,17.04,8.04,15.08,12.010,31.011,28.013,26.014,24.016,22.019,21.033,36]hexatriaconta-1(35),2,9,11,13(26),14,16(22),17,23,27,29,31,33(36)-tridecaene-20,20-dicarboxylate
> <PUBCHEM_IUPAC_CAS_NAME>
6-[2-[2-(2-aminoethoxy)ethoxy]ethyl]-6-azatetradecacyclo[16.16.1.12,9.03,17.04,8.04,15.08,12.010,31.011,28.013,26.014,24.016,22.019,21.033,36]hexatriaconta-1(35),2,9,11,13(26),14,16(22),17,23,27,29,31,33(36)-tridecaene-20,20-dicarboxylic acid bis[2-[2-(2-methoxyethoxy)ethoxy]ethyl] ester
> <PUBCHEM_IUPAC_NAME_MARKUP>
bis[2-[2-(2-methoxyethoxy)ethoxy]ethyl] 6-[2-[2-(2-aminoethoxy)ethoxy]ethyl]-6-azatetradecacyclo[16.16.1.1<SUP>2,9</SUP>.0<SUP>3,17</SUP>.0<SUP>4,8</SUP>.0<SUP>4,15</SUP>.0<SUP>8,12</SUP>.0<SUP>10,31</SUP>.0<SUP>11,28</SUP>.0<SUP>13,26</SUP>.0<SUP>14,24</SUP>.0<SUP>16,22</SUP>.0<SUP>19,21</SUP>.0<SUP>33,36</SUP>]hexatriaconta-1(35),2,9,11,13(26),14,16(22),17,23,27,29,31,33(36)-tridecaene-20,20-dicarboxylate
> <PUBCHEM_IUPAC_NAME>
bis[2-[2-(2-methoxyethoxy)ethoxy]ethyl] 6-[2-[2-(2-aminoethoxy)ethoxy]ethyl]-6-azatetradecacyclo[16.16.1.12,9.03,17.04,8.04,15.08,12.010,31.011,28.013,26.014,24.016,22.019,21.033,36]hexatriaconta-1(35),2,9,11,13(26),14,16(22),17,23,27,29,31,33(36)-tridecaene-20,20-dicarboxylate
> <PUBCHEM_IUPAC_SYSTEMATIC_NAME>
bis[2-[2-(2-methoxyethoxy)ethoxy]ethyl] 6-[2-[2-(2-azanylethoxy)ethoxy]ethyl]-6-azatetradecacyclo[16.16.1.12,9.03,17.04,8.04,15.08,12.010,31.011,28.013,26.014,24.016,22.019,21.033,36]hexatriaconta-1(35),2,9,11,13(26),14,16(22),17,23,27,29,31,33(36)-tridecaene-20,20-dicarboxylate
> <PUBCHEM_IUPAC_TRADITIONAL_NAME>
6-[2-[2-(2-aminoethoxy)ethoxy]ethyl]-6-azatetradecacyclo[16.16.1.12,9.03,17.04,8.04,15.08,12.010,31.011,28.013,26.014,24.016,22.019,21.033,36]hexatriaconta-1(35),2,9,11,13(26),14,16(22),17,23,27,29,31,33(36)-tridecaene-20,20-dicarboxylic acid bis[2-[2-(2-methoxyethoxy)ethoxy]ethyl] ester
> <PUBCHEM_IUPAC_INCHI>
InChI=1S/C57H60N2O12/c1-62-9-11-66-15-17-68-19-21-70-53(60)57(54(61)71-22-20-69-18-16-67-12-10-63-2)47-37-27-35-25-33-23-31-3-4-32-24-34-26-36-28-38(48(47)57)46-45(37)51-43(35)41(33)49-39(31)40(32)50-42(34)44(36)52(46)56(51)30-59(29-55(49,50)56)6-8-65-14-13-64-7-5-58/h3-4,23-24,27-28,47-48H,5-22,25-26,29-30,58H2,1-2H3
> <PUBCHEM_IUPAC_INCHIKEY>
FUXLYHPUOYPZRS-UHFFFAOYSA-N
> <PUBCHEM_XLOGP3_AA>
3.9
> <PUBCHEM_EXACT_MASS>
964.41462535
> <PUBCHEM_MOLECULAR_FORMULA>
C57H60N2O12
> <PUBCHEM_MOLECULAR_WEIGHT>
965.1
> <PUBCHEM_OPENEYE_CAN_SMILES>
COCCOCCOCCOC(=O)C1(C2C1C3=C4C5=C2C=C6CC7=C8C6=C5C91C4=C2C(=C3)CC3=C2C2=C4C(=C3)C=CC(=C7)C4=C8C29CN(C1)CCOCCOCCN)C(=O)OCCOCCOCCOC
> <PUBCHEM_OPENEYE_ISO_SMILES>
COCCOCCOCCOC(=O)C1(C2C1C3=C4C5=C2C=C6CC7=C8C6=C5C91C4=C2C(=C3)CC3=C2C2=C4C(=C3)C=CC(=C7)C4=C8C29CN(C1)CCOCCOCCN)C(=O)OCCOCCOCCOC
> <PUBCHEM_CACTVS_TPSA>
156
> <PUBCHEM_MONOISOTOPIC_WEIGHT>
964.41462535
> <PUBCHEM_TOTAL_CHARGE>
0
> <PUBCHEM_HEAVY_ATOM_COUNT>
71
> <PUBCHEM_ATOM_DEF_STEREO_COUNT>
0
> <PUBCHEM_ATOM_UDEF_STEREO_COUNT>
2
> <PUBCHEM_BOND_DEF_STEREO_COUNT>
0
> <PUBCHEM_BOND_UDEF_STEREO_COUNT>
0
> <PUBCHEM_ISOTOPIC_ATOM_COUNT>
0
> <PUBCHEM_COMPONENT_COUNT>
1
> <PUBCHEM_CACTVS_TAUTO_COUNT>
-1
> <PUBCHEM_COORDINATE_TYPE>
1
5
255
> <PUBCHEM_BONDANNOTATIONS>
17  21  3
18  21  3
19  22  8
19  30  8
20  23  8
20  31  8
22  23  8
22  28  8
23  29  8
25  32  8
25  34  8
26  33  8
26  35  8
28  38  8
29  39  8
30  32  8
30  36  8
31  33  8
31  37  8
32  40  8
33  41  8
34  35  8
34  46  8
35  47  8
36  38  8
37  39  8
40  49  8
41  50  8
46  49  8
46  51  8
47  50  8
47  52  8
51  52  8
$$$$
