513716
  -OEChem-10302200282D
 30 32  0     1  0  0  0  0  0999 V2000
    6.7523    2.4116    0.0000 O   0  0  0  0  0  0  0  0  0  0  0  0
    4.6844    3.0874    0.0000 O   0  0  0  0  0  0  0  0  0  0  0  0
    4.6783   -0.4327    0.0000 N   0  0  0  0  0  0  0  0  0  0  0  0
    4.6783   -2.0422    0.0000 N   0  0  0  0  0  0  0  0  0  0  0  0
    2.8660   -0.2375    0.0000 N   0  0  0  0  0  0  0  0  0  0  0  0
    2.0000   -1.7374    0.0000 N   0  0  0  0  0  0  0  0  0  0  0  0
    2.8660   -3.2374    0.0000 N   0  0  0  0  0  0  0  0  0  0  0  0
    4.9889    0.5178    0.0000 C   0  0  0  0  0  0  0  0  0  0  0  0
    5.9405    0.8252    0.0000 C   0  0  0  0  0  0  0  0  0  0  0  0
    4.4026    1.3278    0.0000 C   0  0  0  0  0  0  0  0  0  0  0  0
    5.9422    1.8252    0.0000 C   0  0  1  0  0  0  0  0  0  0  0  0
    4.9917    2.1358    0.0000 C   0  0  1  0  0  0  0  0  0  0  0  0
    3.7320   -0.7375    0.0000 C   0  0  0  0  0  0  0  0  0  0  0  0
    5.2619   -1.2374    0.0000 C   0  0  0  0  0  0  0  0  0  0  0  0
    3.7320   -1.7374    0.0000 C   0  0  0  0  0  0  0  0  0  0  0  0
    2.8660   -2.2374    0.0000 C   0  0  0  0  0  0  0  0  0  0  0  0
    2.0000   -0.7375    0.0000 C   0  0  0  0  0  0  0  0  0  0  0  0
    5.4266    0.0786    0.0000 H   0  0  0  0  0  0  0  0  0  0  0  0
    6.0684    0.2185    0.0000 H   0  0  0  0  0  0  0  0  0  0  0  0
    6.5572    0.8889    0.0000 H   0  0  0  0  0  0  0  0  0  0  0  0
    3.9425    1.7435    0.0000 H   0  0  0  0  0  0  0  0  0  0  0  0
    3.9411    0.9138    0.0000 H   0  0  0  0  0  0  0  0  0  0  0  0
    5.8463    2.4377    0.0000 H   0  0  0  0  0  0  0  0  0  0  0  0
    5.4309    2.5735    0.0000 H   0  0  0  0  0  0  0  0  0  0  0  0
    5.8819   -1.2374    0.0000 H   0  0  0  0  0  0  0  0  0  0  0  0
    7.3182    2.1584    0.0000 H   0  0  0  0  0  0  0  0  0  0  0  0
    5.1000    3.5474    0.0000 H   0  0  0  0  0  0  0  0  0  0  0  0
    1.4631   -0.4275    0.0000 H   0  0  0  0  0  0  0  0  0  0  0  0
    2.3291   -3.5474    0.0000 H   0  0  0  0  0  0  0  0  0  0  0  0
    3.4030   -3.5474    0.0000 H   0  0  0  0  0  0  0  0  0  0  0  0
 11  1  1  1  0  0  0
  1 26  1  0  0  0  0
 12  2  1  6  0  0  0
  2 27  1  0  0  0  0
  3  8  1  0  0  0  0
  3 13  1  0  0  0  0
  3 14  1  0  0  0  0
  4 14  2  0  0  0  0
  4 15  1  0  0  0  0
  5 13  2  0  0  0  0
  5 17  1  0  0  0  0
  6 16  1  0  0  0  0
  6 17  2  0  0  0  0
  7 16  1  0  0  0  0
  7 29  1  0  0  0  0
  7 30  1  0  0  0  0
  8  9  1  0  0  0  0
  8 10  1  0  0  0  0
  8 18  1  0  0  0  0
  9 11  1  0  0  0  0
  9 19  1  0  0  0  0
  9 20  1  0  0  0  0
 10 12  1  0  0  0  0
 10 21  1  0  0  0  0
 10 22  1  0  0  0  0
 11 12  1  0  0  0  0
 11 23  1  0  0  0  0
 12 24  1  0  0  0  0
 13 15  1  0  0  0  0
 14 25  1  0  0  0  0
 15 16  2  0  0  0  0
 17 28  1  0  0  0  0
M  END
> <PUBCHEM_COMPOUND_CID>
513716
> <PUBCHEM_COMPOUND_CANONICALIZED>
1
> <PUBCHEM_CACTVS_COMPLEXITY>
282
> <PUBCHEM_CACTVS_HBOND_ACCEPTOR>
6
> <PUBCHEM_CACTVS_HBOND_DONOR>
3
> <PUBCHEM_CACTVS_ROTATABLE_BOND>
1
> <PUBCHEM_CACTVS_SUBSKEYS>
AAADccBzsAAAAAAAAAAAAAAAAAAAAeIAAAAsAAAAAAAAAFgB+AAAHgAQCAAACDzhlwYF8L9MEgCgAQZhZACAgC0REKABUCAoVBCBWAJAyEAURAgOAALBACCwIAAAAAAAAAAAAAAAAAAAAAAAAAEAACAAAA==
> <PUBCHEM_IUPAC_OPENEYE_NAME>
(1S,2S)-4-(6-aminopurin-9-yl)cyclopentane-1,2-diol
> <PUBCHEM_IUPAC_CAS_NAME>
(1S,2S)-4-(6-aminopurin-9-yl)cyclopentane-1,2-diol
> <PUBCHEM_IUPAC_NAME_MARKUP>
(1<I>S</I>,2<I>S</I>)-4-(6-aminopurin-9-yl)cyclopentane-1,2-diol
> <PUBCHEM_IUPAC_NAME>
(1S,2S)-4-(6-aminopurin-9-yl)cyclopentane-1,2-diol
> <PUBCHEM_IUPAC_SYSTEMATIC_NAME>
(1S,2S)-4-(6-aminopurin-9-yl)cyclopentane-1,2-diol
> <PUBCHEM_IUPAC_TRADITIONAL_NAME>
(1S,2S)-4-adenin-9-ylcyclopentane-1,2-diol
> <PUBCHEM_IUPAC_INCHI>
InChI=1S/C10H13N5O2/c11-9-8-10(13-3-12-9)15(4-14-8)5-1-6(16)7(17)2-5/h3-7,16-17H,1-2H2,(H2,11,12,13)/t6-,7-/m0/s1
> <PUBCHEM_IUPAC_INCHIKEY>
HQDRMBMYUFTHKP-BQBZGAKWSA-N
> <PUBCHEM_XLOGP3>
-0.7
> <PUBCHEM_EXACT_MASS>
235.10692467
> <PUBCHEM_MOLECULAR_FORMULA>
C10H13N5O2
> <PUBCHEM_MOLECULAR_WEIGHT>
235.24
> <PUBCHEM_OPENEYE_CAN_SMILES>
C1C(CC(C1O)O)N2C=NC3=C(N=CN=C32)N
> <PUBCHEM_OPENEYE_ISO_SMILES>
C1[C@@H]([C@H](CC1N2C=NC3=C(N=CN=C32)N)O)O
> <PUBCHEM_CACTVS_TPSA>
110
> <PUBCHEM_MONOISOTOPIC_WEIGHT>
235.10692467
> <PUBCHEM_TOTAL_CHARGE>
0
> <PUBCHEM_HEAVY_ATOM_COUNT>
17
> <PUBCHEM_ATOM_DEF_STEREO_COUNT>
2
> <PUBCHEM_ATOM_UDEF_STEREO_COUNT>
0
> <PUBCHEM_BOND_DEF_STEREO_COUNT>
0
> <PUBCHEM_BOND_UDEF_STEREO_COUNT>
0
> <PUBCHEM_ISOTOPIC_ATOM_COUNT>
0
> <PUBCHEM_COMPONENT_COUNT>
1
> <PUBCHEM_CACTVS_TAUTO_COUNT>
3
> <PUBCHEM_COORDINATE_TYPE>
1
5
255
> <PUBCHEM_BONDANNOTATIONS>
11  1  5
13  15  8
15  16  8
12  2  6
3  13  8
3  14  8
4  14  8
4  15  8
5  13  8
5  17  8
6  16  8
6  17  8
$$$$
