513705
  -OEChem-10302200282D
114125  0     1  0  0  0  0  0999 V2000
    0.0000    9.3127    0.0000 Cl  0  5  0  0  0  0  0  0  0  0  0  0
   10.8882    0.0000    0.0000 Cl  0  5  0  0  0  0  0  0  0  0  0  0
    6.2708    7.2723    0.0000 O   0  0  0  0  0  0  0  0  0  0  0  0
   14.1208   16.8436    0.0000 O   0  0  0  0  0  0  0  0  0  0  0  0
    4.3531    5.4495    0.0000 O   0  0  0  0  0  0  0  0  0  0  0  0
   16.7368   17.2394    0.0000 O   0  0  0  0  0  0  0  0  0  0  0  0
    7.3749    9.6767    0.0000 N   0  3  3  0  0  0  0  0  0  0  0  0
   11.8386   15.5052    0.0000 N   0  3  3  0  0  0  0  0  0  0  0  0
    3.2490    3.0451    0.0000 N   0  0  0  0  0  0  0  0  0  0  0  0
   19.0191   18.5779    0.0000 N   0  0  0  0  0  0  0  0  0  0  0  0
    7.0165   11.3144    0.0000 C   0  0  3  0  0  0  0  0  0  0  0  0
    6.1185   10.7867    0.0000 C   0  0  3  0  0  0  0  0  0  0  0  0
    7.7895   10.6255    0.0000 C   0  0  0  0  0  0  0  0  0  0  0  0
    7.0004   12.3559    0.0000 C   0  0  0  0  0  0  0  0  0  0  0  0
    6.3442    9.7761    0.0000 C   0  0  0  0  0  0  0  0  0  0  0  0
    8.0045   11.2073    0.0000 C   0  0  0  0  0  0  0  0  0  0  0  0
    7.8665   12.8559    0.0000 C   0  0  0  0  0  0  0  0  0  0  0  0
    6.1344   12.8559    0.0000 C   0  0  0  0  0  0  0  0  0  0  0  0
    8.7604   12.3213    0.0000 C   0  0  0  0  0  0  0  0  0  0  0  0
    5.2164   11.3075    0.0000 C   0  0  0  0  0  0  0  0  0  0  0  0
    7.8665   13.8559    0.0000 C   0  0  0  0  0  0  0  0  0  0  0  0
    5.2244   12.3491    0.0000 C   0  0  0  0  0  0  0  0  0  0  0  0
    6.1344   13.8559    0.0000 C   0  0  0  0  0  0  0  0  0  0  0  0
   10.4027   14.6219    0.0000 C   0  0  3  0  0  0  0  0  0  0  0  0
    7.0004   14.3559    0.0000 C   0  0  0  0  0  0  0  0  0  0  0  0
   10.1582   15.6404    0.0000 C   0  0  3  0  0  0  0  0  0  0  0  0
    8.7604   14.3906    0.0000 C   0  0  0  0  0  0  0  0  0  0  0  0
    9.6665   13.8767    0.0000 C   0  0  0  0  0  0  0  0  0  0  0  0
    8.3592   15.2998    0.0000 C   0  0  0  0  0  0  0  0  0  0  0  0
    7.0165   15.3974    0.0000 C   0  0  0  0  0  0  0  0  0  0  0  0
    7.2780    8.6814    0.0000 C   0  0  0  0  0  0  0  0  0  0  0  0
    5.2244   14.3628    0.0000 C   0  0  0  0  0  0  0  0  0  0  0  0
    4.6376   13.5607    0.0000 C   0  0  0  0  0  0  0  0  0  0  0  0
    8.4043   16.3300    0.0000 C   0  0  0  0  0  0  0  0  0  0  0  0
   11.4409   14.5428    0.0000 C   0  0  0  0  0  0  0  0  0  0  0  0
    9.6665   12.8351    0.0000 C   0  0  0  0  0  0  0  0  0  0  0  0
    8.2915    9.2770    0.0000 C   0  0  0  0  0  0  0  0  0  0  0  0
   11.0475   16.1822    0.0000 C   0  0  0  0  0  0  0  0  0  0  0  0
    6.1185   15.9252    0.0000 C   0  0  0  0  0  0  0  0  0  0  0  0
    5.2164   15.4044    0.0000 C   0  0  0  0  0  0  0  0  0  0  0  0
    4.1855   11.2838    0.0000 C   0  0  0  0  0  0  0  0  0  0  0  0
    6.6134   16.8298    0.0000 C   0  0  0  0  0  0  0  0  0  0  0  0
    3.6546   13.9224    0.0000 C   0  0  0  0  0  0  0  0  0  0  0  0
    4.2030   15.6693    0.0000 C   0  0  0  0  0  0  0  0  0  0  0  0
    7.6288   17.0097    0.0000 C   0  0  0  0  0  0  0  0  0  0  0  0
    5.6182   17.1371    0.0000 C   0  0  0  0  0  0  0  0  0  0  0  0
   12.4881   16.2655    0.0000 C   0  0  0  0  0  0  0  0  0  0  0  0
    6.3676    8.2676    0.0000 C   0  0  0  0  0  0  0  0  0  0  0  0
    3.5221   12.0732    0.0000 C   0  0  0  0  0  0  0  0  0  0  0  0
   12.7625   15.1224    0.0000 C   0  0  0  0  0  0  0  0  0  0  0  0
    3.4431   14.9484    0.0000 C   0  0  0  0  0  0  0  0  0  0  0  0
   13.4714   16.0833    0.0000 C   0  0  0  0  0  0  0  0  0  0  0  0
    5.3604    6.8586    0.0000 C   0  0  0  0  0  0  0  0  0  0  0  0
   15.1041   16.6613    0.0000 C   0  0  0  0  0  0  0  0  0  0  0  0
    5.2635    5.8633    0.0000 C   0  0  0  0  0  0  0  0  0  0  0  0
   15.7536   17.4217    0.0000 C   0  0  0  0  0  0  0  0  0  0  0  0
    4.2563    4.4542    0.0000 C   0  0  0  0  0  0  0  0  0  0  0  0
   17.3863   17.9998    0.0000 C   0  0  0  0  0  0  0  0  0  0  0  0
    3.3459    4.0404    0.0000 C   0  0  0  0  0  0  0  0  0  0  0  0
   18.3696   17.8175    0.0000 C   0  0  0  0  0  0  0  0  0  0  0  0
    5.6188   10.4197    0.0000 H   0  0  0  0  0  0  0  0  0  0  0  0
    8.3284   10.3189    0.0000 H   0  0  0  0  0  0  0  0  0  0  0  0
    8.1511   11.1292    0.0000 H   0  0  0  0  0  0  0  0  0  0  0  0
    5.7282    9.7053    0.0000 H   0  0  0  0  0  0  0  0  0  0  0  0
    6.3498    9.1561    0.0000 H   0  0  0  0  0  0  0  0  0  0  0  0
    7.8387   10.6099    0.0000 H   0  0  0  0  0  0  0  0  0  0  0  0
    8.5672   10.9469    0.0000 H   0  0  0  0  0  0  0  0  0  0  0  0
   10.6197   14.0411    0.0000 H   0  0  0  0  0  0  0  0  0  0  0  0
   10.1048   16.2581    0.0000 H   0  0  0  0  0  0  0  0  0  0  0  0
    7.4326    8.0810    0.0000 H   0  0  0  0  0  0  0  0  0  0  0  0
    7.8961    8.7294    0.0000 H   0  0  0  0  0  0  0  0  0  0  0  0
   11.3291   13.9330    0.0000 H   0  0  0  0  0  0  0  0  0  0  0  0
   12.0356   14.3676    0.0000 H   0  0  0  0  0  0  0  0  0  0  0  0
   10.2022   12.5230    0.0000 H   0  0  0  0  0  0  0  0  0  0  0  0
    8.0437    8.7087    0.0000 H   0  0  0  0  0  0  0  0  0  0  0  0
    8.8598    9.0292    0.0000 H   0  0  0  0  0  0  0  0  0  0  0  0
    8.5393    9.8454    0.0000 H   0  0  0  0  0  0  0  0  0  0  0  0
   11.4978   16.6083    0.0000 H   0  0  0  0  0  0  0  0  0  0  0  0
   10.6710   16.6748    0.0000 H   0  0  0  0  0  0  0  0  0  0  0  0
    3.9302   10.7188    0.0000 H   0  0  0  0  0  0  0  0  0  0  0  0
    7.7954   17.6068    0.0000 H   0  0  0  0  0  0  0  0  0  0  0  0
    5.8908   17.6939    0.0000 H   0  0  0  0  0  0  0  0  0  0  0  0
    5.1104   17.4929    0.0000 H   0  0  0  0  0  0  0  0  0  0  0  0
   12.7053   16.8463    0.0000 H   0  0  0  0  0  0  0  0  0  0  0  0
   11.9539   16.5803    0.0000 H   0  0  0  0  0  0  0  0  0  0  0  0
    6.2130    8.8680    0.0000 H   0  0  0  0  0  0  0  0  0  0  0  0
    5.7495    8.2196    0.0000 H   0  0  0  0  0  0  0  0  0  0  0  0
    2.9323   11.8819    0.0000 H   0  0  0  0  0  0  0  0  0  0  0  0
   12.5252   14.5497    0.0000 H   0  0  0  0  0  0  0  0  0  0  0  0
   13.3353   14.8852    0.0000 H   0  0  0  0  0  0  0  0  0  0  0  0
   12.9998   15.6952    0.0000 H   0  0  0  0  0  0  0  0  0  0  0  0
    2.8516   15.1340    0.0000 H   0  0  0  0  0  0  0  0  0  0  0  0
   13.2542   15.5025    0.0000 H   0  0  0  0  0  0  0  0  0  0  0  0
   14.0056   15.7686    0.0000 H   0  0  0  0  0  0  0  0  0  0  0  0
    5.2058    7.4590    0.0000 H   0  0  0  0  0  0  0  0  0  0  0  0
    4.7422    6.8106    0.0000 H   0  0  0  0  0  0  0  0  0  0  0  0
   14.8869   16.0806    0.0000 H   0  0  0  0  0  0  0  0  0  0  0  0
   15.6383   16.3466    0.0000 H   0  0  0  0  0  0  0  0  0  0  0  0
    5.4181    5.2629    0.0000 H   0  0  0  0  0  0  0  0  0  0  0  0
    5.8816    5.9113    0.0000 H   0  0  0  0  0  0  0  0  0  0  0  0
   15.9707   18.0024    0.0000 H   0  0  0  0  0  0  0  0  0  0  0  0
   15.2194   17.7364    0.0000 H   0  0  0  0  0  0  0  0  0  0  0  0
    4.4109    3.8538    0.0000 H   0  0  0  0  0  0  0  0  0  0  0  0
    4.8744    4.5022    0.0000 H   0  0  0  0  0  0  0  0  0  0  0  0
   17.6035   18.5805    0.0000 H   0  0  0  0  0  0  0  0  0  0  0  0
   16.8521   18.3145    0.0000 H   0  0  0  0  0  0  0  0  0  0  0  0
    3.1913    4.6408    0.0000 H   0  0  0  0  0  0  0  0  0  0  0  0
    2.7278    3.9924    0.0000 H   0  0  0  0  0  0  0  0  0  0  0  0
   18.1524   17.2368    0.0000 H   0  0  0  0  0  0  0  0  0  0  0  0
   18.9038   17.5028    0.0000 H   0  0  0  0  0  0  0  0  0  0  0  0
    2.6846    2.7886    0.0000 H   0  0  0  0  0  0  0  0  0  0  0  0
    3.7534    2.6846    0.0000 H   0  0  0  0  0  0  0  0  0  0  0  0
   19.6287   18.4649    0.0000 H   0  0  0  0  0  0  0  0  0  0  0  0
   18.8121   19.1623    0.0000 H   0  0  0  0  0  0  0  0  0  0  0  0
  3 48  1  0  0  0  0
  3 53  1  0  0  0  0
  4 52  1  0  0  0  0
  4 54  1  0  0  0  0
  5 55  1  0  0  0  0
  5 57  1  0  0  0  0
  6 56  1  0  0  0  0
  6 58  1  0  0  0  0
  7 13  1  0  0  0  0
  7 15  1  0  0  0  0
  7 31  1  0  0  0  0
  7 37  1  0  0  0  0
  8 35  1  0  0  0  0
  8 38  1  0  0  0  0
  8 47  1  0  0  0  0
  8 50  1  0  0  0  0
  9 59  1  0  0  0  0
  9111  1  0  0  0  0
  9112  1  0  0  0  0
 10 60  1  0  0  0  0
 10113  1  0  0  0  0
 10114  1  0  0  0  0
 11 12  1  0  0  0  0
 11 13  1  0  0  0  0
 11 14  1  0  0  0  0
 11 16  1  0  0  0  0
 12 15  1  0  0  0  0
 12 20  1  0  0  0  0
 12 61  1  0  0  0  0
 13 62  1  0  0  0  0
 13 63  1  0  0  0  0
 14 17  1  0  0  0  0
 14 18  2  0  0  0  0
 15 64  1  0  0  0  0
 15 65  1  0  0  0  0
 16 19  1  0  0  0  0
 16 66  1  0  0  0  0
 16 67  1  0  0  0  0
 17 19  1  0  0  0  0
 17 21  2  0  0  0  0
 18 22  1  0  0  0  0
 18 23  1  0  0  0  0
 19 36  2  0  0  0  0
 20 22  2  0  0  0  0
 20 41  1  0  0  0  0
 21 25  1  0  0  0  0
 21 27  1  0  0  0  0
 22 33  1  0  0  0  0
 23 25  2  0  0  0  0
 23 32  1  0  0  0  0
 24 26  1  0  0  0  0
 24 28  1  0  0  0  0
 24 35  1  0  0  0  0
 24 68  1  0  0  0  0
 25 30  1  0  0  0  0
 26 34  1  0  0  0  0
 26 38  1  0  0  0  0
 26 69  1  0  0  0  0
 27 28  2  0  0  0  0
 27 29  1  0  0  0  0
 28 36  1  0  0  0  0
 29 30  1  0  0  0  0
 29 34  2  0  0  0  0
 30 39  2  0  0  0  0
 31 48  1  0  0  0  0
 31 70  1  0  0  0  0
 31 71  1  0  0  0  0
 32 33  2  0  0  0  0
 32 40  1  0  0  0  0
 33 43  1  0  0  0  0
 34 45  1  0  0  0  0
 35 72  1  0  0  0  0
 35 73  1  0  0  0  0
 36 74  1  0  0  0  0
 37 75  1  0  0  0  0
 37 76  1  0  0  0  0
 37 77  1  0  0  0  0
 38 78  1  0  0  0  0
 38 79  1  0  0  0  0
 39 40  1  0  0  0  0
 39 42  1  0  0  0  0
 40 44  2  0  0  0  0
 41 49  2  0  0  0  0
 41 80  1  0  0  0  0
 42 45  2  0  0  0  0
 42 46  1  0  0  0  0
 43 49  1  0  0  0  0
 43 51  2  0  0  0  0
 44 46  1  0  0  0  0
 44 51  1  0  0  0  0
 45 81  1  0  0  0  0
 46 82  1  0  0  0  0
 46 83  1  0  0  0  0
 47 52  1  0  0  0  0
 47 84  1  0  0  0  0
 47 85  1  0  0  0  0
 48 86  1  0  0  0  0
 48 87  1  0  0  0  0
 49 88  1  0  0  0  0
 50 89  1  0  0  0  0
 50 90  1  0  0  0  0
 50 91  1  0  0  0  0
 51 92  1  0  0  0  0
 52 93  1  0  0  0  0
 52 94  1  0  0  0  0
 53 55  1  0  0  0  0
 53 95  1  0  0  0  0
 53 96  1  0  0  0  0
 54 56  1  0  0  0  0
 54 97  1  0  0  0  0
 54 98  1  0  0  0  0
 55 99  1  0  0  0  0
 55100  1  0  0  0  0
 56101  1  0  0  0  0
 56102  1  0  0  0  0
 57 59  1  0  0  0  0
 57103  1  0  0  0  0
 57104  1  0  0  0  0
 58 60  1  0  0  0  0
 58105  1  0  0  0  0
 58106  1  0  0  0  0
 59107  1  0  0  0  0
 59108  1  0  0  0  0
 60109  1  0  0  0  0
 60110  1  0  0  0  0
M  CHG  4   1  -1   2  -1   7   1   8   1
M  END
> <PUBCHEM_COMPOUND_CID>
513705
> <PUBCHEM_COMPOUND_CANONICALIZED>
1
> <PUBCHEM_CACTVS_COMPLEXITY>
1650
> <PUBCHEM_CACTVS_HBOND_ACCEPTOR>
8
> <PUBCHEM_CACTVS_HBOND_DONOR>
2
> <PUBCHEM_CACTVS_ROTATABLE_BOND>
16
> <PUBCHEM_CACTVS_SUBSKEYS>
AAADcfB/uAAGAAAAAAAAAAAAAAAAAePGDBAwYMGDAAAAAHjBVAAAHgAQAAAADwDhmAYyAMNABACAAiBCAAACAAAgAAAIiIAIAIgLICKAkRGHIAAgkACaiAcQgMAPwAACAAAQAACAAAQAACAAAQAACAAAAA==
> <PUBCHEM_IUPAC_OPENEYE_NAME>
2-[2-[2-[13-[2-[2-(2-aminoethoxy)ethoxy]ethyl]-4,13-dimethyl-4,13-diazoniatetradecacyclo[21.13.1.121,24.02,6.07,35.09,33.011,15.011,32.016,30.019,29.025,36.026,34.027,31.028,38]octatriaconta-1(36),7(35),8,16(30),17,19,21(38),23(37),24,26,28,31,33-tridecaen-4-yl]ethoxy]ethoxy]ethanamine;dichloride
> <PUBCHEM_IUPAC_CAS_NAME>
2-[2-[2-[13-[2-[2-(2-aminoethoxy)ethoxy]ethyl]-4,13-dimethyl-4,13-diazoniatetradecacyclo[21.13.1.121,24.02,6.07,35.09,33.011,15.011,32.016,30.019,29.025,36.026,34.027,31.028,38]octatriaconta-1(36),7(35),8,16(30),17,19,21(38),23(37),24,26,28,31,33-tridecaen-4-yl]ethoxy]ethoxy]ethanamine;dichloride
> <PUBCHEM_IUPAC_NAME_MARKUP>
2-[2-[2-[13-[2-[2-(2-aminoethoxy)ethoxy]ethyl]-4,13-dimethyl-4,13-diazoniatetradecacyclo[21.13.1.1<SUP>21,24</SUP>.0<SUP>2,6</SUP>.0<SUP>7,35</SUP>.0<SUP>9,33</SUP>.0<SUP>11,15</SUP>.0<SUP>11,32</SUP>.0<SUP>16,30</SUP>.0<SUP>19,29</SUP>.0<SUP>25,36</SUP>.0<SUP>26,34</SUP>.0<SUP>27,31</SUP>.0<SUP>28,38</SUP>]octatriaconta-1(36),7(35),8,16(30),17,19,21(38),23(37),24,26,28,31,33-tridecaen-4-yl]ethoxy]ethoxy]ethanamine;dichloride
> <PUBCHEM_IUPAC_NAME>
2-[2-[2-[13-[2-[2-(2-aminoethoxy)ethoxy]ethyl]-4,13-dimethyl-4,13-diazoniatetradecacyclo[21.13.1.121,24.02,6.07,35.09,33.011,15.011,32.016,30.019,29.025,36.026,34.027,31.028,38]octatriaconta-1(36),7(35),8,16(30),17,19,21(38),23(37),24,26,28,31,33-tridecaen-4-yl]ethoxy]ethoxy]ethanamine;dichloride
> <PUBCHEM_IUPAC_SYSTEMATIC_NAME>
2-[2-[2-[13-[2-[2-(2-azanylethoxy)ethoxy]ethyl]-4,13-dimethyl-4,13-diazoniatetradecacyclo[21.13.1.121,24.02,6.07,35.09,33.011,15.011,32.016,30.019,29.025,36.026,34.027,31.028,38]octatriaconta-1(36),7(35),8,16(30),17,19,21(38),23(37),24,26,28,31,33-tridecaen-4-yl]ethoxy]ethoxy]ethanamine;dichloride
> <PUBCHEM_IUPAC_TRADITIONAL_NAME>
2-[2-[2-[4-[2-[2-(2-aminoethoxy)ethoxy]ethyl]-4,13-dimethyl-4,13-diazoniatetradecacyclo[21.13.1.121,24.02,6.07,35.09,33.011,15.011,32.016,30.019,29.025,36.026,34.027,31.028,38]octatriaconta-1(36),7(35),8,16(30),17,19,21(38),23(37),24,26,28,31,33-tridecaen-13-yl]ethoxy]ethoxy]ethylamine;dichloride
> <PUBCHEM_IUPAC_INCHI>
InChI=1S/C50H54N4O4.2ClH/c1-53(7-11-57-15-13-55-9-5-51)22-33-31-19-28-18-27-17-26-3-4-30-35-24-54(2,8-12-58-16-14-56-10-6-52)25-50(35)21-29-20-32(34(33)23-53)42-41(31)44-38(28)37(27)43-36(26)40(30)48-47(43)46(44)45(42)39(29)49(48)50;;/h3-4,17,19-20,33-35H,5-16,18,21-25,51-52H2,1-2H3;2*1H/q+2;;/p-2
> <PUBCHEM_IUPAC_INCHIKEY>
QWELBZJEVGRNNW-UHFFFAOYSA-L
> <PUBCHEM_EXACT_MASS>
844.3522116
> <PUBCHEM_MOLECULAR_FORMULA>
C50H54Cl2N4O4
> <PUBCHEM_MOLECULAR_WEIGHT>
845.9
> <PUBCHEM_OPENEYE_CAN_SMILES>
C[N+]1(CC2C(C1)C3=C4C5=C2C=C6CC7=C8C6=C5C9=C1C8=C2C(=C7)C=CC5=C2C1=C1C(=C49)C(=C3)CC11C5C[N+](C1)(C)CCOCCOCCN)CCOCCOCCN.[Cl-].[Cl-]
> <PUBCHEM_OPENEYE_ISO_SMILES>
C[N+]1(CC2C(C1)C3=C4C5=C2C=C6CC7=C8C6=C5C9=C1C8=C2C(=C7)C=CC5=C2C1=C1C(=C49)C(=C3)CC11C5C[N+](C1)(C)CCOCCOCCN)CCOCCOCCN.[Cl-].[Cl-]
> <PUBCHEM_CACTVS_TPSA>
89
> <PUBCHEM_MONOISOTOPIC_WEIGHT>
844.3522116
> <PUBCHEM_TOTAL_CHARGE>
0
> <PUBCHEM_HEAVY_ATOM_COUNT>
60
> <PUBCHEM_ATOM_DEF_STEREO_COUNT>
0
> <PUBCHEM_ATOM_UDEF_STEREO_COUNT>
6
> <PUBCHEM_BOND_DEF_STEREO_COUNT>
0
> <PUBCHEM_BOND_UDEF_STEREO_COUNT>
0
> <PUBCHEM_ISOTOPIC_ATOM_COUNT>
0
> <PUBCHEM_COMPONENT_COUNT>
3
> <PUBCHEM_CACTVS_TAUTO_COUNT>
-1
> <PUBCHEM_COORDINATE_TYPE>
1
5
255
> <PUBCHEM_BONDANNOTATIONS>
11  16  3
12  15  3
14  17  8
14  18  8
17  19  8
17  21  8
18  22  8
18  23  8
19  36  8
20  22  8
20  41  8
21  25  8
21  27  8
22  33  8
23  25  8
23  32  8
24  35  3
25  30  8
26  38  3
27  28  8
27  29  8
28  36  8
29  30  8
29  34  8
30  39  8
32  33  8
32  40  8
33  43  8
34  45  8
39  40  8
39  42  8
40  44  8
41  49  8
42  45  8
43  49  8
43  51  8
44  51  8
7  37  3
8  50  3
$$$$
