513764
  -OEChem-10302200282D
 85 87  0     1  0  0  0  0  0999 V2000
    3.7320   -3.8450    0.0000 S   0  0  0  0  0  0  0  0  0  0  0  0
    6.3301   -2.3450    0.0000 O   0  0  0  0  0  0  0  0  0  0  0  0
    4.7320   -3.8450    0.0000 O   0  0  0  0  0  0  0  0  0  0  0  0
    2.7320   -3.8450    0.0000 O   0  0  0  0  0  0  0  0  0  0  0  0
    8.0622    1.6550    0.0000 O   0  0  0  0  0  0  0  0  0  0  0  0
    6.3301    7.6550    0.0000 O   0  0  0  0  0  0  0  0  0  0  0  0
    3.7320   -2.8450    0.0000 N   0  0  3  0  0  0  0  0  0  0  0  0
    6.3301    1.6550    0.0000 N   0  0  0  0  0  0  0  0  0  0  0  0
    7.1962    3.1550    0.0000 N   0  0  0  0  0  0  0  0  0  0  0  0
    3.7320   -7.8450    0.0000 N   0  0  0  0  0  0  0  0  0  0  0  0
   10.6603    2.1550    0.0000 N   0  0  0  0  0  0  0  0  0  0  0  0
    4.5981   -2.3450    0.0000 C   0  0  1  0  0  0  0  0  0  0  0  0
    4.5981   -1.3450    0.0000 C   0  0  0  0  0  0  0  0  0  0  0  0
    2.8660   -2.3450    0.0000 C   0  0  0  0  0  0  0  0  0  0  0  0
    5.4641   -0.8450    0.0000 C   0  0  0  0  0  0  0  0  0  0  0  0
    2.8660   -1.3450    0.0000 C   0  0  0  0  0  0  0  0  0  0  0  0
    5.4641   -2.8450    0.0000 C   0  0  0  0  0  0  0  0  0  0  0  0
    5.4641    0.1550    0.0000 C   0  0  0  0  0  0  0  0  0  0  0  0
    3.7320   -4.8450    0.0000 C   0  0  0  0  0  0  0  0  0  0  0  0
    2.0000   -0.8450    0.0000 C   0  0  0  0  0  0  0  0  0  0  0  0
    3.7320   -0.8450    0.0000 C   0  0  0  0  0  0  0  0  0  0  0  0
    6.3301    0.6550    0.0000 C   0  0  0  0  0  0  0  0  0  0  0  0
    2.8660   -5.3450    0.0000 C   0  0  0  0  0  0  0  0  0  0  0  0
    4.5981   -5.3450    0.0000 C   0  0  0  0  0  0  0  0  0  0  0  0
    2.8660   -6.3450    0.0000 C   0  0  0  0  0  0  0  0  0  0  0  0
    4.5981   -6.3450    0.0000 C   0  0  0  0  0  0  0  0  0  0  0  0
    7.1962    2.1550    0.0000 C   0  0  0  0  0  0  0  0  0  0  0  0
    3.7320   -6.8450    0.0000 C   0  0  0  0  0  0  0  0  0  0  0  0
    6.3301    3.6550    0.0000 C   0  0  0  0  0  0  0  0  0  0  0  0
    8.0622    3.6550    0.0000 C   0  0  0  0  0  0  0  0  0  0  0  0
    6.3301    4.6550    0.0000 C   0  0  0  0  0  0  0  0  0  0  0  0
    8.9282    3.1550    0.0000 C   0  0  0  0  0  0  0  0  0  0  0  0
    7.1962    5.1550    0.0000 C   0  0  0  0  0  0  0  0  0  0  0  0
    5.4641    5.1550    0.0000 C   0  0  0  0  0  0  0  0  0  0  0  0
    9.7942    3.6550    0.0000 C   0  0  0  0  0  0  0  0  0  0  0  0
    8.9282    2.1550    0.0000 C   0  0  0  0  0  0  0  0  0  0  0  0
    7.1962    6.1550    0.0000 C   0  0  0  0  0  0  0  0  0  0  0  0
    5.4641    6.1550    0.0000 C   0  0  0  0  0  0  0  0  0  0  0  0
    6.3301    6.6550    0.0000 C   0  0  0  0  0  0  0  0  0  0  0  0
   10.6603    3.1550    0.0000 C   0  0  0  0  0  0  0  0  0  0  0  0
    9.7942    1.6550    0.0000 C   0  0  0  0  0  0  0  0  0  0  0  0
    5.4641    8.1550    0.0000 C   0  0  0  0  0  0  0  0  0  0  0  0
    4.5981   -2.9650    0.0000 H   0  0  0  0  0  0  0  0  0  0  0  0
    4.3860   -0.7624    0.0000 H   0  0  0  0  0  0  0  0  0  0  0  0
    3.9875   -1.4527    0.0000 H   0  0  0  0  0  0  0  0  0  0  0  0
    2.2554   -2.2373    0.0000 H   0  0  0  0  0  0  0  0  0  0  0  0
    2.6540   -2.9276    0.0000 H   0  0  0  0  0  0  0  0  0  0  0  0
    5.6762   -1.4276    0.0000 H   0  0  0  0  0  0  0  0  0  0  0  0
    6.0747   -0.7373    0.0000 H   0  0  0  0  0  0  0  0  0  0  0  0
    2.8660   -0.7250    0.0000 H   0  0  0  0  0  0  0  0  0  0  0  0
    5.0656   -3.3200    0.0000 H   0  0  0  0  0  0  0  0  0  0  0  0
    5.8626   -3.3200    0.0000 H   0  0  0  0  0  0  0  0  0  0  0  0
    5.2520    0.7376    0.0000 H   0  0  0  0  0  0  0  0  0  0  0  0
    4.8535    0.0473    0.0000 H   0  0  0  0  0  0  0  0  0  0  0  0
    2.3100   -0.3081    0.0000 H   0  0  0  0  0  0  0  0  0  0  0  0
    1.4631   -0.5350    0.0000 H   0  0  0  0  0  0  0  0  0  0  0  0
    1.6900   -1.3819    0.0000 H   0  0  0  0  0  0  0  0  0  0  0  0
    4.0420   -1.3819    0.0000 H   0  0  0  0  0  0  0  0  0  0  0  0
    4.2690   -0.5350    0.0000 H   0  0  0  0  0  0  0  0  0  0  0  0
    3.4220   -0.3081    0.0000 H   0  0  0  0  0  0  0  0  0  0  0  0
    6.5422    0.0724    0.0000 H   0  0  0  0  0  0  0  0  0  0  0  0
    6.9407    0.7627    0.0000 H   0  0  0  0  0  0  0  0  0  0  0  0
    6.8671   -2.6550    0.0000 H   0  0  0  0  0  0  0  0  0  0  0  0
    2.3291   -5.0350    0.0000 H   0  0  0  0  0  0  0  0  0  0  0  0
    5.1350   -5.0350    0.0000 H   0  0  0  0  0  0  0  0  0  0  0  0
    5.7932    1.9650    0.0000 H   0  0  0  0  0  0  0  0  0  0  0  0
    2.3291   -6.6550    0.0000 H   0  0  0  0  0  0  0  0  0  0  0  0
    5.1350   -6.6550    0.0000 H   0  0  0  0  0  0  0  0  0  0  0  0
    5.7196    3.7627    0.0000 H   0  0  0  0  0  0  0  0  0  0  0  0
    6.1181    3.0724    0.0000 H   0  0  0  0  0  0  0  0  0  0  0  0
    8.4607    4.1300    0.0000 H   0  0  0  0  0  0  0  0  0  0  0  0
    7.6636    4.1300    0.0000 H   0  0  0  0  0  0  0  0  0  0  0  0
    3.1951   -8.1550    0.0000 H   0  0  0  0  0  0  0  0  0  0  0  0
    4.2690   -8.1550    0.0000 H   0  0  0  0  0  0  0  0  0  0  0  0
    7.7331    4.8450    0.0000 H   0  0  0  0  0  0  0  0  0  0  0  0
    4.9272    4.8450    0.0000 H   0  0  0  0  0  0  0  0  0  0  0  0
    9.7942    4.2750    0.0000 H   0  0  0  0  0  0  0  0  0  0  0  0
    8.3913    1.8450    0.0000 H   0  0  0  0  0  0  0  0  0  0  0  0
    7.7331    6.4650    0.0000 H   0  0  0  0  0  0  0  0  0  0  0  0
    4.9272    6.4650    0.0000 H   0  0  0  0  0  0  0  0  0  0  0  0
   11.1972    3.4650    0.0000 H   0  0  0  0  0  0  0  0  0  0  0  0
    9.7942    1.0350    0.0000 H   0  0  0  0  0  0  0  0  0  0  0  0
    5.7741    8.6919    0.0000 H   0  0  0  0  0  0  0  0  0  0  0  0
    4.9272    8.4650    0.0000 H   0  0  0  0  0  0  0  0  0  0  0  0
    5.1541    7.6181    0.0000 H   0  0  0  0  0  0  0  0  0  0  0  0
  1  3  2  0  0  0  0
  1  4  2  0  0  0  0
  1  7  1  0  0  0  0
  1 19  1  0  0  0  0
  2 17  1  0  0  0  0
  2 63  1  0  0  0  0
  5 27  2  0  0  0  0
  6 39  1  0  0  0  0
  6 42  1  0  0  0  0
 12  7  1  1  0  0  0
  7 14  1  0  0  0  0
  8 22  1  0  0  0  0
  8 27  1  0  0  0  0
  8 66  1  0  0  0  0
  9 27  1  0  0  0  0
  9 29  1  0  0  0  0
  9 30  1  0  0  0  0
 10 28  1  0  0  0  0
 10 73  1  0  0  0  0
 10 74  1  0  0  0  0
 11 40  2  0  0  0  0
 11 41  1  0  0  0  0
 12 13  1  0  0  0  0
 12 17  1  0  0  0  0
 12 43  1  0  0  0  0
 13 15  1  0  0  0  0
 13 44  1  0  0  0  0
 13 45  1  0  0  0  0
 14 16  1  0  0  0  0
 14 46  1  0  0  0  0
 14 47  1  0  0  0  0
 15 18  1  0  0  0  0
 15 48  1  0  0  0  0
 15 49  1  0  0  0  0
 16 20  1  0  0  0  0
 16 21  1  0  0  0  0
 16 50  1  0  0  0  0
 17 51  1  0  0  0  0
 17 52  1  0  0  0  0
 18 22  1  0  0  0  0
 18 53  1  0  0  0  0
 18 54  1  0  0  0  0
 19 23  2  0  0  0  0
 19 24  1  0  0  0  0
 20 55  1  0  0  0  0
 20 56  1  0  0  0  0
 20 57  1  0  0  0  0
 21 58  1  0  0  0  0
 21 59  1  0  0  0  0
 21 60  1  0  0  0  0
 22 61  1  0  0  0  0
 22 62  1  0  0  0  0
 23 25  1  0  0  0  0
 23 64  1  0  0  0  0
 24 26  2  0  0  0  0
 24 65  1  0  0  0  0
 25 28  2  0  0  0  0
 25 67  1  0  0  0  0
 26 28  1  0  0  0  0
 26 68  1  0  0  0  0
 29 31  1  0  0  0  0
 29 69  1  0  0  0  0
 29 70  1  0  0  0  0
 30 32  1  0  0  0  0
 30 71  1  0  0  0  0
 30 72  1  0  0  0  0
 31 33  2  0  0  0  0
 31 34  1  0  0  0  0
 32 35  2  0  0  0  0
 32 36  1  0  0  0  0
 33 37  1  0  0  0  0
 33 75  1  0  0  0  0
 34 38  2  0  0  0  0
 34 76  1  0  0  0  0
 35 40  1  0  0  0  0
 35 77  1  0  0  0  0
 36 41  2  0  0  0  0
 36 78  1  0  0  0  0
 37 39  2  0  0  0  0
 37 79  1  0  0  0  0
 38 39  1  0  0  0  0
 38 80  1  0  0  0  0
 40 81  1  0  0  0  0
 41 82  1  0  0  0  0
 42 83  1  0  0  0  0
 42 84  1  0  0  0  0
 42 85  1  0  0  0  0
M  END
> <PUBCHEM_COMPOUND_CID>
513764
> <PUBCHEM_COMPOUND_CANONICALIZED>
1
> <PUBCHEM_CACTVS_COMPLEXITY>
863
> <PUBCHEM_CACTVS_HBOND_ACCEPTOR>
8
> <PUBCHEM_CACTVS_HBOND_DONOR>
3
> <PUBCHEM_CACTVS_ROTATABLE_BOND>
16
> <PUBCHEM_CACTVS_SUBSKEYS>
AAADcfB7uABAAAAAAAAAAAAAAAAAAAAAAAA8YIAAAAAAAAAB0AAAHgQQSAAADSzh2gY/x5PIFgKoAjRnVHDCiDAxIiAI2Lg+bJiONmLEsZuEcChs1hPY6AeQ0AIOIAQAAAAAAABACAAAAAAAAAAAAAAAAA==
> <PUBCHEM_IUPAC_OPENEYE_NAME>
3-[(5S)-5-[(4-aminophenyl)sulfonyl-isobutyl-amino]-6-hydroxy-hexyl]-1-[(4-methoxyphenyl)methyl]-1-(4-pyridylmethyl)urea
> <PUBCHEM_IUPAC_CAS_NAME>
3-[(5S)-5-[(4-aminophenyl)sulfonyl-(2-methylpropyl)amino]-6-hydroxyhexyl]-1-[(4-methoxyphenyl)methyl]-1-(pyridin-4-ylmethyl)urea
> <PUBCHEM_IUPAC_NAME_MARKUP>
3-[(5<I>S</I>)-5-[(4-aminophenyl)sulfonyl-(2-methylpropyl)amino]-6-hydroxyhexyl]-1-[(4-methoxyphenyl)methyl]-1-(pyridin-4-ylmethyl)urea
> <PUBCHEM_IUPAC_NAME>
3-[(5S)-5-[(4-aminophenyl)sulfonyl-(2-methylpropyl)amino]-6-hydroxyhexyl]-1-[(4-methoxyphenyl)methyl]-1-(pyridin-4-ylmethyl)urea
> <PUBCHEM_IUPAC_SYSTEMATIC_NAME>
3-[(5S)-5-[(4-aminophenyl)sulfonyl-(2-methylpropyl)amino]-6-oxidanyl-hexyl]-1-[(4-methoxyphenyl)methyl]-1-(pyridin-4-ylmethyl)urea
> <PUBCHEM_IUPAC_TRADITIONAL_NAME>
3-[(5S)-6-hydroxy-5-[isobutyl(sulfanilyl)amino]hexyl]-1-p-anisyl-1-(4-pyridylmethyl)urea
> <PUBCHEM_IUPAC_INCHI>
InChI=1S/C31H43N5O5S/c1-24(2)20-36(42(39,40)30-13-9-27(32)10-14-30)28(23-37)6-4-5-17-34-31(38)35(22-26-15-18-33-19-16-26)21-25-7-11-29(41-3)12-8-25/h7-16,18-19,24,28,37H,4-6,17,20-23,32H2,1-3H3,(H,34,38)/t28-/m0/s1
> <PUBCHEM_IUPAC_INCHIKEY>
JRPFRJGWMYTFIC-NDEPHWFRSA-N
> <PUBCHEM_XLOGP3_AA>
3.4
> <PUBCHEM_EXACT_MASS>
597.29849066
> <PUBCHEM_MOLECULAR_FORMULA>
C31H43N5O5S
> <PUBCHEM_MOLECULAR_WEIGHT>
597.8
> <PUBCHEM_OPENEYE_CAN_SMILES>
CC(C)CN(C(CCCCNC(=O)N(CC1=CC=C(C=C1)OC)CC2=CC=NC=C2)CO)S(=O)(=O)C3=CC=C(C=C3)N
> <PUBCHEM_OPENEYE_ISO_SMILES>
CC(C)CN([C@@H](CCCCNC(=O)N(CC1=CC=C(C=C1)OC)CC2=CC=NC=C2)CO)S(=O)(=O)C3=CC=C(C=C3)N
> <PUBCHEM_CACTVS_TPSA>
147
> <PUBCHEM_MONOISOTOPIC_WEIGHT>
597.29849066
> <PUBCHEM_TOTAL_CHARGE>
0
> <PUBCHEM_HEAVY_ATOM_COUNT>
42
> <PUBCHEM_ATOM_DEF_STEREO_COUNT>
1
> <PUBCHEM_ATOM_UDEF_STEREO_COUNT>
0
> <PUBCHEM_BOND_DEF_STEREO_COUNT>
0
> <PUBCHEM_BOND_UDEF_STEREO_COUNT>
0
> <PUBCHEM_ISOTOPIC_ATOM_COUNT>
0
> <PUBCHEM_COMPONENT_COUNT>
1
> <PUBCHEM_CACTVS_TAUTO_COUNT>
-1
> <PUBCHEM_COORDINATE_TYPE>
1
5
255
> <PUBCHEM_BONDANNOTATIONS>
11  40  8
11  41  8
19  23  8
19  24  8
23  25  8
24  26  8
25  28  8
26  28  8
31  33  8
31  34  8
32  35  8
32  36  8
33  37  8
34  38  8
35  40  8
36  41  8
37  39  8
38  39  8
12  7  5
$$$$
