513795
  -OEChem-10302200282D
 87 90  0     1  0  0  0  0  0999 V2000
    6.0010    3.9400    0.0000 S   0  0  0  0  0  0  0  0  0  0  0  0
    6.0010    0.9400    0.0000 O   0  0  0  0  0  0  0  0  0  0  0  0
    6.5010    4.8060    0.0000 O   0  0  0  0  0  0  0  0  0  0  0  0
    5.5010    3.0740    0.0000 O   0  0  0  0  0  0  0  0  0  0  0  0
    8.5991   -2.5600    0.0000 O   0  0  0  0  0  0  0  0  0  0  0  0
   14.7415   -2.2553    0.0000 O   0  0  0  0  0  0  0  0  0  0  0  0
   14.7415   -3.8647    0.0000 O   0  0  0  0  0  0  0  0  0  0  0  0
    6.8671   -6.5600    0.0000 O   0  5  0  0  0  0  0  0  0  0  0  0
    6.0010   -5.0600    0.0000 O   0  0  0  0  0  0  0  0  0  0  0  0
    6.8671    3.4400    0.0000 N   0  0  3  0  0  0  0  0  0  0  0  0
    9.4651   -1.0600    0.0000 N   0  0  0  0  0  0  0  0  0  0  0  0
   10.3312   -2.5600    0.0000 N   0  0  0  0  0  0  0  0  0  0  0  0
    2.5369    5.9400    0.0000 N   0  0  0  0  0  0  0  0  0  0  0  0
    6.8671   -5.5600    0.0000 N   0  3  0  0  0  0  0  0  0  0  0  0
    6.8671    2.4400    0.0000 C   0  0  1  0  0  0  0  0  0  0  0  0
    7.7331    1.9400    0.0000 C   0  0  0  0  0  0  0  0  0  0  0  0
    7.7331    3.9400    0.0000 C   0  0  0  0  0  0  0  0  0  0  0  0
    7.7331    0.9400    0.0000 C   0  0  0  0  0  0  0  0  0  0  0  0
    8.5991    3.4400    0.0000 C   0  0  0  0  0  0  0  0  0  0  0  0
    6.0010    1.9400    0.0000 C   0  0  0  0  0  0  0  0  0  0  0  0
    8.5991    0.4400    0.0000 C   0  0  0  0  0  0  0  0  0  0  0  0
    5.1350    4.4400    0.0000 C   0  0  0  0  0  0  0  0  0  0  0  0
    9.4651    3.9400    0.0000 C   0  0  0  0  0  0  0  0  0  0  0  0
    8.5991    2.4400    0.0000 C   0  0  0  0  0  0  0  0  0  0  0  0
    8.5991   -0.5600    0.0000 C   0  0  0  0  0  0  0  0  0  0  0  0
    5.1350    5.4400    0.0000 C   0  0  0  0  0  0  0  0  0  0  0  0
    4.2690    3.9400    0.0000 C   0  0  0  0  0  0  0  0  0  0  0  0
    4.2690    5.9400    0.0000 C   0  0  0  0  0  0  0  0  0  0  0  0
    3.4030    4.4400    0.0000 C   0  0  0  0  0  0  0  0  0  0  0  0
    9.4651   -2.0600    0.0000 C   0  0  0  0  0  0  0  0  0  0  0  0
    3.4030    5.4400    0.0000 C   0  0  0  0  0  0  0  0  0  0  0  0
   11.1972   -2.0600    0.0000 C   0  0  0  0  0  0  0  0  0  0  0  0
   10.3312   -3.5600    0.0000 C   0  0  0  0  0  0  0  0  0  0  0  0
   12.0632   -2.5600    0.0000 C   0  0  0  0  0  0  0  0  0  0  0  0
    9.4651   -4.0600    0.0000 C   0  0  0  0  0  0  0  0  0  0  0  0
   12.9292   -2.0600    0.0000 C   0  0  0  0  0  0  0  0  0  0  0  0
   12.0632   -3.5600    0.0000 C   0  0  0  0  0  0  0  0  0  0  0  0
   13.7953   -2.5600    0.0000 C   0  0  0  0  0  0  0  0  0  0  0  0
    9.4651   -5.0600    0.0000 C   0  0  0  0  0  0  0  0  0  0  0  0
    8.5991   -3.5600    0.0000 C   0  0  0  0  0  0  0  0  0  0  0  0
   13.7953   -3.5600    0.0000 C   0  0  0  0  0  0  0  0  0  0  0  0
   12.9292   -4.0600    0.0000 C   0  0  0  0  0  0  0  0  0  0  0  0
    8.5991   -5.5600    0.0000 C   0  0  0  0  0  0  0  0  0  0  0  0
    7.7331   -4.0600    0.0000 C   0  0  0  0  0  0  0  0  0  0  0  0
   15.3251   -3.0600    0.0000 C   0  0  0  0  0  0  0  0  0  0  0  0
    7.7331   -5.0600    0.0000 C   0  0  0  0  0  0  0  0  0  0  0  0
    6.3301    2.7500    0.0000 H   0  0  0  0  0  0  0  0  0  0  0  0
    8.3437    1.8323    0.0000 H   0  0  0  0  0  0  0  0  0  0  0  0
    7.9451    2.5226    0.0000 H   0  0  0  0  0  0  0  0  0  0  0  0
    8.1316    4.4150    0.0000 H   0  0  0  0  0  0  0  0  0  0  0  0
    7.3346    4.4150    0.0000 H   0  0  0  0  0  0  0  0  0  0  0  0
    7.1225    1.0477    0.0000 H   0  0  0  0  0  0  0  0  0  0  0  0
    7.5210    0.3574    0.0000 H   0  0  0  0  0  0  0  0  0  0  0  0
    8.5991    4.0600    0.0000 H   0  0  0  0  0  0  0  0  0  0  0  0
    5.7890    2.5226    0.0000 H   0  0  0  0  0  0  0  0  0  0  0  0
    5.3905    1.8323    0.0000 H   0  0  0  0  0  0  0  0  0  0  0  0
    9.2097    0.3323    0.0000 H   0  0  0  0  0  0  0  0  0  0  0  0
    8.8112    1.0226    0.0000 H   0  0  0  0  0  0  0  0  0  0  0  0
    9.7751    3.4031    0.0000 H   0  0  0  0  0  0  0  0  0  0  0  0
   10.0021    4.2500    0.0000 H   0  0  0  0  0  0  0  0  0  0  0  0
    9.1551    4.4769    0.0000 H   0  0  0  0  0  0  0  0  0  0  0  0
    7.9791    2.4400    0.0000 H   0  0  0  0  0  0  0  0  0  0  0  0
    8.5991    1.8200    0.0000 H   0  0  0  0  0  0  0  0  0  0  0  0
    9.2191    2.4400    0.0000 H   0  0  0  0  0  0  0  0  0  0  0  0
    7.9885   -0.4523    0.0000 H   0  0  0  0  0  0  0  0  0  0  0  0
    8.3871   -1.1426    0.0000 H   0  0  0  0  0  0  0  0  0  0  0  0
    5.4641    0.6300    0.0000 H   0  0  0  0  0  0  0  0  0  0  0  0
    5.6720    5.7500    0.0000 H   0  0  0  0  0  0  0  0  0  0  0  0
    4.2690    3.3200    0.0000 H   0  0  0  0  0  0  0  0  0  0  0  0
   10.0021   -0.7500    0.0000 H   0  0  0  0  0  0  0  0  0  0  0  0
    4.2690    6.5600    0.0000 H   0  0  0  0  0  0  0  0  0  0  0  0
    2.8660    4.1300    0.0000 H   0  0  0  0  0  0  0  0  0  0  0  0
   11.5957   -1.5850    0.0000 H   0  0  0  0  0  0  0  0  0  0  0  0
   10.7987   -1.5850    0.0000 H   0  0  0  0  0  0  0  0  0  0  0  0
   10.5432   -4.1426    0.0000 H   0  0  0  0  0  0  0  0  0  0  0  0
   10.9417   -3.4523    0.0000 H   0  0  0  0  0  0  0  0  0  0  0  0
    2.5369    6.5600    0.0000 H   0  0  0  0  0  0  0  0  0  0  0  0
    2.0000    5.6300    0.0000 H   0  0  0  0  0  0  0  0  0  0  0  0
   12.9292   -1.4400    0.0000 H   0  0  0  0  0  0  0  0  0  0  0  0
   11.5263   -3.8700    0.0000 H   0  0  0  0  0  0  0  0  0  0  0  0
   10.0021   -5.3700    0.0000 H   0  0  0  0  0  0  0  0  0  0  0  0
    8.5991   -2.9400    0.0000 H   0  0  0  0  0  0  0  0  0  0  0  0
   12.9292   -4.6800    0.0000 H   0  0  0  0  0  0  0  0  0  0  0  0
    8.5991   -6.1800    0.0000 H   0  0  0  0  0  0  0  0  0  0  0  0
    7.1962   -3.7500    0.0000 H   0  0  0  0  0  0  0  0  0  0  0  0
   15.7860   -3.4747    0.0000 H   0  0  0  0  0  0  0  0  0  0  0  0
   15.7860   -2.6453    0.0000 H   0  0  0  0  0  0  0  0  0  0  0  0
  1  3  2  0  0  0  0
  1  4  2  0  0  0  0
  1 10  1  0  0  0  0
  1 22  1  0  0  0  0
  2 20  1  0  0  0  0
  2 67  1  0  0  0  0
  5 30  2  0  0  0  0
  6 38  1  0  0  0  0
  6 45  1  0  0  0  0
  7 41  1  0  0  0  0
  7 45  1  0  0  0  0
  8 14  1  0  0  0  0
  9 14  2  0  0  0  0
 15 10  1  1  0  0  0
 10 17  1  0  0  0  0
 11 25  1  0  0  0  0
 11 30  1  0  0  0  0
 11 70  1  0  0  0  0
 12 30  1  0  0  0  0
 12 32  1  0  0  0  0
 12 33  1  0  0  0  0
 13 31  1  0  0  0  0
 13 77  1  0  0  0  0
 13 78  1  0  0  0  0
 14 46  1  0  0  0  0
 15 16  1  0  0  0  0
 15 20  1  0  0  0  0
 15 47  1  0  0  0  0
 16 18  1  0  0  0  0
 16 48  1  0  0  0  0
 16 49  1  0  0  0  0
 17 19  1  0  0  0  0
 17 50  1  0  0  0  0
 17 51  1  0  0  0  0
 18 21  1  0  0  0  0
 18 52  1  0  0  0  0
 18 53  1  0  0  0  0
 19 23  1  0  0  0  0
 19 24  1  0  0  0  0
 19 54  1  0  0  0  0
 20 55  1  0  0  0  0
 20 56  1  0  0  0  0
 21 25  1  0  0  0  0
 21 57  1  0  0  0  0
 21 58  1  0  0  0  0
 22 26  2  0  0  0  0
 22 27  1  0  0  0  0
 23 59  1  0  0  0  0
 23 60  1  0  0  0  0
 23 61  1  0  0  0  0
 24 62  1  0  0  0  0
 24 63  1  0  0  0  0
 24 64  1  0  0  0  0
 25 65  1  0  0  0  0
 25 66  1  0  0  0  0
 26 28  1  0  0  0  0
 26 68  1  0  0  0  0
 27 29  2  0  0  0  0
 27 69  1  0  0  0  0
 28 31  2  0  0  0  0
 28 71  1  0  0  0  0
 29 31  1  0  0  0  0
 29 72  1  0  0  0  0
 32 34  1  0  0  0  0
 32 73  1  0  0  0  0
 32 74  1  0  0  0  0
 33 35  1  0  0  0  0
 33 75  1  0  0  0  0
 33 76  1  0  0  0  0
 34 36  2  0  0  0  0
 34 37  1  0  0  0  0
 35 39  2  0  0  0  0
 35 40  1  0  0  0  0
 36 38  1  0  0  0  0
 36 79  1  0  0  0  0
 37 42  2  0  0  0  0
 37 80  1  0  0  0  0
 38 41  2  0  0  0  0
 39 43  1  0  0  0  0
 39 81  1  0  0  0  0
 40 44  2  0  0  0  0
 40 82  1  0  0  0  0
 41 42  1  0  0  0  0
 42 83  1  0  0  0  0
 43 46  2  0  0  0  0
 43 84  1  0  0  0  0
 44 46  1  0  0  0  0
 44 85  1  0  0  0  0
 45 86  1  0  0  0  0
 45 87  1  0  0  0  0
M  CHG  2   8  -1  14   1
M  END
> <PUBCHEM_COMPOUND_CID>
513795
> <PUBCHEM_COMPOUND_CANONICALIZED>
1
> <PUBCHEM_CACTVS_COMPLEXITY>
1050
> <PUBCHEM_CACTVS_HBOND_ACCEPTOR>
10
> <PUBCHEM_CACTVS_HBOND_DONOR>
3
> <PUBCHEM_CACTVS_ROTATABLE_BOND>
15
> <PUBCHEM_CACTVS_SUBSKEYS>
AAADcfB/vABAAAAAAAAAAAAAAAAAASAAAAAwYMAAAAAAAEgBUAAAHgQUSAAADSzh2Aczz4PQRgKJAiRCU3DCCBAgIgAoiJgO7IqfNiKEsZukcCps1hOe6Aew0BIOKAQBAAAAQABQCAIAAACAAAAAAAAAAA==
> <PUBCHEM_IUPAC_OPENEYE_NAME>
3-[(5S)-5-[(4-aminophenyl)sulfonyl-isobutyl-amino]-6-hydroxy-hexyl]-1-(1,3-benzodioxol-5-ylmethyl)-1-[(4-nitrophenyl)methyl]urea
> <PUBCHEM_IUPAC_CAS_NAME>
3-[(5S)-5-[(4-aminophenyl)sulfonyl-(2-methylpropyl)amino]-6-hydroxyhexyl]-1-(1,3-benzodioxol-5-ylmethyl)-1-[(4-nitrophenyl)methyl]urea
> <PUBCHEM_IUPAC_NAME_MARKUP>
3-[(5<I>S</I>)-5-[(4-aminophenyl)sulfonyl-(2-methylpropyl)amino]-6-hydroxyhexyl]-1-(1,3-benzodioxol-5-ylmethyl)-1-[(4-nitrophenyl)methyl]urea
> <PUBCHEM_IUPAC_NAME>
3-[(5S)-5-[(4-aminophenyl)sulfonyl-(2-methylpropyl)amino]-6-hydroxyhexyl]-1-(1,3-benzodioxol-5-ylmethyl)-1-[(4-nitrophenyl)methyl]urea
> <PUBCHEM_IUPAC_SYSTEMATIC_NAME>
3-[(5S)-5-[(4-aminophenyl)sulfonyl-(2-methylpropyl)amino]-6-oxidanyl-hexyl]-1-(1,3-benzodioxol-5-ylmethyl)-1-[(4-nitrophenyl)methyl]urea
> <PUBCHEM_IUPAC_TRADITIONAL_NAME>
3-[(5S)-6-hydroxy-5-[isobutyl(sulfanilyl)amino]hexyl]-1-(4-nitrobenzyl)-1-piperonyl-urea
> <PUBCHEM_IUPAC_INCHI>
InChI=1S/C32H41N5O8S/c1-23(2)18-36(46(42,43)29-13-9-26(33)10-14-29)28(21-38)5-3-4-16-34-32(39)35(19-24-6-11-27(12-7-24)37(40)41)20-25-8-15-30-31(17-25)45-22-44-30/h6-15,17,23,28,38H,3-5,16,18-22,33H2,1-2H3,(H,34,39)/t28-/m0/s1
> <PUBCHEM_IUPAC_INCHIKEY>
GOKWKRPSLDTITG-NDEPHWFRSA-N
> <PUBCHEM_XLOGP3_AA>
4.1
> <PUBCHEM_EXACT_MASS>
655.26758446
> <PUBCHEM_MOLECULAR_FORMULA>
C32H41N5O8S
> <PUBCHEM_MOLECULAR_WEIGHT>
655.8
> <PUBCHEM_OPENEYE_CAN_SMILES>
CC(C)CN(C(CCCCNC(=O)N(CC1=CC=C(C=C1)[N+](=O)[O-])CC2=CC3=C(C=C2)OCO3)CO)S(=O)(=O)C4=CC=C(C=C4)N
> <PUBCHEM_OPENEYE_ISO_SMILES>
CC(C)CN([C@@H](CCCCNC(=O)N(CC1=CC=C(C=C1)[N+](=O)[O-])CC2=CC3=C(C=C2)OCO3)CO)S(=O)(=O)C4=CC=C(C=C4)N
> <PUBCHEM_CACTVS_TPSA>
189
> <PUBCHEM_MONOISOTOPIC_WEIGHT>
655.26758446
> <PUBCHEM_TOTAL_CHARGE>
0
> <PUBCHEM_HEAVY_ATOM_COUNT>
46
> <PUBCHEM_ATOM_DEF_STEREO_COUNT>
1
> <PUBCHEM_ATOM_UDEF_STEREO_COUNT>
0
> <PUBCHEM_BOND_DEF_STEREO_COUNT>
0
> <PUBCHEM_BOND_UDEF_STEREO_COUNT>
0
> <PUBCHEM_ISOTOPIC_ATOM_COUNT>
0
> <PUBCHEM_COMPONENT_COUNT>
1
> <PUBCHEM_CACTVS_TAUTO_COUNT>
-1
> <PUBCHEM_COORDINATE_TYPE>
1
5
255
> <PUBCHEM_BONDANNOTATIONS>
15  10  5
22  26  8
22  27  8
26  28  8
27  29  8
28  31  8
29  31  8
34  36  8
34  37  8
35  39  8
35  40  8
36  38  8
37  42  8
38  41  8
39  43  8
40  44  8
41  42  8
43  46  8
44  46  8
$$$$
