513788
  -OEChem-10302200282D
 73 74  0     1  0  0  0  0  0999 V2000
    3.7320   -3.8450    0.0000 S   0  0  0  0  0  0  0  0  0  0  0  0
    6.3301   -2.3450    0.0000 O   0  0  0  0  0  0  0  0  0  0  0  0
    4.7320   -3.8450    0.0000 O   0  0  0  0  0  0  0  0  0  0  0  0
    2.7320   -3.8450    0.0000 O   0  0  0  0  0  0  0  0  0  0  0  0
    8.0622    1.6550    0.0000 O   0  0  0  0  0  0  0  0  0  0  0  0
    8.0622    7.6550    0.0000 O   0  0  0  0  0  0  0  0  0  0  0  0
    3.7320   -2.8450    0.0000 N   0  0  3  0  0  0  0  0  0  0  0  0
    6.3301    1.6550    0.0000 N   0  0  0  0  0  0  0  0  0  0  0  0
    7.1962    3.1550    0.0000 N   0  0  0  0  0  0  0  0  0  0  0  0
    3.7320   -7.8450    0.0000 N   0  0  0  0  0  0  0  0  0  0  0  0
    4.5981   -2.3450    0.0000 C   0  0  1  0  0  0  0  0  0  0  0  0
    4.5981   -1.3450    0.0000 C   0  0  0  0  0  0  0  0  0  0  0  0
    2.8660   -2.3450    0.0000 C   0  0  0  0  0  0  0  0  0  0  0  0
    2.8660   -1.3450    0.0000 C   0  0  0  0  0  0  0  0  0  0  0  0
    5.4641   -0.8450    0.0000 C   0  0  0  0  0  0  0  0  0  0  0  0
    5.4641   -2.8450    0.0000 C   0  0  0  0  0  0  0  0  0  0  0  0
    5.4641    0.1550    0.0000 C   0  0  0  0  0  0  0  0  0  0  0  0
    3.7320   -4.8450    0.0000 C   0  0  0  0  0  0  0  0  0  0  0  0
    2.0000   -0.8450    0.0000 C   0  0  0  0  0  0  0  0  0  0  0  0
    3.7320   -0.8450    0.0000 C   0  0  0  0  0  0  0  0  0  0  0  0
    6.3301    0.6550    0.0000 C   0  0  0  0  0  0  0  0  0  0  0  0
    2.8660   -5.3450    0.0000 C   0  0  0  0  0  0  0  0  0  0  0  0
    4.5981   -5.3450    0.0000 C   0  0  0  0  0  0  0  0  0  0  0  0
    2.8660   -6.3450    0.0000 C   0  0  0  0  0  0  0  0  0  0  0  0
    4.5981   -6.3450    0.0000 C   0  0  0  0  0  0  0  0  0  0  0  0
    3.7320   -6.8450    0.0000 C   0  0  0  0  0  0  0  0  0  0  0  0
    7.1962    2.1550    0.0000 C   0  0  0  0  0  0  0  0  0  0  0  0
    8.0622    3.6550    0.0000 C   0  0  0  0  0  0  0  0  0  0  0  0
    8.0622    4.6550    0.0000 C   0  0  0  0  0  0  0  0  0  0  0  0
    7.1962    5.1550    0.0000 C   0  0  0  0  0  0  0  0  0  0  0  0
    8.9282    5.1550    0.0000 C   0  0  0  0  0  0  0  0  0  0  0  0
    7.1962    6.1550    0.0000 C   0  0  0  0  0  0  0  0  0  0  0  0
    8.9282    6.1550    0.0000 C   0  0  0  0  0  0  0  0  0  0  0  0
    8.0622    6.6550    0.0000 C   0  0  0  0  0  0  0  0  0  0  0  0
    8.9282    8.1550    0.0000 C   0  0  0  0  0  0  0  0  0  0  0  0
    4.5981   -2.9650    0.0000 H   0  0  0  0  0  0  0  0  0  0  0  0
    4.3860   -0.7624    0.0000 H   0  0  0  0  0  0  0  0  0  0  0  0
    3.9875   -1.4527    0.0000 H   0  0  0  0  0  0  0  0  0  0  0  0
    2.2554   -2.2373    0.0000 H   0  0  0  0  0  0  0  0  0  0  0  0
    2.6540   -2.9276    0.0000 H   0  0  0  0  0  0  0  0  0  0  0  0
    2.8660   -0.7250    0.0000 H   0  0  0  0  0  0  0  0  0  0  0  0
    5.6762   -1.4276    0.0000 H   0  0  0  0  0  0  0  0  0  0  0  0
    6.0747   -0.7373    0.0000 H   0  0  0  0  0  0  0  0  0  0  0  0
    5.0656   -3.3200    0.0000 H   0  0  0  0  0  0  0  0  0  0  0  0
    5.8626   -3.3200    0.0000 H   0  0  0  0  0  0  0  0  0  0  0  0
    5.2520    0.7376    0.0000 H   0  0  0  0  0  0  0  0  0  0  0  0
    4.8535    0.0473    0.0000 H   0  0  0  0  0  0  0  0  0  0  0  0
    2.3100   -0.3081    0.0000 H   0  0  0  0  0  0  0  0  0  0  0  0
    1.4631   -0.5350    0.0000 H   0  0  0  0  0  0  0  0  0  0  0  0
    1.6900   -1.3819    0.0000 H   0  0  0  0  0  0  0  0  0  0  0  0
    4.0420   -1.3819    0.0000 H   0  0  0  0  0  0  0  0  0  0  0  0
    4.2690   -0.5350    0.0000 H   0  0  0  0  0  0  0  0  0  0  0  0
    3.4220   -0.3081    0.0000 H   0  0  0  0  0  0  0  0  0  0  0  0
    6.5422    0.0724    0.0000 H   0  0  0  0  0  0  0  0  0  0  0  0
    6.9407    0.7627    0.0000 H   0  0  0  0  0  0  0  0  0  0  0  0
    6.8671   -2.6550    0.0000 H   0  0  0  0  0  0  0  0  0  0  0  0
    2.3291   -5.0350    0.0000 H   0  0  0  0  0  0  0  0  0  0  0  0
    5.1350   -5.0350    0.0000 H   0  0  0  0  0  0  0  0  0  0  0  0
    5.7932    1.9650    0.0000 H   0  0  0  0  0  0  0  0  0  0  0  0
    2.3291   -6.6550    0.0000 H   0  0  0  0  0  0  0  0  0  0  0  0
    5.1350   -6.6550    0.0000 H   0  0  0  0  0  0  0  0  0  0  0  0
    6.6592    3.4650    0.0000 H   0  0  0  0  0  0  0  0  0  0  0  0
    3.1951   -8.1550    0.0000 H   0  0  0  0  0  0  0  0  0  0  0  0
    4.2690   -8.1550    0.0000 H   0  0  0  0  0  0  0  0  0  0  0  0
    8.2742    3.0724    0.0000 H   0  0  0  0  0  0  0  0  0  0  0  0
    8.6728    3.7627    0.0000 H   0  0  0  0  0  0  0  0  0  0  0  0
    6.6592    4.8450    0.0000 H   0  0  0  0  0  0  0  0  0  0  0  0
    9.4651    4.8450    0.0000 H   0  0  0  0  0  0  0  0  0  0  0  0
    6.6592    6.4650    0.0000 H   0  0  0  0  0  0  0  0  0  0  0  0
    9.4651    6.4650    0.0000 H   0  0  0  0  0  0  0  0  0  0  0  0
    9.2382    7.6181    0.0000 H   0  0  0  0  0  0  0  0  0  0  0  0
    9.4651    8.4650    0.0000 H   0  0  0  0  0  0  0  0  0  0  0  0
    8.6182    8.6919    0.0000 H   0  0  0  0  0  0  0  0  0  0  0  0
  1  3  2  0  0  0  0
  1  4  2  0  0  0  0
  1  7  1  0  0  0  0
  1 18  1  0  0  0  0
  2 16  1  0  0  0  0
  2 56  1  0  0  0  0
  5 27  2  0  0  0  0
  6 34  1  0  0  0  0
  6 35  1  0  0  0  0
 11  7  1  1  0  0  0
  7 13  1  0  0  0  0
  8 21  1  0  0  0  0
  8 27  1  0  0  0  0
  8 59  1  0  0  0  0
  9 27  1  0  0  0  0
  9 28  1  0  0  0  0
  9 62  1  0  0  0  0
 10 26  1  0  0  0  0
 10 63  1  0  0  0  0
 10 64  1  0  0  0  0
 11 12  1  0  0  0  0
 11 16  1  0  0  0  0
 11 36  1  0  0  0  0
 12 15  1  0  0  0  0
 12 37  1  0  0  0  0
 12 38  1  0  0  0  0
 13 14  1  0  0  0  0
 13 39  1  0  0  0  0
 13 40  1  0  0  0  0
 14 19  1  0  0  0  0
 14 20  1  0  0  0  0
 14 41  1  0  0  0  0
 15 17  1  0  0  0  0
 15 42  1  0  0  0  0
 15 43  1  0  0  0  0
 16 44  1  0  0  0  0
 16 45  1  0  0  0  0
 17 21  1  0  0  0  0
 17 46  1  0  0  0  0
 17 47  1  0  0  0  0
 18 22  2  0  0  0  0
 18 23  1  0  0  0  0
 19 48  1  0  0  0  0
 19 49  1  0  0  0  0
 19 50  1  0  0  0  0
 20 51  1  0  0  0  0
 20 52  1  0  0  0  0
 20 53  1  0  0  0  0
 21 54  1  0  0  0  0
 21 55  1  0  0  0  0
 22 24  1  0  0  0  0
 22 57  1  0  0  0  0
 23 25  2  0  0  0  0
 23 58  1  0  0  0  0
 24 26  2  0  0  0  0
 24 60  1  0  0  0  0
 25 26  1  0  0  0  0
 25 61  1  0  0  0  0
 28 29  1  0  0  0  0
 28 65  1  0  0  0  0
 28 66  1  0  0  0  0
 29 30  2  0  0  0  0
 29 31  1  0  0  0  0
 30 32  1  0  0  0  0
 30 67  1  0  0  0  0
 31 33  2  0  0  0  0
 31 68  1  0  0  0  0
 32 34  2  0  0  0  0
 32 69  1  0  0  0  0
 33 34  1  0  0  0  0
 33 70  1  0  0  0  0
 35 71  1  0  0  0  0
 35 72  1  0  0  0  0
 35 73  1  0  0  0  0
M  END
> <PUBCHEM_COMPOUND_CID>
513788
> <PUBCHEM_COMPOUND_CANONICALIZED>
1
> <PUBCHEM_CACTVS_COMPLEXITY>
699
> <PUBCHEM_CACTVS_HBOND_ACCEPTOR>
7
> <PUBCHEM_CACTVS_HBOND_DONOR>
4
> <PUBCHEM_CACTVS_ROTATABLE_BOND>
14
> <PUBCHEM_CACTVS_SUBSKEYS>
AAADcfB7uABAAAAAAAAAAAAAAAAAAAAAAAAwYAAAAAAAAAABQAAAHgQQSAAADSzh2AYzx4LABgKIAiRCUHDCCBAgIgAIiJgObIiONiKEsZuEcChs1hOY6AeQ0AIOIAQAAAAAAABACAAAAAAAAAAAAAAAAA==
> <PUBCHEM_IUPAC_OPENEYE_NAME>
1-[(5S)-5-[(4-aminophenyl)sulfonyl-isobutyl-amino]-6-hydroxy-hexyl]-3-[(4-methoxyphenyl)methyl]urea
> <PUBCHEM_IUPAC_CAS_NAME>
1-[(5S)-5-[(4-aminophenyl)sulfonyl-(2-methylpropyl)amino]-6-hydroxyhexyl]-3-[(4-methoxyphenyl)methyl]urea
> <PUBCHEM_IUPAC_NAME_MARKUP>
1-[(5<I>S</I>)-5-[(4-aminophenyl)sulfonyl-(2-methylpropyl)amino]-6-hydroxyhexyl]-3-[(4-methoxyphenyl)methyl]urea
> <PUBCHEM_IUPAC_NAME>
1-[(5S)-5-[(4-aminophenyl)sulfonyl-(2-methylpropyl)amino]-6-hydroxyhexyl]-3-[(4-methoxyphenyl)methyl]urea
> <PUBCHEM_IUPAC_SYSTEMATIC_NAME>
1-[(5S)-5-[(4-aminophenyl)sulfonyl-(2-methylpropyl)amino]-6-oxidanyl-hexyl]-3-[(4-methoxyphenyl)methyl]urea
> <PUBCHEM_IUPAC_TRADITIONAL_NAME>
1-[(5S)-6-hydroxy-5-[isobutyl(sulfanilyl)amino]hexyl]-3-p-anisyl-urea
> <PUBCHEM_IUPAC_INCHI>
InChI=1S/C25H38N4O5S/c1-19(2)17-29(35(32,33)24-13-9-21(26)10-14-24)22(18-30)6-4-5-15-27-25(31)28-16-20-7-11-23(34-3)12-8-20/h7-14,19,22,30H,4-6,15-18,26H2,1-3H3,(H2,27,28,31)/t22-/m0/s1
> <PUBCHEM_IUPAC_INCHIKEY>
MCUJNJSQIHSYNM-QFIPXVFZSA-N
> <PUBCHEM_XLOGP3_AA>
2.8
> <PUBCHEM_EXACT_MASS>
506.25629150
> <PUBCHEM_MOLECULAR_FORMULA>
C25H38N4O5S
> <PUBCHEM_MOLECULAR_WEIGHT>
506.7
> <PUBCHEM_OPENEYE_CAN_SMILES>
CC(C)CN(C(CCCCNC(=O)NCC1=CC=C(C=C1)OC)CO)S(=O)(=O)C2=CC=C(C=C2)N
> <PUBCHEM_OPENEYE_ISO_SMILES>
CC(C)CN([C@@H](CCCCNC(=O)NCC1=CC=C(C=C1)OC)CO)S(=O)(=O)C2=CC=C(C=C2)N
> <PUBCHEM_CACTVS_TPSA>
142
> <PUBCHEM_MONOISOTOPIC_WEIGHT>
506.25629150
> <PUBCHEM_TOTAL_CHARGE>
0
> <PUBCHEM_HEAVY_ATOM_COUNT>
35
> <PUBCHEM_ATOM_DEF_STEREO_COUNT>
1
> <PUBCHEM_ATOM_UDEF_STEREO_COUNT>
0
> <PUBCHEM_BOND_DEF_STEREO_COUNT>
0
> <PUBCHEM_BOND_UDEF_STEREO_COUNT>
0
> <PUBCHEM_ISOTOPIC_ATOM_COUNT>
0
> <PUBCHEM_COMPONENT_COUNT>
1
> <PUBCHEM_CACTVS_TAUTO_COUNT>
-1
> <PUBCHEM_COORDINATE_TYPE>
1
5
255
> <PUBCHEM_BONDANNOTATIONS>
18  22  8
18  23  8
22  24  8
23  25  8
24  26  8
25  26  8
29  30  8
29  31  8
30  32  8
31  33  8
32  34  8
33  34  8
11  7  5
$$$$
