513775
  -OEChem-10302200282D
 85 87  0     1  0  0  0  0  0999 V2000
    3.7320   -3.9050    0.0000 S   0  0  0  0  0  0  0  0  0  0  0  0
    6.3301   -2.4050    0.0000 O   0  0  0  0  0  0  0  0  0  0  0  0
    4.7320   -3.9050    0.0000 O   0  0  0  0  0  0  0  0  0  0  0  0
    2.7320   -3.9050    0.0000 O   0  0  0  0  0  0  0  0  0  0  0  0
    8.0622    1.5950    0.0000 O   0  0  0  0  0  0  0  0  0  0  0  0
    3.7320   -2.9050    0.0000 N   0  0  3  0  0  0  0  0  0  0  0  0
    6.3301    1.5950    0.0000 N   0  0  0  0  0  0  0  0  0  0  0  0
    7.1962    3.0950    0.0000 N   0  0  0  0  0  0  0  0  0  0  0  0
    6.3301    7.5950    0.0000 N   0  0  0  0  0  0  0  0  0  0  0  0
    4.5981   -2.4050    0.0000 C   0  0  1  0  0  0  0  0  0  0  0  0
    4.5981   -1.4050    0.0000 C   0  0  0  0  0  0  0  0  0  0  0  0
    2.8660   -2.4050    0.0000 C   0  0  0  0  0  0  0  0  0  0  0  0
    5.4641   -0.9050    0.0000 C   0  0  0  0  0  0  0  0  0  0  0  0
    2.8660   -1.4050    0.0000 C   0  0  0  0  0  0  0  0  0  0  0  0
    5.4641   -2.9050    0.0000 C   0  0  0  0  0  0  0  0  0  0  0  0
    5.4641    0.0950    0.0000 C   0  0  0  0  0  0  0  0  0  0  0  0
    3.7320   -4.9050    0.0000 C   0  0  0  0  0  0  0  0  0  0  0  0
    2.0000   -0.9050    0.0000 C   0  0  0  0  0  0  0  0  0  0  0  0
    3.7320   -0.9050    0.0000 C   0  0  0  0  0  0  0  0  0  0  0  0
    6.3301    0.5950    0.0000 C   0  0  0  0  0  0  0  0  0  0  0  0
    4.5981   -5.4050    0.0000 C   0  0  0  0  0  0  0  0  0  0  0  0
    2.8660   -5.4050    0.0000 C   0  0  0  0  0  0  0  0  0  0  0  0
    4.5981   -6.4050    0.0000 C   0  0  0  0  0  0  0  0  0  0  0  0
    2.8660   -6.4050    0.0000 C   0  0  0  0  0  0  0  0  0  0  0  0
    3.7320   -6.9050    0.0000 C   0  0  0  0  0  0  0  0  0  0  0  0
    7.1962    2.0950    0.0000 C   0  0  0  0  0  0  0  0  0  0  0  0
    6.3301    3.5950    0.0000 C   0  0  0  0  0  0  0  0  0  0  0  0
    8.0622    3.5950    0.0000 C   0  0  0  0  0  0  0  0  0  0  0  0
    3.7320   -7.9050    0.0000 C   0  0  0  0  0  0  0  0  0  0  0  0
    6.3301    4.5950    0.0000 C   0  0  0  0  0  0  0  0  0  0  0  0
    8.9282    3.0950    0.0000 C   0  0  0  0  0  0  0  0  0  0  0  0
    7.1962    5.0950    0.0000 C   0  0  0  0  0  0  0  0  0  0  0  0
    5.4641    5.0950    0.0000 C   0  0  0  0  0  0  0  0  0  0  0  0
    9.7942    3.5950    0.0000 C   0  0  0  0  0  0  0  0  0  0  0  0
    8.9282    2.0950    0.0000 C   0  0  0  0  0  0  0  0  0  0  0  0
    7.1962    6.0950    0.0000 C   0  0  0  0  0  0  0  0  0  0  0  0
    5.4641    6.0950    0.0000 C   0  0  0  0  0  0  0  0  0  0  0  0
    6.3301    6.5950    0.0000 C   0  0  0  0  0  0  0  0  0  0  0  0
   10.6603    3.0950    0.0000 C   0  0  0  0  0  0  0  0  0  0  0  0
    9.7942    1.5950    0.0000 C   0  0  0  0  0  0  0  0  0  0  0  0
   10.6603    2.0950    0.0000 C   0  0  0  0  0  0  0  0  0  0  0  0
    4.5981   -3.0250    0.0000 H   0  0  0  0  0  0  0  0  0  0  0  0
    4.3860   -0.8224    0.0000 H   0  0  0  0  0  0  0  0  0  0  0  0
    3.9875   -1.5127    0.0000 H   0  0  0  0  0  0  0  0  0  0  0  0
    2.2554   -2.2973    0.0000 H   0  0  0  0  0  0  0  0  0  0  0  0
    2.6540   -2.9876    0.0000 H   0  0  0  0  0  0  0  0  0  0  0  0
    5.6762   -1.4876    0.0000 H   0  0  0  0  0  0  0  0  0  0  0  0
    6.0747   -0.7973    0.0000 H   0  0  0  0  0  0  0  0  0  0  0  0
    2.8660   -0.7850    0.0000 H   0  0  0  0  0  0  0  0  0  0  0  0
    5.0656   -3.3800    0.0000 H   0  0  0  0  0  0  0  0  0  0  0  0
    5.8626   -3.3800    0.0000 H   0  0  0  0  0  0  0  0  0  0  0  0
    5.2520    0.6776    0.0000 H   0  0  0  0  0  0  0  0  0  0  0  0
    4.8535   -0.0127    0.0000 H   0  0  0  0  0  0  0  0  0  0  0  0
    2.3100   -0.3681    0.0000 H   0  0  0  0  0  0  0  0  0  0  0  0
    1.4631   -0.5950    0.0000 H   0  0  0  0  0  0  0  0  0  0  0  0
    1.6900   -1.4419    0.0000 H   0  0  0  0  0  0  0  0  0  0  0  0
    4.0420   -1.4419    0.0000 H   0  0  0  0  0  0  0  0  0  0  0  0
    4.2690   -0.5950    0.0000 H   0  0  0  0  0  0  0  0  0  0  0  0
    3.4220   -0.3681    0.0000 H   0  0  0  0  0  0  0  0  0  0  0  0
    6.5422    0.0124    0.0000 H   0  0  0  0  0  0  0  0  0  0  0  0
    6.9407    0.7027    0.0000 H   0  0  0  0  0  0  0  0  0  0  0  0
    6.8671   -2.7150    0.0000 H   0  0  0  0  0  0  0  0  0  0  0  0
    5.1350   -5.0950    0.0000 H   0  0  0  0  0  0  0  0  0  0  0  0
    2.3291   -5.0950    0.0000 H   0  0  0  0  0  0  0  0  0  0  0  0
    5.7932    1.9050    0.0000 H   0  0  0  0  0  0  0  0  0  0  0  0
    5.1350   -6.7150    0.0000 H   0  0  0  0  0  0  0  0  0  0  0  0
    2.3291   -6.7150    0.0000 H   0  0  0  0  0  0  0  0  0  0  0  0
    5.7196    3.7027    0.0000 H   0  0  0  0  0  0  0  0  0  0  0  0
    6.1181    3.0124    0.0000 H   0  0  0  0  0  0  0  0  0  0  0  0
    8.4607    4.0700    0.0000 H   0  0  0  0  0  0  0  0  0  0  0  0
    7.6636    4.0700    0.0000 H   0  0  0  0  0  0  0  0  0  0  0  0
    3.1120   -7.9050    0.0000 H   0  0  0  0  0  0  0  0  0  0  0  0
    3.7320   -8.5250    0.0000 H   0  0  0  0  0  0  0  0  0  0  0  0
    4.3520   -7.9050    0.0000 H   0  0  0  0  0  0  0  0  0  0  0  0
    7.7331    4.7850    0.0000 H   0  0  0  0  0  0  0  0  0  0  0  0
    4.9272    4.7850    0.0000 H   0  0  0  0  0  0  0  0  0  0  0  0
    9.7942    4.2150    0.0000 H   0  0  0  0  0  0  0  0  0  0  0  0
    8.3913    1.7850    0.0000 H   0  0  0  0  0  0  0  0  0  0  0  0
    7.7331    6.4050    0.0000 H   0  0  0  0  0  0  0  0  0  0  0  0
    4.9272    6.4050    0.0000 H   0  0  0  0  0  0  0  0  0  0  0  0
   11.1972    3.4050    0.0000 H   0  0  0  0  0  0  0  0  0  0  0  0
    9.7942    0.9750    0.0000 H   0  0  0  0  0  0  0  0  0  0  0  0
   11.1972    1.7850    0.0000 H   0  0  0  0  0  0  0  0  0  0  0  0
    5.7932    7.9050    0.0000 H   0  0  0  0  0  0  0  0  0  0  0  0
    6.8671    7.9050    0.0000 H   0  0  0  0  0  0  0  0  0  0  0  0
  1  3  2  0  0  0  0
  1  4  2  0  0  0  0
  1  6  1  0  0  0  0
  1 17  1  0  0  0  0
  2 15  1  0  0  0  0
  2 62  1  0  0  0  0
  5 26  2  0  0  0  0
 10  6  1  1  0  0  0
  6 12  1  0  0  0  0
  7 20  1  0  0  0  0
  7 26  1  0  0  0  0
  7 65  1  0  0  0  0
  8 26  1  0  0  0  0
  8 27  1  0  0  0  0
  8 28  1  0  0  0  0
  9 38  1  0  0  0  0
  9 84  1  0  0  0  0
  9 85  1  0  0  0  0
 10 11  1  0  0  0  0
 10 15  1  0  0  0  0
 10 42  1  0  0  0  0
 11 13  1  0  0  0  0
 11 43  1  0  0  0  0
 11 44  1  0  0  0  0
 12 14  1  0  0  0  0
 12 45  1  0  0  0  0
 12 46  1  0  0  0  0
 13 16  1  0  0  0  0
 13 47  1  0  0  0  0
 13 48  1  0  0  0  0
 14 18  1  0  0  0  0
 14 19  1  0  0  0  0
 14 49  1  0  0  0  0
 15 50  1  0  0  0  0
 15 51  1  0  0  0  0
 16 20  1  0  0  0  0
 16 52  1  0  0  0  0
 16 53  1  0  0  0  0
 17 21  2  0  0  0  0
 17 22  1  0  0  0  0
 18 54  1  0  0  0  0
 18 55  1  0  0  0  0
 18 56  1  0  0  0  0
 19 57  1  0  0  0  0
 19 58  1  0  0  0  0
 19 59  1  0  0  0  0
 20 60  1  0  0  0  0
 20 61  1  0  0  0  0
 21 23  1  0  0  0  0
 21 63  1  0  0  0  0
 22 24  2  0  0  0  0
 22 64  1  0  0  0  0
 23 25  2  0  0  0  0
 23 66  1  0  0  0  0
 24 25  1  0  0  0  0
 24 67  1  0  0  0  0
 25 29  1  0  0  0  0
 27 30  1  0  0  0  0
 27 68  1  0  0  0  0
 27 69  1  0  0  0  0
 28 31  1  0  0  0  0
 28 70  1  0  0  0  0
 28 71  1  0  0  0  0
 29 72  1  0  0  0  0
 29 73  1  0  0  0  0
 29 74  1  0  0  0  0
 30 32  2  0  0  0  0
 30 33  1  0  0  0  0
 31 34  2  0  0  0  0
 31 35  1  0  0  0  0
 32 36  1  0  0  0  0
 32 75  1  0  0  0  0
 33 37  2  0  0  0  0
 33 76  1  0  0  0  0
 34 39  1  0  0  0  0
 34 77  1  0  0  0  0
 35 40  2  0  0  0  0
 35 78  1  0  0  0  0
 36 38  2  0  0  0  0
 36 79  1  0  0  0  0
 37 38  1  0  0  0  0
 37 80  1  0  0  0  0
 39 41  2  0  0  0  0
 39 81  1  0  0  0  0
 40 41  1  0  0  0  0
 40 82  1  0  0  0  0
 41 83  1  0  0  0  0
M  END
> <PUBCHEM_COMPOUND_CID>
513775
> <PUBCHEM_COMPOUND_CANONICALIZED>
1
> <PUBCHEM_CACTVS_COMPLEXITY>
842
> <PUBCHEM_CACTVS_HBOND_ACCEPTOR>
6
> <PUBCHEM_CACTVS_HBOND_DONOR>
3
> <PUBCHEM_CACTVS_ROTATABLE_BOND>
15
> <PUBCHEM_CACTVS_SUBSKEYS>
AAADcfB/uABAAAAAAAAAAAAAAAAAAAAAAAAwYMAAAAAAAAABUAAAHgQQSAAADSjh2AYzwYPAAgKIAiRCUHDCABAgAgAIiJgIZIiKMCKAkZGEYAhslgKYyAeQwAAOGAAAAAAAAAAwAAAAAAAAAAAAAAAAAA==
> <PUBCHEM_IUPAC_OPENEYE_NAME>
1-[(4-aminophenyl)methyl]-1-benzyl-3-[(5S)-6-hydroxy-5-[isobutyl(p-tolylsulfonyl)amino]hexyl]urea
> <PUBCHEM_IUPAC_CAS_NAME>
1-[(4-aminophenyl)methyl]-3-[(5S)-6-hydroxy-5-[(4-methylphenyl)sulfonyl-(2-methylpropyl)amino]hexyl]-1-(phenylmethyl)urea
> <PUBCHEM_IUPAC_NAME_MARKUP>
1-[(4-aminophenyl)methyl]-1-benzyl-3-[(5<I>S</I>)-6-hydroxy-5-[(4-methylphenyl)sulfonyl-(2-methylpropyl)amino]hexyl]urea
> <PUBCHEM_IUPAC_NAME>
1-[(4-aminophenyl)methyl]-1-benzyl-3-[(5S)-6-hydroxy-5-[(4-methylphenyl)sulfonyl-(2-methylpropyl)amino]hexyl]urea
> <PUBCHEM_IUPAC_SYSTEMATIC_NAME>
1-[(4-aminophenyl)methyl]-3-[(5S)-5-[(4-methylphenyl)sulfonyl-(2-methylpropyl)amino]-6-oxidanyl-hexyl]-1-(phenylmethyl)urea
> <PUBCHEM_IUPAC_TRADITIONAL_NAME>
1-(4-aminobenzyl)-1-benzyl-3-[(5S)-6-hydroxy-5-[isobutyl(tosyl)amino]hexyl]urea
> <PUBCHEM_IUPAC_INCHI>
InChI=1S/C32H44N4O4S/c1-25(2)21-36(41(39,40)31-18-12-26(3)13-19-31)30(24-37)11-7-8-20-34-32(38)35(22-27-9-5-4-6-10-27)23-28-14-16-29(33)17-15-28/h4-6,9-10,12-19,25,30,37H,7-8,11,20-24,33H2,1-3H3,(H,34,38)/t30-/m0/s1
> <PUBCHEM_IUPAC_INCHIKEY>
UCHOQOBKLMPPAB-PMERELPUSA-N
> <PUBCHEM_XLOGP3_AA>
4.9
> <PUBCHEM_EXACT_MASS>
580.30832707
> <PUBCHEM_MOLECULAR_FORMULA>
C32H44N4O4S
> <PUBCHEM_MOLECULAR_WEIGHT>
580.8
> <PUBCHEM_OPENEYE_CAN_SMILES>
CC1=CC=C(C=C1)S(=O)(=O)N(CC(C)C)C(CCCCNC(=O)N(CC2=CC=CC=C2)CC3=CC=C(C=C3)N)CO
> <PUBCHEM_OPENEYE_ISO_SMILES>
CC1=CC=C(C=C1)S(=O)(=O)N(CC(C)C)[C@@H](CCCCNC(=O)N(CC2=CC=CC=C2)CC3=CC=C(C=C3)N)CO
> <PUBCHEM_CACTVS_TPSA>
124
> <PUBCHEM_MONOISOTOPIC_WEIGHT>
580.30832707
> <PUBCHEM_TOTAL_CHARGE>
0
> <PUBCHEM_HEAVY_ATOM_COUNT>
41
> <PUBCHEM_ATOM_DEF_STEREO_COUNT>
1
> <PUBCHEM_ATOM_UDEF_STEREO_COUNT>
0
> <PUBCHEM_BOND_DEF_STEREO_COUNT>
0
> <PUBCHEM_BOND_UDEF_STEREO_COUNT>
0
> <PUBCHEM_ISOTOPIC_ATOM_COUNT>
0
> <PUBCHEM_COMPONENT_COUNT>
1
> <PUBCHEM_CACTVS_TAUTO_COUNT>
-1
> <PUBCHEM_COORDINATE_TYPE>
1
5
255
> <PUBCHEM_BONDANNOTATIONS>
17  21  8
17  22  8
21  23  8
22  24  8
23  25  8
24  25  8
30  32  8
30  33  8
31  34  8
31  35  8
32  36  8
33  37  8
34  39  8
35  40  8
36  38  8
37  38  8
39  41  8
40  41  8
10  6  5
$$$$
