513736
  -OEChem-10302200282D
 74 76  0     1  0  0  0  0  0999 V2000
   11.1241    3.1127    0.0000 S   0  0  0  0  0  0  0  0  0  0  0  0
    6.2619   -3.4757    0.0000 O   0  0  0  0  0  0  0  0  0  0  0  0
   10.9179    4.0912    0.0000 O   0  0  0  0  0  0  0  0  0  0  0  0
   11.3303    2.1342    0.0000 O   0  0  0  0  0  0  0  0  0  0  0  0
   10.1921    0.2612    0.0000 O   0  0  0  0  0  0  0  0  0  0  0  0
   11.4813    1.4179    0.0000 O   0  0  0  0  0  0  0  0  0  0  0  0
    6.6353   -2.2585    0.0000 O   0  0  0  0  0  0  0  0  0  0  0  0
   10.1456    2.9065    0.0000 N   0  0  3  0  0  0  0  0  0  0  0  0
    4.9889   -1.7204    0.0000 N   0  0  0  0  0  0  0  0  0  0  0  0
    6.2781   -0.5637    0.0000 N   0  0  0  0  0  0  0  0  0  0  0  0
    4.6783   -2.6710    0.0000 C   0  0  2  0  0  0  0  0  0  0  0  0
    5.2619   -3.4757    0.0000 C   0  0  1  0  0  0  0  0  0  0  0  0
    4.6783   -4.2804    0.0000 C   0  0  0  0  0  0  0  0  0  0  0  0
    3.7320   -2.9757    0.0000 C   0  0  0  0  0  0  0  0  0  0  0  0
    3.7320   -3.9757    0.0000 C   0  0  0  0  0  0  0  0  0  0  0  0
    9.8349    1.9560    0.0000 C   0  0  1  0  0  0  0  0  0  0  0  0
    8.8564    1.7498    0.0000 C   0  0  0  0  0  0  0  0  0  0  0  0
    9.4778    3.6508    0.0000 C   0  0  0  0  0  0  0  0  0  0  0  0
    8.5458    0.7993    0.0000 C   0  0  0  0  0  0  0  0  0  0  0  0
    8.4993    3.4446    0.0000 C   0  0  0  0  0  0  0  0  0  0  0  0
    7.5673    0.5930    0.0000 C   0  0  0  0  0  0  0  0  0  0  0  0
    2.8660   -2.4757    0.0000 C   0  0  0  0  0  0  0  0  0  0  0  0
    2.8660   -4.4757    0.0000 C   0  0  0  0  0  0  0  0  0  0  0  0
    7.2566   -0.3575    0.0000 C   0  0  0  0  0  0  0  0  0  0  0  0
   10.5028    1.2117    0.0000 C   0  0  0  0  0  0  0  0  0  0  0  0
    5.9674   -1.5142    0.0000 C   0  0  0  0  0  0  0  0  0  0  0  0
   12.1026    3.3190    0.0000 C   0  0  0  0  0  0  0  0  0  0  0  0
    7.8314    4.1889    0.0000 C   0  0  0  0  0  0  0  0  0  0  0  0
    8.1886    2.4941    0.0000 C   0  0  0  0  0  0  0  0  0  0  0  0
    2.0000   -2.9757    0.0000 C   0  0  0  0  0  0  0  0  0  0  0  0
    2.0000   -3.9757    0.0000 C   0  0  0  0  0  0  0  0  0  0  0  0
   12.7705    2.5746    0.0000 C   0  0  0  0  0  0  0  0  0  0  0  0
   12.4133    4.2695    0.0000 C   0  0  0  0  0  0  0  0  0  0  0  0
   13.7490    2.7809    0.0000 C   0  0  0  0  0  0  0  0  0  0  0  0
   13.3918    4.4757    0.0000 C   0  0  0  0  0  0  0  0  0  0  0  0
   14.0596    3.7314    0.0000 C   0  0  0  0  0  0  0  0  0  0  0  0
   15.0381    3.9376    0.0000 C   0  0  0  0  0  0  0  0  0  0  0  0
    5.2908   -2.5748    0.0000 H   0  0  0  0  0  0  0  0  0  0  0  0
    5.5436   -4.0280    0.0000 H   0  0  0  0  0  0  0  0  0  0  0  0
    4.4272   -4.8473    0.0000 H   0  0  0  0  0  0  0  0  0  0  0  0
    5.2156   -4.5896    0.0000 H   0  0  0  0  0  0  0  0  0  0  0  0
   10.4416    2.0838    0.0000 H   0  0  0  0  0  0  0  0  0  0  0  0
    8.8359    2.3694    0.0000 H   0  0  0  0  0  0  0  0  0  0  0  0
    8.2426    1.8371    0.0000 H   0  0  0  0  0  0  0  0  0  0  0  0
   10.0041    3.9785    0.0000 H   0  0  0  0  0  0  0  0  0  0  0  0
    9.2465    4.2261    0.0000 H   0  0  0  0  0  0  0  0  0  0  0  0
    8.5663    0.1796    0.0000 H   0  0  0  0  0  0  0  0  0  0  0  0
    9.1596    0.7119    0.0000 H   0  0  0  0  0  0  0  0  0  0  0  0
    7.8926    3.3167    0.0000 H   0  0  0  0  0  0  0  0  0  0  0  0
    4.5749   -1.2590    0.0000 H   0  0  0  0  0  0  0  0  0  0  0  0
    7.5467    1.2127    0.0000 H   0  0  0  0  0  0  0  0  0  0  0  0
    6.9534    0.6804    0.0000 H   0  0  0  0  0  0  0  0  0  0  0  0
    2.8660   -1.8557    0.0000 H   0  0  0  0  0  0  0  0  0  0  0  0
    2.8660   -5.0957    0.0000 H   0  0  0  0  0  0  0  0  0  0  0  0
    7.2772   -0.9771    0.0000 H   0  0  0  0  0  0  0  0  0  0  0  0
    7.8704   -0.4448    0.0000 H   0  0  0  0  0  0  0  0  0  0  0  0
    6.5719   -4.0126    0.0000 H   0  0  0  0  0  0  0  0  0  0  0  0
    8.2929    4.6030    0.0000 H   0  0  0  0  0  0  0  0  0  0  0  0
    7.4174    4.6504    0.0000 H   0  0  0  0  0  0  0  0  0  0  0  0
    7.3700    3.7748    0.0000 H   0  0  0  0  0  0  0  0  0  0  0  0
    7.5993    2.6867    0.0000 H   0  0  0  0  0  0  0  0  0  0  0  0
    7.9960    1.9048    0.0000 H   0  0  0  0  0  0  0  0  0  0  0  0
    8.7779    2.3015    0.0000 H   0  0  0  0  0  0  0  0  0  0  0  0
    1.4631   -2.6657    0.0000 H   0  0  0  0  0  0  0  0  0  0  0  0
    1.4631   -4.2857    0.0000 H   0  0  0  0  0  0  0  0  0  0  0  0
    5.8640   -0.1022    0.0000 H   0  0  0  0  0  0  0  0  0  0  0  0
   12.5779    1.9853    0.0000 H   0  0  0  0  0  0  0  0  0  0  0  0
   11.9992    4.7309    0.0000 H   0  0  0  0  0  0  0  0  0  0  0  0
   10.6062   -0.2003    0.0000 H   0  0  0  0  0  0  0  0  0  0  0  0
   14.1630    2.3194    0.0000 H   0  0  0  0  0  0  0  0  0  0  0  0
   13.5844    5.0650    0.0000 H   0  0  0  0  0  0  0  0  0  0  0  0
   15.1660    3.3309    0.0000 H   0  0  0  0  0  0  0  0  0  0  0  0
   15.6448    4.0655    0.0000 H   0  0  0  0  0  0  0  0  0  0  0  0
   14.9103    4.5443    0.0000 H   0  0  0  0  0  0  0  0  0  0  0  0
  1  3  2  0  0  0  0
  1  4  2  0  0  0  0
  1  8  1  0  0  0  0
  1 27  1  0  0  0  0
 12  2  1  6  0  0  0
  2 57  1  0  0  0  0
  5 25  1  0  0  0  0
  5 69  1  0  0  0  0
  6 25  2  0  0  0  0
  7 26  2  0  0  0  0
 16  8  1  6  0  0  0
  8 18  1  0  0  0  0
 11  9  1  6  0  0  0
  9 26  1  0  0  0  0
  9 50  1  0  0  0  0
 10 24  1  0  0  0  0
 10 26  1  0  0  0  0
 10 66  1  0  0  0  0
 11 12  1  0  0  0  0
 11 14  1  0  0  0  0
 11 38  1  0  0  0  0
 12 13  1  0  0  0  0
 12 39  1  0  0  0  0
 13 15  1  0  0  0  0
 13 40  1  0  0  0  0
 13 41  1  0  0  0  0
 14 15  1  0  0  0  0
 14 22  2  0  0  0  0
 15 23  2  0  0  0  0
 16 17  1  0  0  0  0
 16 25  1  0  0  0  0
 16 42  1  0  0  0  0
 17 19  1  0  0  0  0
 17 43  1  0  0  0  0
 17 44  1  0  0  0  0
 18 20  1  0  0  0  0
 18 45  1  0  0  0  0
 18 46  1  0  0  0  0
 19 21  1  0  0  0  0
 19 47  1  0  0  0  0
 19 48  1  0  0  0  0
 20 28  1  0  0  0  0
 20 29  1  0  0  0  0
 20 49  1  0  0  0  0
 21 24  1  0  0  0  0
 21 51  1  0  0  0  0
 21 52  1  0  0  0  0
 22 30  1  0  0  0  0
 22 53  1  0  0  0  0
 23 31  1  0  0  0  0
 23 54  1  0  0  0  0
 24 55  1  0  0  0  0
 24 56  1  0  0  0  0
 27 32  2  0  0  0  0
 27 33  1  0  0  0  0
 28 58  1  0  0  0  0
 28 59  1  0  0  0  0
 28 60  1  0  0  0  0
 29 61  1  0  0  0  0
 29 62  1  0  0  0  0
 29 63  1  0  0  0  0
 30 31  2  0  0  0  0
 30 64  1  0  0  0  0
 31 65  1  0  0  0  0
 32 34  1  0  0  0  0
 32 67  1  0  0  0  0
 33 35  2  0  0  0  0
 33 68  1  0  0  0  0
 34 36  2  0  0  0  0
 34 70  1  0  0  0  0
 35 36  1  0  0  0  0
 35 71  1  0  0  0  0
 36 37  1  0  0  0  0
 37 72  1  0  0  0  0
 37 73  1  0  0  0  0
 37 74  1  0  0  0  0
M  END
> <PUBCHEM_COMPOUND_CID>
513736
> <PUBCHEM_COMPOUND_CANONICALIZED>
1
> <PUBCHEM_CACTVS_COMPLEXITY>
853
> <PUBCHEM_CACTVS_HBOND_ACCEPTOR>
7
> <PUBCHEM_CACTVS_HBOND_DONOR>
4
> <PUBCHEM_CACTVS_ROTATABLE_BOND>
12
> <PUBCHEM_CACTVS_SUBSKEYS>
AAADcfB7OABAAAAAAAAAAAAAAAAAAYAAAAAwYAAAAAAAAGABQAAAHgQQSAAADTzh2AYzCYLAAgKIAiDSGHDCABAgAAAIiJmIBIiKMDKAkTGEYAhs1gOYiAeY2KIOkAAAAAAQAAAgAAAAACAAAKAACQgAAA==
> <PUBCHEM_IUPAC_OPENEYE_NAME>
(2S)-6-[[(1S,2R)-2-hydroxyindan-1-yl]carbamoylamino]-2-[isobutyl(p-tolylsulfonyl)amino]hexanoic acid
> <PUBCHEM_IUPAC_CAS_NAME>
(2S)-6-[[[[(1S,2R)-2-hydroxy-2,3-dihydro-1H-inden-1-yl]amino]-oxomethyl]amino]-2-[(4-methylphenyl)sulfonyl-(2-methylpropyl)amino]hexanoic acid
> <PUBCHEM_IUPAC_NAME_MARKUP>
(2<I>S</I>)-6-[[(1<I>S</I>,2<I>R</I>)-2-hydroxy-2,3-dihydro-1<I>H</I>-inden-1-yl]carbamoylamino]-2-[(4-methylphenyl)sulfonyl-(2-methylpropyl)amino]hexanoic acid
> <PUBCHEM_IUPAC_NAME>
(2S)-6-[[(1S,2R)-2-hydroxy-2,3-dihydro-1H-inden-1-yl]carbamoylamino]-2-[(4-methylphenyl)sulfonyl-(2-methylpropyl)amino]hexanoic acid
> <PUBCHEM_IUPAC_SYSTEMATIC_NAME>
(2S)-2-[(4-methylphenyl)sulfonyl-(2-methylpropyl)amino]-6-[[(1S,2R)-2-oxidanyl-2,3-dihydro-1H-inden-1-yl]carbamoylamino]hexanoic acid
> <PUBCHEM_IUPAC_TRADITIONAL_NAME>
(2S)-6-[[(1S,2R)-2-hydroxyindan-1-yl]carbamoylamino]-2-[isobutyl(tosyl)amino]hexanoic acid
> <PUBCHEM_IUPAC_INCHI>
InChI=1S/C27H37N3O6S/c1-18(2)17-30(37(35,36)21-13-11-19(3)12-14-21)23(26(32)33)10-6-7-15-28-27(34)29-25-22-9-5-4-8-20(22)16-24(25)31/h4-5,8-9,11-14,18,23-25,31H,6-7,10,15-17H2,1-3H3,(H,32,33)(H2,28,29,34)/t23-,24+,25-/m0/s1
> <PUBCHEM_IUPAC_INCHIKEY>
SPUDCGMSRTZYQQ-GVAUOCQISA-N
> <PUBCHEM_XLOGP3_AA>
3.6
> <PUBCHEM_EXACT_MASS>
531.24030708
> <PUBCHEM_MOLECULAR_FORMULA>
C27H37N3O6S
> <PUBCHEM_MOLECULAR_WEIGHT>
531.7
> <PUBCHEM_OPENEYE_CAN_SMILES>
CC1=CC=C(C=C1)S(=O)(=O)N(CC(C)C)C(CCCCNC(=O)NC2C(CC3=CC=CC=C23)O)C(=O)O
> <PUBCHEM_OPENEYE_ISO_SMILES>
CC1=CC=C(C=C1)S(=O)(=O)N(CC(C)C)[C@@H](CCCCNC(=O)N[C@@H]2[C@@H](CC3=CC=CC=C23)O)C(=O)O
> <PUBCHEM_CACTVS_TPSA>
144
> <PUBCHEM_MONOISOTOPIC_WEIGHT>
531.24030708
> <PUBCHEM_TOTAL_CHARGE>
0
> <PUBCHEM_HEAVY_ATOM_COUNT>
37
> <PUBCHEM_ATOM_DEF_STEREO_COUNT>
3
> <PUBCHEM_ATOM_UDEF_STEREO_COUNT>
0
> <PUBCHEM_BOND_DEF_STEREO_COUNT>
0
> <PUBCHEM_BOND_UDEF_STEREO_COUNT>
0
> <PUBCHEM_ISOTOPIC_ATOM_COUNT>
0
> <PUBCHEM_COMPONENT_COUNT>
1
> <PUBCHEM_CACTVS_TAUTO_COUNT>
-1
> <PUBCHEM_COORDINATE_TYPE>
1
5
255
> <PUBCHEM_BONDANNOTATIONS>
14  15  8
14  22  8
15  23  8
12  2  6
22  30  8
23  31  8
27  32  8
27  33  8
30  31  8
32  34  8
33  35  8
34  36  8
35  36  8
16  8  6
11  9  6
$$$$
