513707
  -OEChem-10302200282D
114125  0     1  0  0  0  0  0999 V2000
    2.7527    8.6880    0.0000 Cl  0  5  0  0  0  0  0  0  0  0  0  0
    0.0000    8.6880    0.0000 Cl  0  5  0  0  0  0  0  0  0  0  0  0
    9.6820    8.2868    0.0000 O   0  0  0  0  0  0  0  0  0  0  0  0
    8.5362   12.2295    0.0000 O   0  0  0  0  0  0  0  0  0  0  0  0
   11.1955   10.4569    0.0000 O   0  0  0  0  0  0  0  0  0  0  0  0
    7.8543   14.7859    0.0000 O   0  0  0  0  0  0  0  0  0  0  0  0
    9.0820    5.7100    0.0000 N   0  3  3  0  0  0  0  0  0  0  0  0
    8.2206    9.6027    0.0000 N   0  3  3  0  0  0  0  0  0  0  0  0
   11.7955   13.0337    0.0000 N   0  0  0  0  0  0  0  0  0  0  0  0
    8.1698   17.4128    0.0000 N   0  0  0  0  0  0  0  0  0  0  0  0
    8.3751    3.4855    0.0000 C   0  0  3  0  0  0  0  0  0  0  0  0
    7.5091    3.9855    0.0000 C   0  0  3  0  0  0  0  0  0  0  0  0
    9.6233    4.3134    0.0000 C   0  0  0  0  0  0  0  0  0  0  0  0
    7.6019    5.4804    0.0000 C   0  0  0  0  0  0  0  0  0  0  0  0
    9.2411    3.9855    0.0000 C   0  0  0  0  0  0  0  0  0  0  0  0
    7.5091    4.9855    0.0000 C   0  0  0  0  0  0  0  0  0  0  0  0
    8.3912    2.4440    0.0000 C   0  0  0  0  0  0  0  0  0  0  0  0
    6.5991    3.4787    0.0000 C   0  0  0  0  0  0  0  0  0  0  0  0
    9.2411    4.9855    0.0000 C   0  0  0  0  0  0  0  0  0  0  0  0
    8.3751    5.4855    0.0000 C   0  0  0  0  0  0  0  0  0  0  0  0
   10.1351    3.4508    0.0000 C   0  0  0  0  0  0  0  0  0  0  0  0
    6.5991    5.4924    0.0000 C   0  0  0  0  0  0  0  0  0  0  0  0
    9.3792    2.3369    0.0000 C   0  0  0  0  0  0  0  0  0  0  0  0
    6.0123    4.6903    0.0000 C   0  0  0  0  0  0  0  0  0  0  0  0
    8.3912    6.5270    0.0000 C   0  0  0  0  0  0  0  0  0  0  0  0
   10.1351    5.5202    0.0000 C   0  0  0  0  0  0  0  0  0  0  0  0
    8.9775    6.7045    0.0000 C   0  0  0  0  0  0  0  0  0  0  0  0
    7.4931    1.9162    0.0000 C   0  0  0  0  0  0  0  0  0  0  0  0
    9.7338    6.4294    0.0000 C   0  0  0  0  0  0  0  0  0  0  0  0
    6.5910    2.4371    0.0000 C   0  0  0  0  0  0  0  0  0  0  0  0
    7.9880    7.9594    0.0000 C   0  0  3  0  0  0  0  0  0  0  0  0
    7.4931    7.0548    0.0000 C   0  0  0  0  0  0  0  0  0  0  0  0
   11.0411    3.9647    0.0000 C   0  0  0  0  0  0  0  0  0  0  0  0
   10.1979    5.9882    0.0000 C   0  0  0  0  0  0  0  0  0  0  0  0
    9.0034    8.1392    0.0000 C   0  0  3  0  0  0  0  0  0  0  0  0
   11.0411    5.0063    0.0000 C   0  0  0  0  0  0  0  0  0  0  0  0
   10.5386    7.0999    0.0000 C   0  0  0  0  0  0  0  0  0  0  0  0
    6.5910    6.5340    0.0000 C   0  0  0  0  0  0  0  0  0  0  0  0
   10.2488    1.7827    0.0000 C   0  0  0  0  0  0  0  0  0  0  0  0
    7.5085    8.8654    0.0000 C   0  0  0  0  0  0  0  0  0  0  0  0
    9.1427    9.1548    0.0000 C   0  0  0  0  0  0  0  0  0  0  0  0
   11.5771    3.0838    0.0000 C   0  0  0  0  0  0  0  0  0  0  0  0
   11.7773    5.7515    0.0000 C   0  0  0  0  0  0  0  0  0  0  0  0
   12.3408    3.7920    0.0000 C   0  0  0  0  0  0  0  0  0  0  0  0
    7.7704    0.9061    0.0000 C   0  0  0  0  0  0  0  0  0  0  0  0
   11.5328    6.7700    0.0000 C   0  0  0  0  0  0  0  0  0  0  0  0
    9.7865    7.2923    0.0000 C   0  0  0  0  0  0  0  0  0  0  0  0
   11.2252    2.1145    0.0000 C   0  0  0  0  0  0  0  0  0  0  0  0
    8.7747    0.6086    0.0000 C   0  0  0  0  0  0  0  0  0  0  0  0
    8.6583   10.5018    0.0000 C   0  0  0  0  0  0  0  0  0  0  0  0
    7.5008   10.2968    0.0000 C   0  0  0  0  0  0  0  0  0  0  0  0
    8.0985   11.3304    0.0000 C   0  0  0  0  0  0  0  0  0  0  0  0
   10.4910    8.8746    0.0000 C   0  0  0  0  0  0  0  0  0  0  0  0
   10.3865    9.8691    0.0000 C   0  0  0  0  0  0  0  0  0  0  0  0
    7.9764   13.0582    0.0000 C   0  0  0  0  0  0  0  0  0  0  0  0
    8.4141   13.9573    0.0000 C   0  0  0  0  0  0  0  0  0  0  0  0
   11.0910   11.4514    0.0000 C   0  0  0  0  0  0  0  0  0  0  0  0
   11.9000   12.0392    0.0000 C   0  0  0  0  0  0  0  0  0  0  0  0
    8.2920   15.6850    0.0000 C   0  0  0  0  0  0  0  0  0  0  0  0
    7.7322   16.5136    0.0000 C   0  0  0  0  0  0  0  0  0  0  0  0
    9.9280    3.7734    0.0000 H   0  0  0  0  0  0  0  0  0  0  0  0
   10.1838    4.5784    0.0000 H   0  0  0  0  0  0  0  0  0  0  0  0
    7.5512    6.0984    0.0000 H   0  0  0  0  0  0  0  0  0  0  0  0
    6.9820    5.4743    0.0000 H   0  0  0  0  0  0  0  0  0  0  0  0
    5.5778    5.1326    0.0000 H   0  0  0  0  0  0  0  0  0  0  0  0
    5.5054    4.3332    0.0000 H   0  0  0  0  0  0  0  0  0  0  0  0
    8.7057    7.2617    0.0000 H   0  0  0  0  0  0  0  0  0  0  0  0
    8.3815    6.5336    0.0000 H   0  0  0  0  0  0  0  0  0  0  0  0
    7.3681    7.9637    0.0000 H   0  0  0  0  0  0  0  0  0  0  0  0
    6.0529    2.1291    0.0000 H   0  0  0  0  0  0  0  0  0  0  0  0
   10.3479    5.3866    0.0000 H   0  0  0  0  0  0  0  0  0  0  0  0
   10.7995    6.1382    0.0000 H   0  0  0  0  0  0  0  0  0  0  0  0
   10.0479    6.5898    0.0000 H   0  0  0  0  0  0  0  0  0  0  0  0
    9.5696    8.3919    0.0000 H   0  0  0  0  0  0  0  0  0  0  0  0
    6.0529    6.8419    0.0000 H   0  0  0  0  0  0  0  0  0  0  0  0
    7.1103    9.3406    0.0000 H   0  0  0  0  0  0  0  0  0  0  0  0
    6.9940    8.5193    0.0000 H   0  0  0  0  0  0  0  0  0  0  0  0
    9.7447    9.0065    0.0000 H   0  0  0  0  0  0  0  0  0  0  0  0
    9.3535    9.7379    0.0000 H   0  0  0  0  0  0  0  0  0  0  0  0
   12.6867    3.2775    0.0000 H   0  0  0  0  0  0  0  0  0  0  0  0
   12.9028    4.0538    0.0000 H   0  0  0  0  0  0  0  0  0  0  0  0
    7.3276    0.4722    0.0000 H   0  0  0  0  0  0  0  0  0  0  0  0
   11.9894    7.1895    0.0000 H   0  0  0  0  0  0  0  0  0  0  0  0
   10.0583    6.7350    0.0000 H   0  0  0  0  0  0  0  0  0  0  0  0
   10.3825    7.4632    0.0000 H   0  0  0  0  0  0  0  0  0  0  0  0
   11.6590    1.6716    0.0000 H   0  0  0  0  0  0  0  0  0  0  0  0
    8.8932    0.0000    0.0000 H   0  0  0  0  0  0  0  0  0  0  0  0
    9.1602   10.1378    0.0000 H   0  0  0  0  0  0  0  0  0  0  0  0
    9.1040   10.9328    0.0000 H   0  0  0  0  0  0  0  0  0  0  0  0
    7.9311   10.7431    0.0000 H   0  0  0  0  0  0  0  0  0  0  0  0
    7.0545   10.7272    0.0000 H   0  0  0  0  0  0  0  0  0  0  0  0
    7.0704    9.8505    0.0000 H   0  0  0  0  0  0  0  0  0  0  0  0
    7.5966   11.6945    0.0000 H   0  0  0  0  0  0  0  0  0  0  0  0
    7.6528   10.8994    0.0000 H   0  0  0  0  0  0  0  0  0  0  0  0
   10.7628    8.3173    0.0000 H   0  0  0  0  0  0  0  0  0  0  0  0
   11.0870    9.0455    0.0000 H   0  0  0  0  0  0  0  0  0  0  0  0
   10.1147   10.4264    0.0000 H   0  0  0  0  0  0  0  0  0  0  0  0
    9.7905    9.6982    0.0000 H   0  0  0  0  0  0  0  0  0  0  0  0
    7.4745   13.4222    0.0000 H   0  0  0  0  0  0  0  0  0  0  0  0
    7.5307   12.6271    0.0000 H   0  0  0  0  0  0  0  0  0  0  0  0
    8.9160   13.5932    0.0000 H   0  0  0  0  0  0  0  0  0  0  0  0
    8.8598   14.3883    0.0000 H   0  0  0  0  0  0  0  0  0  0  0  0
   10.8192   12.0087    0.0000 H   0  0  0  0  0  0  0  0  0  0  0  0
   10.4950   11.2805    0.0000 H   0  0  0  0  0  0  0  0  0  0  0  0
   12.1718   11.4819    0.0000 H   0  0  0  0  0  0  0  0  0  0  0  0
   12.4960   12.2101    0.0000 H   0  0  0  0  0  0  0  0  0  0  0  0
    8.7938   15.3210    0.0000 H   0  0  0  0  0  0  0  0  0  0  0  0
    8.7376   16.1161    0.0000 H   0  0  0  0  0  0  0  0  0  0  0  0
   12.2971   13.3981    0.0000 H   0  0  0  0  0  0  0  0  0  0  0  0
   11.2291   13.2859    0.0000 H   0  0  0  0  0  0  0  0  0  0  0  0
    7.2303   16.8777    0.0000 H   0  0  0  0  0  0  0  0  0  0  0  0
    7.2865   16.0826    0.0000 H   0  0  0  0  0  0  0  0  0  0  0  0
    7.8228   17.9265    0.0000 H   0  0  0  0  0  0  0  0  0  0  0  0
    8.7883   17.4565    0.0000 H   0  0  0  0  0  0  0  0  0  0  0  0
  3 47  1  0  0  0  0
  3 53  1  0  0  0  0
  4 52  1  0  0  0  0
  4 55  1  0  0  0  0
  5 54  1  0  0  0  0
  5 57  1  0  0  0  0
  6 56  1  0  0  0  0
  6 59  1  0  0  0  0
  7 13  1  0  0  0  0
  7 14  1  0  0  0  0
  7 27  1  0  0  0  0
  7 34  1  0  0  0  0
  8 40  1  0  0  0  0
  8 41  1  0  0  0  0
  8 50  1  0  0  0  0
  8 51  1  0  0  0  0
  9 58  1  0  0  0  0
  9109  1  0  0  0  0
  9110  1  0  0  0  0
 10 60  1  0  0  0  0
 10113  1  0  0  0  0
 10114  1  0  0  0  0
 11 12  1  0  0  0  0
 11 13  1  0  0  0  0
 11 15  1  0  0  0  0
 11 17  1  0  0  0  0
 12 14  1  0  0  0  0
 12 16  1  0  0  0  0
 12 18  1  0  0  0  0
 13 61  1  0  0  0  0
 13 62  1  0  0  0  0
 14 63  1  0  0  0  0
 14 64  1  0  0  0  0
 15 19  2  0  0  0  0
 15 21  1  0  0  0  0
 16 20  2  0  0  0  0
 16 22  1  0  0  0  0
 17 23  1  0  0  0  0
 17 28  2  0  0  0  0
 18 24  1  0  0  0  0
 18 30  2  0  0  0  0
 19 20  1  0  0  0  0
 19 26  1  0  0  0  0
 20 25  1  0  0  0  0
 21 23  2  0  0  0  0
 21 33  1  0  0  0  0
 22 24  1  0  0  0  0
 22 38  2  0  0  0  0
 23 39  1  0  0  0  0
 24 65  1  0  0  0  0
 24 66  1  0  0  0  0
 25 29  1  0  0  0  0
 25 32  2  0  0  0  0
 26 29  1  0  0  0  0
 26 36  2  0  0  0  0
 27 47  1  0  0  0  0
 27 67  1  0  0  0  0
 27 68  1  0  0  0  0
 28 30  1  0  0  0  0
 28 45  1  0  0  0  0
 29 37  2  0  0  0  0
 30 70  1  0  0  0  0
 31 32  1  0  0  0  0
 31 35  1  0  0  0  0
 31 40  1  0  0  0  0
 31 69  1  0  0  0  0
 32 38  1  0  0  0  0
 33 36  1  0  0  0  0
 33 42  2  0  0  0  0
 34 71  1  0  0  0  0
 34 72  1  0  0  0  0
 34 73  1  0  0  0  0
 35 37  1  0  0  0  0
 35 41  1  0  0  0  0
 35 74  1  0  0  0  0
 36 43  1  0  0  0  0
 37 46  1  0  0  0  0
 38 75  1  0  0  0  0
 39 48  2  0  0  0  0
 39 49  1  0  0  0  0
 40 76  1  0  0  0  0
 40 77  1  0  0  0  0
 41 78  1  0  0  0  0
 41 79  1  0  0  0  0
 42 44  1  0  0  0  0
 42 48  1  0  0  0  0
 43 44  1  0  0  0  0
 43 46  2  0  0  0  0
 44 80  1  0  0  0  0
 44 81  1  0  0  0  0
 45 49  2  0  0  0  0
 45 82  1  0  0  0  0
 46 83  1  0  0  0  0
 47 84  1  0  0  0  0
 47 85  1  0  0  0  0
 48 86  1  0  0  0  0
 49 87  1  0  0  0  0
 50 52  1  0  0  0  0
 50 88  1  0  0  0  0
 50 89  1  0  0  0  0
 51 90  1  0  0  0  0
 51 91  1  0  0  0  0
 51 92  1  0  0  0  0
 52 93  1  0  0  0  0
 52 94  1  0  0  0  0
 53 54  1  0  0  0  0
 53 95  1  0  0  0  0
 53 96  1  0  0  0  0
 54 97  1  0  0  0  0
 54 98  1  0  0  0  0
 55 56  1  0  0  0  0
 55 99  1  0  0  0  0
 55100  1  0  0  0  0
 56101  1  0  0  0  0
 56102  1  0  0  0  0
 57 58  1  0  0  0  0
 57103  1  0  0  0  0
 57104  1  0  0  0  0
 58105  1  0  0  0  0
 58106  1  0  0  0  0
 59 60  1  0  0  0  0
 59107  1  0  0  0  0
 59108  1  0  0  0  0
 60111  1  0  0  0  0
 60112  1  0  0  0  0
M  CHG  4   1  -1   2  -1   7   1   8   1
M  END
> <PUBCHEM_COMPOUND_CID>
513707
> <PUBCHEM_COMPOUND_CANONICALIZED>
1
> <PUBCHEM_CACTVS_COMPLEXITY>
1730
> <PUBCHEM_CACTVS_HBOND_ACCEPTOR>
8
> <PUBCHEM_CACTVS_HBOND_DONOR>
2
> <PUBCHEM_CACTVS_ROTATABLE_BOND>
16
> <PUBCHEM_CACTVS_SUBSKEYS>
AAADcfB/uAAGAAAAAAAAAAAAAAAAAePGDBAwYMGDAAAAAHjBVAAAHgAQAAAADwDhmAYyAMNABACAAiBCAAACAAAgAAAIiIAIAIgLICKAkRGHIAAgkACaiAcQgMAPwAACAAAQAACAAAQAACAAAQAACAAAAA==
> <PUBCHEM_IUPAC_OPENEYE_NAME>
2-[2-[2-[30-[2-[2-(2-aminoethoxy)ethoxy]ethyl]-4,30-dimethyl-4,30-diazoniatetradecacyclo[18.16.1.118,21.02,6.07,35.09,33.011,32.013,27.016,26.022,36.023,34.024,28.028,32.025,38]octatriaconta-1(36),7(35),8,11,13(27),14,16,18(38),20(37),21,23,25,33-tridecaen-4-yl]ethoxy]ethoxy]ethanamine;dichloride
> <PUBCHEM_IUPAC_CAS_NAME>
2-[2-[2-[30-[2-[2-(2-aminoethoxy)ethoxy]ethyl]-4,30-dimethyl-4,30-diazoniatetradecacyclo[18.16.1.118,21.02,6.07,35.09,33.011,32.013,27.016,26.022,36.023,34.024,28.028,32.025,38]octatriaconta-1(36),7(35),8,11,13(27),14,16,18(38),20(37),21,23,25,33-tridecaen-4-yl]ethoxy]ethoxy]ethanamine;dichloride
> <PUBCHEM_IUPAC_NAME_MARKUP>
2-[2-[2-[30-[2-[2-(2-aminoethoxy)ethoxy]ethyl]-4,30-dimethyl-4,30-diazoniatetradecacyclo[18.16.1.1<SUP>18,21</SUP>.0<SUP>2,6</SUP>.0<SUP>7,35</SUP>.0<SUP>9,33</SUP>.0<SUP>11,32</SUP>.0<SUP>13,27</SUP>.0<SUP>16,26</SUP>.0<SUP>22,36</SUP>.0<SUP>23,34</SUP>.0<SUP>24,28</SUP>.0<SUP>28,32</SUP>.0<SUP>25,38</SUP>]octatriaconta-1(36),7(35),8,11,13(27),14,16,18(38),20(37),21,23,25,33-tridecaen-4-yl]ethoxy]ethoxy]ethanamine;dichloride
> <PUBCHEM_IUPAC_NAME>
2-[2-[2-[30-[2-[2-(2-aminoethoxy)ethoxy]ethyl]-4,30-dimethyl-4,30-diazoniatetradecacyclo[18.16.1.118,21.02,6.07,35.09,33.011,32.013,27.016,26.022,36.023,34.024,28.028,32.025,38]octatriaconta-1(36),7(35),8,11,13(27),14,16,18(38),20(37),21,23,25,33-tridecaen-4-yl]ethoxy]ethoxy]ethanamine;dichloride
> <PUBCHEM_IUPAC_SYSTEMATIC_NAME>
2-[2-[2-[30-[2-[2-(2-azanylethoxy)ethoxy]ethyl]-4,30-dimethyl-4,30-diazoniatetradecacyclo[18.16.1.118,21.02,6.07,35.09,33.011,32.013,27.016,26.022,36.023,34.024,28.028,32.025,38]octatriaconta-1(36),7(35),8,11,13(27),14,16,18(38),20(37),21,23,25,33-tridecaen-4-yl]ethoxy]ethoxy]ethanamine;dichloride
> <PUBCHEM_IUPAC_TRADITIONAL_NAME>
2-[2-[2-[4-[2-[2-(2-aminoethoxy)ethoxy]ethyl]-4,30-dimethyl-4,30-diazoniatetradecacyclo[18.16.1.118,21.02,6.07,35.09,33.011,32.013,27.016,26.022,36.023,34.024,28.028,32.025,38]octatriaconta-1(36),7(35),8,11,13(27),14,16,18(38),20(37),21,23,25,33-tridecaen-30-yl]ethoxy]ethoxy]ethylamine;dichloride
> <PUBCHEM_IUPAC_INCHI>
InChI=1S/C50H54N4O4.2ClH/c1-53(7-11-57-15-13-55-9-5-51)23-35-33-21-30-18-29-17-27-3-4-28-19-32-20-31-22-34(36(35)24-53)41-40(33)42-37(30)38(29)43-39(27)46(28)50-26-54(2,8-12-58-16-14-56-10-6-52)25-49(32,50)47(31)44(41)45(42)48(43)50;;/h3-4,17,19,21-22,35-36H,5-16,18,20,23-26,51-52H2,1-2H3;2*1H/q+2;;/p-2
> <PUBCHEM_IUPAC_INCHIKEY>
ZJXLRCJANHMBKY-UHFFFAOYSA-L
> <PUBCHEM_EXACT_MASS>
844.3522116
> <PUBCHEM_MOLECULAR_FORMULA>
C50H54Cl2N4O4
> <PUBCHEM_MOLECULAR_WEIGHT>
845.9
> <PUBCHEM_OPENEYE_CAN_SMILES>
C[N+]1(CC2C(C1)C3=C4C5=C2C=C6CC7=CC8=C9C1=C2C%10=C(CC(=C3)C%10=C4C3=C2C92C7(C6=C53)C[N+](C2)(C)CCOCCOCCN)C=C1C=C8)CCOCCOCCN.[Cl-].[Cl-]
> <PUBCHEM_OPENEYE_ISO_SMILES>
C[N+]1(CC2C(C1)C3=C4C5=C2C=C6CC7=CC8=C9C1=C2C%10=C(CC(=C3)C%10=C4C3=C2C92C7(C6=C53)C[N+](C2)(C)CCOCCOCCN)C=C1C=C8)CCOCCOCCN.[Cl-].[Cl-]
> <PUBCHEM_CACTVS_TPSA>
89
> <PUBCHEM_MONOISOTOPIC_WEIGHT>
844.3522116
> <PUBCHEM_TOTAL_CHARGE>
0
> <PUBCHEM_HEAVY_ATOM_COUNT>
60
> <PUBCHEM_ATOM_DEF_STEREO_COUNT>
0
> <PUBCHEM_ATOM_UDEF_STEREO_COUNT>
6
> <PUBCHEM_BOND_DEF_STEREO_COUNT>
0
> <PUBCHEM_BOND_UDEF_STEREO_COUNT>
0
> <PUBCHEM_ISOTOPIC_ATOM_COUNT>
0
> <PUBCHEM_COMPONENT_COUNT>
3
> <PUBCHEM_CACTVS_TAUTO_COUNT>
-1
> <PUBCHEM_COORDINATE_TYPE>
1
5
255
> <PUBCHEM_BONDANNOTATIONS>
11  13  3
12  14  3
15  19  8
15  21  8
16  20  8
16  22  8
17  23  8
17  28  8
19  26  8
20  25  8
21  23  8
21  33  8
22  38  8
23  39  8
25  32  8
26  29  8
26  36  8
28  45  8
29  37  8
31  40  3
32  38  8
33  36  8
33  42  8
35  41  3
36  43  8
37  46  8
39  48  8
39  49  8
42  48  8
43  46  8
45  49  8
7  34  3
8  51  3
$$$$
