513734
  -OEChem-10302200282D
 71 73  0     1  0  0  0  0  0999 V2000
    8.9962   -3.7673    0.0000 S   0  0  0  0  0  0  0  0  0  0  0  0
    8.4962   -4.6334    0.0000 O   0  0  0  0  0  0  0  0  0  0  0  0
    9.4962   -2.9013    0.0000 O   0  0  0  0  0  0  0  0  0  0  0  0
    8.9962   -0.7673    0.0000 O   0  0  0  0  0  0  0  0  0  0  0  0
    9.8622   -2.2673    0.0000 O   0  0  0  0  0  0  0  0  0  0  0  0
    6.3981    2.7327    0.0000 O   0  0  0  0  0  0  0  0  0  0  0  0
    8.1301   -3.2673    0.0000 N   0  0  3  0  0  0  0  0  0  0  0  0
    5.5321    1.2327    0.0000 N   0  0  0  0  0  0  0  0  0  0  0  0
    4.6660    2.7327    0.0000 N   0  0  0  0  0  0  0  0  0  0  0  0
    5.5321    4.2327    0.0000 N   0  0  0  0  0  0  0  0  0  0  0  0
    8.1301   -2.2673    0.0000 C   0  0  1  0  0  0  0  0  0  0  0  0
    7.2641   -3.7673    0.0000 C   0  0  0  0  0  0  0  0  0  0  0  0
    7.2641   -1.7673    0.0000 C   0  0  0  0  0  0  0  0  0  0  0  0
    6.3981   -3.2673    0.0000 C   0  0  0  0  0  0  0  0  0  0  0  0
    7.2641   -0.7673    0.0000 C   0  0  0  0  0  0  0  0  0  0  0  0
    6.3981   -0.2673    0.0000 C   0  0  0  0  0  0  0  0  0  0  0  0
    8.9962   -1.7673    0.0000 C   0  0  0  0  0  0  0  0  0  0  0  0
    9.8622   -4.2673    0.0000 C   0  0  0  0  0  0  0  0  0  0  0  0
    5.5321   -3.7673    0.0000 C   0  0  0  0  0  0  0  0  0  0  0  0
    6.3981   -2.2673    0.0000 C   0  0  0  0  0  0  0  0  0  0  0  0
    6.3981    0.7327    0.0000 C   0  0  0  0  0  0  0  0  0  0  0  0
    9.8622   -5.2673    0.0000 C   0  0  0  0  0  0  0  0  0  0  0  0
   10.7282   -3.7673    0.0000 C   0  0  0  0  0  0  0  0  0  0  0  0
   10.7282   -5.7673    0.0000 C   0  0  0  0  0  0  0  0  0  0  0  0
   11.5942   -4.2673    0.0000 C   0  0  0  0  0  0  0  0  0  0  0  0
   11.5942   -5.2673    0.0000 C   0  0  0  0  0  0  0  0  0  0  0  0
    5.5321    2.2327    0.0000 C   0  0  0  0  0  0  0  0  0  0  0  0
   12.4603   -5.7673    0.0000 C   0  0  0  0  0  0  0  0  0  0  0  0
    4.6660    3.7327    0.0000 C   0  0  0  0  0  0  0  0  0  0  0  0
    3.8000    4.2327    0.0000 C   0  0  0  0  0  0  0  0  0  0  0  0
    3.8000    5.2327    0.0000 C   0  0  0  0  0  0  0  0  0  0  0  0
    2.9061    3.6980    0.0000 C   0  0  0  0  0  0  0  0  0  0  0  0
    4.6660    5.7327    0.0000 C   0  0  0  0  0  0  0  0  0  0  0  0
    2.9061    5.7673    0.0000 C   0  0  0  0  0  0  0  0  0  0  0  0
    5.5321    5.2327    0.0000 C   0  0  0  0  0  0  0  0  0  0  0  0
    2.0000    4.2118    0.0000 C   0  0  0  0  0  0  0  0  0  0  0  0
    2.0000    5.2535    0.0000 C   0  0  0  0  0  0  0  0  0  0  0  0
    7.5932   -2.5773    0.0000 H   0  0  0  0  0  0  0  0  0  0  0  0
    6.8656   -4.2423    0.0000 H   0  0  0  0  0  0  0  0  0  0  0  0
    7.6626   -4.2423    0.0000 H   0  0  0  0  0  0  0  0  0  0  0  0
    6.6535   -1.6597    0.0000 H   0  0  0  0  0  0  0  0  0  0  0  0
    7.0521   -2.3499    0.0000 H   0  0  0  0  0  0  0  0  0  0  0  0
    6.3981   -3.8873    0.0000 H   0  0  0  0  0  0  0  0  0  0  0  0
    7.8747   -0.8750    0.0000 H   0  0  0  0  0  0  0  0  0  0  0  0
    7.4762   -0.1847    0.0000 H   0  0  0  0  0  0  0  0  0  0  0  0
    5.7875   -0.1597    0.0000 H   0  0  0  0  0  0  0  0  0  0  0  0
    6.1860   -0.8499    0.0000 H   0  0  0  0  0  0  0  0  0  0  0  0
    5.2221   -3.2304    0.0000 H   0  0  0  0  0  0  0  0  0  0  0  0
    4.9951   -4.0773    0.0000 H   0  0  0  0  0  0  0  0  0  0  0  0
    5.8421   -4.3043    0.0000 H   0  0  0  0  0  0  0  0  0  0  0  0
    7.0181   -2.2673    0.0000 H   0  0  0  0  0  0  0  0  0  0  0  0
    6.3981   -1.6473    0.0000 H   0  0  0  0  0  0  0  0  0  0  0  0
    5.7781   -2.2673    0.0000 H   0  0  0  0  0  0  0  0  0  0  0  0
    7.0087    0.6250    0.0000 H   0  0  0  0  0  0  0  0  0  0  0  0
    6.6101    1.3153    0.0000 H   0  0  0  0  0  0  0  0  0  0  0  0
    9.3252   -5.5773    0.0000 H   0  0  0  0  0  0  0  0  0  0  0  0
   10.7282   -3.1473    0.0000 H   0  0  0  0  0  0  0  0  0  0  0  0
    4.9951    0.9227    0.0000 H   0  0  0  0  0  0  0  0  0  0  0  0
    9.5331   -0.4573    0.0000 H   0  0  0  0  0  0  0  0  0  0  0  0
   10.7282   -6.3873    0.0000 H   0  0  0  0  0  0  0  0  0  0  0  0
   12.1312   -3.9573    0.0000 H   0  0  0  0  0  0  0  0  0  0  0  0
   12.1503   -6.3043    0.0000 H   0  0  0  0  0  0  0  0  0  0  0  0
   12.9972   -6.0773    0.0000 H   0  0  0  0  0  0  0  0  0  0  0  0
   12.7703   -5.2304    0.0000 H   0  0  0  0  0  0  0  0  0  0  0  0
    4.1291    2.4227    0.0000 H   0  0  0  0  0  0  0  0  0  0  0  0
    2.9132    3.0780    0.0000 H   0  0  0  0  0  0  0  0  0  0  0  0
    4.6660    6.3527    0.0000 H   0  0  0  0  0  0  0  0  0  0  0  0
    2.9132    6.3873    0.0000 H   0  0  0  0  0  0  0  0  0  0  0  0
    6.0690    5.5427    0.0000 H   0  0  0  0  0  0  0  0  0  0  0  0
    1.4643    3.8998    0.0000 H   0  0  0  0  0  0  0  0  0  0  0  0
    1.4643    5.5656    0.0000 H   0  0  0  0  0  0  0  0  0  0  0  0
  1  2  2  0  0  0  0
  1  3  2  0  0  0  0
  1  7  1  0  0  0  0
  1 18  1  0  0  0  0
  4 17  1  0  0  0  0
  4 59  1  0  0  0  0
  5 17  2  0  0  0  0
  6 27  2  0  0  0  0
 11  7  1  1  0  0  0
  7 12  1  0  0  0  0
  8 21  1  0  0  0  0
  8 27  1  0  0  0  0
  8 58  1  0  0  0  0
  9 27  1  0  0  0  0
  9 29  1  0  0  0  0
  9 65  1  0  0  0  0
 10 29  2  0  0  0  0
 10 35  1  0  0  0  0
 11 13  1  0  0  0  0
 11 17  1  0  0  0  0
 11 38  1  0  0  0  0
 12 14  1  0  0  0  0
 12 39  1  0  0  0  0
 12 40  1  0  0  0  0
 13 15  1  0  0  0  0
 13 41  1  0  0  0  0
 13 42  1  0  0  0  0
 14 19  1  0  0  0  0
 14 20  1  0  0  0  0
 14 43  1  0  0  0  0
 15 16  1  0  0  0  0
 15 44  1  0  0  0  0
 15 45  1  0  0  0  0
 16 21  1  0  0  0  0
 16 46  1  0  0  0  0
 16 47  1  0  0  0  0
 18 22  2  0  0  0  0
 18 23  1  0  0  0  0
 19 48  1  0  0  0  0
 19 49  1  0  0  0  0
 19 50  1  0  0  0  0
 20 51  1  0  0  0  0
 20 52  1  0  0  0  0
 20 53  1  0  0  0  0
 21 54  1  0  0  0  0
 21 55  1  0  0  0  0
 22 24  1  0  0  0  0
 22 56  1  0  0  0  0
 23 25  2  0  0  0  0
 23 57  1  0  0  0  0
 24 26  2  0  0  0  0
 24 60  1  0  0  0  0
 25 26  1  0  0  0  0
 25 61  1  0  0  0  0
 26 28  1  0  0  0  0
 28 62  1  0  0  0  0
 28 63  1  0  0  0  0
 28 64  1  0  0  0  0
 29 30  1  0  0  0  0
 30 31  1  0  0  0  0
 30 32  2  0  0  0  0
 31 33  1  0  0  0  0
 31 34  2  0  0  0  0
 32 36  1  0  0  0  0
 32 66  1  0  0  0  0
 33 35  2  0  0  0  0
 33 67  1  0  0  0  0
 34 37  1  0  0  0  0
 34 68  1  0  0  0  0
 35 69  1  0  0  0  0
 36 37  2  0  0  0  0
 36 70  1  0  0  0  0
 37 71  1  0  0  0  0
M  END
> <PUBCHEM_COMPOUND_CID>
513734
> <PUBCHEM_COMPOUND_CANONICALIZED>
1
> <PUBCHEM_CACTVS_COMPLEXITY>
838
> <PUBCHEM_CACTVS_HBOND_ACCEPTOR>
7
> <PUBCHEM_CACTVS_HBOND_DONOR>
3
> <PUBCHEM_CACTVS_ROTATABLE_BOND>
12
> <PUBCHEM_CACTVS_SUBSKEYS>
AAADcfB7uABAAAAAAAAAAAAAAAAAAAAAAAA8YIAAAAAAAACx9AAAHgQQSAAADSjB2gQ/udLIEgKoAjL3fHDCgDkxAiAJ2Lm4ZJiKIPLAkbGEYAhslwLYyCeYyIAOkAAAAAAQAAAgAAAAACAAAAAAAAAAAA==
> <PUBCHEM_IUPAC_OPENEYE_NAME>
(2S)-2-[isobutyl(p-tolylsulfonyl)amino]-6-(1-isoquinolylcarbamoylamino)hexanoic acid
> <PUBCHEM_IUPAC_CAS_NAME>
(2S)-6-[[(1-isoquinolinylamino)-oxomethyl]amino]-2-[(4-methylphenyl)sulfonyl-(2-methylpropyl)amino]hexanoic acid
> <PUBCHEM_IUPAC_NAME_MARKUP>
(2<I>S</I>)-6-(isoquinolin-1-ylcarbamoylamino)-2-[(4-methylphenyl)sulfonyl-(2-methylpropyl)amino]hexanoic acid
> <PUBCHEM_IUPAC_NAME>
(2S)-6-(isoquinolin-1-ylcarbamoylamino)-2-[(4-methylphenyl)sulfonyl-(2-methylpropyl)amino]hexanoic acid
> <PUBCHEM_IUPAC_SYSTEMATIC_NAME>
(2S)-6-(isoquinolin-1-ylcarbamoylamino)-2-[(4-methylphenyl)sulfonyl-(2-methylpropyl)amino]hexanoic acid
> <PUBCHEM_IUPAC_TRADITIONAL_NAME>
(2S)-2-[isobutyl(tosyl)amino]-6-(1-isoquinolylcarbamoylamino)hexanoic acid
> <PUBCHEM_IUPAC_INCHI>
InChI=1S/C27H34N4O5S/c1-19(2)18-31(37(35,36)22-13-11-20(3)12-14-22)24(26(32)33)10-6-7-16-29-27(34)30-25-23-9-5-4-8-21(23)15-17-28-25/h4-5,8-9,11-15,17,19,24H,6-7,10,16,18H2,1-3H3,(H,32,33)(H2,28,29,30,34)/t24-/m0/s1
> <PUBCHEM_IUPAC_INCHIKEY>
GZWLASOSDMFIIC-DEOSSOPVSA-N
> <PUBCHEM_XLOGP3_AA>
4.7
> <PUBCHEM_EXACT_MASS>
526.22499137
> <PUBCHEM_MOLECULAR_FORMULA>
C27H34N4O5S
> <PUBCHEM_MOLECULAR_WEIGHT>
526.6
> <PUBCHEM_OPENEYE_CAN_SMILES>
CC1=CC=C(C=C1)S(=O)(=O)N(CC(C)C)C(CCCCNC(=O)NC2=NC=CC3=CC=CC=C32)C(=O)O
> <PUBCHEM_OPENEYE_ISO_SMILES>
CC1=CC=C(C=C1)S(=O)(=O)N(CC(C)C)[C@@H](CCCCNC(=O)NC2=NC=CC3=CC=CC=C32)C(=O)O
> <PUBCHEM_CACTVS_TPSA>
137
> <PUBCHEM_MONOISOTOPIC_WEIGHT>
526.22499137
> <PUBCHEM_TOTAL_CHARGE>
0
> <PUBCHEM_HEAVY_ATOM_COUNT>
37
> <PUBCHEM_ATOM_DEF_STEREO_COUNT>
1
> <PUBCHEM_ATOM_UDEF_STEREO_COUNT>
0
> <PUBCHEM_BOND_DEF_STEREO_COUNT>
0
> <PUBCHEM_BOND_UDEF_STEREO_COUNT>
0
> <PUBCHEM_ISOTOPIC_ATOM_COUNT>
0
> <PUBCHEM_COMPONENT_COUNT>
1
> <PUBCHEM_CACTVS_TAUTO_COUNT>
-1
> <PUBCHEM_COORDINATE_TYPE>
1
5
255
> <PUBCHEM_BONDANNOTATIONS>
10  29  8
10  35  8
18  22  8
18  23  8
22  24  8
23  25  8
24  26  8
25  26  8
29  30  8
30  31  8
30  32  8
31  33  8
31  34  8
32  36  8
33  35  8
34  37  8
36  37  8
11  7  5
$$$$
