513713
  -OEChem-10302200282D
128141  0     1  0  0  0  0  0999 V2000
    4.8608   -6.9732    0.0000 O   0  0  0  0  0  0  0  0  0  0  0  0
    5.6437    7.5693    0.0000 O   0  0  0  0  0  0  0  0  0  0  0  0
    5.3408   -9.5751    0.0000 O   0  0  0  0  0  0  0  0  0  0  0  0
    4.3249    9.8630    0.0000 O   0  0  0  0  0  0  0  0  0  0  0  0
    5.3007  -14.7711    0.0000 O   0  0  0  0  0  0  0  0  0  0  0  0
    2.3141  -13.0160    0.0000 O   0  0  0  0  0  0  0  0  0  0  0  0
    3.8074  -13.8935    0.0000 O   0  0  0  0  0  0  0  0  0  0  0  0
    3.8074  -13.8935    0.0000 O   0  0  0  0  0  0  0  0  0  0  0  0
    2.6328   14.7759    0.0000 O   0  0  0  0  0  0  0  0  0  0  0  0
    6.0333   14.1152    0.0000 O   0  0  0  0  0  0  0  0  0  0  0  0
    4.3330   14.4455    0.0000 O   0  0  0  0  0  0  0  0  0  0  0  0
    4.3330   14.4455    0.0000 O   0  0  0  0  0  0  0  0  0  0  0  0
    5.3808   -4.3791    0.0000 N   0  0  3  0  0  0  0  0  0  0  0  0
    6.0170    4.9500    0.0000 N   0  0  3  0  0  0  0  0  0  0  0  0
    4.8207  -12.1692    0.0000 N   0  0  0  0  0  0  0  0  0  0  0  0
    3.9516   12.4822    0.0000 N   0  0  0  0  0  0  0  0  0  0  0  0
    6.1350   -2.0678    0.0000 C   0  0  3  0  0  0  0  0  0  0  0  0
    7.0330   -2.5955    0.0000 C   0  0  3  0  0  0  0  0  0  0  0  0
    6.1511   -1.0263    0.0000 C   0  0  0  0  0  0  0  0  0  0  0  0
    4.7923   -1.9702    0.0000 C   0  0  0  0  0  0  0  0  0  0  0  0
    4.8282   -2.9201    0.0000 C   0  0  0  0  0  0  0  0  0  0  0  0
    5.2850   -0.5263    0.0000 C   0  0  0  0  0  0  0  0  0  0  0  0
    6.9243   -4.1519    0.0000 C   0  0  0  0  0  0  0  0  0  0  0  0
    4.3911   -1.0609    0.0000 C   0  0  0  0  0  0  0  0  0  0  0  0
    7.0171   -0.5263    0.0000 C   0  0  0  0  0  0  0  0  0  0  0  0
    5.2850    0.4737    0.0000 C   0  0  0  0  0  0  0  0  0  0  0  0
    7.9351   -2.0747    0.0000 C   0  0  0  0  0  0  0  0  0  0  0  0
    7.9271   -1.0331    0.0000 C   0  0  0  0  0  0  0  0  0  0  0  0
    7.0171    0.4737    0.0000 C   0  0  0  0  0  0  0  0  0  0  0  0
    6.1511    0.9737    0.0000 C   0  0  0  0  0  0  0  0  0  0  0  0
    3.4850   -0.5471    0.0000 C   0  0  0  0  0  0  0  0  0  0  0  0
    4.3911    1.0084    0.0000 C   0  0  0  0  0  0  0  0  0  0  0  0
    6.5381   -3.5002    0.0000 C   0  0  0  0  0  0  0  0  0  0  0  0
    3.9875   -2.6406    0.0000 C   0  0  0  0  0  0  0  0  0  0  0  0
    5.7860    1.8980    0.0000 C   0  0  0  0  0  0  0  0  0  0  0  0
    3.4850    0.4945    0.0000 C   0  0  0  0  0  0  0  0  0  0  0  0
    4.7923    1.9176    0.0000 C   0  0  0  0  0  0  0  0  0  0  0  0
    7.7084    1.1732    0.0000 C   0  0  0  0  0  0  0  0  0  0  0  0
    8.5139   -0.2310    0.0000 C   0  0  0  0  0  0  0  0  0  0  0  0
    6.2117    3.3878    0.0000 C   0  0  3  0  0  0  0  0  0  0  0  0
    5.2515    3.5744    0.0000 C   0  0  3  0  0  0  0  0  0  0  0  0
    6.5781    2.4809    0.0000 C   0  0  0  0  0  0  0  0  0  0  0  0
    2.7489   -1.2922    0.0000 C   0  0  0  0  0  0  0  0  0  0  0  0
    3.9875    2.5881    0.0000 C   0  0  0  0  0  0  0  0  0  0  0  0
    5.5228   -3.6800    0.0000 C   0  0  0  0  0  0  0  0  0  0  0  0
    2.7489    1.2397    0.0000 C   0  0  0  0  0  0  0  0  0  0  0  0
    2.9933   -2.3108    0.0000 C   0  0  0  0  0  0  0  0  0  0  0  0
    2.0392    0.4689    0.0000 C   0  0  0  0  0  0  0  0  0  0  0  0
    4.8741   -5.2412    0.0000 C   0  0  0  0  0  0  0  0  0  0  0  0
    7.4983    2.1339    0.0000 C   0  0  0  0  0  0  0  0  0  0  0  0
    2.9933    2.2582    0.0000 C   0  0  0  0  0  0  0  0  0  0  0  0
    6.6808    4.2395    0.0000 C   0  0  0  0  0  0  0  0  0  0  0  0
    5.1354    4.5398    0.0000 C   0  0  0  0  0  0  0  0  0  0  0  0
    5.3674   -6.1111    0.0000 C   0  0  0  0  0  0  0  0  0  0  0  0
    6.2077    5.9317    0.0000 C   0  0  0  0  0  0  0  0  0  0  0  0
    5.4529    6.5877    0.0000 C   0  0  0  0  0  0  0  0  0  0  0  0
    5.3541   -7.8431    0.0000 C   0  0  0  0  0  0  0  0  0  0  0  0
    4.8474   -8.7052    0.0000 C   0  0  0  0  0  0  0  0  0  0  0  0
    4.8889    8.2253    0.0000 C   0  0  0  0  0  0  0  0  0  0  0  0
    5.0796    9.2070    0.0000 C   0  0  0  0  0  0  0  0  0  0  0  0
    4.8341  -10.4372    0.0000 C   0  0  0  0  0  0  0  0  0  0  0  0
    5.3274  -11.3071    0.0000 C   0  0  0  0  0  0  0  0  0  0  0  0
    4.5156   10.8446    0.0000 C   0  0  0  0  0  0  0  0  0  0  0  0
    3.7608   11.5006    0.0000 C   0  0  0  0  0  0  0  0  0  0  0  0
    5.3140  -13.0391    0.0000 C   0  0  0  0  0  0  0  0  0  0  0  0
    3.8208  -12.1615    0.0000 C   0  0  0  0  0  0  0  0  0  0  0  0
    4.8074  -13.9012    0.0000 C   0  0  0  0  0  0  0  0  0  0  0  0
    3.3141  -13.0237    0.0000 C   0  0  0  0  0  0  0  0  0  0  0  0
    3.1968   13.1382    0.0000 C   0  0  0  0  0  0  0  0  0  0  0  0
    4.8970   12.8079    0.0000 C   0  0  0  0  0  0  0  0  0  0  0  0
    3.3875   14.1199    0.0000 C   0  0  0  0  0  0  0  0  0  0  0  0
    5.0878   13.7895    0.0000 C   0  0  0  0  0  0  0  0  0  0  0  0
    4.5278   -2.3778    0.0000 H   0  0  0  0  0  0  0  0  0  0  0  0
    4.2657   -3.1808    0.0000 H   0  0  0  0  0  0  0  0  0  0  0  0
    6.9703   -4.7702    0.0000 H   0  0  0  0  0  0  0  0  0  0  0  0
    7.5443   -4.1505    0.0000 H   0  0  0  0  0  0  0  0  0  0  0  0
    8.4732   -2.3826    0.0000 H   0  0  0  0  0  0  0  0  0  0  0  0
    6.8998   -4.0038    0.0000 H   0  0  0  0  0  0  0  0  0  0  0  0
    8.9585   -0.6631    0.0000 H   0  0  0  0  0  0  0  0  0  0  0  0
    9.0036    0.1492    0.0000 H   0  0  0  0  0  0  0  0  0  0  0  0
    6.8306    3.3508    0.0000 H   0  0  0  0  0  0  0  0  0  0  0  0
    4.6790    3.8125    0.0000 H   0  0  0  0  0  0  0  0  0  0  0  0
    5.3936   -4.2864    0.0000 H   0  0  0  0  0  0  0  0  0  0  0  0
    2.5368   -2.7302    0.0000 H   0  0  0  0  0  0  0  0  0  0  0  0
    1.6499    0.9514    0.0000 H   0  0  0  0  0  0  0  0  0  0  0  0
    1.5046    0.1549    0.0000 H   0  0  0  0  0  0  0  0  0  0  0  0
    4.4023   -4.8391    0.0000 H   0  0  0  0  0  0  0  0  0  0  0  0
    4.3961   -5.6361    0.0000 H   0  0  0  0  0  0  0  0  0  0  0  0
    7.9674    2.5394    0.0000 H   0  0  0  0  0  0  0  0  0  0  0  0
    7.1894    3.8850    0.0000 H   0  0  0  0  0  0  0  0  0  0  0  0
    7.0868    4.7081    0.0000 H   0  0  0  0  0  0  0  0  0  0  0  0
    2.5368    2.6777    0.0000 H   0  0  0  0  0  0  0  0  0  0  0  0
    4.9343    5.1263    0.0000 H   0  0  0  0  0  0  0  0  0  0  0  0
    4.5310    4.4015    0.0000 H   0  0  0  0  0  0  0  0  0  0  0  0
    5.8393   -6.5133    0.0000 H   0  0  0  0  0  0  0  0  0  0  0  0
    5.8455   -5.7162    0.0000 H   0  0  0  0  0  0  0  0  0  0  0  0
    6.7865    5.7095    0.0000 H   0  0  0  0  0  0  0  0  0  0  0  0
    6.5270    6.4632    0.0000 H   0  0  0  0  0  0  0  0  0  0  0  0
    4.8741    6.8098    0.0000 H   0  0  0  0  0  0  0  0  0  0  0  0
    5.1337    6.0562    0.0000 H   0  0  0  0  0  0  0  0  0  0  0  0
    5.8260   -8.2453    0.0000 H   0  0  0  0  0  0  0  0  0  0  0  0
    5.8321   -7.4482    0.0000 H   0  0  0  0  0  0  0  0  0  0  0  0
    4.3756   -8.3031    0.0000 H   0  0  0  0  0  0  0  0  0  0  0  0
    4.3694   -9.1001    0.0000 H   0  0  0  0  0  0  0  0  0  0  0  0
    4.3101    8.4475    0.0000 H   0  0  0  0  0  0  0  0  0  0  0  0
    4.5696    7.6938    0.0000 H   0  0  0  0  0  0  0  0  0  0  0  0
    5.6585    8.9848    0.0000 H   0  0  0  0  0  0  0  0  0  0  0  0
    5.3989    9.7384    0.0000 H   0  0  0  0  0  0  0  0  0  0  0  0
    4.3622  -10.0351    0.0000 H   0  0  0  0  0  0  0  0  0  0  0  0
    4.3561  -10.8321    0.0000 H   0  0  0  0  0  0  0  0  0  0  0  0
    5.7992  -11.7093    0.0000 H   0  0  0  0  0  0  0  0  0  0  0  0
    5.8054  -10.9122    0.0000 H   0  0  0  0  0  0  0  0  0  0  0  0
    5.0944   10.6225    0.0000 H   0  0  0  0  0  0  0  0  0  0  0  0
    4.8349   11.3761    0.0000 H   0  0  0  0  0  0  0  0  0  0  0  0
    3.1820   11.7227    0.0000 H   0  0  0  0  0  0  0  0  0  0  0  0
    3.4416   10.9691    0.0000 H   0  0  0  0  0  0  0  0  0  0  0  0
    5.7859  -13.4413    0.0000 H   0  0  0  0  0  0  0  0  0  0  0  0
    5.7920  -12.6442    0.0000 H   0  0  0  0  0  0  0  0  0  0  0  0
    3.9331  -11.5518    0.0000 H   0  0  0  0  0  0  0  0  0  0  0  0
    3.2398  -11.9450    0.0000 H   0  0  0  0  0  0  0  0  0  0  0  0
    2.6180   13.3604    0.0000 H   0  0  0  0  0  0  0  0  0  0  0  0
    2.8775   12.6068    0.0000 H   0  0  0  0  0  0  0  0  0  0  0  0
    4.9941   12.1955    0.0000 H   0  0  0  0  0  0  0  0  0  0  0  0
    5.5170   12.7971    0.0000 H   0  0  0  0  0  0  0  0  0  0  0  0
    5.9207  -14.7759    0.0000 H   0  0  0  0  0  0  0  0  0  0  0  0
    2.0000  -13.5505    0.0000 H   0  0  0  0  0  0  0  0  0  0  0  0
    2.0466   14.5740    0.0000 H   0  0  0  0  0  0  0  0  0  0  0  0
    6.1515   14.7238    0.0000 H   0  0  0  0  0  0  0  0  0  0  0  0
  1 54  1  0  0  0  0
  1 57  1  0  0  0  0
  2 56  1  0  0  0  0
  2 59  1  0  0  0  0
  3 58  1  0  0  0  0
  3 61  1  0  0  0  0
  4 60  1  0  0  0  0
  4 63  1  0  0  0  0
  5 67  1  0  0  0  0
  5125  1  0  0  0  0
  6 68  1  0  0  0  0
  6126  1  0  0  0  0
  7 67  2  0  0  0  0
  8 68  2  0  0  0  0
  9 71  1  0  0  0  0
  9127  1  0  0  0  0
 10 72  1  0  0  0  0
 10128  1  0  0  0  0
 11 71  2  0  0  0  0
 12 72  2  0  0  0  0
 13 21  1  0  0  0  0
 13 23  1  0  0  0  0
 13 49  1  0  0  0  0
 14 52  1  0  0  0  0
 14 53  1  0  0  0  0
 14 55  1  0  0  0  0
 15 62  1  0  0  0  0
 15 65  1  0  0  0  0
 15 66  1  0  0  0  0
 16 64  1  0  0  0  0
 16 69  1  0  0  0  0
 16 70  1  0  0  0  0
 17 18  1  0  0  0  0
 17 19  1  0  0  0  0
 17 20  1  0  0  0  0
 17 21  1  0  0  0  0
 18 23  1  0  0  0  0
 18 27  1  0  0  0  0
 18 33  1  0  0  0  0
 19 22  1  0  0  0  0
 19 25  2  0  0  0  0
 20 24  1  0  0  0  0
 20 34  2  0  0  0  0
 21 73  1  0  0  0  0
 21 74  1  0  0  0  0
 22 24  2  0  0  0  0
 22 26  1  0  0  0  0
 23 75  1  0  0  0  0
 23 76  1  0  0  0  0
 24 31  1  0  0  0  0
 25 28  1  0  0  0  0
 25 29  1  0  0  0  0
 26 30  1  0  0  0  0
 26 32  2  0  0  0  0
 27 28  2  0  0  0  0
 27 77  1  0  0  0  0
 28 39  1  0  0  0  0
 29 30  2  0  0  0  0
 29 38  1  0  0  0  0
 30 35  1  0  0  0  0
 31 36  2  0  0  0  0
 31 43  1  0  0  0  0
 32 36  1  0  0  0  0
 32 37  1  0  0  0  0
 33 45  2  0  0  0  0
 33 78  1  0  0  0  0
 34 45  1  0  0  0  0
 34 47  1  0  0  0  0
 35 37  1  0  0  0  0
 35 42  2  0  0  0  0
 36 46  1  0  0  0  0
 37 44  2  0  0  0  0
 38 39  1  0  0  0  0
 38 50  2  0  0  0  0
 39 79  1  0  0  0  0
 39 80  1  0  0  0  0
 40 41  1  0  0  0  0
 40 42  1  0  0  0  0
 40 52  1  0  0  0  0
 40 81  1  0  0  0  0
 41 44  1  0  0  0  0
 41 53  1  0  0  0  0
 41 82  1  0  0  0  0
 42 50  1  0  0  0  0
 43 47  2  0  0  0  0
 43 48  1  0  0  0  0
 44 51  1  0  0  0  0
 45 83  1  0  0  0  0
 46 48  1  0  0  0  0
 46 51  2  0  0  0  0
 47 84  1  0  0  0  0
 48 85  1  0  0  0  0
 48 86  1  0  0  0  0
 49 54  1  0  0  0  0
 49 87  1  0  0  0  0
 49 88  1  0  0  0  0
 50 89  1  0  0  0  0
 51 92  1  0  0  0  0
 52 90  1  0  0  0  0
 52 91  1  0  0  0  0
 53 93  1  0  0  0  0
 53 94  1  0  0  0  0
 54 95  1  0  0  0  0
 54 96  1  0  0  0  0
 55 56  1  0  0  0  0
 55 97  1  0  0  0  0
 55 98  1  0  0  0  0
 56 99  1  0  0  0  0
 56100  1  0  0  0  0
 57 58  1  0  0  0  0
 57101  1  0  0  0  0
 57102  1  0  0  0  0
 58103  1  0  0  0  0
 58104  1  0  0  0  0
 59 60  1  0  0  0  0
 59105  1  0  0  0  0
 59106  1  0  0  0  0
 60107  1  0  0  0  0
 60108  1  0  0  0  0
 61 62  1  0  0  0  0
 61109  1  0  0  0  0
 61110  1  0  0  0  0
 62111  1  0  0  0  0
 62112  1  0  0  0  0
 63 64  1  0  0  0  0
 63113  1  0  0  0  0
 63114  1  0  0  0  0
 64115  1  0  0  0  0
 64116  1  0  0  0  0
 65 67  1  0  0  0  0
 65117  1  0  0  0  0
 65118  1  0  0  0  0
 66 68  1  0  0  0  0
 66119  1  0  0  0  0
 66120  1  0  0  0  0
 69 71  1  0  0  0  0
 69121  1  0  0  0  0
 69122  1  0  0  0  0
 70 72  1  0  0  0  0
 70123  1  0  0  0  0
 70124  1  0  0  0  0
M  END
> <PUBCHEM_COMPOUND_CID>
513713
> <PUBCHEM_COMPOUND_CANONICALIZED>
1
> <PUBCHEM_CACTVS_COMPLEXITY>
2230
> <PUBCHEM_CACTVS_HBOND_ACCEPTOR>
16
> <PUBCHEM_CACTVS_HBOND_DONOR>
4
> <PUBCHEM_CACTVS_ROTATABLE_BOND>
26
> <PUBCHEM_CACTVS_SUBSKEYS>
AAADcfB/vAAAAAAAAAAAAAAAAAAAAePGDBAwYMGDAAAAAHjBVAAAHgAACAAADwDhmAYwCMMABgCIAiDSCAACAAAgAAAIiACIAIgLICKAkTGHIAAggACaiAcQgMAPwAACAAAQAACAAAQAACAAAQAACAAAAA==
> <PUBCHEM_IUPAC_OPENEYE_NAME>
2-[2-[2-[2-[35-[2-[2-[2-[bis(carboxymethyl)amino]ethoxy]ethoxy]ethyl]-13,35-diazatetradecacyclo[18.16.1.118,21.01,33.04,32.06,30.08,29.010,27.011,15.016,26.022,33.023,31.024,28.025,38]octatriaconta-2,4(32),5,8,10(27),16(26),17,20(37),21,23(31),24(28),25(38),29-tridecaen-13-yl]ethoxy]ethoxy]ethyl-(carboxymethyl)amino]acetic acid
> <PUBCHEM_IUPAC_CAS_NAME>
2-[2-[2-[2-[35-[2-[2-[2-[bis(carboxymethyl)amino]ethoxy]ethoxy]ethyl]-13,35-diazatetradecacyclo[18.16.1.118,21.01,33.04,32.06,30.08,29.010,27.011,15.016,26.022,33.023,31.024,28.025,38]octatriaconta-2,4(32),5,8,10(27),16(26),17,20(37),21,23(31),24(28),25(38),29-tridecaen-13-yl]ethoxy]ethoxy]ethyl-(carboxymethyl)amino]acetic acid
> <PUBCHEM_IUPAC_NAME_MARKUP>
2-[2-[2-[2-[35-[2-[2-[2-[bis(carboxymethyl)amino]ethoxy]ethoxy]ethyl]-13,35-diazatetradecacyclo[18.16.1.1<SUP>18,21</SUP>.0<SUP>1,33</SUP>.0<SUP>4,32</SUP>.0<SUP>6,30</SUP>.0<SUP>8,29</SUP>.0<SUP>10,27</SUP>.0<SUP>11,15</SUP>.0<SUP>16,26</SUP>.0<SUP>22,33</SUP>.0<SUP>23,31</SUP>.0<SUP>24,28</SUP>.0<SUP>25,38</SUP>]octatriaconta-2,4(32),5,8,10(27),16(26),17,20(37),21,23(31),24(28),25(38),29-tridecaen-13-yl]ethoxy]ethoxy]ethyl-(carboxymethyl)amino]acetic acid
> <PUBCHEM_IUPAC_NAME>
2-[2-[2-[2-[35-[2-[2-[2-[bis(carboxymethyl)amino]ethoxy]ethoxy]ethyl]-13,35-diazatetradecacyclo[18.16.1.118,21.01,33.04,32.06,30.08,29.010,27.011,15.016,26.022,33.023,31.024,28.025,38]octatriaconta-2,4(32),5,8,10(27),16(26),17,20(37),21,23(31),24(28),25(38),29-tridecaen-13-yl]ethoxy]ethoxy]ethyl-(carboxymethyl)amino]acetic acid
> <PUBCHEM_IUPAC_SYSTEMATIC_NAME>
2-[2-[2-[2-[35-[2-[2-[2-[bis(2-hydroxy-2-oxoethyl)amino]ethoxy]ethoxy]ethyl]-13,35-diazatetradecacyclo[18.16.1.118,21.01,33.04,32.06,30.08,29.010,27.011,15.016,26.022,33.023,31.024,28.025,38]octatriaconta-2,4(32),5,8,10(27),16(26),17,20(37),21,23(31),24(28),25(38),29-tridecaen-13-yl]ethoxy]ethoxy]ethyl-(2-hydroxy-2-oxoethyl)amino]ethanoic acid
> <PUBCHEM_IUPAC_TRADITIONAL_NAME>
2-[2-[2-[2-[35-[2-[2-[2-[bis(carboxymethyl)amino]ethoxy]ethoxy]ethyl]-13,35-diazatetradecacyclo[18.16.1.118,21.01,33.04,32.06,30.08,29.010,27.011,15.016,26.022,33.023,31.024,28.025,38]octatriaconta-2,4(32),5,8,10(27),16(26),17,20(37),21,23(31),24(28),25(38),29-tridecaen-13-yl]ethoxy]ethoxy]ethyl-(carboxymethyl)amino]acetic acid
> <PUBCHEM_IUPAC_INCHI>
InChI=1S/C56H56N4O12/c61-38(62)23-58(24-39(63)64)4-8-70-12-11-69-7-3-57-21-36-34-18-31-16-30-15-29-1-2-55-20-33-17-32-19-35(37(36)22-57)47-46(34)48-42(31)43(30)51-52-50(48)49(47)44(32)45(33)54(52)56(55,53(29)51)28-60(27-55)6-10-72-14-13-71-9-5-59(25-40(65)66)26-41(67)68/h1-2,15,18-20,36-37H,3-14,16-17,21-28H2,(H,61,62)(H,63,64)(H,65,66)(H,67,68)
> <PUBCHEM_IUPAC_INCHIKEY>
ZZLFKYXJKHYDJK-UHFFFAOYSA-N
> <PUBCHEM_XLOGP3_AA>
-4.6
> <PUBCHEM_EXACT_MASS>
976.38947323
> <PUBCHEM_MOLECULAR_FORMULA>
C56H56N4O12
> <PUBCHEM_MOLECULAR_WEIGHT>
977.1
> <PUBCHEM_OPENEYE_CAN_SMILES>
C1C2C(CN1CCOCCOCCN(CC(=O)O)CC(=O)O)C3=C4C5=C2C=C6CC7=CC8=C9C1=C2C(=C5C6=C71)C4=C1C(=C3)CC3=CC4(C9(C2=C31)CN(C4)CCOCCOCCN(CC(=O)O)CC(=O)O)C=C8
> <PUBCHEM_OPENEYE_ISO_SMILES>
C1C2C(CN1CCOCCOCCN(CC(=O)O)CC(=O)O)C3=C4C5=C2C=C6CC7=CC8=C9C1=C2C(=C5C6=C71)C4=C1C(=C3)CC3=CC4(C9(C2=C31)CN(C4)CCOCCOCCN(CC(=O)O)CC(=O)O)C=C8
> <PUBCHEM_CACTVS_TPSA>
199
> <PUBCHEM_MONOISOTOPIC_WEIGHT>
976.38947323
> <PUBCHEM_TOTAL_CHARGE>
0
> <PUBCHEM_HEAVY_ATOM_COUNT>
72
> <PUBCHEM_ATOM_DEF_STEREO_COUNT>
0
> <PUBCHEM_ATOM_UDEF_STEREO_COUNT>
4
> <PUBCHEM_BOND_DEF_STEREO_COUNT>
0
> <PUBCHEM_BOND_UDEF_STEREO_COUNT>
0
> <PUBCHEM_ISOTOPIC_ATOM_COUNT>
0
> <PUBCHEM_COMPONENT_COUNT>
1
> <PUBCHEM_CACTVS_TAUTO_COUNT>
-1
> <PUBCHEM_COORDINATE_TYPE>
1
5
255
> <PUBCHEM_BONDANNOTATIONS>
17  21  3
18  23  3
19  22  8
19  25  8
20  24  8
20  34  8
22  24  8
22  26  8
24  31  8
25  29  8
26  30  8
26  32  8
29  30  8
29  38  8
30  35  8
31  36  8
31  43  8
32  36  8
32  37  8
34  47  8
35  42  8
36  46  8
37  44  8
38  50  8
40  52  3
41  53  3
42  50  8
43  47  8
44  51  8
46  51  8
$$$$
