513700
  -OEChem-10302200282D
104117  0     1  0  0  0  0  0999 V2000
    6.4518   -4.1420    0.0000 O   0  0  0  0  0  0  0  0  0  0  0  0
   12.6243    5.7062    0.0000 O   0  0  0  0  0  0  0  0  0  0  0  0
    5.9718   -6.7438    0.0000 O   0  0  0  0  0  0  0  0  0  0  0  0
   14.1649    7.8572    0.0000 O   0  0  0  0  0  0  0  0  0  0  0  0
    5.9317   -1.5478    0.0000 N   0  0  3  0  0  0  0  0  0  0  0  0
   10.3955    4.2806    0.0000 N   0  0  3  0  0  0  0  0  0  0  0  0
    6.4918   -9.3380    0.0000 N   0  0  0  0  0  0  0  0  0  0  0  0
   16.3937    9.2828    0.0000 N   0  0  0  0  0  0  0  0  0  0  0  0
    5.5734    0.0899    0.0000 C   0  0  3  0  0  0  0  0  0  0  0  0
    4.6753   -0.4379    0.0000 C   0  0  3  0  0  0  0  0  0  0  0  0
    5.5573    1.1314    0.0000 C   0  0  0  0  0  0  0  0  0  0  0  0
    6.5614   -0.0173    0.0000 C   0  0  0  0  0  0  0  0  0  0  0  0
    6.3464   -0.5990    0.0000 C   0  0  0  0  0  0  0  0  0  0  0  0
    6.4234    1.6314    0.0000 C   0  0  0  0  0  0  0  0  0  0  0  0
    4.6913    1.6314    0.0000 C   0  0  0  0  0  0  0  0  0  0  0  0
    7.3173    1.0967    0.0000 C   0  0  0  0  0  0  0  0  0  0  0  0
    6.4234    2.6314    0.0000 C   0  0  0  0  0  0  0  0  0  0  0  0
    4.9010   -1.4484    0.0000 C   0  0  0  0  0  0  0  0  0  0  0  0
    3.7733    0.0829    0.0000 C   0  0  0  0  0  0  0  0  0  0  0  0
    4.6913    2.6314    0.0000 C   0  0  0  0  0  0  0  0  0  0  0  0
    3.7813    1.1246    0.0000 C   0  0  0  0  0  0  0  0  0  0  0  0
    5.5573    3.1314    0.0000 C   0  0  0  0  0  0  0  0  0  0  0  0
    7.3173    3.1660    0.0000 C   0  0  0  0  0  0  0  0  0  0  0  0
    5.5734    4.1729    0.0000 C   0  0  0  0  0  0  0  0  0  0  0  0
    8.9595    3.3974    0.0000 C   0  0  3  0  0  0  0  0  0  0  0  0
    3.7813    3.1382    0.0000 C   0  0  0  0  0  0  0  0  0  0  0  0
    6.9161    4.0753    0.0000 C   0  0  0  0  0  0  0  0  0  0  0  0
    8.2234    2.6522    0.0000 C   0  0  0  0  0  0  0  0  0  0  0  0
    8.7151    4.4159    0.0000 C   0  0  3  0  0  0  0  0  0  0  0  0
    3.1945    2.3362    0.0000 C   0  0  0  0  0  0  0  0  0  0  0  0
    6.9611    5.1055    0.0000 C   0  0  0  0  0  0  0  0  0  0  0  0
    4.6753    4.7007    0.0000 C   0  0  0  0  0  0  0  0  0  0  0  0
    3.7733    4.1798    0.0000 C   0  0  0  0  0  0  0  0  0  0  0  0
    8.2234    1.6106    0.0000 C   0  0  0  0  0  0  0  0  0  0  0  0
    9.9978    3.3183    0.0000 C   0  0  0  0  0  0  0  0  0  0  0  0
    5.1703    5.6053    0.0000 C   0  0  0  0  0  0  0  0  0  0  0  0
    9.6043    4.9576    0.0000 C   0  0  0  0  0  0  0  0  0  0  0  0
    2.2115    2.6979    0.0000 C   0  0  0  0  0  0  0  0  0  0  0  0
    2.7598    4.4448    0.0000 C   0  0  0  0  0  0  0  0  0  0  0  0
    2.7424    0.0592    0.0000 C   0  0  0  0  0  0  0  0  0  0  0  0
    6.4384   -2.4100    0.0000 C   0  0  0  0  0  0  0  0  0  0  0  0
    6.1856    5.7851    0.0000 C   0  0  0  0  0  0  0  0  0  0  0  0
    4.1751    5.9125    0.0000 C   0  0  0  0  0  0  0  0  0  0  0  0
    2.0000    3.7238    0.0000 C   0  0  0  0  0  0  0  0  0  0  0  0
    2.0789    0.8487    0.0000 C   0  0  0  0  0  0  0  0  0  0  0  0
   11.3679    4.5140    0.0000 C   0  0  0  0  0  0  0  0  0  0  0  0
    5.9451   -3.2798    0.0000 C   0  0  0  0  0  0  0  0  0  0  0  0
   11.6520    5.4728    0.0000 C   0  0  0  0  0  0  0  0  0  0  0  0
    5.9584   -5.0118    0.0000 C   0  0  0  0  0  0  0  0  0  0  0  0
   12.9084    6.6650    0.0000 C   0  0  0  0  0  0  0  0  0  0  0  0
    6.4651   -5.8740    0.0000 C   0  0  0  0  0  0  0  0  0  0  0  0
   13.8808    6.8984    0.0000 C   0  0  0  0  0  0  0  0  0  0  0  0
    6.4784   -7.6060    0.0000 C   0  0  0  0  0  0  0  0  0  0  0  0
   15.1372    8.0906    0.0000 C   0  0  0  0  0  0  0  0  0  0  0  0
    5.9851   -8.4758    0.0000 C   0  0  0  0  0  0  0  0  0  0  0  0
   15.4213    9.0494    0.0000 C   0  0  0  0  0  0  0  0  0  0  0  0
    4.1756   -0.8049    0.0000 H   0  0  0  0  0  0  0  0  0  0  0  0
    6.3956   -0.6147    0.0000 H   0  0  0  0  0  0  0  0  0  0  0  0
    7.1241   -0.2777    0.0000 H   0  0  0  0  0  0  0  0  0  0  0  0
    6.8853   -0.9057    0.0000 H   0  0  0  0  0  0  0  0  0  0  0  0
    6.7080   -0.0954    0.0000 H   0  0  0  0  0  0  0  0  0  0  0  0
    4.2851   -1.5192    0.0000 H   0  0  0  0  0  0  0  0  0  0  0  0
    4.9067   -2.0684    0.0000 H   0  0  0  0  0  0  0  0  0  0  0  0
    9.1766    2.8166    0.0000 H   0  0  0  0  0  0  0  0  0  0  0  0
    8.6616    5.0336    0.0000 H   0  0  0  0  0  0  0  0  0  0  0  0
    8.7591    1.2985    0.0000 H   0  0  0  0  0  0  0  0  0  0  0  0
    9.8860    2.7085    0.0000 H   0  0  0  0  0  0  0  0  0  0  0  0
   10.5925    3.1430    0.0000 H   0  0  0  0  0  0  0  0  0  0  0  0
   10.0547    5.3837    0.0000 H   0  0  0  0  0  0  0  0  0  0  0  0
    9.2279    5.4503    0.0000 H   0  0  0  0  0  0  0  0  0  0  0  0
    2.4870   -0.5057    0.0000 H   0  0  0  0  0  0  0  0  0  0  0  0
    6.9164   -2.8048    0.0000 H   0  0  0  0  0  0  0  0  0  0  0  0
    6.9103   -2.0078    0.0000 H   0  0  0  0  0  0  0  0  0  0  0  0
    6.3523    6.3823    0.0000 H   0  0  0  0  0  0  0  0  0  0  0  0
    4.4477    6.4694    0.0000 H   0  0  0  0  0  0  0  0  0  0  0  0
    3.6673    6.2684    0.0000 H   0  0  0  0  0  0  0  0  0  0  0  0
    1.4085    3.9095    0.0000 H   0  0  0  0  0  0  0  0  0  0  0  0
    1.4892    0.6574    0.0000 H   0  0  0  0  0  0  0  0  0  0  0  0
   11.4057    3.8952    0.0000 H   0  0  0  0  0  0  0  0  0  0  0  0
   11.9839    4.4438    0.0000 H   0  0  0  0  0  0  0  0  0  0  0  0
    5.4671   -2.8850    0.0000 H   0  0  0  0  0  0  0  0  0  0  0  0
    5.4732   -3.6820    0.0000 H   0  0  0  0  0  0  0  0  0  0  0  0
   11.6141    6.0917    0.0000 H   0  0  0  0  0  0  0  0  0  0  0  0
   11.0359    5.5431    0.0000 H   0  0  0  0  0  0  0  0  0  0  0  0
    5.4804   -4.6170    0.0000 H   0  0  0  0  0  0  0  0  0  0  0  0
    5.4866   -5.4140    0.0000 H   0  0  0  0  0  0  0  0  0  0  0  0
   12.8706    7.2839    0.0000 H   0  0  0  0  0  0  0  0  0  0  0  0
   12.2924    6.7353    0.0000 H   0  0  0  0  0  0  0  0  0  0  0  0
    6.9431   -6.2688    0.0000 H   0  0  0  0  0  0  0  0  0  0  0  0
    6.9370   -5.4718    0.0000 H   0  0  0  0  0  0  0  0  0  0  0  0
   13.9186    6.2796    0.0000 H   0  0  0  0  0  0  0  0  0  0  0  0
   14.4968    6.8282    0.0000 H   0  0  0  0  0  0  0  0  0  0  0  0
    6.9565   -8.0008    0.0000 H   0  0  0  0  0  0  0  0  0  0  0  0
    6.9503   -7.2038    0.0000 H   0  0  0  0  0  0  0  0  0  0  0  0
   15.1750    7.4718    0.0000 H   0  0  0  0  0  0  0  0  0  0  0  0
   15.7532    8.0204    0.0000 H   0  0  0  0  0  0  0  0  0  0  0  0
    5.5071   -8.0810    0.0000 H   0  0  0  0  0  0  0  0  0  0  0  0
    5.5133   -8.8780    0.0000 H   0  0  0  0  0  0  0  0  0  0  0  0
   15.3835    9.6683    0.0000 H   0  0  0  0  0  0  0  0  0  0  0  0
   14.8053    9.1196    0.0000 H   0  0  0  0  0  0  0  0  0  0  0  0
    6.1860   -9.8773    0.0000 H   0  0  0  0  0  0  0  0  0  0  0  0
    7.1118   -9.3332    0.0000 H   0  0  0  0  0  0  0  0  0  0  0  0
   16.5698    9.8773    0.0000 H   0  0  0  0  0  0  0  0  0  0  0  0
   16.8204    8.8331    0.0000 H   0  0  0  0  0  0  0  0  0  0  0  0
  1 47  1  0  0  0  0
  1 49  1  0  0  0  0
  2 48  1  0  0  0  0
  2 50  1  0  0  0  0
  3 51  1  0  0  0  0
  3 53  1  0  0  0  0
  4 52  1  0  0  0  0
  4 54  1  0  0  0  0
  5 13  1  0  0  0  0
  5 18  1  0  0  0  0
  5 41  1  0  0  0  0
  6 35  1  0  0  0  0
  6 37  1  0  0  0  0
  6 46  1  0  0  0  0
  7 55  1  0  0  0  0
  7101  1  0  0  0  0
  7102  1  0  0  0  0
  8 56  1  0  0  0  0
  8103  1  0  0  0  0
  8104  1  0  0  0  0
  9 10  1  0  0  0  0
  9 11  1  0  0  0  0
  9 12  1  0  0  0  0
  9 13  1  0  0  0  0
 10 18  1  0  0  0  0
 10 19  1  0  0  0  0
 10 57  1  0  0  0  0
 11 14  1  0  0  0  0
 11 15  2  0  0  0  0
 12 16  1  0  0  0  0
 12 58  1  0  0  0  0
 12 59  1  0  0  0  0
 13 60  1  0  0  0  0
 13 61  1  0  0  0  0
 14 16  1  0  0  0  0
 14 17  2  0  0  0  0
 15 20  1  0  0  0  0
 15 21  1  0  0  0  0
 16 34  2  0  0  0  0
 17 22  1  0  0  0  0
 17 23  1  0  0  0  0
 18 62  1  0  0  0  0
 18 63  1  0  0  0  0
 19 21  2  0  0  0  0
 19 40  1  0  0  0  0
 20 22  2  0  0  0  0
 20 26  1  0  0  0  0
 21 30  1  0  0  0  0
 22 24  1  0  0  0  0
 23 27  1  0  0  0  0
 23 28  2  0  0  0  0
 24 27  1  0  0  0  0
 24 32  2  0  0  0  0
 25 28  1  0  0  0  0
 25 29  1  0  0  0  0
 25 35  1  0  0  0  0
 25 64  1  0  0  0  0
 26 30  2  0  0  0  0
 26 33  1  0  0  0  0
 27 31  2  0  0  0  0
 28 34  1  0  0  0  0
 29 31  1  0  0  0  0
 29 37  1  0  0  0  0
 29 65  1  0  0  0  0
 30 38  1  0  0  0  0
 31 42  1  0  0  0  0
 32 33  1  0  0  0  0
 32 36  1  0  0  0  0
 33 39  2  0  0  0  0
 34 66  1  0  0  0  0
 35 67  1  0  0  0  0
 35 68  1  0  0  0  0
 36 42  2  0  0  0  0
 36 43  1  0  0  0  0
 37 69  1  0  0  0  0
 37 70  1  0  0  0  0
 38 44  2  0  0  0  0
 38 45  1  0  0  0  0
 39 43  1  0  0  0  0
 39 44  1  0  0  0  0
 40 45  2  0  0  0  0
 40 71  1  0  0  0  0
 41 47  1  0  0  0  0
 41 72  1  0  0  0  0
 41 73  1  0  0  0  0
 42 74  1  0  0  0  0
 43 75  1  0  0  0  0
 43 76  1  0  0  0  0
 44 77  1  0  0  0  0
 45 78  1  0  0  0  0
 46 48  1  0  0  0  0
 46 79  1  0  0  0  0
 46 80  1  0  0  0  0
 47 81  1  0  0  0  0
 47 82  1  0  0  0  0
 48 83  1  0  0  0  0
 48 84  1  0  0  0  0
 49 51  1  0  0  0  0
 49 85  1  0  0  0  0
 49 86  1  0  0  0  0
 50 52  1  0  0  0  0
 50 87  1  0  0  0  0
 50 88  1  0  0  0  0
 51 89  1  0  0  0  0
 51 90  1  0  0  0  0
 52 91  1  0  0  0  0
 52 92  1  0  0  0  0
 53 55  1  0  0  0  0
 53 93  1  0  0  0  0
 53 94  1  0  0  0  0
 54 56  1  0  0  0  0
 54 95  1  0  0  0  0
 54 96  1  0  0  0  0
 55 97  1  0  0  0  0
 55 98  1  0  0  0  0
 56 99  1  0  0  0  0
 56100  1  0  0  0  0
M  END
> <PUBCHEM_COMPOUND_CID>
513700
> <PUBCHEM_COMPOUND_CANONICALIZED>
1
> <PUBCHEM_CACTVS_COMPLEXITY>
1550
> <PUBCHEM_CACTVS_HBOND_ACCEPTOR>
8
> <PUBCHEM_CACTVS_HBOND_DONOR>
2
> <PUBCHEM_CACTVS_ROTATABLE_BOND>
16
> <PUBCHEM_CACTVS_SUBSKEYS>
AAADcfB/uAAAAAAAAAAAAAAAAAAAAePGDBAwYMGDAAAAAHjBVAAAHgAQAAAADwDhmAYwAMNABACAAiBCAAACAAAgAAAIiIAIAIgLICKAkRGHIAAgkACaiAcQgMAPwAACAAAQAACAAAQAACAAAQAACAAAAA==
> <PUBCHEM_IUPAC_OPENEYE_NAME>
2-[2-[2-[13-[2-[2-(2-aminoethoxy)ethoxy]ethyl]-4,13-diazatetradecacyclo[21.13.1.121,24.02,6.07,35.09,33.011,15.011,32.016,30.019,29.025,36.026,34.027,31.028,38]octatriaconta-1(36),7(35),8,16(30),17,19,21(38),23(37),24,26,28,31,33-tridecaen-4-yl]ethoxy]ethoxy]ethanamine
> <PUBCHEM_IUPAC_CAS_NAME>
2-[2-[2-[13-[2-[2-(2-aminoethoxy)ethoxy]ethyl]-4,13-diazatetradecacyclo[21.13.1.121,24.02,6.07,35.09,33.011,15.011,32.016,30.019,29.025,36.026,34.027,31.028,38]octatriaconta-1(36),7(35),8,16(30),17,19,21(38),23(37),24,26,28,31,33-tridecaen-4-yl]ethoxy]ethoxy]ethanamine
> <PUBCHEM_IUPAC_NAME_MARKUP>
2-[2-[2-[13-[2-[2-(2-aminoethoxy)ethoxy]ethyl]-4,13-diazatetradecacyclo[21.13.1.1<SUP>21,24</SUP>.0<SUP>2,6</SUP>.0<SUP>7,35</SUP>.0<SUP>9,33</SUP>.0<SUP>11,15</SUP>.0<SUP>11,32</SUP>.0<SUP>16,30</SUP>.0<SUP>19,29</SUP>.0<SUP>25,36</SUP>.0<SUP>26,34</SUP>.0<SUP>27,31</SUP>.0<SUP>28,38</SUP>]octatriaconta-1(36),7(35),8,16(30),17,19,21(38),23(37),24,26,28,31,33-tridecaen-4-yl]ethoxy]ethoxy]ethanamine
> <PUBCHEM_IUPAC_NAME>
2-[2-[2-[13-[2-[2-(2-aminoethoxy)ethoxy]ethyl]-4,13-diazatetradecacyclo[21.13.1.121,24.02,6.07,35.09,33.011,15.011,32.016,30.019,29.025,36.026,34.027,31.028,38]octatriaconta-1(36),7(35),8,16(30),17,19,21(38),23(37),24,26,28,31,33-tridecaen-4-yl]ethoxy]ethoxy]ethanamine
> <PUBCHEM_IUPAC_SYSTEMATIC_NAME>
2-[2-[2-[13-[2-[2-(2-azanylethoxy)ethoxy]ethyl]-4,13-diazatetradecacyclo[21.13.1.121,24.02,6.07,35.09,33.011,15.011,32.016,30.019,29.025,36.026,34.027,31.028,38]octatriaconta-1(36),7(35),8,16(30),17,19,21(38),23(37),24,26,28,31,33-tridecaen-4-yl]ethoxy]ethoxy]ethanamine
> <PUBCHEM_IUPAC_TRADITIONAL_NAME>
2-[2-[2-[4-[2-[2-(2-aminoethoxy)ethoxy]ethyl]-4,13-diazatetradecacyclo[21.13.1.121,24.02,6.07,35.09,33.011,15.011,32.016,30.019,29.025,36.026,34.027,31.028,38]octatriaconta-1(36),7(35),8,16(30),17,19,21(38),23(37),24,26,28,31,33-tridecaen-13-yl]ethoxy]ethoxy]ethylamine
> <PUBCHEM_IUPAC_INCHI>
InChI=1S/C48H48N4O4/c49-3-7-53-11-13-55-9-5-51-20-31-29-17-26-16-25-15-24-1-2-28-33-22-52(6-10-56-14-12-54-8-4-50)23-48(33)19-27-18-30(32(31)21-51)40-39(29)42-36(26)35(25)41-34(24)38(28)46-45(41)44(42)43(40)37(27)47(46)48/h1-2,15,17-18,31-33H,3-14,16,19-23,49-50H2
> <PUBCHEM_IUPAC_INCHIKEY>
NUVALKDBRKYVSF-UHFFFAOYSA-N
> <PUBCHEM_XLOGP3_AA>
4.5
> <PUBCHEM_EXACT_MASS>
744.36755603
> <PUBCHEM_MOLECULAR_FORMULA>
C48H48N4O4
> <PUBCHEM_MOLECULAR_WEIGHT>
744.9
> <PUBCHEM_OPENEYE_CAN_SMILES>
C1C2C(CN1CCOCCOCCN)C3=C4C5=C2C=C6CC7=C8C6=C5C9=C1C8=C2C(=C7)C=CC5=C2C1=C1C(=C49)C(=C3)CC11C5CN(C1)CCOCCOCCN
> <PUBCHEM_OPENEYE_ISO_SMILES>
C1C2C(CN1CCOCCOCCN)C3=C4C5=C2C=C6CC7=C8C6=C5C9=C1C8=C2C(=C7)C=CC5=C2C1=C1C(=C49)C(=C3)CC11C5CN(C1)CCOCCOCCN
> <PUBCHEM_CACTVS_TPSA>
95.4
> <PUBCHEM_MONOISOTOPIC_WEIGHT>
744.36755603
> <PUBCHEM_TOTAL_CHARGE>
0
> <PUBCHEM_HEAVY_ATOM_COUNT>
56
> <PUBCHEM_ATOM_DEF_STEREO_COUNT>
0
> <PUBCHEM_ATOM_UDEF_STEREO_COUNT>
4
> <PUBCHEM_BOND_DEF_STEREO_COUNT>
0
> <PUBCHEM_BOND_UDEF_STEREO_COUNT>
0
> <PUBCHEM_ISOTOPIC_ATOM_COUNT>
0
> <PUBCHEM_COMPONENT_COUNT>
1
> <PUBCHEM_CACTVS_TAUTO_COUNT>
-1
> <PUBCHEM_COORDINATE_TYPE>
1
5
255
> <PUBCHEM_BONDANNOTATIONS>
10  18  3
11  14  8
11  15  8
14  16  8
14  17  8
15  20  8
15  21  8
16  34  8
17  22  8
17  23  8
19  21  8
19  40  8
20  22  8
20  26  8
21  30  8
22  24  8
23  27  8
23  28  8
24  27  8
24  32  8
25  35  3
26  30  8
26  33  8
27  31  8
28  34  8
29  37  3
30  38  8
31  42  8
32  33  8
32  36  8
33  39  8
36  42  8
38  44  8
38  45  8
39  44  8
40  45  8
9  12  3
$$$$
