513882
  -OEChem-10302200282D
 86 89  0     1  0  0  0  0  0999 V2000
    3.4051   -1.3294    0.0000 S   0  0  0  0  0  0  0  0  0  0  0  0
    4.2768   -0.8394    0.0000 O   0  0  0  0  0  0  0  0  0  0  0  0
    4.2607   -2.9310    0.0000 O   0  0  0  0  0  0  0  0  0  0  0  0
    2.5333   -1.8193    0.0000 O   0  0  0  0  0  0  0  0  0  0  0  0
    2.9151   -0.4576    0.0000 O   0  0  0  0  0  0  0  0  0  0  0  0
    3.8950   -2.2011    0.0000 O   0  0  0  0  0  0  0  0  0  0  0  0
    5.1209   -4.4344    0.0000 O   0  0  0  0  0  0  0  0  0  0  0  0
    9.6538    0.1213    0.0000 C   0  0  1  0  0  0  0  0  0  0  0  0
    9.6538   -0.8787    0.0000 C   0  0  3  0  0  0  0  0  0  0  0  0
    8.7878   -1.3787    0.0000 C   0  0  3  0  0  0  0  0  0  0  0  0
    7.9217   -0.8787    0.0000 C   0  0  3  0  0  0  0  0  0  0  0  0
    7.0117   -1.3855    0.0000 C   0  0  2  0  0  0  0  0  0  0  0  0
   10.6000    0.4260    0.0000 C   0  0  2  0  0  0  0  0  0  0  0  0
    7.0037   -2.4271    0.0000 C   0  0  1  0  0  0  0  0  0  0  0  0
    8.7878    0.6213    0.0000 C   0  0  0  0  0  0  0  0  0  0  0  0
    7.9217    0.1213    0.0000 C   0  0  0  0  0  0  0  0  0  0  0  0
   10.6000   -1.1834    0.0000 C   0  0  0  0  0  0  0  0  0  0  0  0
    8.8038   -2.4202    0.0000 C   0  0  0  0  0  0  0  0  0  0  0  0
   11.1836   -0.3787    0.0000 C   0  0  0  0  0  0  0  0  0  0  0  0
    7.9058   -2.9480    0.0000 C   0  0  0  0  0  0  0  0  0  0  0  0
    6.0849   -0.8215    0.0000 C   0  0  0  0  0  0  0  0  0  0  0  0
    9.6538    1.1213    0.0000 C   0  0  0  0  0  0  0  0  0  0  0  0
    6.0683   -2.9769    0.0000 C   0  0  0  0  0  0  0  0  0  0  0  0
   10.9107    1.3766    0.0000 C   0  0  1  0  0  0  0  0  0  0  0  0
    7.0194   -0.3856    0.0000 C   0  0  0  0  0  0  0  0  0  0  0  0
    5.1370   -1.3494    0.0000 C   0  0  1  0  0  0  0  0  0  0  0  0
    5.1286   -2.4344    0.0000 C   0  0  1  0  0  0  0  0  0  0  0  0
   11.8892    1.5828    0.0000 C   0  0  0  0  0  0  0  0  0  0  0  0
   10.2428    2.1209    0.0000 C   0  0  0  0  0  0  0  0  0  0  0  0
   12.1998    2.5333    0.0000 C   0  0  0  0  0  0  0  0  0  0  0  0
   13.1783    2.7395    0.0000 C   0  0  0  0  0  0  0  0  0  0  0  0
    4.2568   -3.9310    0.0000 C   0  0  0  0  0  0  0  0  0  0  0  0
   13.4890    3.6900    0.0000 C   0  0  0  0  0  0  0  0  0  0  0  0
    3.3889   -4.4277    0.0000 C   0  0  0  0  0  0  0  0  0  0  0  0
   14.4675    3.8963    0.0000 C   0  0  0  0  0  0  0  0  0  0  0  0
   12.8211    4.4344    0.0000 C   0  0  0  0  0  0  0  0  0  0  0  0
    9.7194   -1.4952    0.0000 H   0  0  0  0  0  0  0  0  0  0  0  0
    9.3271   -1.6845    0.0000 H   0  0  0  0  0  0  0  0  0  0  0  0
    8.4587   -0.5687    0.0000 H   0  0  0  0  0  0  0  0  0  0  0  0
   11.4397    0.5579    0.0000 H   0  0  0  0  0  0  0  0  0  0  0  0
    7.0070   -3.2771    0.0000 H   0  0  0  0  0  0  0  0  0  0  0  0
    9.1863    1.0963    0.0000 H   0  0  0  0  0  0  0  0  0  0  0  0
    8.3892    1.0963    0.0000 H   0  0  0  0  0  0  0  0  0  0  0  0
    7.7097    0.7039    0.0000 H   0  0  0  0  0  0  0  0  0  0  0  0
    7.3111    0.0137    0.0000 H   0  0  0  0  0  0  0  0  0  0  0  0
   10.3490   -1.7503    0.0000 H   0  0  0  0  0  0  0  0  0  0  0  0
   11.1374   -1.4926    0.0000 H   0  0  0  0  0  0  0  0  0  0  0  0
    9.0218   -3.0006    0.0000 H   0  0  0  0  0  0  0  0  0  0  0  0
    9.4130   -2.3047    0.0000 H   0  0  0  0  0  0  0  0  0  0  0  0
   11.6445   -0.7934    0.0000 H   0  0  0  0  0  0  0  0  0  0  0  0
   11.6445    0.0360    0.0000 H   0  0  0  0  0  0  0  0  0  0  0  0
    7.5085   -3.4239    0.0000 H   0  0  0  0  0  0  0  0  0  0  0  0
    8.3067   -3.4208    0.0000 H   0  0  0  0  0  0  0  0  0  0  0  0
    6.4931   -0.3548    0.0000 H   0  0  0  0  0  0  0  0  0  0  0  0
    5.6950   -0.3394    0.0000 H   0  0  0  0  0  0  0  0  0  0  0  0
   10.2738    1.1213    0.0000 H   0  0  0  0  0  0  0  0  0  0  0  0
    9.6538    1.7413    0.0000 H   0  0  0  0  0  0  0  0  0  0  0  0
    9.0338    1.1213    0.0000 H   0  0  0  0  0  0  0  0  0  0  0  0
    5.6710   -3.4528    0.0000 H   0  0  0  0  0  0  0  0  0  0  0  0
    6.4692   -3.4498    0.0000 H   0  0  0  0  0  0  0  0  0  0  0  0
   10.3040    1.2487    0.0000 H   0  0  0  0  0  0  0  0  0  0  0  0
    7.6394   -0.3903    0.0000 H   0  0  0  0  0  0  0  0  0  0  0  0
    7.0242    0.2344    0.0000 H   0  0  0  0  0  0  0  0  0  0  0  0
    6.3994   -0.3808    0.0000 H   0  0  0  0  0  0  0  0  0  0  0  0
    4.5971   -1.6542    0.0000 H   0  0  0  0  0  0  0  0  0  0  0  0
    5.1274   -3.0544    0.0000 H   0  0  0  0  0  0  0  0  0  0  0  0
   11.9097    0.9631    0.0000 H   0  0  0  0  0  0  0  0  0  0  0  0
   12.5030    1.4954    0.0000 H   0  0  0  0  0  0  0  0  0  0  0  0
   10.7043    2.5349    0.0000 H   0  0  0  0  0  0  0  0  0  0  0  0
    9.8288    2.5823    0.0000 H   0  0  0  0  0  0  0  0  0  0  0  0
    9.7814    1.7068    0.0000 H   0  0  0  0  0  0  0  0  0  0  0  0
   12.1793    3.1530    0.0000 H   0  0  0  0  0  0  0  0  0  0  0  0
   11.5860    2.6206    0.0000 H   0  0  0  0  0  0  0  0  0  0  0  0
   13.1989    2.1199    0.0000 H   0  0  0  0  0  0  0  0  0  0  0  0
   13.7921    2.6522    0.0000 H   0  0  0  0  0  0  0  0  0  0  0  0
   13.6816    4.2794    0.0000 H   0  0  0  0  0  0  0  0  0  0  0  0
    3.0810   -3.8895    0.0000 H   0  0  0  0  0  0  0  0  0  0  0  0
    2.8508   -4.7356    0.0000 H   0  0  0  0  0  0  0  0  0  0  0  0
    3.6968   -4.9658    0.0000 H   0  0  0  0  0  0  0  0  0  0  0  0
    2.0000   -1.5031    0.0000 H   0  0  0  0  0  0  0  0  0  0  0  0
   14.5954    3.2896    0.0000 H   0  0  0  0  0  0  0  0  0  0  0  0
   15.0742    4.0241    0.0000 H   0  0  0  0  0  0  0  0  0  0  0  0
   14.3396    4.5029    0.0000 H   0  0  0  0  0  0  0  0  0  0  0  0
   13.2826    4.8484    0.0000 H   0  0  0  0  0  0  0  0  0  0  0  0
   12.4071    4.8958    0.0000 H   0  0  0  0  0  0  0  0  0  0  0  0
   12.3597    4.0203    0.0000 H   0  0  0  0  0  0  0  0  0  0  0  0
  1  2  1  0  0  0  0
  1  4  1  0  0  0  0
  1  5  2  0  0  0  0
  1  6  2  0  0  0  0
 26  2  1  1  0  0  0
 27  3  1  6  0  0  0
  3 32  1  0  0  0  0
  4 80  1  0  0  0  0
  7 32  2  0  0  0  0
  8  9  1  0  0  0  0
  8 13  1  0  0  0  0
  8 15  1  0  0  0  0
  8 22  1  1  0  0  0
  9 10  1  0  0  0  0
  9 17  1  0  0  0  0
  9 37  1  0  0  0  0
 10 11  1  0  0  0  0
 10 18  1  0  0  0  0
 10 38  1  0  0  0  0
 11 12  1  0  0  0  0
 11 16  1  0  0  0  0
 11 39  1  0  0  0  0
 12 14  1  0  0  0  0
 12 21  1  0  0  0  0
 12 25  1  1  0  0  0
 13 19  1  0  0  0  0
 13 24  1  0  0  0  0
 13 40  1  6  0  0  0
 14 20  1  0  0  0  0
 14 23  1  0  0  0  0
 14 41  1  6  0  0  0
 15 16  1  0  0  0  0
 15 42  1  0  0  0  0
 15 43  1  0  0  0  0
 16 44  1  0  0  0  0
 16 45  1  0  0  0  0
 17 19  1  0  0  0  0
 17 46  1  0  0  0  0
 17 47  1  0  0  0  0
 18 20  1  0  0  0  0
 18 48  1  0  0  0  0
 18 49  1  0  0  0  0
 19 50  1  0  0  0  0
 19 51  1  0  0  0  0
 20 52  1  0  0  0  0
 20 53  1  0  0  0  0
 21 26  1  0  0  0  0
 21 54  1  0  0  0  0
 21 55  1  0  0  0  0
 22 56  1  0  0  0  0
 22 57  1  0  0  0  0
 22 58  1  0  0  0  0
 23 27  1  0  0  0  0
 23 59  1  0  0  0  0
 23 60  1  0  0  0  0
 24 28  1  0  0  0  0
 24 29  1  6  0  0  0
 24 61  1  0  0  0  0
 25 62  1  0  0  0  0
 25 63  1  0  0  0  0
 25 64  1  0  0  0  0
 26 27  1  0  0  0  0
 26 65  1  0  0  0  0
 27 66  1  0  0  0  0
 28 30  1  0  0  0  0
 28 67  1  0  0  0  0
 28 68  1  0  0  0  0
 29 69  1  0  0  0  0
 29 70  1  0  0  0  0
 29 71  1  0  0  0  0
 30 31  1  0  0  0  0
 30 72  1  0  0  0  0
 30 73  1  0  0  0  0
 31 33  1  0  0  0  0
 31 74  1  0  0  0  0
 31 75  1  0  0  0  0
 32 34  1  0  0  0  0
 33 35  1  0  0  0  0
 33 36  1  0  0  0  0
 33 76  1  0  0  0  0
 34 77  1  0  0  0  0
 34 78  1  0  0  0  0
 34 79  1  0  0  0  0
 35 81  1  0  0  0  0
 35 82  1  0  0  0  0
 35 83  1  0  0  0  0
 36 84  1  0  0  0  0
 36 85  1  0  0  0  0
 36 86  1  0  0  0  0
M  END
> <PUBCHEM_COMPOUND_CID>
513882
> <PUBCHEM_COMPOUND_CANONICALIZED>
1
> <PUBCHEM_CACTVS_COMPLEXITY>
896
> <PUBCHEM_CACTVS_HBOND_ACCEPTOR>
6
> <PUBCHEM_CACTVS_HBOND_DONOR>
1
> <PUBCHEM_CACTVS_ROTATABLE_BOND>
9
> <PUBCHEM_CACTVS_SUBSKEYS>
AAADcfB4OABAAAAAAAAAAAAAAAAAAYAAAAAwYMAAAAAAAGDAAAAAGgAACAAADxSggAICCAAABIAIAACQCDAAAAAAAAAAAAAAAAABAAIAAAACAAAEAAACAAGAwPAPgAAAAAAAAADAAAYAACCAAQAACAAAAA==
> <PUBCHEM_IUPAC_OPENEYE_NAME>
[(2S,3S,5S,10S,13R,17R)-17-[(1R)-1,5-dimethylhexyl]-10,13-dimethyl-2-sulfooxy-2,3,4,5,6,7,8,9,11,12,14,15,16,17-tetradecahydro-1H-cyclopenta[a]phenanthren-3-yl] acetate
> <PUBCHEM_IUPAC_CAS_NAME>
acetic acid [(2S,3S,5S,10S,13R,17R)-10,13-dimethyl-17-[(2R)-6-methylheptan-2-yl]-2-sulfooxy-2,3,4,5,6,7,8,9,11,12,14,15,16,17-tetradecahydro-1H-cyclopenta[a]phenanthren-3-yl] ester
> <PUBCHEM_IUPAC_NAME_MARKUP>
[(2<I>S</I>,3<I>S</I>,5<I>S</I>,10<I>S</I>,13<I>R</I>,17<I>R</I>)-10,13-dimethyl-17-[(2<I>R</I>)-6-methylheptan-2-yl]-2-sulfooxy-2,3,4,5,6,7,8,9,11,12,14,15,16,17-tetradecahydro-1<I>H</I>-cyclopenta[a]phenanthren-3-yl] acetate
> <PUBCHEM_IUPAC_NAME>
[(2S,3S,5S,10S,13R,17R)-10,13-dimethyl-17-[(2R)-6-methylheptan-2-yl]-2-sulfooxy-2,3,4,5,6,7,8,9,11,12,14,15,16,17-tetradecahydro-1H-cyclopenta[a]phenanthren-3-yl] acetate
> <PUBCHEM_IUPAC_SYSTEMATIC_NAME>
[(2S,3S,5S,10S,13R,17R)-10,13-dimethyl-17-[(2R)-6-methylheptan-2-yl]-2-sulfooxy-2,3,4,5,6,7,8,9,11,12,14,15,16,17-tetradecahydro-1H-cyclopenta[a]phenanthren-3-yl] ethanoate
> <PUBCHEM_IUPAC_TRADITIONAL_NAME>
acetic acid [(2S,3S,5S,10S,13R,17R)-17-[(1R)-1,5-dimethylhexyl]-10,13-dimethyl-2-sulfoxy-2,3,4,5,6,7,8,9,11,12,14,15,16,17-tetradecahydro-1H-cyclopenta[a]phenanthren-3-yl] ester
> <PUBCHEM_IUPAC_INCHI>
InChI=1S/C29H50O6S/c1-18(2)8-7-9-19(3)23-12-13-24-22-11-10-21-16-26(34-20(4)30)27(35-36(31,32)33)17-29(21,6)25(22)14-15-28(23,24)5/h18-19,21-27H,7-17H2,1-6H3,(H,31,32,33)/t19-,21+,22?,23-,24?,25?,26+,27+,28-,29+/m1/s1
> <PUBCHEM_IUPAC_INCHIKEY>
DDPKKWVFEPCRJO-WUKQITKJSA-N
> <PUBCHEM_XLOGP3_AA>
8.6
> <PUBCHEM_EXACT_MASS>
526.33281048
> <PUBCHEM_MOLECULAR_FORMULA>
C29H50O6S
> <PUBCHEM_MOLECULAR_WEIGHT>
526.8
> <PUBCHEM_OPENEYE_CAN_SMILES>
CC(C)CCCC(C)C1CCC2C1(CCC3C2CCC4C3(CC(C(C4)OC(=O)C)OS(=O)(=O)O)C)C
> <PUBCHEM_OPENEYE_ISO_SMILES>
C[C@H](CCCC(C)C)[C@H]1CCC2[C@@]1(CCC3C2CC[C@@H]4[C@@]3(C[C@@H]([C@H](C4)OC(=O)C)OS(=O)(=O)O)C)C
> <PUBCHEM_CACTVS_TPSA>
98.3
> <PUBCHEM_MONOISOTOPIC_WEIGHT>
526.33281048
> <PUBCHEM_TOTAL_CHARGE>
0
> <PUBCHEM_HEAVY_ATOM_COUNT>
36
> <PUBCHEM_ATOM_DEF_STEREO_COUNT>
7
> <PUBCHEM_ATOM_UDEF_STEREO_COUNT>
3
> <PUBCHEM_BOND_DEF_STEREO_COUNT>
0
> <PUBCHEM_BOND_UDEF_STEREO_COUNT>
0
> <PUBCHEM_ISOTOPIC_ATOM_COUNT>
0
> <PUBCHEM_COMPONENT_COUNT>
1
> <PUBCHEM_CACTVS_TAUTO_COUNT>
-1
> <PUBCHEM_COORDINATE_TYPE>
1
5
255
> <PUBCHEM_BONDANNOTATIONS>
10  18  3
11  16  3
12  25  5
13  40  6
14  41  6
26  2  5
24  29  6
27  3  6
8  22  5
9  17  3
$$$$
