513801
  -OEChem-10302200282D
 88 91  0     1  0  0  0  0  0999 V2000
   10.6603    3.0950    0.0000 S   0  0  0  0  0  0  0  0  0  0  0  0
    2.0000   -1.9050    0.0000 F   0  0  0  0  0  0  0  0  0  0  0  0
    2.3660   -3.2710    0.0000 F   0  0  0  0  0  0  0  0  0  0  0  0
    3.3660   -1.5390    0.0000 F   0  0  0  0  0  0  0  0  0  0  0  0
    8.0622    1.5950    0.0000 O   0  0  0  0  0  0  0  0  0  0  0  0
   11.6603    3.0950    0.0000 O   0  0  0  0  0  0  0  0  0  0  0  0
    9.6602    3.0950    0.0000 O   0  0  0  0  0  0  0  0  0  0  0  0
    6.3301   -2.4050    0.0000 O   0  0  0  0  0  0  0  0  0  0  0  0
    9.8744   -5.6003    0.0000 O   0  0  0  0  0  0  0  0  0  0  0  0
    9.8744   -7.2097    0.0000 O   0  0  0  0  0  0  0  0  0  0  0  0
   10.6603    2.0950    0.0000 N   0  0  3  0  0  0  0  0  0  0  0  0
    8.0622   -2.4050    0.0000 N   0  0  0  0  0  0  0  0  0  0  0  0
    7.1962   -3.9050    0.0000 N   0  0  0  0  0  0  0  0  0  0  0  0
   10.6603    7.0950    0.0000 N   0  0  0  0  0  0  0  0  0  0  0  0
    9.7942    1.5950    0.0000 C   0  0  1  0  0  0  0  0  0  0  0  0
    9.7942    0.5950    0.0000 C   0  0  0  0  0  0  0  0  0  0  0  0
   11.5263    1.5950    0.0000 C   0  0  0  0  0  0  0  0  0  0  0  0
    8.9282    0.0950    0.0000 C   0  0  0  0  0  0  0  0  0  0  0  0
   11.5263    0.5950    0.0000 C   0  0  0  0  0  0  0  0  0  0  0  0
    8.9282    2.0950    0.0000 C   0  0  0  0  0  0  0  0  0  0  0  0
    8.9282   -0.9050    0.0000 C   0  0  0  0  0  0  0  0  0  0  0  0
   10.6603    4.0950    0.0000 C   0  0  0  0  0  0  0  0  0  0  0  0
   12.3923    0.0950    0.0000 C   0  0  0  0  0  0  0  0  0  0  0  0
   10.6603    0.0950    0.0000 C   0  0  0  0  0  0  0  0  0  0  0  0
    8.0622   -1.4050    0.0000 C   0  0  0  0  0  0  0  0  0  0  0  0
   11.5263    4.5950    0.0000 C   0  0  0  0  0  0  0  0  0  0  0  0
    9.7942    4.5950    0.0000 C   0  0  0  0  0  0  0  0  0  0  0  0
    7.1962   -2.9050    0.0000 C   0  0  0  0  0  0  0  0  0  0  0  0
   11.5263    5.5950    0.0000 C   0  0  0  0  0  0  0  0  0  0  0  0
    9.7942    5.5950    0.0000 C   0  0  0  0  0  0  0  0  0  0  0  0
   10.6603    6.0950    0.0000 C   0  0  0  0  0  0  0  0  0  0  0  0
    8.0622   -4.4050    0.0000 C   0  0  0  0  0  0  0  0  0  0  0  0
    6.3301   -4.4050    0.0000 C   0  0  0  0  0  0  0  0  0  0  0  0
    8.0622   -5.4050    0.0000 C   0  0  0  0  0  0  0  0  0  0  0  0
    5.4641   -3.9050    0.0000 C   0  0  0  0  0  0  0  0  0  0  0  0
    8.9282   -5.9050    0.0000 C   0  0  0  0  0  0  0  0  0  0  0  0
    7.1962   -5.9050    0.0000 C   0  0  0  0  0  0  0  0  0  0  0  0
    8.9282   -6.9050    0.0000 C   0  0  0  0  0  0  0  0  0  0  0  0
    4.5981   -4.4050    0.0000 C   0  0  0  0  0  0  0  0  0  0  0  0
    5.4641   -2.9050    0.0000 C   0  0  0  0  0  0  0  0  0  0  0  0
    7.1962   -6.9050    0.0000 C   0  0  0  0  0  0  0  0  0  0  0  0
    8.0622   -7.4050    0.0000 C   0  0  0  0  0  0  0  0  0  0  0  0
   10.4580   -6.4050    0.0000 C   0  0  0  0  0  0  0  0  0  0  0  0
    3.7320   -3.9050    0.0000 C   0  0  0  0  0  0  0  0  0  0  0  0
    4.5981   -2.4050    0.0000 C   0  0  0  0  0  0  0  0  0  0  0  0
    3.7320   -2.9050    0.0000 C   0  0  0  0  0  0  0  0  0  0  0  0
    2.8660   -2.4050    0.0000 C   0  0  0  0  0  0  0  0  0  0  0  0
    9.7942    2.2150    0.0000 H   0  0  0  0  0  0  0  0  0  0  0  0
   10.0063    0.0124    0.0000 H   0  0  0  0  0  0  0  0  0  0  0  0
   10.4048    0.7027    0.0000 H   0  0  0  0  0  0  0  0  0  0  0  0
   12.1369    1.4873    0.0000 H   0  0  0  0  0  0  0  0  0  0  0  0
   11.7383    2.1776    0.0000 H   0  0  0  0  0  0  0  0  0  0  0  0
    8.7162    0.6776    0.0000 H   0  0  0  0  0  0  0  0  0  0  0  0
    8.3176   -0.0127    0.0000 H   0  0  0  0  0  0  0  0  0  0  0  0
   12.0632    0.9050    0.0000 H   0  0  0  0  0  0  0  0  0  0  0  0
    9.3267    2.5700    0.0000 H   0  0  0  0  0  0  0  0  0  0  0  0
    8.5297    2.5700    0.0000 H   0  0  0  0  0  0  0  0  0  0  0  0
    9.1403   -1.4876    0.0000 H   0  0  0  0  0  0  0  0  0  0  0  0
    9.5388   -0.7973    0.0000 H   0  0  0  0  0  0  0  0  0  0  0  0
   12.0823   -0.4419    0.0000 H   0  0  0  0  0  0  0  0  0  0  0  0
   12.9292   -0.2150    0.0000 H   0  0  0  0  0  0  0  0  0  0  0  0
   12.7023    0.6319    0.0000 H   0  0  0  0  0  0  0  0  0  0  0  0
   10.3503    0.6319    0.0000 H   0  0  0  0  0  0  0  0  0  0  0  0
   10.1233   -0.2150    0.0000 H   0  0  0  0  0  0  0  0  0  0  0  0
   10.9703   -0.4419    0.0000 H   0  0  0  0  0  0  0  0  0  0  0  0
    7.8501   -0.8224    0.0000 H   0  0  0  0  0  0  0  0  0  0  0  0
    7.4516   -1.5127    0.0000 H   0  0  0  0  0  0  0  0  0  0  0  0
    7.5252    1.9050    0.0000 H   0  0  0  0  0  0  0  0  0  0  0  0
   12.0632    4.2850    0.0000 H   0  0  0  0  0  0  0  0  0  0  0  0
    9.2573    4.2850    0.0000 H   0  0  0  0  0  0  0  0  0  0  0  0
    8.5991   -2.7150    0.0000 H   0  0  0  0  0  0  0  0  0  0  0  0
   12.0632    5.9050    0.0000 H   0  0  0  0  0  0  0  0  0  0  0  0
    9.2573    5.9050    0.0000 H   0  0  0  0  0  0  0  0  0  0  0  0
    8.6728   -4.5127    0.0000 H   0  0  0  0  0  0  0  0  0  0  0  0
    8.2742   -3.8224    0.0000 H   0  0  0  0  0  0  0  0  0  0  0  0
    5.9316   -4.8800    0.0000 H   0  0  0  0  0  0  0  0  0  0  0  0
    6.7287   -4.8800    0.0000 H   0  0  0  0  0  0  0  0  0  0  0  0
   11.1972    7.4050    0.0000 H   0  0  0  0  0  0  0  0  0  0  0  0
   10.1233    7.4050    0.0000 H   0  0  0  0  0  0  0  0  0  0  0  0
    6.6592   -5.5950    0.0000 H   0  0  0  0  0  0  0  0  0  0  0  0
    4.5981   -5.0250    0.0000 H   0  0  0  0  0  0  0  0  0  0  0  0
    6.0010   -2.5950    0.0000 H   0  0  0  0  0  0  0  0  0  0  0  0
    6.6592   -7.2150    0.0000 H   0  0  0  0  0  0  0  0  0  0  0  0
    8.0622   -8.0250    0.0000 H   0  0  0  0  0  0  0  0  0  0  0  0
   10.9189   -6.8197    0.0000 H   0  0  0  0  0  0  0  0  0  0  0  0
   10.9189   -5.9903    0.0000 H   0  0  0  0  0  0  0  0  0  0  0  0
    3.1951   -4.2150    0.0000 H   0  0  0  0  0  0  0  0  0  0  0  0
    4.5981   -1.7850    0.0000 H   0  0  0  0  0  0  0  0  0  0  0  0
  1  6  2  0  0  0  0
  1  7  2  0  0  0  0
  1 11  1  0  0  0  0
  1 22  1  0  0  0  0
  2 47  1  0  0  0  0
  3 47  1  0  0  0  0
  4 47  1  0  0  0  0
  5 20  1  0  0  0  0
  5 68  1  0  0  0  0
  8 28  2  0  0  0  0
  9 36  1  0  0  0  0
  9 43  1  0  0  0  0
 10 38  1  0  0  0  0
 10 43  1  0  0  0  0
 15 11  1  1  0  0  0
 11 17  1  0  0  0  0
 12 25  1  0  0  0  0
 12 28  1  0  0  0  0
 12 71  1  0  0  0  0
 13 28  1  0  0  0  0
 13 32  1  0  0  0  0
 13 33  1  0  0  0  0
 14 31  1  0  0  0  0
 14 78  1  0  0  0  0
 14 79  1  0  0  0  0
 15 16  1  0  0  0  0
 15 20  1  0  0  0  0
 15 48  1  0  0  0  0
 16 18  1  0  0  0  0
 16 49  1  0  0  0  0
 16 50  1  0  0  0  0
 17 19  1  0  0  0  0
 17 51  1  0  0  0  0
 17 52  1  0  0  0  0
 18 21  1  0  0  0  0
 18 53  1  0  0  0  0
 18 54  1  0  0  0  0
 19 23  1  0  0  0  0
 19 24  1  0  0  0  0
 19 55  1  0  0  0  0
 20 56  1  0  0  0  0
 20 57  1  0  0  0  0
 21 25  1  0  0  0  0
 21 58  1  0  0  0  0
 21 59  1  0  0  0  0
 22 26  2  0  0  0  0
 22 27  1  0  0  0  0
 23 60  1  0  0  0  0
 23 61  1  0  0  0  0
 23 62  1  0  0  0  0
 24 63  1  0  0  0  0
 24 64  1  0  0  0  0
 24 65  1  0  0  0  0
 25 66  1  0  0  0  0
 25 67  1  0  0  0  0
 26 29  1  0  0  0  0
 26 69  1  0  0  0  0
 27 30  2  0  0  0  0
 27 70  1  0  0  0  0
 29 31  2  0  0  0  0
 29 72  1  0  0  0  0
 30 31  1  0  0  0  0
 30 73  1  0  0  0  0
 32 34  1  0  0  0  0
 32 74  1  0  0  0  0
 32 75  1  0  0  0  0
 33 35  1  0  0  0  0
 33 76  1  0  0  0  0
 33 77  1  0  0  0  0
 34 36  2  0  0  0  0
 34 37  1  0  0  0  0
 35 39  2  0  0  0  0
 35 40  1  0  0  0  0
 36 38  1  0  0  0  0
 37 41  2  0  0  0  0
 37 80  1  0  0  0  0
 38 42  2  0  0  0  0
 39 44  1  0  0  0  0
 39 81  1  0  0  0  0
 40 45  2  0  0  0  0
 40 82  1  0  0  0  0
 41 42  1  0  0  0  0
 41 83  1  0  0  0  0
 42 84  1  0  0  0  0
 43 85  1  0  0  0  0
 43 86  1  0  0  0  0
 44 46  2  0  0  0  0
 44 87  1  0  0  0  0
 45 46  1  0  0  0  0
 45 88  1  0  0  0  0
 46 47  1  0  0  0  0
M  END
> <PUBCHEM_COMPOUND_CID>
513801
> <PUBCHEM_COMPOUND_CANONICALIZED>
1
> <PUBCHEM_CACTVS_COMPLEXITY>
1060
> <PUBCHEM_CACTVS_HBOND_ACCEPTOR>
11
> <PUBCHEM_CACTVS_HBOND_DONOR>
3
> <PUBCHEM_CACTVS_ROTATABLE_BOND>
15
> <PUBCHEM_CACTVS_SUBSKEYS>
AAADcfB/uYBAAAAAAAAAAAAAAAAAASAAAAAwYMAAAAAAAEgBUAAAHwQQSAAADSzh2Bczz4PABgKIAiRCUHDCCBAgIgAIiJgO7IifNiKEsZukcCpu1hOe6AewwDAOQAQBAAAIQACACAIAABCAAAAAAAAAAA==
> <PUBCHEM_IUPAC_OPENEYE_NAME>
3-[(5S)-5-[(4-aminophenyl)sulfonyl-isobutyl-amino]-6-hydroxy-hexyl]-1-(1,3-benzodioxol-4-ylmethyl)-1-[[4-(trifluoromethyl)phenyl]methyl]urea
> <PUBCHEM_IUPAC_CAS_NAME>
3-[(5S)-5-[(4-aminophenyl)sulfonyl-(2-methylpropyl)amino]-6-hydroxyhexyl]-1-(1,3-benzodioxol-4-ylmethyl)-1-[[4-(trifluoromethyl)phenyl]methyl]urea
> <PUBCHEM_IUPAC_NAME_MARKUP>
3-[(5<I>S</I>)-5-[(4-aminophenyl)sulfonyl-(2-methylpropyl)amino]-6-hydroxyhexyl]-1-(1,3-benzodioxol-4-ylmethyl)-1-[[4-(trifluoromethyl)phenyl]methyl]urea
> <PUBCHEM_IUPAC_NAME>
3-[(5S)-5-[(4-aminophenyl)sulfonyl-(2-methylpropyl)amino]-6-hydroxyhexyl]-1-(1,3-benzodioxol-4-ylmethyl)-1-[[4-(trifluoromethyl)phenyl]methyl]urea
> <PUBCHEM_IUPAC_SYSTEMATIC_NAME>
3-[(5S)-5-[(4-aminophenyl)sulfonyl-(2-methylpropyl)amino]-6-oxidanyl-hexyl]-1-(1,3-benzodioxol-4-ylmethyl)-1-[[4-(trifluoromethyl)phenyl]methyl]urea
> <PUBCHEM_IUPAC_TRADITIONAL_NAME>
1-(1,3-benzodioxol-4-ylmethyl)-3-[(5S)-6-hydroxy-5-[isobutyl(sulfanilyl)amino]hexyl]-1-[4-(trifluoromethyl)benzyl]urea
> <PUBCHEM_IUPAC_INCHI>
InChI=1S/C33H41F3N4O6S/c1-23(2)18-40(47(43,44)29-15-13-27(37)14-16-29)28(21-41)7-3-4-17-38-32(42)39(19-24-9-11-26(12-10-24)33(34,35)36)20-25-6-5-8-30-31(25)46-22-45-30/h5-6,8-16,23,28,41H,3-4,7,17-22,37H2,1-2H3,(H,38,42)/t28-/m0/s1
> <PUBCHEM_IUPAC_INCHIKEY>
YERIKJMVVNHLML-NDEPHWFRSA-N
> <PUBCHEM_XLOGP3_AA>
5.2
> <PUBCHEM_EXACT_MASS>
678.26989070
> <PUBCHEM_MOLECULAR_FORMULA>
C33H41F3N4O6S
> <PUBCHEM_MOLECULAR_WEIGHT>
678.8
> <PUBCHEM_OPENEYE_CAN_SMILES>
CC(C)CN(C(CCCCNC(=O)N(CC1=CC=C(C=C1)C(F)(F)F)CC2=C3C(=CC=C2)OCO3)CO)S(=O)(=O)C4=CC=C(C=C4)N
> <PUBCHEM_OPENEYE_ISO_SMILES>
CC(C)CN([C@@H](CCCCNC(=O)N(CC1=CC=C(C=C1)C(F)(F)F)CC2=C3C(=CC=C2)OCO3)CO)S(=O)(=O)C4=CC=C(C=C4)N
> <PUBCHEM_CACTVS_TPSA>
143
> <PUBCHEM_MONOISOTOPIC_WEIGHT>
678.26989070
> <PUBCHEM_TOTAL_CHARGE>
0
> <PUBCHEM_HEAVY_ATOM_COUNT>
47
> <PUBCHEM_ATOM_DEF_STEREO_COUNT>
1
> <PUBCHEM_ATOM_UDEF_STEREO_COUNT>
0
> <PUBCHEM_BOND_DEF_STEREO_COUNT>
0
> <PUBCHEM_BOND_UDEF_STEREO_COUNT>
0
> <PUBCHEM_ISOTOPIC_ATOM_COUNT>
0
> <PUBCHEM_COMPONENT_COUNT>
1
> <PUBCHEM_CACTVS_TAUTO_COUNT>
-1
> <PUBCHEM_COORDINATE_TYPE>
1
5
255
> <PUBCHEM_BONDANNOTATIONS>
15  11  5
22  26  8
22  27  8
26  29  8
27  30  8
29  31  8
30  31  8
34  36  8
34  37  8
35  39  8
35  40  8
36  38  8
37  41  8
38  42  8
39  44  8
40  45  8
41  42  8
44  46  8
45  46  8
$$$$
