513870
  -OEChem-10302200282D
 37 39  0     1  0  0  0  0  0999 V2000
    5.8055    1.1580    0.0000 O   0  0  0  0  0  0  0  0  0  0  0  0
    8.3435    0.6537    0.0000 O   0  0  0  0  0  0  0  0  0  0  0  0
    8.1552    2.2418    0.0000 O   0  0  0  0  0  0  0  0  0  0  0  0
    5.1095    3.1272    0.0000 O   0  0  0  0  0  0  0  0  0  0  0  0
    6.0812   -0.6025    0.0000 N   0  0  0  0  0  0  0  0  0  0  0  0
    6.0812   -2.2120    0.0000 N   0  0  0  0  0  0  0  0  0  0  0  0
    4.2690   -0.4072    0.0000 N   0  0  0  0  0  0  0  0  0  0  0  0
    3.4030   -1.9072    0.0000 N   0  0  0  0  0  0  0  0  0  0  0  0
    4.2690   -3.4072    0.0000 N   0  0  0  0  0  0  0  0  0  0  0  0
    2.5369   -0.4072    0.0000 N   0  0  0  0  0  0  0  0  0  0  0  0
    7.3435    0.6554    0.0000 C   0  0  2  0  0  0  0  0  0  0  0  0
    7.3452    1.6554    0.0000 C   0  0  1  0  0  0  0  0  0  0  0  0
    6.3919    0.3480    0.0000 C   0  0  1  0  0  0  0  0  0  0  0  0
    6.3947    1.9660    0.0000 C   0  0  1  0  0  0  0  0  0  0  0  0
    7.6508   -0.2962    0.0000 C   0  0  0  0  0  0  0  0  0  0  0  0
    6.0873    2.9176    0.0000 C   0  0  0  0  0  0  0  0  0  0  0  0
    5.1350   -0.9072    0.0000 C   0  0  0  0  0  0  0  0  0  0  0  0
    6.6648   -1.4072    0.0000 C   0  0  0  0  0  0  0  0  0  0  0  0
    5.1350   -1.9072    0.0000 C   0  0  0  0  0  0  0  0  0  0  0  0
    4.2690   -2.4072    0.0000 C   0  0  0  0  0  0  0  0  0  0  0  0
    3.4030   -0.9072    0.0000 C   0  0  0  0  0  0  0  0  0  0  0  0
    5.7794    0.2521    0.0000 H   0  0  0  0  0  0  0  0  0  0  0  0
    7.2493    2.2679    0.0000 H   0  0  0  0  0  0  0  0  0  0  0  0
    5.7825    2.0641    0.0000 H   0  0  0  0  0  0  0  0  0  0  0  0
    7.0609   -0.4868    0.0000 H   0  0  0  0  0  0  0  0  0  0  0  0
    7.8414   -0.8862    0.0000 H   0  0  0  0  0  0  0  0  0  0  0  0
    8.2408   -0.1056    0.0000 H   0  0  0  0  0  0  0  0  0  0  0  0
    6.7014    3.0029    0.0000 H   0  0  0  0  0  0  0  0  0  0  0  0
    6.1100    3.5372    0.0000 H   0  0  0  0  0  0  0  0  0  0  0  0
    8.6526    0.1162    0.0000 H   0  0  0  0  0  0  0  0  0  0  0  0
    8.0915    2.8585    0.0000 H   0  0  0  0  0  0  0  0  0  0  0  0
    7.2848   -1.4072    0.0000 H   0  0  0  0  0  0  0  0  0  0  0  0
    4.9190    3.7172    0.0000 H   0  0  0  0  0  0  0  0  0  0  0  0
    3.7320   -3.7172    0.0000 H   0  0  0  0  0  0  0  0  0  0  0  0
    4.8059   -3.7172    0.0000 H   0  0  0  0  0  0  0  0  0  0  0  0
    2.0000   -0.7172    0.0000 H   0  0  0  0  0  0  0  0  0  0  0  0
    2.5369    0.2128    0.0000 H   0  0  0  0  0  0  0  0  0  0  0  0
  1 13  1  0  0  0  0
  1 14  1  0  0  0  0
 11  2  1  1  0  0  0
  2 30  1  0  0  0  0
 12  3  1  1  0  0  0
  3 31  1  0  0  0  0
  4 16  1  0  0  0  0
  4 33  1  0  0  0  0
 13  5  1  6  0  0  0
  5 17  1  0  0  0  0
  5 18  1  0  0  0  0
  6 18  2  0  0  0  0
  6 19  1  0  0  0  0
  7 17  2  0  0  0  0
  7 21  1  0  0  0  0
  8 20  1  0  0  0  0
  8 21  2  0  0  0  0
  9 20  1  0  0  0  0
  9 34  1  0  0  0  0
  9 35  1  0  0  0  0
 10 21  1  0  0  0  0
 10 36  1  0  0  0  0
 10 37  1  0  0  0  0
 11 12  1  0  0  0  0
 11 13  1  0  0  0  0
 11 15  1  0  0  0  0
 12 14  1  0  0  0  0
 12 23  1  0  0  0  0
 13 22  1  0  0  0  0
 14 16  1  6  0  0  0
 14 24  1  0  0  0  0
 15 25  1  0  0  0  0
 15 26  1  0  0  0  0
 15 27  1  0  0  0  0
 16 28  1  0  0  0  0
 16 29  1  0  0  0  0
 17 19  1  0  0  0  0
 18 32  1  0  0  0  0
 19 20  2  0  0  0  0
M  END
> <PUBCHEM_COMPOUND_CID>
513870
> <PUBCHEM_COMPOUND_CANONICALIZED>
1
> <PUBCHEM_CACTVS_COMPLEXITY>
403
> <PUBCHEM_CACTVS_HBOND_ACCEPTOR>
9
> <PUBCHEM_CACTVS_HBOND_DONOR>
5
> <PUBCHEM_CACTVS_ROTATABLE_BOND>
2
> <PUBCHEM_CACTVS_SUBSKEYS>
AAADceBzuAAAAAAAAAAAAAAAAAAAAWJAAAAsAAAAAAAAAFgB+AAAHgAQCAAADFzhlwYH8L9MFgCgAQZhZACAgC0REKABUCAoVBCDWAJAyEAeRAgPAALTACDwMAIMAAAAAAAAAAAAAAAAAAAAAAAAAAAAAA==
> <PUBCHEM_IUPAC_OPENEYE_NAME>
(2R,3R,4R,5R)-2-(2,6-diaminopurin-9-yl)-5-(hydroxymethyl)-3-methyl-tetrahydrofuran-3,4-diol
> <PUBCHEM_IUPAC_CAS_NAME>
(2R,3R,4R,5R)-2-(2,6-diamino-9-purinyl)-5-(hydroxymethyl)-3-methyloxolane-3,4-diol
> <PUBCHEM_IUPAC_NAME_MARKUP>
(2<I>R</I>,3<I>R</I>,4<I>R</I>,5<I>R</I>)-2-(2,6-diaminopurin-9-yl)-5-(hydroxymethyl)-3-methyloxolane-3,4-diol
> <PUBCHEM_IUPAC_NAME>
(2R,3R,4R,5R)-2-(2,6-diaminopurin-9-yl)-5-(hydroxymethyl)-3-methyloxolane-3,4-diol
> <PUBCHEM_IUPAC_SYSTEMATIC_NAME>
(2R,3R,4R,5R)-2-[2,6-bis(azanyl)purin-9-yl]-5-(hydroxymethyl)-3-methyl-oxolane-3,4-diol
> <PUBCHEM_IUPAC_TRADITIONAL_NAME>
(2R,3R,4R,5R)-2-(2,6-diaminopurin-9-yl)-3-methyl-5-methylol-tetrahydrofuran-3,4-diol
> <PUBCHEM_IUPAC_INCHI>
InChI=1S/C11H16N6O4/c1-11(20)6(19)4(2-18)21-9(11)17-3-14-5-7(12)15-10(13)16-8(5)17/h3-4,6,9,18-20H,2H2,1H3,(H4,12,13,15,16)/t4-,6-,9-,11-/m1/s1
> <PUBCHEM_IUPAC_INCHIKEY>
KHPCBZYTDJCPHW-GITKWUPZSA-N
> <PUBCHEM_XLOGP3>
-1.3
> <PUBCHEM_EXACT_MASS>
296.12330301
> <PUBCHEM_MOLECULAR_FORMULA>
C11H16N6O4
> <PUBCHEM_MOLECULAR_WEIGHT>
296.28
> <PUBCHEM_OPENEYE_CAN_SMILES>
CC1(C(C(OC1N2C=NC3=C(N=C(N=C32)N)N)CO)O)O
> <PUBCHEM_OPENEYE_ISO_SMILES>
C[C@]1([C@@H]([C@H](O[C@H]1N2C=NC3=C(N=C(N=C32)N)N)CO)O)O
> <PUBCHEM_CACTVS_TPSA>
166
> <PUBCHEM_MONOISOTOPIC_WEIGHT>
296.12330301
> <PUBCHEM_TOTAL_CHARGE>
0
> <PUBCHEM_HEAVY_ATOM_COUNT>
21
> <PUBCHEM_ATOM_DEF_STEREO_COUNT>
4
> <PUBCHEM_ATOM_UDEF_STEREO_COUNT>
0
> <PUBCHEM_BOND_DEF_STEREO_COUNT>
0
> <PUBCHEM_BOND_UDEF_STEREO_COUNT>
0
> <PUBCHEM_ISOTOPIC_ATOM_COUNT>
0
> <PUBCHEM_COMPONENT_COUNT>
1
> <PUBCHEM_CACTVS_TAUTO_COUNT>
-1
> <PUBCHEM_COORDINATE_TYPE>
1
5
255
> <PUBCHEM_BONDANNOTATIONS>
14  16  6
17  19  8
19  20  8
11  2  5
12  3  5
13  5  6
5  17  8
5  18  8
6  18  8
6  19  8
7  17  8
7  21  8
8  20  8
8  21  8
$$$$
