513872
  -OEChem-10302200282D
 36 37  0     1  0  0  0  0  0999 V2000
    5.4641   -1.5707    0.0000 O   0  0  0  0  0  0  0  0  0  0  0  0
    2.8660   -0.0707    0.0000 O   0  0  0  0  0  0  0  0  0  0  0  0
    2.8660   -2.0707    0.0000 O   0  0  0  0  0  0  0  0  0  0  0  0
    5.4641   -3.5707    0.0000 O   0  0  0  0  0  0  0  0  0  0  0  0
    6.6804    3.1726    0.0000 O   0  0  0  0  0  0  0  0  0  0  0  0
    4.5981    0.9293    0.0000 N   0  0  0  0  0  0  0  0  0  0  0  0
    5.4071    1.5171    0.0000 N   0  0  0  0  0  0  0  0  0  0  0  0
    4.0981    2.4681    0.0000 N   0  0  0  0  0  0  0  0  0  0  0  0
    3.7320   -0.5707    0.0000 C   0  0  1  0  0  0  0  0  0  0  0  0
    4.5981   -0.0707    0.0000 C   0  0  1  0  0  0  0  0  0  0  0  0
    3.7320   -1.5707    0.0000 C   0  0  1  0  0  0  0  0  0  0  0  0
    4.5981   -2.0707    0.0000 C   0  0  1  0  0  0  0  0  0  0  0  0
    5.4641   -0.5707    0.0000 C   0  0  0  0  0  0  0  0  0  0  0  0
    4.5981   -3.0707    0.0000 C   0  0  0  0  0  0  0  0  0  0  0  0
    3.7891    1.5171    0.0000 C   0  0  0  0  0  0  0  0  0  0  0  0
    2.0000   -0.5707    0.0000 C   0  0  0  0  0  0  0  0  0  0  0  0
    5.0981    2.4681    0.0000 C   0  0  0  0  0  0  0  0  0  0  0  0
    5.6859    3.2772    0.0000 C   0  0  0  0  0  0  0  0  0  0  0  0
    5.2791    4.1907    0.0000 C   0  0  0  0  0  0  0  0  0  0  0  0
    3.7320    0.0493    0.0000 H   0  0  0  0  0  0  0  0  0  0  0  0
    5.1350    0.2393    0.0000 H   0  0  0  0  0  0  0  0  0  0  0  0
    3.7320   -2.1907    0.0000 H   0  0  0  0  0  0  0  0  0  0  0  0
    5.1350   -2.3807    0.0000 H   0  0  0  0  0  0  0  0  0  0  0  0
    6.0747   -0.6784    0.0000 H   0  0  0  0  0  0  0  0  0  0  0  0
    5.6762    0.0119    0.0000 H   0  0  0  0  0  0  0  0  0  0  0  0
    3.9875   -2.9630    0.0000 H   0  0  0  0  0  0  0  0  0  0  0  0
    4.3860   -3.6533    0.0000 H   0  0  0  0  0  0  0  0  0  0  0  0
    2.8660   -2.6907    0.0000 H   0  0  0  0  0  0  0  0  0  0  0  0
    3.1994    1.3255    0.0000 H   0  0  0  0  0  0  0  0  0  0  0  0
    1.6900   -0.0338    0.0000 H   0  0  0  0  0  0  0  0  0  0  0  0
    1.4631   -0.8807    0.0000 H   0  0  0  0  0  0  0  0  0  0  0  0
    2.3100   -1.1076    0.0000 H   0  0  0  0  0  0  0  0  0  0  0  0
    5.4641   -4.1907    0.0000 H   0  0  0  0  0  0  0  0  0  0  0  0
    5.8455    4.4429    0.0000 H   0  0  0  0  0  0  0  0  0  0  0  0
    5.0270    4.7571    0.0000 H   0  0  0  0  0  0  0  0  0  0  0  0
    4.7127    3.9385    0.0000 H   0  0  0  0  0  0  0  0  0  0  0  0
  1 12  1  0  0  0  0
  1 13  1  0  0  0  0
  9  2  1  1  0  0  0
  2 16  1  0  0  0  0
 11  3  1  1  0  0  0
  3 28  1  0  0  0  0
  4 14  1  0  0  0  0
  4 33  1  0  0  0  0
  5 18  2  0  0  0  0
  6  7  1  0  0  0  0
 10  6  1  6  0  0  0
  6 15  1  0  0  0  0
  7 17  2  0  0  0  0
  8 15  2  0  0  0  0
  8 17  1  0  0  0  0
  9 10  1  0  0  0  0
  9 11  1  0  0  0  0
  9 20  1  0  0  0  0
 10 13  1  0  0  0  0
 10 21  1  0  0  0  0
 11 12  1  0  0  0  0
 11 22  1  0  0  0  0
 12 14  1  6  0  0  0
 12 23  1  0  0  0  0
 13 24  1  0  0  0  0
 13 25  1  0  0  0  0
 14 26  1  0  0  0  0
 14 27  1  0  0  0  0
 15 29  1  0  0  0  0
 16 30  1  0  0  0  0
 16 31  1  0  0  0  0
 16 32  1  0  0  0  0
 17 18  1  0  0  0  0
 18 19  1  0  0  0  0
 19 34  1  0  0  0  0
 19 35  1  0  0  0  0
 19 36  1  0  0  0  0
M  END
> <PUBCHEM_COMPOUND_CID>
513872
> <PUBCHEM_COMPOUND_CANONICALIZED>
1
> <PUBCHEM_CACTVS_COMPLEXITY>
330
> <PUBCHEM_CACTVS_HBOND_ACCEPTOR>
7
> <PUBCHEM_CACTVS_HBOND_DONOR>
2
> <PUBCHEM_CACTVS_ROTATABLE_BOND>
4
> <PUBCHEM_CACTVS_SUBSKEYS>
AAADceBzOAAAAAAAAAAAAAAAAAAAAWAAAAAkAAAAAAAAAAABgAAAHgAICAAACDzhgwYHEAYIFgAqAIIxJAAQgAsSgKAVQACoAACDGAIAiCAHQAAPCAITAAHwUAMAAAAAAAAAAAAAAAAAAAAAAAAAAAAAAA==
> <PUBCHEM_IUPAC_OPENEYE_NAME>
1-[1-[(3R,4S,5S,6R)-5-hydroxy-6-(hydroxymethyl)-4-methoxy-tetrahydropyran-3-yl]-1,2,4-triazol-3-yl]ethanone
> <PUBCHEM_IUPAC_CAS_NAME>
1-[1-[(3R,4S,5S,6R)-5-hydroxy-6-(hydroxymethyl)-4-methoxy-3-oxanyl]-1,2,4-triazol-3-yl]ethanone
> <PUBCHEM_IUPAC_NAME_MARKUP>
1-[1-[(3<I>R</I>,4<I>S</I>,5<I>S</I>,6<I>R</I>)-5-hydroxy-6-(hydroxymethyl)-4-methoxyoxan-3-yl]-1,2,4-triazol-3-yl]ethanone
> <PUBCHEM_IUPAC_NAME>
1-[1-[(3R,4S,5S,6R)-5-hydroxy-6-(hydroxymethyl)-4-methoxyoxan-3-yl]-1,2,4-triazol-3-yl]ethanone
> <PUBCHEM_IUPAC_SYSTEMATIC_NAME>
1-[1-[(3R,4S,5S,6R)-6-(hydroxymethyl)-4-methoxy-5-oxidanyl-oxan-3-yl]-1,2,4-triazol-3-yl]ethanone
> <PUBCHEM_IUPAC_TRADITIONAL_NAME>
1-[1-[(3R,4S,5S,6R)-5-hydroxy-4-methoxy-6-methylol-tetrahydropyran-3-yl]-1,2,4-triazol-3-yl]ethanone
> <PUBCHEM_IUPAC_INCHI>
InChI=1S/C11H17N3O5/c1-6(16)11-12-5-14(13-11)7-4-19-8(3-15)9(17)10(7)18-2/h5,7-10,15,17H,3-4H2,1-2H3/t7-,8-,9-,10+/m1/s1
> <PUBCHEM_IUPAC_INCHIKEY>
UJAZIYRNOSILIF-KYXWUPHJSA-N
> <PUBCHEM_XLOGP3_AA>
-1.1
> <PUBCHEM_EXACT_MASS>
271.11682065
> <PUBCHEM_MOLECULAR_FORMULA>
C11H17N3O5
> <PUBCHEM_MOLECULAR_WEIGHT>
271.27
> <PUBCHEM_OPENEYE_CAN_SMILES>
CC(=O)C1=NN(C=N1)C2COC(C(C2OC)O)CO
> <PUBCHEM_OPENEYE_ISO_SMILES>
CC(=O)C1=NN(C=N1)[C@@H]2CO[C@@H]([C@H]([C@H]2OC)O)CO
> <PUBCHEM_CACTVS_TPSA>
107
> <PUBCHEM_MONOISOTOPIC_WEIGHT>
271.11682065
> <PUBCHEM_TOTAL_CHARGE>
0
> <PUBCHEM_HEAVY_ATOM_COUNT>
19
> <PUBCHEM_ATOM_DEF_STEREO_COUNT>
4
> <PUBCHEM_ATOM_UDEF_STEREO_COUNT>
0
> <PUBCHEM_BOND_DEF_STEREO_COUNT>
0
> <PUBCHEM_BOND_UDEF_STEREO_COUNT>
0
> <PUBCHEM_ISOTOPIC_ATOM_COUNT>
0
> <PUBCHEM_COMPONENT_COUNT>
1
> <PUBCHEM_CACTVS_TAUTO_COUNT>
-1
> <PUBCHEM_COORDINATE_TYPE>
1
5
255
> <PUBCHEM_BONDANNOTATIONS>
12  14  6
9  2  5
11  3  5
10  6  6
6  15  8
6  7  8
7  17  8
8  15  8
8  17  8
$$$$
