513804
  -OEChem-10302200282D
 82 84  0     1  0  0  0  0  0999 V2000
    3.7320   -3.5950    0.0000 S   0  0  0  0  0  0  0  0  0  0  0  0
    8.0622    4.9050    0.0000 F   0  0  0  0  0  0  0  0  0  0  0  0
    6.3301    7.9050    0.0000 F   0  0  0  0  0  0  0  0  0  0  0  0
    6.3301   -2.0950    0.0000 O   0  0  0  0  0  0  0  0  0  0  0  0
    4.7320   -3.5950    0.0000 O   0  0  0  0  0  0  0  0  0  0  0  0
    2.7320   -3.5950    0.0000 O   0  0  0  0  0  0  0  0  0  0  0  0
    8.0622    1.9050    0.0000 O   0  0  0  0  0  0  0  0  0  0  0  0
    3.7320   -2.5950    0.0000 N   0  0  3  0  0  0  0  0  0  0  0  0
    6.3301    1.9050    0.0000 N   0  0  0  0  0  0  0  0  0  0  0  0
    7.1962    3.4050    0.0000 N   0  0  0  0  0  0  0  0  0  0  0  0
    3.7320   -7.5950    0.0000 N   0  0  0  0  0  0  0  0  0  0  0  0
    4.5981   -2.0950    0.0000 C   0  0  1  0  0  0  0  0  0  0  0  0
    4.5981   -1.0950    0.0000 C   0  0  0  0  0  0  0  0  0  0  0  0
    2.8660   -2.0950    0.0000 C   0  0  0  0  0  0  0  0  0  0  0  0
    5.4641   -0.5950    0.0000 C   0  0  0  0  0  0  0  0  0  0  0  0
    2.8660   -1.0950    0.0000 C   0  0  0  0  0  0  0  0  0  0  0  0
    5.4641   -2.5950    0.0000 C   0  0  0  0  0  0  0  0  0  0  0  0
    5.4641    0.4050    0.0000 C   0  0  0  0  0  0  0  0  0  0  0  0
    3.7320   -4.5950    0.0000 C   0  0  0  0  0  0  0  0  0  0  0  0
    2.0000   -0.5950    0.0000 C   0  0  0  0  0  0  0  0  0  0  0  0
    3.7320   -0.5950    0.0000 C   0  0  0  0  0  0  0  0  0  0  0  0
    6.3301    0.9050    0.0000 C   0  0  0  0  0  0  0  0  0  0  0  0
    2.8660   -5.0950    0.0000 C   0  0  0  0  0  0  0  0  0  0  0  0
    4.5981   -5.0950    0.0000 C   0  0  0  0  0  0  0  0  0  0  0  0
    2.8660   -6.0950    0.0000 C   0  0  0  0  0  0  0  0  0  0  0  0
    4.5981   -6.0950    0.0000 C   0  0  0  0  0  0  0  0  0  0  0  0
    7.1962    2.4050    0.0000 C   0  0  0  0  0  0  0  0  0  0  0  0
    3.7320   -6.5950    0.0000 C   0  0  0  0  0  0  0  0  0  0  0  0
    6.3301    3.9050    0.0000 C   0  0  0  0  0  0  0  0  0  0  0  0
    8.0622    3.9050    0.0000 C   0  0  0  0  0  0  0  0  0  0  0  0
    6.3301    4.9050    0.0000 C   0  0  0  0  0  0  0  0  0  0  0  0
    8.9282    3.4050    0.0000 C   0  0  0  0  0  0  0  0  0  0  0  0
    7.1962    5.4050    0.0000 C   0  0  0  0  0  0  0  0  0  0  0  0
    5.4641    5.4050    0.0000 C   0  0  0  0  0  0  0  0  0  0  0  0
    9.7942    3.9050    0.0000 C   0  0  0  0  0  0  0  0  0  0  0  0
    8.9282    2.4050    0.0000 C   0  0  0  0  0  0  0  0  0  0  0  0
    7.1962    6.4050    0.0000 C   0  0  0  0  0  0  0  0  0  0  0  0
    5.4641    6.4050    0.0000 C   0  0  0  0  0  0  0  0  0  0  0  0
   10.6603    3.4050    0.0000 C   0  0  0  0  0  0  0  0  0  0  0  0
    9.7942    1.9050    0.0000 C   0  0  0  0  0  0  0  0  0  0  0  0
    6.3301    6.9050    0.0000 C   0  0  0  0  0  0  0  0  0  0  0  0
   10.6603    2.4050    0.0000 C   0  0  0  0  0  0  0  0  0  0  0  0
    4.5981   -2.7150    0.0000 H   0  0  0  0  0  0  0  0  0  0  0  0
    4.3860   -0.5124    0.0000 H   0  0  0  0  0  0  0  0  0  0  0  0
    3.9875   -1.2027    0.0000 H   0  0  0  0  0  0  0  0  0  0  0  0
    2.2554   -1.9873    0.0000 H   0  0  0  0  0  0  0  0  0  0  0  0
    2.6540   -2.6776    0.0000 H   0  0  0  0  0  0  0  0  0  0  0  0
    5.6762   -1.1776    0.0000 H   0  0  0  0  0  0  0  0  0  0  0  0
    6.0747   -0.4873    0.0000 H   0  0  0  0  0  0  0  0  0  0  0  0
    2.8660   -0.4750    0.0000 H   0  0  0  0  0  0  0  0  0  0  0  0
    5.0656   -3.0700    0.0000 H   0  0  0  0  0  0  0  0  0  0  0  0
    5.8626   -3.0700    0.0000 H   0  0  0  0  0  0  0  0  0  0  0  0
    5.2520    0.9876    0.0000 H   0  0  0  0  0  0  0  0  0  0  0  0
    4.8535    0.2973    0.0000 H   0  0  0  0  0  0  0  0  0  0  0  0
    2.3100   -0.0581    0.0000 H   0  0  0  0  0  0  0  0  0  0  0  0
    1.4631   -0.2850    0.0000 H   0  0  0  0  0  0  0  0  0  0  0  0
    1.6900   -1.1319    0.0000 H   0  0  0  0  0  0  0  0  0  0  0  0
    4.0420   -1.1319    0.0000 H   0  0  0  0  0  0  0  0  0  0  0  0
    4.2690   -0.2850    0.0000 H   0  0  0  0  0  0  0  0  0  0  0  0
    3.4220   -0.0581    0.0000 H   0  0  0  0  0  0  0  0  0  0  0  0
    6.5422    0.3224    0.0000 H   0  0  0  0  0  0  0  0  0  0  0  0
    6.9407    1.0127    0.0000 H   0  0  0  0  0  0  0  0  0  0  0  0
    6.8671   -2.4050    0.0000 H   0  0  0  0  0  0  0  0  0  0  0  0
    2.3291   -4.7850    0.0000 H   0  0  0  0  0  0  0  0  0  0  0  0
    5.1350   -4.7850    0.0000 H   0  0  0  0  0  0  0  0  0  0  0  0
    5.7932    2.2150    0.0000 H   0  0  0  0  0  0  0  0  0  0  0  0
    2.3291   -6.4050    0.0000 H   0  0  0  0  0  0  0  0  0  0  0  0
    5.1350   -6.4050    0.0000 H   0  0  0  0  0  0  0  0  0  0  0  0
    5.7196    4.0127    0.0000 H   0  0  0  0  0  0  0  0  0  0  0  0
    6.1181    3.3224    0.0000 H   0  0  0  0  0  0  0  0  0  0  0  0
    8.4607    4.3800    0.0000 H   0  0  0  0  0  0  0  0  0  0  0  0
    7.6636    4.3800    0.0000 H   0  0  0  0  0  0  0  0  0  0  0  0
    3.1951   -7.9050    0.0000 H   0  0  0  0  0  0  0  0  0  0  0  0
    4.2690   -7.9050    0.0000 H   0  0  0  0  0  0  0  0  0  0  0  0
    4.9272    5.0950    0.0000 H   0  0  0  0  0  0  0  0  0  0  0  0
    9.7942    4.5250    0.0000 H   0  0  0  0  0  0  0  0  0  0  0  0
    8.3913    2.0950    0.0000 H   0  0  0  0  0  0  0  0  0  0  0  0
    7.7331    6.7150    0.0000 H   0  0  0  0  0  0  0  0  0  0  0  0
    4.9272    6.7150    0.0000 H   0  0  0  0  0  0  0  0  0  0  0  0
   11.1972    3.7150    0.0000 H   0  0  0  0  0  0  0  0  0  0  0  0
    9.7942    1.2850    0.0000 H   0  0  0  0  0  0  0  0  0  0  0  0
   11.1972    2.0950    0.0000 H   0  0  0  0  0  0  0  0  0  0  0  0
  1  5  2  0  0  0  0
  1  6  2  0  0  0  0
  1  8  1  0  0  0  0
  1 19  1  0  0  0  0
  2 33  1  0  0  0  0
  3 41  1  0  0  0  0
  4 17  1  0  0  0  0
  4 63  1  0  0  0  0
  7 27  2  0  0  0  0
 12  8  1  1  0  0  0
  8 14  1  0  0  0  0
  9 22  1  0  0  0  0
  9 27  1  0  0  0  0
  9 66  1  0  0  0  0
 10 27  1  0  0  0  0
 10 29  1  0  0  0  0
 10 30  1  0  0  0  0
 11 28  1  0  0  0  0
 11 73  1  0  0  0  0
 11 74  1  0  0  0  0
 12 13  1  0  0  0  0
 12 17  1  0  0  0  0
 12 43  1  0  0  0  0
 13 15  1  0  0  0  0
 13 44  1  0  0  0  0
 13 45  1  0  0  0  0
 14 16  1  0  0  0  0
 14 46  1  0  0  0  0
 14 47  1  0  0  0  0
 15 18  1  0  0  0  0
 15 48  1  0  0  0  0
 15 49  1  0  0  0  0
 16 20  1  0  0  0  0
 16 21  1  0  0  0  0
 16 50  1  0  0  0  0
 17 51  1  0  0  0  0
 17 52  1  0  0  0  0
 18 22  1  0  0  0  0
 18 53  1  0  0  0  0
 18 54  1  0  0  0  0
 19 23  2  0  0  0  0
 19 24  1  0  0  0  0
 20 55  1  0  0  0  0
 20 56  1  0  0  0  0
 20 57  1  0  0  0  0
 21 58  1  0  0  0  0
 21 59  1  0  0  0  0
 21 60  1  0  0  0  0
 22 61  1  0  0  0  0
 22 62  1  0  0  0  0
 23 25  1  0  0  0  0
 23 64  1  0  0  0  0
 24 26  2  0  0  0  0
 24 65  1  0  0  0  0
 25 28  2  0  0  0  0
 25 67  1  0  0  0  0
 26 28  1  0  0  0  0
 26 68  1  0  0  0  0
 29 31  1  0  0  0  0
 29 69  1  0  0  0  0
 29 70  1  0  0  0  0
 30 32  1  0  0  0  0
 30 71  1  0  0  0  0
 30 72  1  0  0  0  0
 31 33  2  0  0  0  0
 31 34  1  0  0  0  0
 32 35  2  0  0  0  0
 32 36  1  0  0  0  0
 33 37  1  0  0  0  0
 34 38  2  0  0  0  0
 34 75  1  0  0  0  0
 35 39  1  0  0  0  0
 35 76  1  0  0  0  0
 36 40  2  0  0  0  0
 36 77  1  0  0  0  0
 37 41  2  0  0  0  0
 37 78  1  0  0  0  0
 38 41  1  0  0  0  0
 38 79  1  0  0  0  0
 39 42  2  0  0  0  0
 39 80  1  0  0  0  0
 40 42  1  0  0  0  0
 40 81  1  0  0  0  0
 42 82  1  0  0  0  0
M  END
> <PUBCHEM_COMPOUND_CID>
513804
> <PUBCHEM_COMPOUND_CANONICALIZED>
1
> <PUBCHEM_CACTVS_COMPLEXITY>
892
> <PUBCHEM_CACTVS_HBOND_ACCEPTOR>
8
> <PUBCHEM_CACTVS_HBOND_DONOR>
3
> <PUBCHEM_CACTVS_ROTATABLE_BOND>
15
> <PUBCHEM_CACTVS_SUBSKEYS>
AAADcfB7uYBAAAAAAAAAAAAAAAAAAAAAAAAwYMAAAAAAAAABUAAAHwQQSAAADSjh2A4zwYPAAgKIAiRCUHDCABAgAgAIiJgIZIiKMCKAkZGEYAhslgKYyAeQwAAOAAQAAAAAAAAACAAAAAAAAAAAAAAAAA==
> <PUBCHEM_IUPAC_OPENEYE_NAME>
3-[(5S)-5-[(4-aminophenyl)sulfonyl-isobutyl-amino]-6-hydroxy-hexyl]-1-benzyl-1-[(2,4-difluorophenyl)methyl]urea
> <PUBCHEM_IUPAC_CAS_NAME>
3-[(5S)-5-[(4-aminophenyl)sulfonyl-(2-methylpropyl)amino]-6-hydroxyhexyl]-1-[(2,4-difluorophenyl)methyl]-1-(phenylmethyl)urea
> <PUBCHEM_IUPAC_NAME_MARKUP>
3-[(5<I>S</I>)-5-[(4-aminophenyl)sulfonyl-(2-methylpropyl)amino]-6-hydroxyhexyl]-1-benzyl-1-[(2,4-difluorophenyl)methyl]urea
> <PUBCHEM_IUPAC_NAME>
3-[(5S)-5-[(4-aminophenyl)sulfonyl-(2-methylpropyl)amino]-6-hydroxyhexyl]-1-benzyl-1-[(2,4-difluorophenyl)methyl]urea
> <PUBCHEM_IUPAC_SYSTEMATIC_NAME>
3-[(5S)-5-[(4-aminophenyl)sulfonyl-(2-methylpropyl)amino]-6-oxidanyl-hexyl]-1-[[2,4-bis(fluoranyl)phenyl]methyl]-1-(phenylmethyl)urea
> <PUBCHEM_IUPAC_TRADITIONAL_NAME>
1-benzyl-1-(2,4-difluorobenzyl)-3-[(5S)-6-hydroxy-5-[isobutyl(sulfanilyl)amino]hexyl]urea
> <PUBCHEM_IUPAC_INCHI>
InChI=1S/C31H40F2N4O4S/c1-23(2)19-37(42(40,41)29-15-13-27(34)14-16-29)28(22-38)10-6-7-17-35-31(39)36(20-24-8-4-3-5-9-24)21-25-11-12-26(32)18-30(25)33/h3-5,8-9,11-16,18,23,28,38H,6-7,10,17,19-22,34H2,1-2H3,(H,35,39)/t28-/m0/s1
> <PUBCHEM_IUPAC_INCHIKEY>
ZKWKOYXTTRVTSM-NDEPHWFRSA-N
> <PUBCHEM_XLOGP3_AA>
4.7
> <PUBCHEM_EXACT_MASS>
602.27383327
> <PUBCHEM_MOLECULAR_FORMULA>
C31H40F2N4O4S
> <PUBCHEM_MOLECULAR_WEIGHT>
602.7
> <PUBCHEM_OPENEYE_CAN_SMILES>
CC(C)CN(C(CCCCNC(=O)N(CC1=CC=CC=C1)CC2=C(C=C(C=C2)F)F)CO)S(=O)(=O)C3=CC=C(C=C3)N
> <PUBCHEM_OPENEYE_ISO_SMILES>
CC(C)CN([C@@H](CCCCNC(=O)N(CC1=CC=CC=C1)CC2=C(C=C(C=C2)F)F)CO)S(=O)(=O)C3=CC=C(C=C3)N
> <PUBCHEM_CACTVS_TPSA>
124
> <PUBCHEM_MONOISOTOPIC_WEIGHT>
602.27383327
> <PUBCHEM_TOTAL_CHARGE>
0
> <PUBCHEM_HEAVY_ATOM_COUNT>
42
> <PUBCHEM_ATOM_DEF_STEREO_COUNT>
1
> <PUBCHEM_ATOM_UDEF_STEREO_COUNT>
0
> <PUBCHEM_BOND_DEF_STEREO_COUNT>
0
> <PUBCHEM_BOND_UDEF_STEREO_COUNT>
0
> <PUBCHEM_ISOTOPIC_ATOM_COUNT>
0
> <PUBCHEM_COMPONENT_COUNT>
1
> <PUBCHEM_CACTVS_TAUTO_COUNT>
-1
> <PUBCHEM_COORDINATE_TYPE>
1
5
255
> <PUBCHEM_BONDANNOTATIONS>
19  23  8
19  24  8
23  25  8
24  26  8
25  28  8
26  28  8
31  33  8
31  34  8
32  35  8
32  36  8
33  37  8
34  38  8
35  39  8
36  40  8
37  41  8
38  41  8
39  42  8
40  42  8
12  8  5
$$$$
