513873
  -OEChem-10302200282D
 37 38  0     1  0  0  0  0  0999 V2000
    4.2690    1.8075    0.0000 O   0  0  0  0  0  0  0  0  0  0  0  0
    4.2690   -1.1925    0.0000 O   0  0  0  0  0  0  0  0  0  0  0  0
    6.0010    1.8075    0.0000 O   0  0  0  0  0  0  0  0  0  0  0  0
    2.5369   -0.1925    0.0000 O   0  0  0  0  0  0  0  0  0  0  0  0
    2.5369    2.8075    0.0000 O   0  0  0  0  0  0  0  0  0  0  0  0
    6.9027   -3.1175    0.0000 O   0  0  0  0  0  0  0  0  0  0  0  0
    6.0010   -0.1925    0.0000 N   0  0  0  0  0  0  0  0  0  0  0  0
    6.1056   -1.1870    0.0000 N   0  0  0  0  0  0  0  0  0  0  0  0
    7.5837   -0.5289    0.0000 N   0  0  0  0  0  0  0  0  0  0  0  0
    5.1350    0.3075    0.0000 C   0  0  1  0  0  0  0  0  0  0  0  0
    4.2690   -0.1925    0.0000 C   0  0  1  0  0  0  0  0  0  0  0  0
    3.4030    0.3075    0.0000 C   0  0  1  0  0  0  0  0  0  0  0  0
    3.4030    1.3075    0.0000 C   0  0  1  0  0  0  0  0  0  0  0  0
    5.1350    1.3075    0.0000 C   0  0  2  0  0  0  0  0  0  0  0  0
    2.5369    1.8075    0.0000 C   0  0  0  0  0  0  0  0  0  0  0  0
    6.9146    0.2142    0.0000 C   0  0  0  0  0  0  0  0  0  0  0  0
    7.0837   -1.3949    0.0000 C   0  0  0  0  0  0  0  0  0  0  0  0
    6.0010    2.8075    0.0000 C   0  0  0  0  0  0  0  0  0  0  0  0
    7.4904   -2.3085    0.0000 C   0  0  0  0  0  0  0  0  0  0  0  0
    8.4850   -2.4130    0.0000 C   0  0  0  0  0  0  0  0  0  0  0  0
    5.6720    0.6175    0.0000 H   0  0  0  0  0  0  0  0  0  0  0  0
    4.8059   -0.5025    0.0000 H   0  0  0  0  0  0  0  0  0  0  0  0
    3.4030   -0.3125    0.0000 H   0  0  0  0  0  0  0  0  0  0  0  0
    3.4030    1.9275    0.0000 H   0  0  0  0  0  0  0  0  0  0  0  0
    5.1350    1.9275    0.0000 H   0  0  0  0  0  0  0  0  0  0  0  0
    1.9264    1.9152    0.0000 H   0  0  0  0  0  0  0  0  0  0  0  0
    2.3249    1.2249    0.0000 H   0  0  0  0  0  0  0  0  0  0  0  0
    3.7320   -1.5025    0.0000 H   0  0  0  0  0  0  0  0  0  0  0  0
    2.0000    0.1175    0.0000 H   0  0  0  0  0  0  0  0  0  0  0  0
    7.0435    0.8207    0.0000 H   0  0  0  0  0  0  0  0  0  0  0  0
    6.6210    2.8075    0.0000 H   0  0  0  0  0  0  0  0  0  0  0  0
    6.0010    3.4275    0.0000 H   0  0  0  0  0  0  0  0  0  0  0  0
    5.3810    2.8075    0.0000 H   0  0  0  0  0  0  0  0  0  0  0  0
    2.0000    3.1175    0.0000 H   0  0  0  0  0  0  0  0  0  0  0  0
    8.4202   -3.0296    0.0000 H   0  0  0  0  0  0  0  0  0  0  0  0
    9.1016   -2.4778    0.0000 H   0  0  0  0  0  0  0  0  0  0  0  0
    8.5498   -1.7964    0.0000 H   0  0  0  0  0  0  0  0  0  0  0  0
  1 13  1  0  0  0  0
  1 14  1  0  0  0  0
 11  2  1  6  0  0  0
  2 28  1  0  0  0  0
 14  3  1  6  0  0  0
  3 18  1  0  0  0  0
 12  4  1  6  0  0  0
  4 29  1  0  0  0  0
  5 15  1  0  0  0  0
  5 34  1  0  0  0  0
  6 19  2  0  0  0  0
  7  8  1  0  0  0  0
 10  7  1  1  0  0  0
  7 16  1  0  0  0  0
  8 17  2  0  0  0  0
  9 16  2  0  0  0  0
  9 17  1  0  0  0  0
 10 11  1  0  0  0  0
 10 14  1  0  0  0  0
 10 21  1  0  0  0  0
 11 12  1  0  0  0  0
 11 22  1  0  0  0  0
 12 13  1  0  0  0  0
 12 23  1  0  0  0  0
 13 15  1  1  0  0  0
 13 24  1  0  0  0  0
 14 25  1  0  0  0  0
 15 26  1  0  0  0  0
 15 27  1  0  0  0  0
 16 30  1  0  0  0  0
 17 19  1  0  0  0  0
 18 31  1  0  0  0  0
 18 32  1  0  0  0  0
 18 33  1  0  0  0  0
 19 20  1  0  0  0  0
 20 35  1  0  0  0  0
 20 36  1  0  0  0  0
 20 37  1  0  0  0  0
M  END
> <PUBCHEM_COMPOUND_CID>
513873
> <PUBCHEM_COMPOUND_CANONICALIZED>
1
> <PUBCHEM_CACTVS_COMPLEXITY>
357
> <PUBCHEM_CACTVS_HBOND_ACCEPTOR>
8
> <PUBCHEM_CACTVS_HBOND_DONOR>
3
> <PUBCHEM_CACTVS_ROTATABLE_BOND>
4
> <PUBCHEM_CACTVS_SUBSKEYS>
AAADceBzOAAAAAAAAAAAAAAAAAAAAWAAAAAkAAAAAAAAAAABgAAAHgAICAAACDzxgwcHGAYIFgAqAIIxJAAQgAsSgKAVQACoAACTGAIAiCAnQAAPCAIXAAHwcA8AAAAAAAAAAAAAAAAAAAAAAAAAAAAAAA==
> <PUBCHEM_IUPAC_OPENEYE_NAME>
1-[1-[(2S,3S,4S,5S,6R)-4,5-dihydroxy-6-(hydroxymethyl)-2-methoxy-tetrahydropyran-3-yl]-1,2,4-triazol-3-yl]ethanone
> <PUBCHEM_IUPAC_CAS_NAME>
1-[1-[(2S,3S,4S,5S,6R)-4,5-dihydroxy-6-(hydroxymethyl)-2-methoxy-3-oxanyl]-1,2,4-triazol-3-yl]ethanone
> <PUBCHEM_IUPAC_NAME_MARKUP>
1-[1-[(2<I>S</I>,3<I>S</I>,4<I>S</I>,5<I>S</I>,6<I>R</I>)-4,5-dihydroxy-6-(hydroxymethyl)-2-methoxyoxan-3-yl]-1,2,4-triazol-3-yl]ethanone
> <PUBCHEM_IUPAC_NAME>
1-[1-[(2S,3S,4S,5S,6R)-4,5-dihydroxy-6-(hydroxymethyl)-2-methoxyoxan-3-yl]-1,2,4-triazol-3-yl]ethanone
> <PUBCHEM_IUPAC_SYSTEMATIC_NAME>
1-[1-[(2S,3S,4S,5S,6R)-6-(hydroxymethyl)-2-methoxy-4,5-bis(oxidanyl)oxan-3-yl]-1,2,4-triazol-3-yl]ethanone
> <PUBCHEM_IUPAC_TRADITIONAL_NAME>
1-[1-[(2S,3S,4S,5S,6R)-4,5-dihydroxy-2-methoxy-6-methylol-tetrahydropyran-3-yl]-1,2,4-triazol-3-yl]ethanone
> <PUBCHEM_IUPAC_INCHI>
InChI=1S/C11H17N3O6/c1-5(16)10-12-4-14(13-10)7-9(18)8(17)6(3-15)20-11(7)19-2/h4,6-9,11,15,17-18H,3H2,1-2H3/t6-,7+,8-,9+,11+/m1/s1
> <PUBCHEM_IUPAC_INCHIKEY>
LUZVQKRALUQPJY-BIIVNPBRSA-N
> <PUBCHEM_XLOGP3_AA>
-1.7
> <PUBCHEM_EXACT_MASS>
287.11173527
> <PUBCHEM_MOLECULAR_FORMULA>
C11H17N3O6
> <PUBCHEM_MOLECULAR_WEIGHT>
287.27
> <PUBCHEM_OPENEYE_CAN_SMILES>
CC(=O)C1=NN(C=N1)C2C(C(C(OC2OC)CO)O)O
> <PUBCHEM_OPENEYE_ISO_SMILES>
CC(=O)C1=NN(C=N1)[C@H]2[C@@H]([C@@H]([C@H](O[C@@H]2OC)CO)O)O
> <PUBCHEM_CACTVS_TPSA>
127
> <PUBCHEM_MONOISOTOPIC_WEIGHT>
287.11173527
> <PUBCHEM_TOTAL_CHARGE>
0
> <PUBCHEM_HEAVY_ATOM_COUNT>
20
> <PUBCHEM_ATOM_DEF_STEREO_COUNT>
5
> <PUBCHEM_ATOM_UDEF_STEREO_COUNT>
0
> <PUBCHEM_BOND_DEF_STEREO_COUNT>
0
> <PUBCHEM_BOND_UDEF_STEREO_COUNT>
0
> <PUBCHEM_ISOTOPIC_ATOM_COUNT>
0
> <PUBCHEM_COMPONENT_COUNT>
1
> <PUBCHEM_CACTVS_TAUTO_COUNT>
-1
> <PUBCHEM_COORDINATE_TYPE>
1
5
255
> <PUBCHEM_BONDANNOTATIONS>
13  15  5
11  2  6
14  3  6
12  4  6
10  7  5
7  16  8
7  8  8
8  17  8
9  16  8
9  17  8
$$$$
