513874
  -OEChem-10302200282D
 40 41  0     1  0  0  0  0  0999 V2000
    4.2690    1.8075    0.0000 O   0  0  0  0  0  0  0  0  0  0  0  0
    4.2690   -1.1925    0.0000 O   0  0  0  0  0  0  0  0  0  0  0  0
    2.5369   -0.1925    0.0000 O   0  0  0  0  0  0  0  0  0  0  0  0
    6.0010    1.8075    0.0000 O   0  0  0  0  0  0  0  0  0  0  0  0
    2.5369    2.8075    0.0000 O   0  0  0  0  0  0  0  0  0  0  0  0
    6.9027   -3.1175    0.0000 O   0  0  0  0  0  0  0  0  0  0  0  0
    6.0010   -0.1925    0.0000 N   0  0  0  0  0  0  0  0  0  0  0  0
    6.1056   -1.1870    0.0000 N   0  0  0  0  0  0  0  0  0  0  0  0
    7.5837   -0.5289    0.0000 N   0  0  0  0  0  0  0  0  0  0  0  0
    5.1350    0.3075    0.0000 C   0  0  1  0  0  0  0  0  0  0  0  0
    4.2690   -0.1925    0.0000 C   0  0  1  0  0  0  0  0  0  0  0  0
    3.4030    0.3075    0.0000 C   0  0  1  0  0  0  0  0  0  0  0  0
    3.4030    1.3075    0.0000 C   0  0  1  0  0  0  0  0  0  0  0  0
    5.1350    1.3075    0.0000 C   0  0  2  0  0  0  0  0  0  0  0  0
    2.5369    1.8075    0.0000 C   0  0  0  0  0  0  0  0  0  0  0  0
    6.9146    0.2142    0.0000 C   0  0  0  0  0  0  0  0  0  0  0  0
    3.4030   -1.6925    0.0000 C   0  0  0  0  0  0  0  0  0  0  0  0
    6.0010    2.8075    0.0000 C   0  0  0  0  0  0  0  0  0  0  0  0
    7.0837   -1.3949    0.0000 C   0  0  0  0  0  0  0  0  0  0  0  0
    7.4904   -2.3085    0.0000 C   0  0  0  0  0  0  0  0  0  0  0  0
    8.4850   -2.4130    0.0000 C   0  0  0  0  0  0  0  0  0  0  0  0
    5.6720    0.6175    0.0000 H   0  0  0  0  0  0  0  0  0  0  0  0
    4.8059   -0.5025    0.0000 H   0  0  0  0  0  0  0  0  0  0  0  0
    3.4030   -0.3125    0.0000 H   0  0  0  0  0  0  0  0  0  0  0  0
    3.4030    1.9275    0.0000 H   0  0  0  0  0  0  0  0  0  0  0  0
    5.1350    1.9275    0.0000 H   0  0  0  0  0  0  0  0  0  0  0  0
    1.9264    1.9152    0.0000 H   0  0  0  0  0  0  0  0  0  0  0  0
    2.3249    1.2249    0.0000 H   0  0  0  0  0  0  0  0  0  0  0  0
    2.0000    0.1175    0.0000 H   0  0  0  0  0  0  0  0  0  0  0  0
    7.0435    0.8207    0.0000 H   0  0  0  0  0  0  0  0  0  0  0  0
    3.0930   -1.1556    0.0000 H   0  0  0  0  0  0  0  0  0  0  0  0
    2.8660   -2.0025    0.0000 H   0  0  0  0  0  0  0  0  0  0  0  0
    3.7130   -2.2294    0.0000 H   0  0  0  0  0  0  0  0  0  0  0  0
    6.6210    2.8075    0.0000 H   0  0  0  0  0  0  0  0  0  0  0  0
    6.0010    3.4275    0.0000 H   0  0  0  0  0  0  0  0  0  0  0  0
    5.3810    2.8075    0.0000 H   0  0  0  0  0  0  0  0  0  0  0  0
    2.0000    3.1175    0.0000 H   0  0  0  0  0  0  0  0  0  0  0  0
    8.4202   -3.0296    0.0000 H   0  0  0  0  0  0  0  0  0  0  0  0
    9.1016   -2.4778    0.0000 H   0  0  0  0  0  0  0  0  0  0  0  0
    8.5498   -1.7964    0.0000 H   0  0  0  0  0  0  0  0  0  0  0  0
  1 13  1  0  0  0  0
  1 14  1  0  0  0  0
 11  2  1  6  0  0  0
  2 17  1  0  0  0  0
 12  3  1  6  0  0  0
  3 29  1  0  0  0  0
 14  4  1  6  0  0  0
  4 18  1  0  0  0  0
  5 15  1  0  0  0  0
  5 37  1  0  0  0  0
  6 20  2  0  0  0  0
  7  8  1  0  0  0  0
 10  7  1  1  0  0  0
  7 16  1  0  0  0  0
  8 19  2  0  0  0  0
  9 16  2  0  0  0  0
  9 19  1  0  0  0  0
 10 11  1  0  0  0  0
 10 14  1  0  0  0  0
 10 22  1  0  0  0  0
 11 12  1  0  0  0  0
 11 23  1  0  0  0  0
 12 13  1  0  0  0  0
 12 24  1  0  0  0  0
 13 15  1  1  0  0  0
 13 25  1  0  0  0  0
 14 26  1  0  0  0  0
 15 27  1  0  0  0  0
 15 28  1  0  0  0  0
 16 30  1  0  0  0  0
 17 31  1  0  0  0  0
 17 32  1  0  0  0  0
 17 33  1  0  0  0  0
 18 34  1  0  0  0  0
 18 35  1  0  0  0  0
 18 36  1  0  0  0  0
 19 20  1  0  0  0  0
 20 21  1  0  0  0  0
 21 38  1  0  0  0  0
 21 39  1  0  0  0  0
 21 40  1  0  0  0  0
M  END
> <PUBCHEM_COMPOUND_CID>
513874
> <PUBCHEM_COMPOUND_CANONICALIZED>
1
> <PUBCHEM_CACTVS_COMPLEXITY>
371
> <PUBCHEM_CACTVS_HBOND_ACCEPTOR>
8
> <PUBCHEM_CACTVS_HBOND_DONOR>
2
> <PUBCHEM_CACTVS_ROTATABLE_BOND>
5
> <PUBCHEM_CACTVS_SUBSKEYS>
AAADceBzOAAAAAAAAAAAAAAAAAAAAWAAAAAkAAAAAAAAAAABgAAAHgAICAAACDzxgwcHGAYIFgAqAIIxJAAQgAsSgKAVQACoAACTGAIAiCAnQAAPCAIXAAHwcA8AAAAAAAAAAAAAAAAAAAAAAAAAAAAAAA==
> <PUBCHEM_IUPAC_OPENEYE_NAME>
1-[1-[(2S,3S,4S,5S,6R)-5-hydroxy-6-(hydroxymethyl)-2,4-dimethoxy-tetrahydropyran-3-yl]-1,2,4-triazol-3-yl]ethanone
> <PUBCHEM_IUPAC_CAS_NAME>
1-[1-[(2S,3S,4S,5S,6R)-5-hydroxy-6-(hydroxymethyl)-2,4-dimethoxy-3-oxanyl]-1,2,4-triazol-3-yl]ethanone
> <PUBCHEM_IUPAC_NAME_MARKUP>
1-[1-[(2<I>S</I>,3<I>S</I>,4<I>S</I>,5<I>S</I>,6<I>R</I>)-5-hydroxy-6-(hydroxymethyl)-2,4-dimethoxyoxan-3-yl]-1,2,4-triazol-3-yl]ethanone
> <PUBCHEM_IUPAC_NAME>
1-[1-[(2S,3S,4S,5S,6R)-5-hydroxy-6-(hydroxymethyl)-2,4-dimethoxyoxan-3-yl]-1,2,4-triazol-3-yl]ethanone
> <PUBCHEM_IUPAC_SYSTEMATIC_NAME>
1-[1-[(2S,3S,4S,5S,6R)-6-(hydroxymethyl)-2,4-dimethoxy-5-oxidanyl-oxan-3-yl]-1,2,4-triazol-3-yl]ethanone
> <PUBCHEM_IUPAC_TRADITIONAL_NAME>
1-[1-[(2S,3S,4S,5S,6R)-5-hydroxy-2,4-dimethoxy-6-methylol-tetrahydropyran-3-yl]-1,2,4-triazol-3-yl]ethanone
> <PUBCHEM_IUPAC_INCHI>
InChI=1S/C12H19N3O6/c1-6(17)11-13-5-15(14-11)8-10(19-2)9(18)7(4-16)21-12(8)20-3/h5,7-10,12,16,18H,4H2,1-3H3/t7-,8+,9-,10+,12+/m1/s1
> <PUBCHEM_IUPAC_INCHIKEY>
KNQCKZOJGQZVHR-ULHKAFAUSA-N
> <PUBCHEM_XLOGP3_AA>
-1.1
> <PUBCHEM_EXACT_MASS>
301.12738533
> <PUBCHEM_MOLECULAR_FORMULA>
C12H19N3O6
> <PUBCHEM_MOLECULAR_WEIGHT>
301.30
> <PUBCHEM_OPENEYE_CAN_SMILES>
CC(=O)C1=NN(C=N1)C2C(C(C(OC2OC)CO)O)OC
> <PUBCHEM_OPENEYE_ISO_SMILES>
CC(=O)C1=NN(C=N1)[C@H]2[C@@H]([C@@H]([C@H](O[C@@H]2OC)CO)O)OC
> <PUBCHEM_CACTVS_TPSA>
116
> <PUBCHEM_MONOISOTOPIC_WEIGHT>
301.12738533
> <PUBCHEM_TOTAL_CHARGE>
0
> <PUBCHEM_HEAVY_ATOM_COUNT>
21
> <PUBCHEM_ATOM_DEF_STEREO_COUNT>
5
> <PUBCHEM_ATOM_UDEF_STEREO_COUNT>
0
> <PUBCHEM_BOND_DEF_STEREO_COUNT>
0
> <PUBCHEM_BOND_UDEF_STEREO_COUNT>
0
> <PUBCHEM_ISOTOPIC_ATOM_COUNT>
0
> <PUBCHEM_COMPONENT_COUNT>
1
> <PUBCHEM_CACTVS_TAUTO_COUNT>
-1
> <PUBCHEM_COORDINATE_TYPE>
1
5
255
> <PUBCHEM_BONDANNOTATIONS>
13  15  5
11  2  6
12  3  6
14  4  6
10  7  5
7  16  8
7  8  8
8  19  8
9  16  8
9  19  8
$$$$
