513877
  -OEChem-10302200282D
 69 71  0     1  0  0  0  0  0999 V2000
    4.6870   -0.2452    0.0000 O   0  0  0  0  0  0  0  0  0  0  0  0
    4.1111    2.2775    0.0000 O   0  0  0  0  0  0  0  0  0  0  0  0
    9.1448   -1.6432    0.0000 O   0  0  0  0  0  0  0  0  0  0  0  0
    2.6166   -0.5201    0.0000 O   0  0  0  0  0  0  0  0  0  0  0  0
    5.6005   -1.8384    0.0000 O   0  0  0  0  0  0  0  0  0  0  0  0
    6.4666   -0.3384    0.0000 N   0  0  0  0  0  0  0  0  0  0  0  0
    7.3326   -1.8384    0.0000 N   0  0  0  0  0  0  0  0  0  0  0  0
    5.6005    0.1616    0.0000 C   0  0  1  0  0  0  0  0  0  0  0  0
    5.4960    1.1561    0.0000 C   0  0  0  0  0  0  0  0  0  0  0  0
    4.5179    1.3640    0.0000 C   0  0  1  0  0  0  0  0  0  0  0  0
    4.0179    0.4980    0.0000 C   0  0  1  0  0  0  0  0  0  0  0  0
    3.0233    0.3934    0.0000 C   0  0  0  0  0  0  0  0  0  0  0  0
    9.1448   -0.0337    0.0000 C   0  0  0  0  0  0  0  0  0  0  0  0
    8.1986   -0.3384    0.0000 C   0  0  0  0  0  0  0  0  0  0  0  0
    7.3326    0.1616    0.0000 C   0  0  0  0  0  0  0  0  0  0  0  0
    9.7284   -0.8384    0.0000 C   0  0  0  0  0  0  0  0  0  0  0  0
    9.4555    0.9168    0.0000 C   0  0  0  0  0  0  0  0  0  0  0  0
    8.1986   -1.3384    0.0000 C   0  0  0  0  0  0  0  0  0  0  0  0
   10.7284   -0.8384    0.0000 C   0  0  0  0  0  0  0  0  0  0  0  0
    6.4666   -1.3384    0.0000 C   0  0  0  0  0  0  0  0  0  0  0  0
   10.4340    1.1230    0.0000 C   0  0  0  0  0  0  0  0  0  0  0  0
   11.2284   -1.7045    0.0000 C   0  0  0  0  0  0  0  0  0  0  0  0
   12.2284   -1.7045    0.0000 C   0  0  0  0  0  0  0  0  0  0  0  0
   10.7447    2.0736    0.0000 C   0  0  0  0  0  0  0  0  0  0  0  0
   12.7284   -2.5705    0.0000 C   0  0  0  0  0  0  0  0  0  0  0  0
   11.7232    2.2798    0.0000 C   0  0  0  0  0  0  0  0  0  0  0  0
   13.7284   -2.5705    0.0000 C   0  0  0  0  0  0  0  0  0  0  0  0
   12.0338    3.2303    0.0000 C   0  0  0  0  0  0  0  0  0  0  0  0
   14.2284   -3.4365    0.0000 C   0  0  0  0  0  0  0  0  0  0  0  0
   13.0123    3.4365    0.0000 C   0  0  0  0  0  0  0  0  0  0  0  0
   15.2284   -3.4365    0.0000 C   0  0  0  0  0  0  0  0  0  0  0  0
    5.5681   -0.4576    0.0000 H   0  0  0  0  0  0  0  0  0  0  0  0
    6.1160    1.1561    0.0000 H   0  0  0  0  0  0  0  0  0  0  0  0
    5.5608    1.7727    0.0000 H   0  0  0  0  0  0  0  0  0  0  0  0
    4.9080    1.8458    0.0000 H   0  0  0  0  0  0  0  0  0  0  0  0
    3.7957   -0.0808    0.0000 H   0  0  0  0  0  0  0  0  0  0  0  0
    3.0666    1.0119    0.0000 H   0  0  0  0  0  0  0  0  0  0  0  0
    2.4218    0.5434    0.0000 H   0  0  0  0  0  0  0  0  0  0  0  0
    7.3326    0.7816    0.0000 H   0  0  0  0  0  0  0  0  0  0  0  0
    9.4349    1.5365    0.0000 H   0  0  0  0  0  0  0  0  0  0  0  0
    8.8417    1.0042    0.0000 H   0  0  0  0  0  0  0  0  0  0  0  0
   11.3111   -0.6264    0.0000 H   0  0  0  0  0  0  0  0  0  0  0  0
   10.6208   -0.2279    0.0000 H   0  0  0  0  0  0  0  0  0  0  0  0
   10.4546    0.5034    0.0000 H   0  0  0  0  0  0  0  0  0  0  0  0
   11.0478    1.0357    0.0000 H   0  0  0  0  0  0  0  0  0  0  0  0
   10.6458   -1.9165    0.0000 H   0  0  0  0  0  0  0  0  0  0  0  0
   11.3361   -2.3150    0.0000 H   0  0  0  0  0  0  0  0  0  0  0  0
    4.4756    2.7791    0.0000 H   0  0  0  0  0  0  0  0  0  0  0  0
   12.8111   -1.4924    0.0000 H   0  0  0  0  0  0  0  0  0  0  0  0
   12.1208   -1.0939    0.0000 H   0  0  0  0  0  0  0  0  0  0  0  0
   10.7241    2.6932    0.0000 H   0  0  0  0  0  0  0  0  0  0  0  0
   10.1308    2.1609    0.0000 H   0  0  0  0  0  0  0  0  0  0  0  0
   12.1458   -2.7825    0.0000 H   0  0  0  0  0  0  0  0  0  0  0  0
   12.8361   -3.1811    0.0000 H   0  0  0  0  0  0  0  0  0  0  0  0
   11.7437    1.6601    0.0000 H   0  0  0  0  0  0  0  0  0  0  0  0
   12.3370    2.1924    0.0000 H   0  0  0  0  0  0  0  0  0  0  0  0
    2.0000   -0.5849    0.0000 H   0  0  0  0  0  0  0  0  0  0  0  0
   14.3111   -2.3584    0.0000 H   0  0  0  0  0  0  0  0  0  0  0  0
   13.6208   -1.9599    0.0000 H   0  0  0  0  0  0  0  0  0  0  0  0
   12.0133    3.8500    0.0000 H   0  0  0  0  0  0  0  0  0  0  0  0
   11.4200    3.3176    0.0000 H   0  0  0  0  0  0  0  0  0  0  0  0
   13.6458   -3.6486    0.0000 H   0  0  0  0  0  0  0  0  0  0  0  0
   14.3361   -4.0471    0.0000 H   0  0  0  0  0  0  0  0  0  0  0  0
   13.1402    2.8298    0.0000 H   0  0  0  0  0  0  0  0  0  0  0  0
   13.6190    3.5644    0.0000 H   0  0  0  0  0  0  0  0  0  0  0  0
   12.8845    4.0432    0.0000 H   0  0  0  0  0  0  0  0  0  0  0  0
   15.2284   -4.0565    0.0000 H   0  0  0  0  0  0  0  0  0  0  0  0
   15.8484   -3.4365    0.0000 H   0  0  0  0  0  0  0  0  0  0  0  0
   15.2284   -2.8165    0.0000 H   0  0  0  0  0  0  0  0  0  0  0  0
  1  8  1  0  0  0  0
  1 11  1  0  0  0  0
 10  2  1  1  0  0  0
  2 48  1  0  0  0  0
  3 16  1  0  0  0  0
  3 18  1  0  0  0  0
  4 12  1  0  0  0  0
  4 57  1  0  0  0  0
  5 20  2  0  0  0  0
  8  6  1  6  0  0  0
  6 15  1  0  0  0  0
  6 20  1  0  0  0  0
  7 18  2  0  0  0  0
  7 20  1  0  0  0  0
  8  9  1  0  0  0  0
  8 32  1  0  0  0  0
  9 10  1  0  0  0  0
  9 33  1  0  0  0  0
  9 34  1  0  0  0  0
 10 11  1  0  0  0  0
 10 35  1  0  0  0  0
 11 12  1  6  0  0  0
 11 36  1  0  0  0  0
 12 37  1  0  0  0  0
 12 38  1  0  0  0  0
 13 14  1  0  0  0  0
 13 16  2  0  0  0  0
 13 17  1  0  0  0  0
 14 15  2  0  0  0  0
 14 18  1  0  0  0  0
 15 39  1  0  0  0  0
 16 19  1  0  0  0  0
 17 21  1  0  0  0  0
 17 40  1  0  0  0  0
 17 41  1  0  0  0  0
 19 22  1  0  0  0  0
 19 42  1  0  0  0  0
 19 43  1  0  0  0  0
 21 24  1  0  0  0  0
 21 44  1  0  0  0  0
 21 45  1  0  0  0  0
 22 23  1  0  0  0  0
 22 46  1  0  0  0  0
 22 47  1  0  0  0  0
 23 25  1  0  0  0  0
 23 49  1  0  0  0  0
 23 50  1  0  0  0  0
 24 26  1  0  0  0  0
 24 51  1  0  0  0  0
 24 52  1  0  0  0  0
 25 27  1  0  0  0  0
 25 53  1  0  0  0  0
 25 54  1  0  0  0  0
 26 28  1  0  0  0  0
 26 55  1  0  0  0  0
 26 56  1  0  0  0  0
 27 29  1  0  0  0  0
 27 58  1  0  0  0  0
 27 59  1  0  0  0  0
 28 30  1  0  0  0  0
 28 60  1  0  0  0  0
 28 61  1  0  0  0  0
 29 31  1  0  0  0  0
 29 62  1  0  0  0  0
 29 63  1  0  0  0  0
 30 64  1  0  0  0  0
 30 65  1  0  0  0  0
 30 66  1  0  0  0  0
 31 67  1  0  0  0  0
 31 68  1  0  0  0  0
 31 69  1  0  0  0  0
M  END
> <PUBCHEM_COMPOUND_CID>
513877
> <PUBCHEM_COMPOUND_CANONICALIZED>
1
> <PUBCHEM_CACTVS_COMPLEXITY>
715
> <PUBCHEM_CACTVS_HBOND_ACCEPTOR>
5
> <PUBCHEM_CACTVS_HBOND_DONOR>
2
> <PUBCHEM_CACTVS_ROTATABLE_BOND>
13
> <PUBCHEM_CACTVS_SUBSKEYS>
AAADcfB7OAAAAAAAAAAAAAAAAAAAASIAAAAgAAAAAAAAAEAAAAAAHgAACAAADBThgAYDAAMABgCoAgBmVAAACAAgIAAACAAoABiJFAIAoAAOQAAHxgILoAOw8KIAAAAAAAAAAAAAAAAAAAAAAAAAAAAAAA==
> <PUBCHEM_IUPAC_OPENEYE_NAME>
6-heptyl-5-hexyl-3-[(2R,4S,5R)-4-hydroxy-5-(hydroxymethyl)tetrahydrofuran-2-yl]furo[2,3-d]pyrimidin-2-one
> <PUBCHEM_IUPAC_CAS_NAME>
6-heptyl-5-hexyl-3-[(2R,4S,5R)-4-hydroxy-5-(hydroxymethyl)-2-oxolanyl]-2-furo[2,3-d]pyrimidinone
> <PUBCHEM_IUPAC_NAME_MARKUP>
6-heptyl-5-hexyl-3-[(2<I>R</I>,4<I>S</I>,5<I>R</I>)-4-hydroxy-5-(hydroxymethyl)oxolan-2-yl]furo[2,3-d]pyrimidin-2-one
> <PUBCHEM_IUPAC_NAME>
6-heptyl-5-hexyl-3-[(2R,4S,5R)-4-hydroxy-5-(hydroxymethyl)oxolan-2-yl]furo[2,3-d]pyrimidin-2-one
> <PUBCHEM_IUPAC_SYSTEMATIC_NAME>
6-heptyl-5-hexyl-3-[(2R,4S,5R)-5-(hydroxymethyl)-4-oxidanyl-oxolan-2-yl]furo[2,3-d]pyrimidin-2-one
> <PUBCHEM_IUPAC_TRADITIONAL_NAME>
6-heptyl-5-hexyl-3-[(2R,4S,5R)-4-hydroxy-5-methylol-tetrahydrofuran-2-yl]furo[2,3-d]pyrimidin-2-one
> <PUBCHEM_IUPAC_INCHI>
InChI=1S/C24H38N2O5/c1-3-5-7-9-11-13-20-17(12-10-8-6-4-2)18-15-26(24(29)25-23(18)31-20)22-14-19(28)21(16-27)30-22/h15,19,21-22,27-28H,3-14,16H2,1-2H3/t19-,21+,22+/m0/s1
> <PUBCHEM_IUPAC_INCHIKEY>
SJXWHKGJNHDYMJ-KSEOMHKRSA-N
> <PUBCHEM_XLOGP3_AA>
5.3
> <PUBCHEM_EXACT_MASS>
434.27807232
> <PUBCHEM_MOLECULAR_FORMULA>
C24H38N2O5
> <PUBCHEM_MOLECULAR_WEIGHT>
434.6
> <PUBCHEM_OPENEYE_CAN_SMILES>
CCCCCCCC1=C(C2=CN(C(=O)N=C2O1)C3CC(C(O3)CO)O)CCCCCC
> <PUBCHEM_OPENEYE_ISO_SMILES>
CCCCCCCC1=C(C2=CN(C(=O)N=C2O1)[C@H]3C[C@@H]([C@H](O3)CO)O)CCCCCC
> <PUBCHEM_CACTVS_TPSA>
91.6
> <PUBCHEM_MONOISOTOPIC_WEIGHT>
434.27807232
> <PUBCHEM_TOTAL_CHARGE>
0
> <PUBCHEM_HEAVY_ATOM_COUNT>
31
> <PUBCHEM_ATOM_DEF_STEREO_COUNT>
3
> <PUBCHEM_ATOM_UDEF_STEREO_COUNT>
0
> <PUBCHEM_BOND_DEF_STEREO_COUNT>
0
> <PUBCHEM_BOND_UDEF_STEREO_COUNT>
0
> <PUBCHEM_ISOTOPIC_ATOM_COUNT>
0
> <PUBCHEM_COMPONENT_COUNT>
1
> <PUBCHEM_CACTVS_TAUTO_COUNT>
-1
> <PUBCHEM_COORDINATE_TYPE>
1
5
255
> <PUBCHEM_BONDANNOTATIONS>
11  12  6
13  14  8
13  16  8
14  15  8
14  18  8
10  2  5
3  16  8
3  18  8
6  15  8
6  20  8
8  6  6
7  18  8
7  20  8
$$$$
