513857
  -OEChem-10302200282D
 34 36  0     1  0  0  0  0  0999 V2000
    4.2690   -3.8284    0.0000 Cl  0  0  0  0  0  0  0  0  0  0  0  0
    8.1515   -0.3550    0.0000 O   0  0  0  0  0  0  0  0  0  0  0  0
    8.1552    1.8206    0.0000 O   0  0  0  0  0  0  0  0  0  0  0  0
    6.7577    3.2384    0.0000 O   0  0  0  0  0  0  0  0  0  0  0  0
    6.0812   -1.0237    0.0000 N   0  0  0  0  0  0  0  0  0  0  0  0
    6.0812   -2.6332    0.0000 N   0  0  0  0  0  0  0  0  0  0  0  0
    4.2690   -0.8284    0.0000 N   0  0  0  0  0  0  0  0  0  0  0  0
    3.4030   -2.3284    0.0000 N   0  0  0  0  0  0  0  0  0  0  0  0
    2.5369   -0.8284    0.0000 N   0  0  0  0  0  0  0  0  0  0  0  0
    6.3919   -0.0732    0.0000 C   0  0  2  0  0  0  0  0  0  0  0  0
    6.3947    1.5449    0.0000 C   0  0  1  0  0  0  0  0  0  0  0  0
    5.8055    0.7369    0.0000 C   0  0  0  0  0  0  0  0  0  0  0  0
    7.3435    0.2342    0.0000 C   0  0  1  0  0  0  0  0  0  0  0  0
    7.3452    1.2342    0.0000 C   0  0  2  0  0  0  0  0  0  0  0  0
    6.0873    2.4964    0.0000 C   0  0  0  0  0  0  0  0  0  0  0  0
    5.1350   -1.3284    0.0000 C   0  0  0  0  0  0  0  0  0  0  0  0
    6.6648   -1.8284    0.0000 C   0  0  0  0  0  0  0  0  0  0  0  0
    5.1350   -2.3284    0.0000 C   0  0  0  0  0  0  0  0  0  0  0  0
    4.2690   -2.8284    0.0000 C   0  0  0  0  0  0  0  0  0  0  0  0
    3.4030   -1.3284    0.0000 C   0  0  0  0  0  0  0  0  0  0  0  0
    5.7794   -0.1691    0.0000 H   0  0  0  0  0  0  0  0  0  0  0  0
    5.7825    1.6429    0.0000 H   0  0  0  0  0  0  0  0  0  0  0  0
    5.3455    1.1525    0.0000 H   0  0  0  0  0  0  0  0  0  0  0  0
    5.3440    0.3228    0.0000 H   0  0  0  0  0  0  0  0  0  0  0  0
    7.2454   -0.3780    0.0000 H   0  0  0  0  0  0  0  0  0  0  0  0
    7.2493    1.8467    0.0000 H   0  0  0  0  0  0  0  0  0  0  0  0
    5.7065    2.9857    0.0000 H   0  0  0  0  0  0  0  0  0  0  0  0
    5.5394    2.2063    0.0000 H   0  0  0  0  0  0  0  0  0  0  0  0
    8.7183   -0.1038    0.0000 H   0  0  0  0  0  0  0  0  0  0  0  0
    8.7212    1.5674    0.0000 H   0  0  0  0  0  0  0  0  0  0  0  0
    7.2848   -1.8284    0.0000 H   0  0  0  0  0  0  0  0  0  0  0  0
    6.5672    3.8284    0.0000 H   0  0  0  0  0  0  0  0  0  0  0  0
    2.0000   -1.1384    0.0000 H   0  0  0  0  0  0  0  0  0  0  0  0
    2.5369   -0.2084    0.0000 H   0  0  0  0  0  0  0  0  0  0  0  0
  1 19  1  0  0  0  0
 13  2  1  1  0  0  0
  2 29  1  0  0  0  0
 14  3  1  1  0  0  0
  3 30  1  0  0  0  0
  4 15  1  0  0  0  0
  4 32  1  0  0  0  0
 10  5  1  6  0  0  0
  5 16  1  0  0  0  0
  5 17  1  0  0  0  0
  6 17  2  0  0  0  0
  6 18  1  0  0  0  0
  7 16  1  0  0  0  0
  7 20  2  0  0  0  0
  8 19  2  0  0  0  0
  8 20  1  0  0  0  0
  9 20  1  0  0  0  0
  9 33  1  0  0  0  0
  9 34  1  0  0  0  0
 10 12  1  0  0  0  0
 10 13  1  0  0  0  0
 10 21  1  0  0  0  0
 11 12  1  0  0  0  0
 11 14  1  0  0  0  0
 11 15  1  6  0  0  0
 11 22  1  0  0  0  0
 12 23  1  0  0  0  0
 12 24  1  0  0  0  0
 13 14  1  0  0  0  0
 13 25  1  0  0  0  0
 14 26  1  0  0  0  0
 15 27  1  0  0  0  0
 15 28  1  0  0  0  0
 16 18  2  0  0  0  0
 17 31  1  0  0  0  0
 18 19  1  0  0  0  0
M  END
> <PUBCHEM_COMPOUND_CID>
513857
> <PUBCHEM_COMPOUND_CANONICALIZED>
1
> <PUBCHEM_CACTVS_COMPLEXITY>
365
> <PUBCHEM_CACTVS_HBOND_ACCEPTOR>
7
> <PUBCHEM_CACTVS_HBOND_DONOR>
4
> <PUBCHEM_CACTVS_ROTATABLE_BOND>
2
> <PUBCHEM_CACTVS_SUBSKEYS>
AAADccBzsAAEAAAAAAAAAAAAAAAAAeIAAAAsAAAAAAAAAFgB+AAAHgIQCAAADT7hlyYF8L9MEgCgAQZhZACAgC0RFKABUCAoVhCDWAJAyEBURAgPAALRACHwcAcOAAAAAAAAAAAAAAAAAAAAAKEABCgAAA==
> <PUBCHEM_IUPAC_OPENEYE_NAME>
(1R,2S,3R,5R)-3-(2-amino-6-chloro-purin-9-yl)-5-(hydroxymethyl)cyclopentane-1,2-diol
> <PUBCHEM_IUPAC_CAS_NAME>
(1R,2S,3R,5R)-3-(2-amino-6-chloro-9-purinyl)-5-(hydroxymethyl)cyclopentane-1,2-diol
> <PUBCHEM_IUPAC_NAME_MARKUP>
(1<I>R</I>,2<I>S</I>,3<I>R</I>,5<I>R</I>)-3-(2-amino-6-chloropurin-9-yl)-5-(hydroxymethyl)cyclopentane-1,2-diol
> <PUBCHEM_IUPAC_NAME>
(1R,2S,3R,5R)-3-(2-amino-6-chloropurin-9-yl)-5-(hydroxymethyl)cyclopentane-1,2-diol
> <PUBCHEM_IUPAC_SYSTEMATIC_NAME>
(1R,2S,3R,5R)-3-(2-azanyl-6-chloranyl-purin-9-yl)-5-(hydroxymethyl)cyclopentane-1,2-diol
> <PUBCHEM_IUPAC_TRADITIONAL_NAME>
(1R,2S,3R,5R)-3-(2-amino-6-chloro-purin-9-yl)-5-methylol-cyclopentane-1,2-diol
> <PUBCHEM_IUPAC_INCHI>
InChI=1S/C11H14ClN5O3/c12-9-6-10(16-11(13)15-9)17(3-14-6)5-1-4(2-18)7(19)8(5)20/h3-5,7-8,18-20H,1-2H2,(H2,13,15,16)/t4-,5-,7-,8+/m1/s1
> <PUBCHEM_IUPAC_INCHIKEY>
YPNCGBSKCXEJKT-APOSLCTFSA-N
> <PUBCHEM_XLOGP3_AA>
-0.3
> <PUBCHEM_EXACT_MASS>
299.0785170
> <PUBCHEM_MOLECULAR_FORMULA>
C11H14ClN5O3
> <PUBCHEM_MOLECULAR_WEIGHT>
299.71
> <PUBCHEM_OPENEYE_CAN_SMILES>
C1C(C(C(C1N2C=NC3=C2N=C(N=C3Cl)N)O)O)CO
> <PUBCHEM_OPENEYE_ISO_SMILES>
C1[C@@H]([C@H]([C@H]([C@@H]1N2C=NC3=C2N=C(N=C3Cl)N)O)O)CO
> <PUBCHEM_CACTVS_TPSA>
130
> <PUBCHEM_MONOISOTOPIC_WEIGHT>
299.0785170
> <PUBCHEM_TOTAL_CHARGE>
0
> <PUBCHEM_HEAVY_ATOM_COUNT>
20
> <PUBCHEM_ATOM_DEF_STEREO_COUNT>
4
> <PUBCHEM_ATOM_UDEF_STEREO_COUNT>
0
> <PUBCHEM_BOND_DEF_STEREO_COUNT>
0
> <PUBCHEM_BOND_UDEF_STEREO_COUNT>
0
> <PUBCHEM_ISOTOPIC_ATOM_COUNT>
0
> <PUBCHEM_COMPONENT_COUNT>
1
> <PUBCHEM_CACTVS_TAUTO_COUNT>
3
> <PUBCHEM_COORDINATE_TYPE>
1
5
255
> <PUBCHEM_BONDANNOTATIONS>
11  15  6
16  18  8
18  19  8
13  2  5
14  3  5
10  5  6
5  16  8
5  17  8
6  17  8
6  18  8
7  16  8
7  20  8
8  19  8
8  20  8
$$$$
