513808
  -OEChem-10302200282D
 88 91  0     1  0  0  0  0  0999 V2000
    8.9282    3.0950    0.0000 S   0  0  0  0  0  0  0  0  0  0  0  0
    6.3301    1.5950    0.0000 O   0  0  0  0  0  0  0  0  0  0  0  0
    9.9282    3.0950    0.0000 O   0  0  0  0  0  0  0  0  0  0  0  0
    7.9282    3.0950    0.0000 O   0  0  0  0  0  0  0  0  0  0  0  0
    4.5981   -2.4050    0.0000 O   0  0  0  0  0  0  0  0  0  0  0  0
    8.1424   -5.6003    0.0000 O   0  0  0  0  0  0  0  0  0  0  0  0
    8.1424   -7.2097    0.0000 O   0  0  0  0  0  0  0  0  0  0  0  0
    8.9282    2.0950    0.0000 N   0  0  3  0  0  0  0  0  0  0  0  0
    6.3301   -2.4050    0.0000 N   0  0  0  0  0  0  0  0  0  0  0  0
    5.4641   -3.9050    0.0000 N   0  0  0  0  0  0  0  0  0  0  0  0
    8.9282    7.0950    0.0000 N   0  0  0  0  0  0  0  0  0  0  0  0
    8.0622    1.5950    0.0000 C   0  0  1  0  0  0  0  0  0  0  0  0
    9.7942    1.5950    0.0000 C   0  0  0  0  0  0  0  0  0  0  0  0
    8.0622    0.5950    0.0000 C   0  0  0  0  0  0  0  0  0  0  0  0
    9.7942    0.5950    0.0000 C   0  0  3  0  0  0  0  0  0  0  0  0
    7.1962    0.0950    0.0000 C   0  0  0  0  0  0  0  0  0  0  0  0
    7.1962    2.0950    0.0000 C   0  0  0  0  0  0  0  0  0  0  0  0
   10.6603    0.0950    0.0000 C   0  0  0  0  0  0  0  0  0  0  0  0
    7.1962   -0.9050    0.0000 C   0  0  0  0  0  0  0  0  0  0  0  0
    8.9282    0.0950    0.0000 C   0  0  0  0  0  0  0  0  0  0  0  0
    8.9282    4.0950    0.0000 C   0  0  0  0  0  0  0  0  0  0  0  0
    6.3301   -1.4050    0.0000 C   0  0  0  0  0  0  0  0  0  0  0  0
   11.5263    0.5950    0.0000 C   0  0  0  0  0  0  0  0  0  0  0  0
    8.0622    4.5950    0.0000 C   0  0  0  0  0  0  0  0  0  0  0  0
    9.7942    4.5950    0.0000 C   0  0  0  0  0  0  0  0  0  0  0  0
    8.0622    5.5950    0.0000 C   0  0  0  0  0  0  0  0  0  0  0  0
    9.7942    5.5950    0.0000 C   0  0  0  0  0  0  0  0  0  0  0  0
    5.4641   -2.9050    0.0000 C   0  0  0  0  0  0  0  0  0  0  0  0
    8.9282    6.0950    0.0000 C   0  0  0  0  0  0  0  0  0  0  0  0
    6.3301   -4.4050    0.0000 C   0  0  0  0  0  0  0  0  0  0  0  0
    4.5981   -4.4050    0.0000 C   0  0  0  0  0  0  0  0  0  0  0  0
    6.3301   -5.4050    0.0000 C   0  0  0  0  0  0  0  0  0  0  0  0
    3.7320   -3.9050    0.0000 C   0  0  0  0  0  0  0  0  0  0  0  0
    7.1962   -5.9050    0.0000 C   0  0  0  0  0  0  0  0  0  0  0  0
    5.4641   -5.9050    0.0000 C   0  0  0  0  0  0  0  0  0  0  0  0
    7.1962   -6.9050    0.0000 C   0  0  0  0  0  0  0  0  0  0  0  0
    2.8660   -4.4050    0.0000 C   0  0  0  0  0  0  0  0  0  0  0  0
    3.7320   -2.9050    0.0000 C   0  0  0  0  0  0  0  0  0  0  0  0
    5.4641   -6.9050    0.0000 C   0  0  0  0  0  0  0  0  0  0  0  0
    6.3301   -7.4050    0.0000 C   0  0  0  0  0  0  0  0  0  0  0  0
    8.7260   -6.4050    0.0000 C   0  0  0  0  0  0  0  0  0  0  0  0
    2.0000   -3.9050    0.0000 C   0  0  0  0  0  0  0  0  0  0  0  0
    2.8660   -2.4050    0.0000 C   0  0  0  0  0  0  0  0  0  0  0  0
    2.0000   -2.9050    0.0000 C   0  0  0  0  0  0  0  0  0  0  0  0
    8.0622    2.2150    0.0000 H   0  0  0  0  0  0  0  0  0  0  0  0
   10.4048    1.4873    0.0000 H   0  0  0  0  0  0  0  0  0  0  0  0
   10.0063    2.1776    0.0000 H   0  0  0  0  0  0  0  0  0  0  0  0
    8.2742    0.0124    0.0000 H   0  0  0  0  0  0  0  0  0  0  0  0
    8.6728    0.7027    0.0000 H   0  0  0  0  0  0  0  0  0  0  0  0
    9.2573    0.9050    0.0000 H   0  0  0  0  0  0  0  0  0  0  0  0
    6.9841    0.6776    0.0000 H   0  0  0  0  0  0  0  0  0  0  0  0
    6.5856   -0.0127    0.0000 H   0  0  0  0  0  0  0  0  0  0  0  0
    7.5947    2.5700    0.0000 H   0  0  0  0  0  0  0  0  0  0  0  0
    6.7976    2.5700    0.0000 H   0  0  0  0  0  0  0  0  0  0  0  0
   10.2617   -0.3799    0.0000 H   0  0  0  0  0  0  0  0  0  0  0  0
   11.0588   -0.3799    0.0000 H   0  0  0  0  0  0  0  0  0  0  0  0
    7.4082   -1.4876    0.0000 H   0  0  0  0  0  0  0  0  0  0  0  0
    7.8067   -0.7973    0.0000 H   0  0  0  0  0  0  0  0  0  0  0  0
    8.6182    0.6319    0.0000 H   0  0  0  0  0  0  0  0  0  0  0  0
    8.3913   -0.2150    0.0000 H   0  0  0  0  0  0  0  0  0  0  0  0
    9.2382   -0.4419    0.0000 H   0  0  0  0  0  0  0  0  0  0  0  0
    6.1181   -0.8224    0.0000 H   0  0  0  0  0  0  0  0  0  0  0  0
    5.7196   -1.5127    0.0000 H   0  0  0  0  0  0  0  0  0  0  0  0
   11.8363    0.0581    0.0000 H   0  0  0  0  0  0  0  0  0  0  0  0
   12.0632    0.9050    0.0000 H   0  0  0  0  0  0  0  0  0  0  0  0
   11.2163    1.1319    0.0000 H   0  0  0  0  0  0  0  0  0  0  0  0
    5.7932    1.9050    0.0000 H   0  0  0  0  0  0  0  0  0  0  0  0
    7.5252    4.2850    0.0000 H   0  0  0  0  0  0  0  0  0  0  0  0
   10.3312    4.2850    0.0000 H   0  0  0  0  0  0  0  0  0  0  0  0
    6.8671   -2.7150    0.0000 H   0  0  0  0  0  0  0  0  0  0  0  0
    7.5252    5.9050    0.0000 H   0  0  0  0  0  0  0  0  0  0  0  0
   10.3312    5.9050    0.0000 H   0  0  0  0  0  0  0  0  0  0  0  0
    6.9407   -4.5127    0.0000 H   0  0  0  0  0  0  0  0  0  0  0  0
    6.5422   -3.8224    0.0000 H   0  0  0  0  0  0  0  0  0  0  0  0
    4.1996   -4.8800    0.0000 H   0  0  0  0  0  0  0  0  0  0  0  0
    4.9966   -4.8800    0.0000 H   0  0  0  0  0  0  0  0  0  0  0  0
    9.4651    7.4050    0.0000 H   0  0  0  0  0  0  0  0  0  0  0  0
    8.3913    7.4050    0.0000 H   0  0  0  0  0  0  0  0  0  0  0  0
    4.9272   -5.5950    0.0000 H   0  0  0  0  0  0  0  0  0  0  0  0
    2.8660   -5.0250    0.0000 H   0  0  0  0  0  0  0  0  0  0  0  0
    4.2690   -2.5950    0.0000 H   0  0  0  0  0  0  0  0  0  0  0  0
    4.9272   -7.2150    0.0000 H   0  0  0  0  0  0  0  0  0  0  0  0
    6.3301   -8.0250    0.0000 H   0  0  0  0  0  0  0  0  0  0  0  0
    9.1868   -6.8197    0.0000 H   0  0  0  0  0  0  0  0  0  0  0  0
    9.1868   -5.9903    0.0000 H   0  0  0  0  0  0  0  0  0  0  0  0
    1.4631   -4.2150    0.0000 H   0  0  0  0  0  0  0  0  0  0  0  0
    2.8660   -1.7850    0.0000 H   0  0  0  0  0  0  0  0  0  0  0  0
    1.4631   -2.5950    0.0000 H   0  0  0  0  0  0  0  0  0  0  0  0
  1  3  2  0  0  0  0
  1  4  2  0  0  0  0
  1  8  1  0  0  0  0
  1 21  1  0  0  0  0
  2 17  1  0  0  0  0
  2 67  1  0  0  0  0
  5 28  2  0  0  0  0
  6 34  1  0  0  0  0
  6 41  1  0  0  0  0
  7 36  1  0  0  0  0
  7 41  1  0  0  0  0
 12  8  1  1  0  0  0
  8 13  1  0  0  0  0
  9 22  1  0  0  0  0
  9 28  1  0  0  0  0
  9 70  1  0  0  0  0
 10 28  1  0  0  0  0
 10 30  1  0  0  0  0
 10 31  1  0  0  0  0
 11 29  1  0  0  0  0
 11 77  1  0  0  0  0
 11 78  1  0  0  0  0
 12 14  1  0  0  0  0
 12 17  1  0  0  0  0
 12 45  1  0  0  0  0
 13 15  1  0  0  0  0
 13 46  1  0  0  0  0
 13 47  1  0  0  0  0
 14 16  1  0  0  0  0
 14 48  1  0  0  0  0
 14 49  1  0  0  0  0
 15 18  1  0  0  0  0
 15 20  1  0  0  0  0
 15 50  1  0  0  0  0
 16 19  1  0  0  0  0
 16 51  1  0  0  0  0
 16 52  1  0  0  0  0
 17 53  1  0  0  0  0
 17 54  1  0  0  0  0
 18 23  1  0  0  0  0
 18 55  1  0  0  0  0
 18 56  1  0  0  0  0
 19 22  1  0  0  0  0
 19 57  1  0  0  0  0
 19 58  1  0  0  0  0
 20 59  1  0  0  0  0
 20 60  1  0  0  0  0
 20 61  1  0  0  0  0
 21 24  2  0  0  0  0
 21 25  1  0  0  0  0
 22 62  1  0  0  0  0
 22 63  1  0  0  0  0
 23 64  1  0  0  0  0
 23 65  1  0  0  0  0
 23 66  1  0  0  0  0
 24 26  1  0  0  0  0
 24 68  1  0  0  0  0
 25 27  2  0  0  0  0
 25 69  1  0  0  0  0
 26 29  2  0  0  0  0
 26 71  1  0  0  0  0
 27 29  1  0  0  0  0
 27 72  1  0  0  0  0
 30 32  1  0  0  0  0
 30 73  1  0  0  0  0
 30 74  1  0  0  0  0
 31 33  1  0  0  0  0
 31 75  1  0  0  0  0
 31 76  1  0  0  0  0
 32 34  2  0  0  0  0
 32 35  1  0  0  0  0
 33 37  2  0  0  0  0
 33 38  1  0  0  0  0
 34 36  1  0  0  0  0
 35 39  2  0  0  0  0
 35 79  1  0  0  0  0
 36 40  2  0  0  0  0
 37 42  1  0  0  0  0
 37 80  1  0  0  0  0
 38 43  2  0  0  0  0
 38 81  1  0  0  0  0
 39 40  1  0  0  0  0
 39 82  1  0  0  0  0
 40 83  1  0  0  0  0
 41 84  1  0  0  0  0
 41 85  1  0  0  0  0
 42 44  2  0  0  0  0
 42 86  1  0  0  0  0
 43 44  1  0  0  0  0
 43 87  1  0  0  0  0
 44 88  1  0  0  0  0
M  END
> <PUBCHEM_COMPOUND_CID>
513808
> <PUBCHEM_COMPOUND_CANONICALIZED>
1
> <PUBCHEM_CACTVS_COMPLEXITY>
950
> <PUBCHEM_CACTVS_HBOND_ACCEPTOR>
8
> <PUBCHEM_CACTVS_HBOND_DONOR>
3
> <PUBCHEM_CACTVS_ROTATABLE_BOND>
16
> <PUBCHEM_CACTVS_SUBSKEYS>
AAADcfB/uABAAAAAAAAAAAAAAAAAASAAAAAwYMAAAAAAAEgBUAAAHgQQSAAADSzh2Aczz4PABgKIAiRCUHDCCBAgIgAIiJgO7IifNiKEsZukcCpu1hOe6AewwDAOAAQBAAAIQAAACAIAABCAAAAAAAAAAA==
> <PUBCHEM_IUPAC_OPENEYE_NAME>
3-[(5S)-5-[(4-aminophenyl)sulfonyl-(2-methylbutyl)amino]-6-hydroxy-hexyl]-1-(1,3-benzodioxol-4-ylmethyl)-1-benzyl-urea
> <PUBCHEM_IUPAC_CAS_NAME>
3-[(5S)-5-[(4-aminophenyl)sulfonyl-(2-methylbutyl)amino]-6-hydroxyhexyl]-1-(1,3-benzodioxol-4-ylmethyl)-1-(phenylmethyl)urea
> <PUBCHEM_IUPAC_NAME_MARKUP>
3-[(5<I>S</I>)-5-[(4-aminophenyl)sulfonyl-(2-methylbutyl)amino]-6-hydroxyhexyl]-1-(1,3-benzodioxol-4-ylmethyl)-1-benzylurea
> <PUBCHEM_IUPAC_NAME>
3-[(5S)-5-[(4-aminophenyl)sulfonyl-(2-methylbutyl)amino]-6-hydroxyhexyl]-1-(1,3-benzodioxol-4-ylmethyl)-1-benzylurea
> <PUBCHEM_IUPAC_SYSTEMATIC_NAME>
3-[(5S)-5-[(4-aminophenyl)sulfonyl-(2-methylbutyl)amino]-6-oxidanyl-hexyl]-1-(1,3-benzodioxol-4-ylmethyl)-1-(phenylmethyl)urea
> <PUBCHEM_IUPAC_TRADITIONAL_NAME>
1-(1,3-benzodioxol-4-ylmethyl)-1-benzyl-3-[(5S)-6-hydroxy-5-[2-methylbutyl(sulfanilyl)amino]hexyl]urea
> <PUBCHEM_IUPAC_INCHI>
InChI=1S/C33H44N4O6S/c1-3-25(2)20-37(44(40,41)30-17-15-28(34)16-18-30)29(23-38)13-7-8-19-35-33(39)36(21-26-10-5-4-6-11-26)22-27-12-9-14-31-32(27)43-24-42-31/h4-6,9-12,14-18,25,29,38H,3,7-8,13,19-24,34H2,1-2H3,(H,35,39)/t25?,29-/m0/s1
> <PUBCHEM_IUPAC_INCHIKEY>
KSDVVCAXZOSSMR-QFCCLOIZSA-N
> <PUBCHEM_XLOGP3_AA>
4.7
> <PUBCHEM_EXACT_MASS>
624.29815631
> <PUBCHEM_MOLECULAR_FORMULA>
C33H44N4O6S
> <PUBCHEM_MOLECULAR_WEIGHT>
624.8
> <PUBCHEM_OPENEYE_CAN_SMILES>
CCC(C)CN(C(CCCCNC(=O)N(CC1=CC=CC=C1)CC2=C3C(=CC=C2)OCO3)CO)S(=O)(=O)C4=CC=C(C=C4)N
> <PUBCHEM_OPENEYE_ISO_SMILES>
CCC(C)CN([C@@H](CCCCNC(=O)N(CC1=CC=CC=C1)CC2=C3C(=CC=C2)OCO3)CO)S(=O)(=O)C4=CC=C(C=C4)N
> <PUBCHEM_CACTVS_TPSA>
143
> <PUBCHEM_MONOISOTOPIC_WEIGHT>
624.29815631
> <PUBCHEM_TOTAL_CHARGE>
0
> <PUBCHEM_HEAVY_ATOM_COUNT>
44
> <PUBCHEM_ATOM_DEF_STEREO_COUNT>
1
> <PUBCHEM_ATOM_UDEF_STEREO_COUNT>
1
> <PUBCHEM_BOND_DEF_STEREO_COUNT>
0
> <PUBCHEM_BOND_UDEF_STEREO_COUNT>
0
> <PUBCHEM_ISOTOPIC_ATOM_COUNT>
0
> <PUBCHEM_COMPONENT_COUNT>
1
> <PUBCHEM_CACTVS_TAUTO_COUNT>
-1
> <PUBCHEM_COORDINATE_TYPE>
1
5
255
> <PUBCHEM_BONDANNOTATIONS>
15  20  3
21  24  8
21  25  8
24  26  8
25  27  8
26  29  8
27  29  8
32  34  8
32  35  8
33  37  8
33  38  8
34  36  8
35  39  8
36  40  8
37  42  8
38  43  8
39  40  8
42  44  8
43  44  8
12  8  5
$$$$
