513824
  -OEChem-10302200282D
 58 61  0     1  0  0  0  0  0999 V2000
    6.9904    5.5125    0.0000 F   0  0  0  0  0  0  0  0  0  0  0  0
    5.6243    5.1465    0.0000 F   0  0  0  0  0  0  0  0  0  0  0  0
    5.9904    3.7805    0.0000 F   0  0  0  0  0  0  0  0  0  0  0  0
    8.1654   -0.4413    0.0000 O   0  0  0  0  0  0  0  0  0  0  0  0
    6.4904    1.6465    0.0000 O   0  0  0  0  0  0  0  0  0  0  0  0
    5.5963   -0.1323    0.0000 O   0  0  0  0  0  0  0  0  0  0  0  0
    6.2686   -2.2014    0.0000 O   0  0  0  0  0  0  0  0  0  0  0  0
    8.4442   -2.2014    0.0000 O   0  0  0  0  0  0  0  0  0  0  0  0
    9.9545    2.6465    0.0000 O   0  0  0  0  0  0  0  0  0  0  0  0
    8.2224    5.6465    0.0000 O   0  0  0  0  0  0  0  0  0  0  0  0
    8.2224    2.6465    0.0000 N   0  0  0  0  0  0  0  0  0  0  0  0
    9.0884    4.1465    0.0000 N   0  0  0  0  0  0  0  0  0  0  0  0
    7.3564    0.1465    0.0000 C   0  0  3  0  0  0  0  0  0  0  0  0
    7.3564    1.1465    0.0000 C   0  0  3  0  0  0  0  0  0  0  0  0
    8.2224    1.6465    0.0000 C   0  0  0  0  0  0  0  0  0  0  0  0
    6.5474   -0.4413    0.0000 C   0  0  0  0  0  0  0  0  0  0  0  0
    6.8564   -1.3924    0.0000 C   0  0  0  0  0  0  0  0  0  0  0  0
    7.8564   -1.3924    0.0000 C   0  0  0  0  0  0  0  0  0  0  0  0
    7.3564    3.1465    0.0000 C   0  0  0  0  0  0  0  0  0  0  0  0
    9.0884    3.1465    0.0000 C   0  0  0  0  0  0  0  0  0  0  0  0
    7.3564    4.1465    0.0000 C   0  0  0  0  0  0  0  0  0  0  0  0
    4.8532   -0.8014    0.0000 C   0  0  0  0  0  0  0  0  0  0  0  0
    8.2224    4.6465    0.0000 C   0  0  0  0  0  0  0  0  0  0  0  0
    6.6753   -3.1149    0.0000 C   0  0  0  0  0  0  0  0  0  0  0  0
    3.9021   -0.4924    0.0000 C   0  0  0  0  0  0  0  0  0  0  0  0
    6.4904    4.6465    0.0000 C   0  0  0  0  0  0  0  0  0  0  0  0
    6.0876   -3.9239    0.0000 C   0  0  0  0  0  0  0  0  0  0  0  0
    3.1590   -1.1615    0.0000 C   0  0  0  0  0  0  0  0  0  0  0  0
    3.6942    0.4858    0.0000 C   0  0  0  0  0  0  0  0  0  0  0  0
    6.4943   -4.8375    0.0000 C   0  0  0  0  0  0  0  0  0  0  0  0
    5.0930   -3.8194    0.0000 C   0  0  0  0  0  0  0  0  0  0  0  0
    2.2079   -0.8525    0.0000 C   0  0  0  0  0  0  0  0  0  0  0  0
    2.7431    0.7948    0.0000 C   0  0  0  0  0  0  0  0  0  0  0  0
    2.0000    0.1256    0.0000 C   0  0  0  0  0  0  0  0  0  0  0  0
    5.9065   -5.6465    0.0000 C   0  0  0  0  0  0  0  0  0  0  0  0
    4.5052   -4.6284    0.0000 C   0  0  0  0  0  0  0  0  0  0  0  0
    4.9120   -5.5420    0.0000 C   0  0  0  0  0  0  0  0  0  0  0  0
    7.9088    0.4280    0.0000 H   0  0  0  0  0  0  0  0  0  0  0  0
    6.8194    0.8365    0.0000 H   0  0  0  0  0  0  0  0  0  0  0  0
    8.4345    1.0639    0.0000 H   0  0  0  0  0  0  0  0  0  0  0  0
    8.8330    1.7542    0.0000 H   0  0  0  0  0  0  0  0  0  0  0  0
    5.9534    1.3365    0.0000 H   0  0  0  0  0  0  0  0  0  0  0  0
    6.8194    2.8365    0.0000 H   0  0  0  0  0  0  0  0  0  0  0  0
    4.5621   -1.3488    0.0000 H   0  0  0  0  0  0  0  0  0  0  0  0
    5.3417   -1.1831    0.0000 H   0  0  0  0  0  0  0  0  0  0  0  0
    9.6254    4.4565    0.0000 H   0  0  0  0  0  0  0  0  0  0  0  0
    7.1060   -3.5609    0.0000 H   0  0  0  0  0  0  0  0  0  0  0  0
    7.1893   -2.7682    0.0000 H   0  0  0  0  0  0  0  0  0  0  0  0
    3.2879   -1.7680    0.0000 H   0  0  0  0  0  0  0  0  0  0  0  0
    4.1550    0.9006    0.0000 H   0  0  0  0  0  0  0  0  0  0  0  0
    7.1109   -4.9023    0.0000 H   0  0  0  0  0  0  0  0  0  0  0  0
    4.8409   -3.2530    0.0000 H   0  0  0  0  0  0  0  0  0  0  0  0
    1.7472   -1.2674    0.0000 H   0  0  0  0  0  0  0  0  0  0  0  0
    2.6142    1.4012    0.0000 H   0  0  0  0  0  0  0  0  0  0  0  0
    1.4103    0.3172    0.0000 H   0  0  0  0  0  0  0  0  0  0  0  0
    6.1587   -6.2129    0.0000 H   0  0  0  0  0  0  0  0  0  0  0  0
    3.8886   -4.5636    0.0000 H   0  0  0  0  0  0  0  0  0  0  0  0
    4.5476   -6.0436    0.0000 H   0  0  0  0  0  0  0  0  0  0  0  0
  1 26  1  0  0  0  0
  2 26  1  0  0  0  0
  3 26  1  0  0  0  0
  4 13  1  0  0  0  0
  4 18  1  0  0  0  0
  5 14  1  0  0  0  0
  5 42  1  0  0  0  0
  6 16  1  0  0  0  0
  6 22  1  0  0  0  0
  7 17  1  0  0  0  0
  7 24  1  0  0  0  0
  8 18  2  0  0  0  0
  9 20  2  0  0  0  0
 10 23  2  0  0  0  0
 11 15  1  0  0  0  0
 11 19  1  0  0  0  0
 11 20  1  0  0  0  0
 12 20  1  0  0  0  0
 12 23  1  0  0  0  0
 12 46  1  0  0  0  0
 13 14  1  0  0  0  0
 13 16  1  0  0  0  0
 13 38  1  0  0  0  0
 14 15  1  0  0  0  0
 14 39  1  0  0  0  0
 15 40  1  0  0  0  0
 15 41  1  0  0  0  0
 16 17  2  0  0  0  0
 17 18  1  0  0  0  0
 19 21  2  0  0  0  0
 19 43  1  0  0  0  0
 21 23  1  0  0  0  0
 21 26  1  0  0  0  0
 22 25  1  0  0  0  0
 22 44  1  0  0  0  0
 22 45  1  0  0  0  0
 24 27  1  0  0  0  0
 24 47  1  0  0  0  0
 24 48  1  0  0  0  0
 25 28  2  0  0  0  0
 25 29  1  0  0  0  0
 27 30  2  0  0  0  0
 27 31  1  0  0  0  0
 28 32  1  0  0  0  0
 28 49  1  0  0  0  0
 29 33  2  0  0  0  0
 29 50  1  0  0  0  0
 30 35  1  0  0  0  0
 30 51  1  0  0  0  0
 31 36  2  0  0  0  0
 31 52  1  0  0  0  0
 32 34  2  0  0  0  0
 32 53  1  0  0  0  0
 33 34  1  0  0  0  0
 33 54  1  0  0  0  0
 34 55  1  0  0  0  0
 35 37  2  0  0  0  0
 35 56  1  0  0  0  0
 36 37  1  0  0  0  0
 36 57  1  0  0  0  0
 37 58  1  0  0  0  0
M  END
> <PUBCHEM_COMPOUND_CID>
513824
> <PUBCHEM_COMPOUND_CANONICALIZED>
1
> <PUBCHEM_CACTVS_COMPLEXITY>
937
> <PUBCHEM_CACTVS_HBOND_ACCEPTOR>
10
> <PUBCHEM_CACTVS_HBOND_DONOR>
2
> <PUBCHEM_CACTVS_ROTATABLE_BOND>
9
> <PUBCHEM_CACTVS_SUBSKEYS>
AAADceB7OYAAAAAAAAAAAAAAAAAAAQAAAAAwYIAAAAAAAAABQAAAHwAQCAAADBThmBYxCIPABgCIAiHWWAKCCAAgIAAIiAFICMiLNiKAsRyGcAAvxyMbqcegwCAOAAAAAAAAAAAAAAAAAAAAAAAAAAAAAA==
> <PUBCHEM_IUPAC_OPENEYE_NAME>
1-[2-(3,4-dibenzyloxy-5-oxo-2H-furan-2-yl)-2-hydroxy-ethyl]-5-(trifluoromethyl)pyrimidine-2,4-dione
> <PUBCHEM_IUPAC_CAS_NAME>
1-[2-hydroxy-2-[5-oxo-3,4-bis(phenylmethoxy)-2H-furan-2-yl]ethyl]-5-(trifluoromethyl)pyrimidine-2,4-dione
> <PUBCHEM_IUPAC_NAME_MARKUP>
1-[2-hydroxy-2-[5-oxo-3,4-bis(phenylmethoxy)-2<I>H</I>-furan-2-yl]ethyl]-5-(trifluoromethyl)pyrimidine-2,4-dione
> <PUBCHEM_IUPAC_NAME>
1-[2-hydroxy-2-[5-oxo-3,4-bis(phenylmethoxy)-2H-furan-2-yl]ethyl]-5-(trifluoromethyl)pyrimidine-2,4-dione
> <PUBCHEM_IUPAC_SYSTEMATIC_NAME>
1-[2-oxidanyl-2-[5-oxidanylidene-3,4-bis(phenylmethoxy)-2H-furan-2-yl]ethyl]-5-(trifluoromethyl)pyrimidine-2,4-dione
> <PUBCHEM_IUPAC_TRADITIONAL_NAME>
1-[2-(3,4-dibenzoxy-5-keto-2H-furan-2-yl)-2-hydroxy-ethyl]-5-(trifluoromethyl)pyrimidine-2,4-quinone
> <PUBCHEM_IUPAC_INCHI>
InChI=1S/C25H21F3N2O7/c26-25(27,28)17-11-30(24(34)29-22(17)32)12-18(31)19-20(35-13-15-7-3-1-4-8-15)21(23(33)37-19)36-14-16-9-5-2-6-10-16/h1-11,18-19,31H,12-14H2,(H,29,32,34)
> <PUBCHEM_IUPAC_INCHIKEY>
XQYUVMVRDMYRBF-UHFFFAOYSA-N
> <PUBCHEM_XLOGP3_AA>
2.4
> <PUBCHEM_EXACT_MASS>
518.13008550
> <PUBCHEM_MOLECULAR_FORMULA>
C25H21F3N2O7
> <PUBCHEM_MOLECULAR_WEIGHT>
518.4
> <PUBCHEM_OPENEYE_CAN_SMILES>
C1=CC=C(C=C1)COC2=C(C(=O)OC2C(CN3C=C(C(=O)NC3=O)C(F)(F)F)O)OCC4=CC=CC=C4
> <PUBCHEM_OPENEYE_ISO_SMILES>
C1=CC=C(C=C1)COC2=C(C(=O)OC2C(CN3C=C(C(=O)NC3=O)C(F)(F)F)O)OCC4=CC=CC=C4
> <PUBCHEM_CACTVS_TPSA>
114
> <PUBCHEM_MONOISOTOPIC_WEIGHT>
518.13008550
> <PUBCHEM_TOTAL_CHARGE>
0
> <PUBCHEM_HEAVY_ATOM_COUNT>
37
> <PUBCHEM_ATOM_DEF_STEREO_COUNT>
0
> <PUBCHEM_ATOM_UDEF_STEREO_COUNT>
2
> <PUBCHEM_BOND_DEF_STEREO_COUNT>
0
> <PUBCHEM_BOND_UDEF_STEREO_COUNT>
0
> <PUBCHEM_ISOTOPIC_ATOM_COUNT>
0
> <PUBCHEM_COMPONENT_COUNT>
1
> <PUBCHEM_CACTVS_TAUTO_COUNT>
-1
> <PUBCHEM_COORDINATE_TYPE>
1
5
255
> <PUBCHEM_BONDANNOTATIONS>
11  19  8
11  20  8
12  20  8
12  23  8
13  16  3
19  21  8
21  23  8
25  28  8
25  29  8
27  30  8
27  31  8
28  32  8
29  33  8
30  35  8
31  36  8
32  34  8
33  34  8
35  37  8
36  37  8
14  5  3
$$$$
