513879
  -OEChem-10302200282D
 81 84  0     1  0  0  0  0  0999 V2000
    3.0000   -3.5287    0.0000 S   0  0  0  0  0  0  0  0  0  0  0  0
    3.0038   -2.5287    0.0000 O   0  0  0  0  0  0  0  0  0  0  0  0
    3.0200   -0.4371    0.0000 O   0  0  0  0  0  0  0  0  0  0  0  0
    2.9961   -4.5287    0.0000 O   0  0  0  0  0  0  0  0  0  0  0  0
    2.0000   -3.5249    0.0000 O   0  0  0  0  0  0  0  0  0  0  0  0
    4.0000   -3.5326    0.0000 O   0  0  0  0  0  0  0  0  0  0  0  0
    8.3969    0.5236    0.0000 C   0  0  1  0  0  0  0  0  0  0  0  0
    8.3969   -0.4764    0.0000 C   0  0  3  0  0  0  0  0  0  0  0  0
    7.5309   -0.9764    0.0000 C   0  0  3  0  0  0  0  0  0  0  0  0
    6.6649   -0.4764    0.0000 C   0  0  3  0  0  0  0  0  0  0  0  0
    5.7549   -0.9832    0.0000 C   0  0  2  0  0  0  0  0  0  0  0  0
    9.3432    0.8283    0.0000 C   0  0  2  0  0  0  0  0  0  0  0  0
    5.7468   -2.0248    0.0000 C   0  0  1  0  0  0  0  0  0  0  0  0
    7.5309    1.0236    0.0000 C   0  0  0  0  0  0  0  0  0  0  0  0
    6.6649    0.5236    0.0000 C   0  0  0  0  0  0  0  0  0  0  0  0
    9.3432   -0.7811    0.0000 C   0  0  0  0  0  0  0  0  0  0  0  0
    7.5470   -2.0179    0.0000 C   0  0  0  0  0  0  0  0  0  0  0  0
    9.9268    0.0236    0.0000 C   0  0  0  0  0  0  0  0  0  0  0  0
    6.6489   -2.5457    0.0000 C   0  0  0  0  0  0  0  0  0  0  0  0
    4.8280   -0.4192    0.0000 C   0  0  0  0  0  0  0  0  0  0  0  0
    8.3969    1.5236    0.0000 C   0  0  0  0  0  0  0  0  0  0  0  0
    9.6538    1.7789    0.0000 C   0  0  1  0  0  0  0  0  0  0  0  0
    4.8114   -2.5746    0.0000 C   0  0  0  0  0  0  0  0  0  0  0  0
    5.7626    0.0167    0.0000 C   0  0  0  0  0  0  0  0  0  0  0  0
    3.8802   -0.9471    0.0000 C   0  0  1  0  0  0  0  0  0  0  0  0
    3.8718   -2.0321    0.0000 C   0  0  1  0  0  0  0  0  0  0  0  0
   10.6323    1.9851    0.0000 C   0  0  0  0  0  0  0  0  0  0  0  0
    8.9860    2.5232    0.0000 C   0  0  0  0  0  0  0  0  0  0  0  0
   10.9430    2.9356    0.0000 C   0  0  0  0  0  0  0  0  0  0  0  0
   11.9215    3.1418    0.0000 C   0  0  0  0  0  0  0  0  0  0  0  0
   12.2322    4.0923    0.0000 C   0  0  0  0  0  0  0  0  0  0  0  0
   13.2107    4.2986    0.0000 C   0  0  0  0  0  0  0  0  0  0  0  0
   11.5643    4.8366    0.0000 C   0  0  0  0  0  0  0  0  0  0  0  0
    8.4625   -1.0929    0.0000 H   0  0  0  0  0  0  0  0  0  0  0  0
    8.0702   -1.2822    0.0000 H   0  0  0  0  0  0  0  0  0  0  0  0
    7.2018   -0.1664    0.0000 H   0  0  0  0  0  0  0  0  0  0  0  0
   10.1829    0.9602    0.0000 H   0  0  0  0  0  0  0  0  0  0  0  0
    5.7501   -2.8748    0.0000 H   0  0  0  0  0  0  0  0  0  0  0  0
    7.9294    1.4986    0.0000 H   0  0  0  0  0  0  0  0  0  0  0  0
    7.1324    1.4986    0.0000 H   0  0  0  0  0  0  0  0  0  0  0  0
    6.4528    1.1062    0.0000 H   0  0  0  0  0  0  0  0  0  0  0  0
    6.0543    0.4159    0.0000 H   0  0  0  0  0  0  0  0  0  0  0  0
    9.0921   -1.3480    0.0000 H   0  0  0  0  0  0  0  0  0  0  0  0
    9.8805   -1.0904    0.0000 H   0  0  0  0  0  0  0  0  0  0  0  0
    7.7650   -2.5983    0.0000 H   0  0  0  0  0  0  0  0  0  0  0  0
    8.1561   -1.9024    0.0000 H   0  0  0  0  0  0  0  0  0  0  0  0
   10.3876   -0.3911    0.0000 H   0  0  0  0  0  0  0  0  0  0  0  0
   10.3876    0.4383    0.0000 H   0  0  0  0  0  0  0  0  0  0  0  0
    6.2516   -3.0216    0.0000 H   0  0  0  0  0  0  0  0  0  0  0  0
    7.0499   -3.0186    0.0000 H   0  0  0  0  0  0  0  0  0  0  0  0
    5.2362    0.0475    0.0000 H   0  0  0  0  0  0  0  0  0  0  0  0
    4.4381    0.0629    0.0000 H   0  0  0  0  0  0  0  0  0  0  0  0
    9.0169    1.5236    0.0000 H   0  0  0  0  0  0  0  0  0  0  0  0
    8.3969    2.1436    0.0000 H   0  0  0  0  0  0  0  0  0  0  0  0
    7.7769    1.5236    0.0000 H   0  0  0  0  0  0  0  0  0  0  0  0
    9.8464    2.3682    0.0000 H   0  0  0  0  0  0  0  0  0  0  0  0
    4.4141   -3.0505    0.0000 H   0  0  0  0  0  0  0  0  0  0  0  0
    5.2124   -3.0475    0.0000 H   0  0  0  0  0  0  0  0  0  0  0  0
    6.3826    0.0120    0.0000 H   0  0  0  0  0  0  0  0  0  0  0  0
    5.7674    0.6367    0.0000 H   0  0  0  0  0  0  0  0  0  0  0  0
    5.1426    0.0215    0.0000 H   0  0  0  0  0  0  0  0  0  0  0  0
    3.8885   -0.3272    0.0000 H   0  0  0  0  0  0  0  0  0  0  0  0
    3.3367   -1.7190    0.0000 H   0  0  0  0  0  0  0  0  0  0  0  0
   10.6529    1.3654    0.0000 H   0  0  0  0  0  0  0  0  0  0  0  0
   11.2461    1.8977    0.0000 H   0  0  0  0  0  0  0  0  0  0  0  0
    9.4474    2.9372    0.0000 H   0  0  0  0  0  0  0  0  0  0  0  0
    8.5719    2.9846    0.0000 H   0  0  0  0  0  0  0  0  0  0  0  0
    8.5245    2.1091    0.0000 H   0  0  0  0  0  0  0  0  0  0  0  0
    3.0271    0.1828    0.0000 H   0  0  0  0  0  0  0  0  0  0  0  0
   10.9224    3.5553    0.0000 H   0  0  0  0  0  0  0  0  0  0  0  0
   10.3292    3.0229    0.0000 H   0  0  0  0  0  0  0  0  0  0  0  0
   11.9421    2.5222    0.0000 H   0  0  0  0  0  0  0  0  0  0  0  0
   12.5353    3.0545    0.0000 H   0  0  0  0  0  0  0  0  0  0  0  0
   12.4248    4.6817    0.0000 H   0  0  0  0  0  0  0  0  0  0  0  0
    2.4580   -4.8366    0.0000 H   0  0  0  0  0  0  0  0  0  0  0  0
   13.3385    3.6919    0.0000 H   0  0  0  0  0  0  0  0  0  0  0  0
   13.8173    4.4264    0.0000 H   0  0  0  0  0  0  0  0  0  0  0  0
   13.0828    4.9052    0.0000 H   0  0  0  0  0  0  0  0  0  0  0  0
   12.0258    5.2507    0.0000 H   0  0  0  0  0  0  0  0  0  0  0  0
   11.1502    5.2981    0.0000 H   0  0  0  0  0  0  0  0  0  0  0  0
   11.1028    4.4226    0.0000 H   0  0  0  0  0  0  0  0  0  0  0  0
  1  2  1  0  0  0  0
  1  4  1  0  0  0  0
  1  5  2  0  0  0  0
  1  6  2  0  0  0  0
 26  2  1  6  0  0  0
 25  3  1  1  0  0  0
  3 69  1  0  0  0  0
  4 75  1  0  0  0  0
  7  8  1  0  0  0  0
  7 12  1  0  0  0  0
  7 14  1  0  0  0  0
  7 21  1  1  0  0  0
  8  9  1  0  0  0  0
  8 16  1  0  0  0  0
  8 34  1  0  0  0  0
  9 10  1  0  0  0  0
  9 17  1  0  0  0  0
  9 35  1  0  0  0  0
 10 11  1  0  0  0  0
 10 15  1  0  0  0  0
 10 36  1  0  0  0  0
 11 13  1  0  0  0  0
 11 20  1  0  0  0  0
 11 24  1  1  0  0  0
 12 18  1  0  0  0  0
 12 22  1  0  0  0  0
 12 37  1  6  0  0  0
 13 19  1  0  0  0  0
 13 23  1  0  0  0  0
 13 38  1  6  0  0  0
 14 15  1  0  0  0  0
 14 39  1  0  0  0  0
 14 40  1  0  0  0  0
 15 41  1  0  0  0  0
 15 42  1  0  0  0  0
 16 18  1  0  0  0  0
 16 43  1  0  0  0  0
 16 44  1  0  0  0  0
 17 19  1  0  0  0  0
 17 45  1  0  0  0  0
 17 46  1  0  0  0  0
 18 47  1  0  0  0  0
 18 48  1  0  0  0  0
 19 49  1  0  0  0  0
 19 50  1  0  0  0  0
 20 25  1  0  0  0  0
 20 51  1  0  0  0  0
 20 52  1  0  0  0  0
 21 53  1  0  0  0  0
 21 54  1  0  0  0  0
 21 55  1  0  0  0  0
 22 27  1  0  0  0  0
 22 28  1  6  0  0  0
 22 56  1  0  0  0  0
 23 26  1  0  0  0  0
 23 57  1  0  0  0  0
 23 58  1  0  0  0  0
 24 59  1  0  0  0  0
 24 60  1  0  0  0  0
 24 61  1  0  0  0  0
 25 26  1  0  0  0  0
 25 62  1  0  0  0  0
 26 63  1  0  0  0  0
 27 29  1  0  0  0  0
 27 64  1  0  0  0  0
 27 65  1  0  0  0  0
 28 66  1  0  0  0  0
 28 67  1  0  0  0  0
 28 68  1  0  0  0  0
 29 30  1  0  0  0  0
 29 70  1  0  0  0  0
 29 71  1  0  0  0  0
 30 31  1  0  0  0  0
 30 72  1  0  0  0  0
 30 73  1  0  0  0  0
 31 32  1  0  0  0  0
 31 33  1  0  0  0  0
 31 74  1  0  0  0  0
 32 76  1  0  0  0  0
 32 77  1  0  0  0  0
 32 78  1  0  0  0  0
 33 79  1  0  0  0  0
 33 80  1  0  0  0  0
 33 81  1  0  0  0  0
M  END
> <PUBCHEM_COMPOUND_CID>
513879
> <PUBCHEM_COMPOUND_CANONICALIZED>
1
> <PUBCHEM_CACTVS_COMPLEXITY>
791
> <PUBCHEM_CACTVS_HBOND_ACCEPTOR>
5
> <PUBCHEM_CACTVS_HBOND_DONOR>
2
> <PUBCHEM_CACTVS_ROTATABLE_BOND>
7
> <PUBCHEM_CACTVS_SUBSKEYS>
AAADcfB4OABAAAAAAAAAAAAAAAAAAYAAAAAwYMAAAAAAAGDAAAAAGgAACAAADxSggAICAAAAAoAAAAAAADAAAAAAAAAAAAAAAAABEAIAAAAAQAAEAAABAAGAwPAPgAAAAAAAAADAAAYAACCAAQAACAAAAA==
> <PUBCHEM_IUPAC_OPENEYE_NAME>
[(2S,3S,5S,10S,13R,17R)-17-[(1R)-1,5-dimethylhexyl]-2-hydroxy-10,13-dimethyl-2,3,4,5,6,7,8,9,11,12,14,15,16,17-tetradecahydro-1H-cyclopenta[a]phenanthren-3-yl] hydrogen sulfate
> <PUBCHEM_IUPAC_CAS_NAME>
sulfuric acid [(2S,3S,5S,10S,13R,17R)-2-hydroxy-10,13-dimethyl-17-[(2R)-6-methylheptan-2-yl]-2,3,4,5,6,7,8,9,11,12,14,15,16,17-tetradecahydro-1H-cyclopenta[a]phenanthren-3-yl] ester
> <PUBCHEM_IUPAC_NAME_MARKUP>
[(2<I>S</I>,3<I>S</I>,5<I>S</I>,10<I>S</I>,13<I>R</I>,17<I>R</I>)-2-hydroxy-10,13-dimethyl-17-[(2<I>R</I>)-6-methylheptan-2-yl]-2,3,4,5,6,7,8,9,11,12,14,15,16,17-tetradecahydro-1<I>H</I>-cyclopenta[a]phenanthren-3-yl] hydrogen sulfate
> <PUBCHEM_IUPAC_NAME>
[(2S,3S,5S,10S,13R,17R)-2-hydroxy-10,13-dimethyl-17-[(2R)-6-methylheptan-2-yl]-2,3,4,5,6,7,8,9,11,12,14,15,16,17-tetradecahydro-1H-cyclopenta[a]phenanthren-3-yl] hydrogen sulfate
> <PUBCHEM_IUPAC_SYSTEMATIC_NAME>
[(2S,3S,5S,10S,13R,17R)-10,13-dimethyl-17-[(2R)-6-methylheptan-2-yl]-2-oxidanyl-2,3,4,5,6,7,8,9,11,12,14,15,16,17-tetradecahydro-1H-cyclopenta[a]phenanthren-3-yl] hydrogen sulfate
> <PUBCHEM_IUPAC_TRADITIONAL_NAME>
sulfuric acid [(2S,3S,5S,10S,13R,17R)-17-[(1R)-1,5-dimethylhexyl]-2-hydroxy-10,13-dimethyl-2,3,4,5,6,7,8,9,11,12,14,15,16,17-tetradecahydro-1H-cyclopenta[a]phenanthren-3-yl] ester
> <PUBCHEM_IUPAC_INCHI>
InChI=1S/C27H48O5S/c1-17(2)7-6-8-18(3)21-11-12-22-20-10-9-19-15-25(32-33(29,30)31)24(28)16-27(19,5)23(20)13-14-26(21,22)4/h17-25,28H,6-16H2,1-5H3,(H,29,30,31)/t18-,19+,20?,21-,22?,23?,24+,25+,26-,27+/m1/s1
> <PUBCHEM_IUPAC_INCHIKEY>
XXXYFLVDOZVAAE-FCYIINJSSA-N
> <PUBCHEM_XLOGP3_AA>
8
> <PUBCHEM_EXACT_MASS>
484.32224580
> <PUBCHEM_MOLECULAR_FORMULA>
C27H48O5S
> <PUBCHEM_MOLECULAR_WEIGHT>
484.7
> <PUBCHEM_OPENEYE_CAN_SMILES>
CC(C)CCCC(C)C1CCC2C1(CCC3C2CCC4C3(CC(C(C4)OS(=O)(=O)O)O)C)C
> <PUBCHEM_OPENEYE_ISO_SMILES>
C[C@H](CCCC(C)C)[C@H]1CCC2[C@@]1(CCC3C2CC[C@@H]4[C@@]3(C[C@@H]([C@H](C4)OS(=O)(=O)O)O)C)C
> <PUBCHEM_CACTVS_TPSA>
92.2
> <PUBCHEM_MONOISOTOPIC_WEIGHT>
484.32224580
> <PUBCHEM_TOTAL_CHARGE>
0
> <PUBCHEM_HEAVY_ATOM_COUNT>
33
> <PUBCHEM_ATOM_DEF_STEREO_COUNT>
7
> <PUBCHEM_ATOM_UDEF_STEREO_COUNT>
3
> <PUBCHEM_BOND_DEF_STEREO_COUNT>
0
> <PUBCHEM_BOND_UDEF_STEREO_COUNT>
0
> <PUBCHEM_ISOTOPIC_ATOM_COUNT>
0
> <PUBCHEM_COMPONENT_COUNT>
1
> <PUBCHEM_CACTVS_TAUTO_COUNT>
-1
> <PUBCHEM_COORDINATE_TYPE>
1
5
255
> <PUBCHEM_BONDANNOTATIONS>
10  15  3
11  24  5
12  37  6
13  38  6
26  2  6
22  28  6
25  3  5
7  21  5
8  16  3
9  17  3
$$$$
