513803
  -OEChem-10302200282D
 88 91  0     1  0  0  0  0  0999 V2000
    6.0010    3.8730    0.0000 S   0  0  0  0  0  0  0  0  0  0  0  0
    6.0010   -6.1270    0.0000 F   0  0  0  0  0  0  0  0  0  0  0  0
    7.3671   -6.4930    0.0000 F   0  0  0  0  0  0  0  0  0  0  0  0
    6.3671   -4.7610    0.0000 F   0  0  0  0  0  0  0  0  0  0  0  0
    6.0010    0.8730    0.0000 O   0  0  0  0  0  0  0  0  0  0  0  0
    6.5010    4.7390    0.0000 O   0  0  0  0  0  0  0  0  0  0  0  0
    5.5010    3.0070    0.0000 O   0  0  0  0  0  0  0  0  0  0  0  0
    8.5991   -2.6270    0.0000 O   0  0  0  0  0  0  0  0  0  0  0  0
   14.7415   -2.3222    0.0000 O   0  0  0  0  0  0  0  0  0  0  0  0
   14.7415   -3.9317    0.0000 O   0  0  0  0  0  0  0  0  0  0  0  0
    6.8671    3.3730    0.0000 N   0  0  3  0  0  0  0  0  0  0  0  0
    9.4651   -1.1270    0.0000 N   0  0  0  0  0  0  0  0  0  0  0  0
   10.3312   -2.6270    0.0000 N   0  0  0  0  0  0  0  0  0  0  0  0
    2.5369    5.8730    0.0000 N   0  0  0  0  0  0  0  0  0  0  0  0
    6.8671    2.3730    0.0000 C   0  0  1  0  0  0  0  0  0  0  0  0
    7.7331    1.8730    0.0000 C   0  0  0  0  0  0  0  0  0  0  0  0
    7.7331    3.8730    0.0000 C   0  0  0  0  0  0  0  0  0  0  0  0
    7.7331    0.8730    0.0000 C   0  0  0  0  0  0  0  0  0  0  0  0
    8.5991    3.3730    0.0000 C   0  0  0  0  0  0  0  0  0  0  0  0
    6.0010    1.8730    0.0000 C   0  0  0  0  0  0  0  0  0  0  0  0
    8.5991    0.3730    0.0000 C   0  0  0  0  0  0  0  0  0  0  0  0
    5.1350    4.3730    0.0000 C   0  0  0  0  0  0  0  0  0  0  0  0
    9.4651    3.8730    0.0000 C   0  0  0  0  0  0  0  0  0  0  0  0
    8.5991    2.3730    0.0000 C   0  0  0  0  0  0  0  0  0  0  0  0
    8.5991   -0.6270    0.0000 C   0  0  0  0  0  0  0  0  0  0  0  0
    5.1350    5.3730    0.0000 C   0  0  0  0  0  0  0  0  0  0  0  0
    4.2690    3.8730    0.0000 C   0  0  0  0  0  0  0  0  0  0  0  0
    9.4651   -2.1270    0.0000 C   0  0  0  0  0  0  0  0  0  0  0  0
    4.2690    5.8730    0.0000 C   0  0  0  0  0  0  0  0  0  0  0  0
    3.4030    4.3730    0.0000 C   0  0  0  0  0  0  0  0  0  0  0  0
    3.4030    5.3730    0.0000 C   0  0  0  0  0  0  0  0  0  0  0  0
   11.1972   -2.1270    0.0000 C   0  0  0  0  0  0  0  0  0  0  0  0
   10.3312   -3.6270    0.0000 C   0  0  0  0  0  0  0  0  0  0  0  0
   12.0632   -2.6270    0.0000 C   0  0  0  0  0  0  0  0  0  0  0  0
    9.4651   -4.1270    0.0000 C   0  0  0  0  0  0  0  0  0  0  0  0
   12.9292   -2.1270    0.0000 C   0  0  0  0  0  0  0  0  0  0  0  0
   12.0632   -3.6270    0.0000 C   0  0  0  0  0  0  0  0  0  0  0  0
   13.7953   -2.6270    0.0000 C   0  0  0  0  0  0  0  0  0  0  0  0
    9.4651   -5.1270    0.0000 C   0  0  0  0  0  0  0  0  0  0  0  0
    8.5991   -3.6270    0.0000 C   0  0  0  0  0  0  0  0  0  0  0  0
   13.7953   -3.6270    0.0000 C   0  0  0  0  0  0  0  0  0  0  0  0
   12.9292   -4.1270    0.0000 C   0  0  0  0  0  0  0  0  0  0  0  0
    8.5991   -5.6270    0.0000 C   0  0  0  0  0  0  0  0  0  0  0  0
    7.7331   -4.1270    0.0000 C   0  0  0  0  0  0  0  0  0  0  0  0
    7.7331   -5.1270    0.0000 C   0  0  0  0  0  0  0  0  0  0  0  0
   15.3251   -3.1270    0.0000 C   0  0  0  0  0  0  0  0  0  0  0  0
    6.8671   -5.6270    0.0000 C   0  0  0  0  0  0  0  0  0  0  0  0
    6.3301    2.6830    0.0000 H   0  0  0  0  0  0  0  0  0  0  0  0
    8.3437    1.7654    0.0000 H   0  0  0  0  0  0  0  0  0  0  0  0
    7.9451    2.4556    0.0000 H   0  0  0  0  0  0  0  0  0  0  0  0
    8.1316    4.3480    0.0000 H   0  0  0  0  0  0  0  0  0  0  0  0
    7.3346    4.3480    0.0000 H   0  0  0  0  0  0  0  0  0  0  0  0
    7.1225    0.9807    0.0000 H   0  0  0  0  0  0  0  0  0  0  0  0
    7.5210    0.2904    0.0000 H   0  0  0  0  0  0  0  0  0  0  0  0
    8.5991    3.9930    0.0000 H   0  0  0  0  0  0  0  0  0  0  0  0
    5.7890    2.4556    0.0000 H   0  0  0  0  0  0  0  0  0  0  0  0
    5.3905    1.7654    0.0000 H   0  0  0  0  0  0  0  0  0  0  0  0
    9.2097    0.2654    0.0000 H   0  0  0  0  0  0  0  0  0  0  0  0
    8.8112    0.9556    0.0000 H   0  0  0  0  0  0  0  0  0  0  0  0
    9.7751    3.3361    0.0000 H   0  0  0  0  0  0  0  0  0  0  0  0
   10.0021    4.1830    0.0000 H   0  0  0  0  0  0  0  0  0  0  0  0
    9.1551    4.4100    0.0000 H   0  0  0  0  0  0  0  0  0  0  0  0
    7.9791    2.3730    0.0000 H   0  0  0  0  0  0  0  0  0  0  0  0
    8.5991    1.7530    0.0000 H   0  0  0  0  0  0  0  0  0  0  0  0
    9.2191    2.3730    0.0000 H   0  0  0  0  0  0  0  0  0  0  0  0
    7.9885   -0.5193    0.0000 H   0  0  0  0  0  0  0  0  0  0  0  0
    8.3871   -1.2096    0.0000 H   0  0  0  0  0  0  0  0  0  0  0  0
    5.4641    0.5630    0.0000 H   0  0  0  0  0  0  0  0  0  0  0  0
    5.6720    5.6830    0.0000 H   0  0  0  0  0  0  0  0  0  0  0  0
    4.2690    3.2530    0.0000 H   0  0  0  0  0  0  0  0  0  0  0  0
   10.0021   -0.8170    0.0000 H   0  0  0  0  0  0  0  0  0  0  0  0
    4.2690    6.4930    0.0000 H   0  0  0  0  0  0  0  0  0  0  0  0
    2.8660    4.0630    0.0000 H   0  0  0  0  0  0  0  0  0  0  0  0
   11.5957   -1.6520    0.0000 H   0  0  0  0  0  0  0  0  0  0  0  0
   10.7987   -1.6520    0.0000 H   0  0  0  0  0  0  0  0  0  0  0  0
   10.5432   -4.2096    0.0000 H   0  0  0  0  0  0  0  0  0  0  0  0
   10.9417   -3.5193    0.0000 H   0  0  0  0  0  0  0  0  0  0  0  0
    2.5369    6.4930    0.0000 H   0  0  0  0  0  0  0  0  0  0  0  0
    2.0000    5.5630    0.0000 H   0  0  0  0  0  0  0  0  0  0  0  0
   12.9292   -1.5070    0.0000 H   0  0  0  0  0  0  0  0  0  0  0  0
   11.5263   -3.9370    0.0000 H   0  0  0  0  0  0  0  0  0  0  0  0
   10.0021   -5.4370    0.0000 H   0  0  0  0  0  0  0  0  0  0  0  0
    8.5991   -3.0070    0.0000 H   0  0  0  0  0  0  0  0  0  0  0  0
   12.9292   -4.7470    0.0000 H   0  0  0  0  0  0  0  0  0  0  0  0
    8.5991   -6.2470    0.0000 H   0  0  0  0  0  0  0  0  0  0  0  0
    7.1962   -3.8170    0.0000 H   0  0  0  0  0  0  0  0  0  0  0  0
   15.7860   -3.5417    0.0000 H   0  0  0  0  0  0  0  0  0  0  0  0
   15.7860   -2.7123    0.0000 H   0  0  0  0  0  0  0  0  0  0  0  0
  1  6  2  0  0  0  0
  1  7  2  0  0  0  0
  1 11  1  0  0  0  0
  1 22  1  0  0  0  0
  2 47  1  0  0  0  0
  3 47  1  0  0  0  0
  4 47  1  0  0  0  0
  5 20  1  0  0  0  0
  5 68  1  0  0  0  0
  8 28  2  0  0  0  0
  9 38  1  0  0  0  0
  9 46  1  0  0  0  0
 10 41  1  0  0  0  0
 10 46  1  0  0  0  0
 15 11  1  1  0  0  0
 11 17  1  0  0  0  0
 12 25  1  0  0  0  0
 12 28  1  0  0  0  0
 12 71  1  0  0  0  0
 13 28  1  0  0  0  0
 13 32  1  0  0  0  0
 13 33  1  0  0  0  0
 14 31  1  0  0  0  0
 14 78  1  0  0  0  0
 14 79  1  0  0  0  0
 15 16  1  0  0  0  0
 15 20  1  0  0  0  0
 15 48  1  0  0  0  0
 16 18  1  0  0  0  0
 16 49  1  0  0  0  0
 16 50  1  0  0  0  0
 17 19  1  0  0  0  0
 17 51  1  0  0  0  0
 17 52  1  0  0  0  0
 18 21  1  0  0  0  0
 18 53  1  0  0  0  0
 18 54  1  0  0  0  0
 19 23  1  0  0  0  0
 19 24  1  0  0  0  0
 19 55  1  0  0  0  0
 20 56  1  0  0  0  0
 20 57  1  0  0  0  0
 21 25  1  0  0  0  0
 21 58  1  0  0  0  0
 21 59  1  0  0  0  0
 22 26  2  0  0  0  0
 22 27  1  0  0  0  0
 23 60  1  0  0  0  0
 23 61  1  0  0  0  0
 23 62  1  0  0  0  0
 24 63  1  0  0  0  0
 24 64  1  0  0  0  0
 24 65  1  0  0  0  0
 25 66  1  0  0  0  0
 25 67  1  0  0  0  0
 26 29  1  0  0  0  0
 26 69  1  0  0  0  0
 27 30  2  0  0  0  0
 27 70  1  0  0  0  0
 29 31  2  0  0  0  0
 29 72  1  0  0  0  0
 30 31  1  0  0  0  0
 30 73  1  0  0  0  0
 32 34  1  0  0  0  0
 32 74  1  0  0  0  0
 32 75  1  0  0  0  0
 33 35  1  0  0  0  0
 33 76  1  0  0  0  0
 33 77  1  0  0  0  0
 34 36  2  0  0  0  0
 34 37  1  0  0  0  0
 35 39  2  0  0  0  0
 35 40  1  0  0  0  0
 36 38  1  0  0  0  0
 36 80  1  0  0  0  0
 37 42  2  0  0  0  0
 37 81  1  0  0  0  0
 38 41  2  0  0  0  0
 39 43  1  0  0  0  0
 39 82  1  0  0  0  0
 40 44  2  0  0  0  0
 40 83  1  0  0  0  0
 41 42  1  0  0  0  0
 42 84  1  0  0  0  0
 43 45  2  0  0  0  0
 43 85  1  0  0  0  0
 44 45  1  0  0  0  0
 44 86  1  0  0  0  0
 45 47  1  0  0  0  0
 46 87  1  0  0  0  0
 46 88  1  0  0  0  0
M  END
> <PUBCHEM_COMPOUND_CID>
513803
> <PUBCHEM_COMPOUND_CANONICALIZED>
1
> <PUBCHEM_CACTVS_COMPLEXITY>
1060
> <PUBCHEM_CACTVS_HBOND_ACCEPTOR>
11
> <PUBCHEM_CACTVS_HBOND_DONOR>
3
> <PUBCHEM_CACTVS_ROTATABLE_BOND>
15
> <PUBCHEM_CACTVS_SUBSKEYS>
AAADcfB/uYBAAAAAAAAAAAAAAAAAASAAAAAwYMAAAAAAAEgBUAAAHwQQSAAADSzh2Bczz4PABgKIAiRCUHDCCBAgIgAIiJgO7IifNiKEsZukcCps1hOe6Aew0BIOYAQBAAAAQADACAIAAACAAAAAAAAAAA==
> <PUBCHEM_IUPAC_OPENEYE_NAME>
3-[(5S)-5-[(4-aminophenyl)sulfonyl-isobutyl-amino]-6-hydroxy-hexyl]-1-(1,3-benzodioxol-5-ylmethyl)-1-[[4-(trifluoromethyl)phenyl]methyl]urea
> <PUBCHEM_IUPAC_CAS_NAME>
3-[(5S)-5-[(4-aminophenyl)sulfonyl-(2-methylpropyl)amino]-6-hydroxyhexyl]-1-(1,3-benzodioxol-5-ylmethyl)-1-[[4-(trifluoromethyl)phenyl]methyl]urea
> <PUBCHEM_IUPAC_NAME_MARKUP>
3-[(5<I>S</I>)-5-[(4-aminophenyl)sulfonyl-(2-methylpropyl)amino]-6-hydroxyhexyl]-1-(1,3-benzodioxol-5-ylmethyl)-1-[[4-(trifluoromethyl)phenyl]methyl]urea
> <PUBCHEM_IUPAC_NAME>
3-[(5S)-5-[(4-aminophenyl)sulfonyl-(2-methylpropyl)amino]-6-hydroxyhexyl]-1-(1,3-benzodioxol-5-ylmethyl)-1-[[4-(trifluoromethyl)phenyl]methyl]urea
> <PUBCHEM_IUPAC_SYSTEMATIC_NAME>
3-[(5S)-5-[(4-aminophenyl)sulfonyl-(2-methylpropyl)amino]-6-oxidanyl-hexyl]-1-(1,3-benzodioxol-5-ylmethyl)-1-[[4-(trifluoromethyl)phenyl]methyl]urea
> <PUBCHEM_IUPAC_TRADITIONAL_NAME>
3-[(5S)-6-hydroxy-5-[isobutyl(sulfanilyl)amino]hexyl]-1-piperonyl-1-[4-(trifluoromethyl)benzyl]urea
> <PUBCHEM_IUPAC_INCHI>
InChI=1S/C33H41F3N4O6S/c1-23(2)18-40(47(43,44)29-13-11-27(37)12-14-29)28(21-41)5-3-4-16-38-32(42)39(19-24-6-9-26(10-7-24)33(34,35)36)20-25-8-15-30-31(17-25)46-22-45-30/h6-15,17,23,28,41H,3-5,16,18-22,37H2,1-2H3,(H,38,42)/t28-/m0/s1
> <PUBCHEM_IUPAC_INCHIKEY>
RDJMIENHFLFNJX-NDEPHWFRSA-N
> <PUBCHEM_XLOGP3_AA>
5.2
> <PUBCHEM_EXACT_MASS>
678.26989070
> <PUBCHEM_MOLECULAR_FORMULA>
C33H41F3N4O6S
> <PUBCHEM_MOLECULAR_WEIGHT>
678.8
> <PUBCHEM_OPENEYE_CAN_SMILES>
CC(C)CN(C(CCCCNC(=O)N(CC1=CC=C(C=C1)C(F)(F)F)CC2=CC3=C(C=C2)OCO3)CO)S(=O)(=O)C4=CC=C(C=C4)N
> <PUBCHEM_OPENEYE_ISO_SMILES>
CC(C)CN([C@@H](CCCCNC(=O)N(CC1=CC=C(C=C1)C(F)(F)F)CC2=CC3=C(C=C2)OCO3)CO)S(=O)(=O)C4=CC=C(C=C4)N
> <PUBCHEM_CACTVS_TPSA>
143
> <PUBCHEM_MONOISOTOPIC_WEIGHT>
678.26989070
> <PUBCHEM_TOTAL_CHARGE>
0
> <PUBCHEM_HEAVY_ATOM_COUNT>
47
> <PUBCHEM_ATOM_DEF_STEREO_COUNT>
1
> <PUBCHEM_ATOM_UDEF_STEREO_COUNT>
0
> <PUBCHEM_BOND_DEF_STEREO_COUNT>
0
> <PUBCHEM_BOND_UDEF_STEREO_COUNT>
0
> <PUBCHEM_ISOTOPIC_ATOM_COUNT>
0
> <PUBCHEM_COMPONENT_COUNT>
1
> <PUBCHEM_CACTVS_TAUTO_COUNT>
-1
> <PUBCHEM_COORDINATE_TYPE>
1
5
255
> <PUBCHEM_BONDANNOTATIONS>
15  11  5
22  26  8
22  27  8
26  29  8
27  30  8
29  31  8
30  31  8
34  36  8
34  37  8
35  39  8
35  40  8
36  38  8
37  42  8
38  41  8
39  43  8
40  44  8
41  42  8
43  45  8
44  45  8
$$$$
