513960
  -OEChem-10302200282D
101104  0     1  0  0  0  0  0999 V2000
    4.5981   -3.0950    0.0000 S   0  0  0  0  0  0  0  0  0  0  0  0
    7.1962   -1.5950    0.0000 O   0  0  0  0  0  0  0  0  0  0  0  0
    5.5981   -3.0950    0.0000 O   0  0  0  0  0  0  0  0  0  0  0  0
    3.5981   -3.0950    0.0000 O   0  0  0  0  0  0  0  0  0  0  0  0
   12.3923    5.4050    0.0000 O   0  0  0  0  0  0  0  0  0  0  0  0
    8.9282    2.4050    0.0000 O   0  0  0  0  0  0  0  0  0  0  0  0
    9.7942    2.9050    0.0000 O   0  0  0  0  0  0  0  0  0  0  0  0
    2.8660    3.9050    0.0000 O   0  0  0  0  0  0  0  0  0  0  0  0
    4.5981   -2.0950    0.0000 N   0  0  3  0  0  0  0  0  0  0  0  0
    7.1962    2.4050    0.0000 N   0  0  0  0  0  0  0  0  0  0  0  0
    8.9282    4.4050    0.0000 N   0  0  0  0  0  0  0  0  0  0  0  0
   10.6603    4.4050    0.0000 N   0  0  0  0  0  0  0  0  0  0  0  0
    4.5981   -7.0950    0.0000 N   0  0  0  0  0  0  0  0  0  0  0  0
    5.4641   -1.5950    0.0000 C   0  0  1  0  0  0  0  0  0  0  0  0
    5.4641   -0.5950    0.0000 C   0  0  0  0  0  0  0  0  0  0  0  0
    3.7320   -1.5950    0.0000 C   0  0  0  0  0  0  0  0  0  0  0  0
    6.3301   -0.0950    0.0000 C   0  0  0  0  0  0  0  0  0  0  0  0
    3.7320   -0.5950    0.0000 C   0  0  0  0  0  0  0  0  0  0  0  0
    6.3301   -2.0950    0.0000 C   0  0  0  0  0  0  0  0  0  0  0  0
    6.3301    0.9050    0.0000 C   0  0  0  0  0  0  0  0  0  0  0  0
    7.1962    1.4050    0.0000 C   0  0  0  0  0  0  0  0  0  0  0  0
    4.5981   -4.0950    0.0000 C   0  0  0  0  0  0  0  0  0  0  0  0
    2.8660   -0.0950    0.0000 C   0  0  0  0  0  0  0  0  0  0  0  0
    4.5981   -0.0950    0.0000 C   0  0  0  0  0  0  0  0  0  0  0  0
    8.0622    3.9050    0.0000 C   0  0  2  0  0  0  0  0  0  0  0  0
    5.4641   -4.5950    0.0000 C   0  0  0  0  0  0  0  0  0  0  0  0
    3.7320   -4.5950    0.0000 C   0  0  0  0  0  0  0  0  0  0  0  0
    8.0622    2.9050    0.0000 C   0  0  0  0  0  0  0  0  0  0  0  0
    7.1962    4.4050    0.0000 C   0  0  0  0  0  0  0  0  0  0  0  0
    5.4641   -5.5950    0.0000 C   0  0  0  0  0  0  0  0  0  0  0  0
    3.7320   -5.5950    0.0000 C   0  0  0  0  0  0  0  0  0  0  0  0
    7.1962    5.4050    0.0000 C   0  0  0  0  0  0  0  0  0  0  0  0
    4.5981   -6.0950    0.0000 C   0  0  0  0  0  0  0  0  0  0  0  0
    9.7942    3.9050    0.0000 C   0  0  0  0  0  0  0  0  0  0  0  0
   10.6603    5.4050    0.0000 C   0  0  0  0  0  0  0  0  0  0  0  0
   11.5263    3.9050    0.0000 C   0  0  0  0  0  0  0  0  0  0  0  0
   11.5263    5.9050    0.0000 C   0  0  0  0  0  0  0  0  0  0  0  0
   12.3923    4.4050    0.0000 C   0  0  0  0  0  0  0  0  0  0  0  0
    6.3301    5.9050    0.0000 C   0  0  0  0  0  0  0  0  0  0  0  0
    8.0622    5.9050    0.0000 C   0  0  0  0  0  0  0  0  0  0  0  0
    5.4641    5.4050    0.0000 C   0  0  0  0  0  0  0  0  0  0  0  0
    6.3301    6.9050    0.0000 C   0  0  0  0  0  0  0  0  0  0  0  0
    8.0622    6.9050    0.0000 C   0  0  0  0  0  0  0  0  0  0  0  0
    7.1962    7.4050    0.0000 C   0  0  0  0  0  0  0  0  0  0  0  0
    5.4641    4.4050    0.0000 C   0  0  0  0  0  0  0  0  0  0  0  0
    4.5981    5.9050    0.0000 C   0  0  0  0  0  0  0  0  0  0  0  0
    4.5981    3.9050    0.0000 C   0  0  0  0  0  0  0  0  0  0  0  0
    3.7320    5.4050    0.0000 C   0  0  0  0  0  0  0  0  0  0  0  0
    3.7320    4.4050    0.0000 C   0  0  0  0  0  0  0  0  0  0  0  0
    2.0000    4.4050    0.0000 C   0  0  0  0  0  0  0  0  0  0  0  0
    5.4641   -2.2150    0.0000 H   0  0  0  0  0  0  0  0  0  0  0  0
    5.2520   -0.0124    0.0000 H   0  0  0  0  0  0  0  0  0  0  0  0
    4.8535   -0.7027    0.0000 H   0  0  0  0  0  0  0  0  0  0  0  0
    3.1215   -1.4873    0.0000 H   0  0  0  0  0  0  0  0  0  0  0  0
    3.5200   -2.1776    0.0000 H   0  0  0  0  0  0  0  0  0  0  0  0
    6.5422   -0.6776    0.0000 H   0  0  0  0  0  0  0  0  0  0  0  0
    6.9407    0.0127    0.0000 H   0  0  0  0  0  0  0  0  0  0  0  0
    3.7320    0.0250    0.0000 H   0  0  0  0  0  0  0  0  0  0  0  0
    5.9316   -2.5700    0.0000 H   0  0  0  0  0  0  0  0  0  0  0  0
    6.7287   -2.5700    0.0000 H   0  0  0  0  0  0  0  0  0  0  0  0
    6.1181    1.4876    0.0000 H   0  0  0  0  0  0  0  0  0  0  0  0
    5.7196    0.7973    0.0000 H   0  0  0  0  0  0  0  0  0  0  0  0
    7.4082    0.8224    0.0000 H   0  0  0  0  0  0  0  0  0  0  0  0
    7.8067    1.5127    0.0000 H   0  0  0  0  0  0  0  0  0  0  0  0
    3.1760    0.4419    0.0000 H   0  0  0  0  0  0  0  0  0  0  0  0
    2.3291    0.2150    0.0000 H   0  0  0  0  0  0  0  0  0  0  0  0
    2.5560   -0.6319    0.0000 H   0  0  0  0  0  0  0  0  0  0  0  0
    4.9081   -0.6319    0.0000 H   0  0  0  0  0  0  0  0  0  0  0  0
    5.1350    0.2150    0.0000 H   0  0  0  0  0  0  0  0  0  0  0  0
    4.2881    0.4419    0.0000 H   0  0  0  0  0  0  0  0  0  0  0  0
    6.6592    2.7150    0.0000 H   0  0  0  0  0  0  0  0  0  0  0  0
    8.5991    3.5950    0.0000 H   0  0  0  0  0  0  0  0  0  0  0  0
    7.7331   -1.9050    0.0000 H   0  0  0  0  0  0  0  0  0  0  0  0
    6.0010   -4.2850    0.0000 H   0  0  0  0  0  0  0  0  0  0  0  0
    3.1951   -4.2850    0.0000 H   0  0  0  0  0  0  0  0  0  0  0  0
    6.5856    4.5127    0.0000 H   0  0  0  0  0  0  0  0  0  0  0  0
    6.9841    3.8224    0.0000 H   0  0  0  0  0  0  0  0  0  0  0  0
    8.9282    5.0250    0.0000 H   0  0  0  0  0  0  0  0  0  0  0  0
    6.0010   -5.9050    0.0000 H   0  0  0  0  0  0  0  0  0  0  0  0
    3.1951   -5.9050    0.0000 H   0  0  0  0  0  0  0  0  0  0  0  0
   10.4482    5.9876    0.0000 H   0  0  0  0  0  0  0  0  0  0  0  0
   10.0497    5.2973    0.0000 H   0  0  0  0  0  0  0  0  0  0  0  0
   11.1278    3.4300    0.0000 H   0  0  0  0  0  0  0  0  0  0  0  0
   11.9248    3.4300    0.0000 H   0  0  0  0  0  0  0  0  0  0  0  0
   11.9248    6.3800    0.0000 H   0  0  0  0  0  0  0  0  0  0  0  0
   11.1278    6.3800    0.0000 H   0  0  0  0  0  0  0  0  0  0  0  0
   12.6044    3.8224    0.0000 H   0  0  0  0  0  0  0  0  0  0  0  0
   13.0029    4.5127    0.0000 H   0  0  0  0  0  0  0  0  0  0  0  0
    8.5991    5.5950    0.0000 H   0  0  0  0  0  0  0  0  0  0  0  0
    5.7932    7.2150    0.0000 H   0  0  0  0  0  0  0  0  0  0  0  0
    4.0611   -7.4050    0.0000 H   0  0  0  0  0  0  0  0  0  0  0  0
    5.1350   -7.4050    0.0000 H   0  0  0  0  0  0  0  0  0  0  0  0
    8.5991    7.2150    0.0000 H   0  0  0  0  0  0  0  0  0  0  0  0
    7.1962    8.0250    0.0000 H   0  0  0  0  0  0  0  0  0  0  0  0
    6.0010    4.0950    0.0000 H   0  0  0  0  0  0  0  0  0  0  0  0
    4.5981    6.5250    0.0000 H   0  0  0  0  0  0  0  0  0  0  0  0
    4.5981    3.2850    0.0000 H   0  0  0  0  0  0  0  0  0  0  0  0
    3.1951    5.7150    0.0000 H   0  0  0  0  0  0  0  0  0  0  0  0
    2.3100    4.9419    0.0000 H   0  0  0  0  0  0  0  0  0  0  0  0
    1.4631    4.7150    0.0000 H   0  0  0  0  0  0  0  0  0  0  0  0
    1.6900    3.8681    0.0000 H   0  0  0  0  0  0  0  0  0  0  0  0
  1  3  2  0  0  0  0
  1  4  2  0  0  0  0
  1  9  1  0  0  0  0
  1 22  1  0  0  0  0
  2 19  1  0  0  0  0
  2 73  1  0  0  0  0
  5 37  1  0  0  0  0
  5 38  1  0  0  0  0
  6 28  2  0  0  0  0
  7 34  2  0  0  0  0
  8 49  1  0  0  0  0
  8 50  1  0  0  0  0
 14  9  1  1  0  0  0
  9 16  1  0  0  0  0
 10 21  1  0  0  0  0
 10 28  1  0  0  0  0
 10 71  1  0  0  0  0
 25 11  1  6  0  0  0
 11 34  1  0  0  0  0
 11 78  1  0  0  0  0
 12 34  1  0  0  0  0
 12 35  1  0  0  0  0
 12 36  1  0  0  0  0
 13 33  1  0  0  0  0
 13 91  1  0  0  0  0
 13 92  1  0  0  0  0
 14 15  1  0  0  0  0
 14 19  1  0  0  0  0
 14 51  1  0  0  0  0
 15 17  1  0  0  0  0
 15 52  1  0  0  0  0
 15 53  1  0  0  0  0
 16 18  1  0  0  0  0
 16 54  1  0  0  0  0
 16 55  1  0  0  0  0
 17 20  1  0  0  0  0
 17 56  1  0  0  0  0
 17 57  1  0  0  0  0
 18 23  1  0  0  0  0
 18 24  1  0  0  0  0
 18 58  1  0  0  0  0
 19 59  1  0  0  0  0
 19 60  1  0  0  0  0
 20 21  1  0  0  0  0
 20 61  1  0  0  0  0
 20 62  1  0  0  0  0
 21 63  1  0  0  0  0
 21 64  1  0  0  0  0
 22 26  2  0  0  0  0
 22 27  1  0  0  0  0
 23 65  1  0  0  0  0
 23 66  1  0  0  0  0
 23 67  1  0  0  0  0
 24 68  1  0  0  0  0
 24 69  1  0  0  0  0
 24 70  1  0  0  0  0
 25 28  1  0  0  0  0
 25 29  1  0  0  0  0
 25 72  1  0  0  0  0
 26 30  1  0  0  0  0
 26 74  1  0  0  0  0
 27 31  2  0  0  0  0
 27 75  1  0  0  0  0
 29 32  1  0  0  0  0
 29 76  1  0  0  0  0
 29 77  1  0  0  0  0
 30 33  2  0  0  0  0
 30 79  1  0  0  0  0
 31 33  1  0  0  0  0
 31 80  1  0  0  0  0
 32 39  1  0  0  0  0
 32 40  2  0  0  0  0
 35 37  1  0  0  0  0
 35 81  1  0  0  0  0
 35 82  1  0  0  0  0
 36 38  1  0  0  0  0
 36 83  1  0  0  0  0
 36 84  1  0  0  0  0
 37 85  1  0  0  0  0
 37 86  1  0  0  0  0
 38 87  1  0  0  0  0
 38 88  1  0  0  0  0
 39 41  1  0  0  0  0
 39 42  2  0  0  0  0
 40 43  1  0  0  0  0
 40 89  1  0  0  0  0
 41 45  2  0  0  0  0
 41 46  1  0  0  0  0
 42 44  1  0  0  0  0
 42 90  1  0  0  0  0
 43 44  2  0  0  0  0
 43 93  1  0  0  0  0
 44 94  1  0  0  0  0
 45 47  1  0  0  0  0
 45 95  1  0  0  0  0
 46 48  2  0  0  0  0
 46 96  1  0  0  0  0
 47 49  2  0  0  0  0
 47 97  1  0  0  0  0
 48 49  1  0  0  0  0
 48 98  1  0  0  0  0
 50 99  1  0  0  0  0
 50100  1  0  0  0  0
 50101  1  0  0  0  0
M  END
> <PUBCHEM_COMPOUND_CID>
513960
> <PUBCHEM_COMPOUND_CANONICALIZED>
1
> <PUBCHEM_CACTVS_COMPLEXITY>
1120
> <PUBCHEM_CACTVS_HBOND_ACCEPTOR>
9
> <PUBCHEM_CACTVS_HBOND_DONOR>
4
> <PUBCHEM_CACTVS_ROTATABLE_BOND>
17
> <PUBCHEM_CACTVS_SUBSKEYS>
AAADcfB/uABAAAAAAAAAAAAAAAAAAAAAAAA8YMEAAAAAAAABUAAAHgQQSAAADSzh2AYzx4PABgKIAiVSUHDCCBAgIgAIiJmObIiOdjKEsbuXcCBs1hOY6AeYyPCOoAQAAAAQAABACAAAACAAAAAAAAAAAA==
> <PUBCHEM_IUPAC_OPENEYE_NAME>
N-[(1S)-2-[[(5S)-5-[(4-aminophenyl)sulfonyl-isobutyl-amino]-6-hydroxy-hexyl]amino]-1-[[2-(4-methoxyphenyl)phenyl]methyl]-2-oxo-ethyl]morpholine-4-carboxamide
> <PUBCHEM_IUPAC_CAS_NAME>
N-[(2S)-1-[[(5S)-5-[(4-aminophenyl)sulfonyl-(2-methylpropyl)amino]-6-hydroxyhexyl]amino]-3-[2-(4-methoxyphenyl)phenyl]-1-oxopropan-2-yl]-4-morpholinecarboxamide
> <PUBCHEM_IUPAC_NAME_MARKUP>
<I>N</I>-[(2<I>S</I>)-1-[[(5<I>S</I>)-5-[(4-aminophenyl)sulfonyl-(2-methylpropyl)amino]-6-hydroxyhexyl]amino]-3-[2-(4-methoxyphenyl)phenyl]-1-oxopropan-2-yl]morpholine-4-carboxamide
> <PUBCHEM_IUPAC_NAME>
N-[(2S)-1-[[(5S)-5-[(4-aminophenyl)sulfonyl-(2-methylpropyl)amino]-6-hydroxyhexyl]amino]-3-[2-(4-methoxyphenyl)phenyl]-1-oxopropan-2-yl]morpholine-4-carboxamide
> <PUBCHEM_IUPAC_SYSTEMATIC_NAME>
N-[(2S)-1-[[(5S)-5-[(4-aminophenyl)sulfonyl-(2-methylpropyl)amino]-6-oxidanyl-hexyl]amino]-3-[2-(4-methoxyphenyl)phenyl]-1-oxidanylidene-propan-2-yl]morpholine-4-carboxamide
> <PUBCHEM_IUPAC_TRADITIONAL_NAME>
N-[(1S)-2-[[(5S)-6-hydroxy-5-[isobutyl(sulfanilyl)amino]hexyl]amino]-2-keto-1-[2-(4-methoxyphenyl)benzyl]ethyl]morpholine-4-carboxamide
> <PUBCHEM_IUPAC_INCHI>
InChI=1S/C37H51N5O7S/c1-27(2)25-42(50(46,47)33-17-13-30(38)14-18-33)31(26-43)9-6-7-19-39-36(44)35(40-37(45)41-20-22-49-23-21-41)24-29-8-4-5-10-34(29)28-11-15-32(48-3)16-12-28/h4-5,8,10-18,27,31,35,43H,6-7,9,19-26,38H2,1-3H3,(H,39,44)(H,40,45)/t31-,35-/m0/s1
> <PUBCHEM_IUPAC_INCHIKEY>
OPWDBAMNVAFYIP-ZJJOJAIXSA-N
> <PUBCHEM_XLOGP3_AA>
4.1
> <PUBCHEM_EXACT_MASS>
709.35092016
> <PUBCHEM_MOLECULAR_FORMULA>
C37H51N5O7S
> <PUBCHEM_MOLECULAR_WEIGHT>
709.9
> <PUBCHEM_OPENEYE_CAN_SMILES>
CC(C)CN(C(CCCCNC(=O)C(CC1=CC=CC=C1C2=CC=C(C=C2)OC)NC(=O)N3CCOCC3)CO)S(=O)(=O)C4=CC=C(C=C4)N
> <PUBCHEM_OPENEYE_ISO_SMILES>
CC(C)CN([C@@H](CCCCNC(=O)[C@H](CC1=CC=CC=C1C2=CC=C(C=C2)OC)NC(=O)N3CCOCC3)CO)S(=O)(=O)C4=CC=C(C=C4)N
> <PUBCHEM_CACTVS_TPSA>
172
> <PUBCHEM_MONOISOTOPIC_WEIGHT>
709.35092016
> <PUBCHEM_TOTAL_CHARGE>
0
> <PUBCHEM_HEAVY_ATOM_COUNT>
50
> <PUBCHEM_ATOM_DEF_STEREO_COUNT>
2
> <PUBCHEM_ATOM_UDEF_STEREO_COUNT>
0
> <PUBCHEM_BOND_DEF_STEREO_COUNT>
0
> <PUBCHEM_BOND_UDEF_STEREO_COUNT>
0
> <PUBCHEM_ISOTOPIC_ATOM_COUNT>
0
> <PUBCHEM_COMPONENT_COUNT>
1
> <PUBCHEM_CACTVS_TAUTO_COUNT>
-1
> <PUBCHEM_COORDINATE_TYPE>
1
5
255
> <PUBCHEM_BONDANNOTATIONS>
25  11  6
22  26  8
22  27  8
26  30  8
27  31  8
30  33  8
31  33  8
32  39  8
32  40  8
39  42  8
40  43  8
41  45  8
41  46  8
42  44  8
43  44  8
45  47  8
46  48  8
47  49  8
48  49  8
14  9  5
$$$$
