513987
  -OEChem-10302200282D
 84 86  0     1  0  0  0  0  0999 V2000
    6.0010   -0.1900    0.0000 S   0  0  0  0  0  0  0  0  0  0  0  0
    8.5991   -1.6900    0.0000 O   0  0  0  0  0  0  0  0  0  0  0  0
    5.5010    0.6760    0.0000 O   0  0  0  0  0  0  0  0  0  0  0  0
    6.5010   -1.0560    0.0000 O   0  0  0  0  0  0  0  0  0  0  0  0
   12.9292   -1.1900    0.0000 O   0  0  0  0  0  0  0  0  0  0  0  0
    6.8671    0.3100    0.0000 N   0  0  3  0  0  0  0  0  0  0  0  0
   12.0632    0.3100    0.0000 N   0  0  0  0  0  0  0  0  0  0  0  0
   13.7953    1.3100    0.0000 N   0  0  0  0  0  0  0  0  0  0  0  0
    2.5369   -2.1900    0.0000 N   0  0  0  0  0  0  0  0  0  0  0  0
    7.7331   -0.1900    0.0000 C   0  0  1  0  0  0  0  0  0  0  0  0
    8.5991    0.3100    0.0000 C   0  0  0  0  0  0  0  0  0  0  0  0
    6.8671    1.3100    0.0000 C   0  0  0  0  0  0  0  0  0  0  0  0
    9.4651   -0.1900    0.0000 C   0  0  0  0  0  0  0  0  0  0  0  0
    7.7331    1.8100    0.0000 C   0  0  0  0  0  0  0  0  0  0  0  0
    7.7331   -1.1900    0.0000 C   0  0  0  0  0  0  0  0  0  0  0  0
   10.3312    0.3100    0.0000 C   0  0  0  0  0  0  0  0  0  0  0  0
    5.1350   -0.6900    0.0000 C   0  0  0  0  0  0  0  0  0  0  0  0
   11.1972   -0.1900    0.0000 C   0  0  0  0  0  0  0  0  0  0  0  0
    7.7331    2.8100    0.0000 C   0  0  0  0  0  0  0  0  0  0  0  0
    8.5991    1.3100    0.0000 C   0  0  0  0  0  0  0  0  0  0  0  0
   13.7953    0.3100    0.0000 C   0  0  2  0  0  0  0  0  0  0  0  0
    4.2690   -0.1900    0.0000 C   0  0  0  0  0  0  0  0  0  0  0  0
    5.1350   -1.6900    0.0000 C   0  0  0  0  0  0  0  0  0  0  0  0
   12.9292   -0.1900    0.0000 C   0  0  0  0  0  0  0  0  0  0  0  0
   14.6613   -0.1900    0.0000 C   0  0  0  0  0  0  0  0  0  0  0  0
    3.4030   -0.6900    0.0000 C   0  0  0  0  0  0  0  0  0  0  0  0
    4.2690   -2.1900    0.0000 C   0  0  0  0  0  0  0  0  0  0  0  0
   15.5273    0.3100    0.0000 C   0  0  0  0  0  0  0  0  0  0  0  0
    3.4030   -1.6900    0.0000 C   0  0  0  0  0  0  0  0  0  0  0  0
   12.9292    1.8100    0.0000 C   0  0  0  0  0  0  0  0  0  0  0  0
   16.3933   -0.1900    0.0000 C   0  0  0  0  0  0  0  0  0  0  0  0
   15.5273    1.3100    0.0000 C   0  0  0  0  0  0  0  0  0  0  0  0
   17.2594    0.3100    0.0000 C   0  0  0  0  0  0  0  0  0  0  0  0
   17.2594    1.3100    0.0000 C   0  0  0  0  0  0  0  0  0  0  0  0
   16.3933    1.8100    0.0000 C   0  0  0  0  0  0  0  0  0  0  0  0
   12.9292    2.8100    0.0000 C   0  0  0  0  0  0  0  0  0  0  0  0
   18.1533   -0.2247    0.0000 C   0  0  0  0  0  0  0  0  0  0  0  0
   18.1533    1.8447    0.0000 C   0  0  0  0  0  0  0  0  0  0  0  0
   19.0594    0.2892    0.0000 C   0  0  0  0  0  0  0  0  0  0  0  0
   19.0594    1.3308    0.0000 C   0  0  0  0  0  0  0  0  0  0  0  0
    7.7331    0.4300    0.0000 H   0  0  0  0  0  0  0  0  0  0  0  0
    8.9976    0.7849    0.0000 H   0  0  0  0  0  0  0  0  0  0  0  0
    8.2006    0.7849    0.0000 H   0  0  0  0  0  0  0  0  0  0  0  0
    6.6550    1.8926    0.0000 H   0  0  0  0  0  0  0  0  0  0  0  0
    6.2565    1.2023    0.0000 H   0  0  0  0  0  0  0  0  0  0  0  0
    9.0666   -0.6649    0.0000 H   0  0  0  0  0  0  0  0  0  0  0  0
    9.8637   -0.6649    0.0000 H   0  0  0  0  0  0  0  0  0  0  0  0
    7.7331    1.1900    0.0000 H   0  0  0  0  0  0  0  0  0  0  0  0
    7.1225   -1.0823    0.0000 H   0  0  0  0  0  0  0  0  0  0  0  0
    7.5210   -1.7726    0.0000 H   0  0  0  0  0  0  0  0  0  0  0  0
   10.7297    0.7849    0.0000 H   0  0  0  0  0  0  0  0  0  0  0  0
    9.9326    0.7849    0.0000 H   0  0  0  0  0  0  0  0  0  0  0  0
   10.7987   -0.6649    0.0000 H   0  0  0  0  0  0  0  0  0  0  0  0
   11.5957   -0.6649    0.0000 H   0  0  0  0  0  0  0  0  0  0  0  0
    8.3531    2.8100    0.0000 H   0  0  0  0  0  0  0  0  0  0  0  0
    7.7331    3.4300    0.0000 H   0  0  0  0  0  0  0  0  0  0  0  0
    7.1131    2.8100    0.0000 H   0  0  0  0  0  0  0  0  0  0  0  0
    8.2891    0.7731    0.0000 H   0  0  0  0  0  0  0  0  0  0  0  0
    9.1360    1.0000    0.0000 H   0  0  0  0  0  0  0  0  0  0  0  0
    8.9091    1.8469    0.0000 H   0  0  0  0  0  0  0  0  0  0  0  0
   12.0632    0.9300    0.0000 H   0  0  0  0  0  0  0  0  0  0  0  0
    8.5991   -2.3100    0.0000 H   0  0  0  0  0  0  0  0  0  0  0  0
   14.3322    0.6200    0.0000 H   0  0  0  0  0  0  0  0  0  0  0  0
    4.2690    0.4300    0.0000 H   0  0  0  0  0  0  0  0  0  0  0  0
    5.6720   -2.0000    0.0000 H   0  0  0  0  0  0  0  0  0  0  0  0
   14.2628   -0.6649    0.0000 H   0  0  0  0  0  0  0  0  0  0  0  0
   15.0598   -0.6649    0.0000 H   0  0  0  0  0  0  0  0  0  0  0  0
    2.8660   -0.3800    0.0000 H   0  0  0  0  0  0  0  0  0  0  0  0
    4.2690   -2.8100    0.0000 H   0  0  0  0  0  0  0  0  0  0  0  0
   14.3322    1.6200    0.0000 H   0  0  0  0  0  0  0  0  0  0  0  0
   12.3187    1.9177    0.0000 H   0  0  0  0  0  0  0  0  0  0  0  0
   12.7172    1.2274    0.0000 H   0  0  0  0  0  0  0  0  0  0  0  0
   16.3933   -0.8100    0.0000 H   0  0  0  0  0  0  0  0  0  0  0  0
   14.9904    1.6200    0.0000 H   0  0  0  0  0  0  0  0  0  0  0  0
   16.3933    2.4300    0.0000 H   0  0  0  0  0  0  0  0  0  0  0  0
   13.5492    2.8100    0.0000 H   0  0  0  0  0  0  0  0  0  0  0  0
   12.9292    3.4300    0.0000 H   0  0  0  0  0  0  0  0  0  0  0  0
   12.3092    2.8100    0.0000 H   0  0  0  0  0  0  0  0  0  0  0  0
    2.0000   -1.8800    0.0000 H   0  0  0  0  0  0  0  0  0  0  0  0
    2.5369   -2.8100    0.0000 H   0  0  0  0  0  0  0  0  0  0  0  0
   18.1461   -0.8446    0.0000 H   0  0  0  0  0  0  0  0  0  0  0  0
   18.1461    2.4646    0.0000 H   0  0  0  0  0  0  0  0  0  0  0  0
   19.5951   -0.0229    0.0000 H   0  0  0  0  0  0  0  0  0  0  0  0
   19.5951    1.6429    0.0000 H   0  0  0  0  0  0  0  0  0  0  0  0
  1  3  2  0  0  0  0
  1  4  2  0  0  0  0
  1  6  1  0  0  0  0
  1 17  1  0  0  0  0
  2 15  1  0  0  0  0
  2 62  1  0  0  0  0
  5 24  2  0  0  0  0
 10  6  1  1  0  0  0
  6 12  1  0  0  0  0
  7 18  1  0  0  0  0
  7 24  1  0  0  0  0
  7 61  1  0  0  0  0
 21  8  1  1  0  0  0
  8 30  1  0  0  0  0
  8 70  1  0  0  0  0
  9 29  1  0  0  0  0
  9 79  1  0  0  0  0
  9 80  1  0  0  0  0
 10 11  1  0  0  0  0
 10 15  1  0  0  0  0
 10 41  1  0  0  0  0
 11 13  1  0  0  0  0
 11 42  1  0  0  0  0
 11 43  1  0  0  0  0
 12 14  1  0  0  0  0
 12 44  1  0  0  0  0
 12 45  1  0  0  0  0
 13 16  1  0  0  0  0
 13 46  1  0  0  0  0
 13 47  1  0  0  0  0
 14 19  1  0  0  0  0
 14 20  1  0  0  0  0
 14 48  1  0  0  0  0
 15 49  1  0  0  0  0
 15 50  1  0  0  0  0
 16 18  1  0  0  0  0
 16 51  1  0  0  0  0
 16 52  1  0  0  0  0
 17 22  2  0  0  0  0
 17 23  1  0  0  0  0
 18 53  1  0  0  0  0
 18 54  1  0  0  0  0
 19 55  1  0  0  0  0
 19 56  1  0  0  0  0
 19 57  1  0  0  0  0
 20 58  1  0  0  0  0
 20 59  1  0  0  0  0
 20 60  1  0  0  0  0
 21 24  1  0  0  0  0
 21 25  1  0  0  0  0
 21 63  1  0  0  0  0
 22 26  1  0  0  0  0
 22 64  1  0  0  0  0
 23 27  2  0  0  0  0
 23 65  1  0  0  0  0
 25 28  1  0  0  0  0
 25 66  1  0  0  0  0
 25 67  1  0  0  0  0
 26 29  2  0  0  0  0
 26 68  1  0  0  0  0
 27 29  1  0  0  0  0
 27 69  1  0  0  0  0
 28 31  2  0  0  0  0
 28 32  1  0  0  0  0
 30 36  1  0  0  0  0
 30 71  1  0  0  0  0
 30 72  1  0  0  0  0
 31 33  1  0  0  0  0
 31 73  1  0  0  0  0
 32 35  2  0  0  0  0
 32 74  1  0  0  0  0
 33 34  1  0  0  0  0
 33 37  2  0  0  0  0
 34 35  1  0  0  0  0
 34 38  2  0  0  0  0
 35 75  1  0  0  0  0
 36 76  1  0  0  0  0
 36 77  1  0  0  0  0
 36 78  1  0  0  0  0
 37 39  1  0  0  0  0
 37 81  1  0  0  0  0
 38 40  1  0  0  0  0
 38 82  1  0  0  0  0
 39 40  2  0  0  0  0
 39 83  1  0  0  0  0
 40 84  1  0  0  0  0
M  END
> <PUBCHEM_COMPOUND_CID>
513987
> <PUBCHEM_COMPOUND_CANONICALIZED>
1
> <PUBCHEM_CACTVS_COMPLEXITY>
841
> <PUBCHEM_CACTVS_HBOND_ACCEPTOR>
7
> <PUBCHEM_CACTVS_HBOND_DONOR>
4
> <PUBCHEM_CACTVS_ROTATABLE_BOND>
16
> <PUBCHEM_CACTVS_SUBSKEYS>
AAADcfB7uABAAAAAAAAAAAAAAAAAAAAAAAAwYMAAAAAAAADBVAAAHgQQSAAADSjh2AYywcLAAgKIAiVSUHDCABAgAgAIiJmIZIgKcDKAkbGUYABklgCYyAeYyMCOwAQCAAAQAACACAQAACAAAAAAAAAAAA==
> <PUBCHEM_IUPAC_OPENEYE_NAME>
(2S)-N-[(5S)-5-[(4-aminophenyl)sulfonyl-isobutyl-amino]-6-hydroxy-hexyl]-2-(ethylamino)-3-(2-naphthyl)propanamide
> <PUBCHEM_IUPAC_CAS_NAME>
(2S)-N-[(5S)-5-[(4-aminophenyl)sulfonyl-(2-methylpropyl)amino]-6-hydroxyhexyl]-2-(ethylamino)-3-(2-naphthalenyl)propanamide
> <PUBCHEM_IUPAC_NAME_MARKUP>
(2<I>S</I>)-<I>N</I>-[(5<I>S</I>)-5-[(4-aminophenyl)sulfonyl-(2-methylpropyl)amino]-6-hydroxyhexyl]-2-(ethylamino)-3-naphthalen-2-ylpropanamide
> <PUBCHEM_IUPAC_NAME>
(2S)-N-[(5S)-5-[(4-aminophenyl)sulfonyl-(2-methylpropyl)amino]-6-hydroxyhexyl]-2-(ethylamino)-3-naphthalen-2-ylpropanamide
> <PUBCHEM_IUPAC_SYSTEMATIC_NAME>
(2S)-N-[(5S)-5-[(4-aminophenyl)sulfonyl-(2-methylpropyl)amino]-6-oxidanyl-hexyl]-2-(ethylamino)-3-naphthalen-2-yl-propanamide
> <PUBCHEM_IUPAC_TRADITIONAL_NAME>
(2S)-2-(ethylamino)-N-[(5S)-6-hydroxy-5-[isobutyl(sulfanilyl)amino]hexyl]-3-(2-naphthyl)propionamide
> <PUBCHEM_IUPAC_INCHI>
InChI=1S/C31H44N4O4S/c1-4-33-30(20-24-12-13-25-9-5-6-10-26(25)19-24)31(37)34-18-8-7-11-28(22-36)35(21-23(2)3)40(38,39)29-16-14-27(32)15-17-29/h5-6,9-10,12-17,19,23,28,30,33,36H,4,7-8,11,18,20-22,32H2,1-3H3,(H,34,37)/t28-,30-/m0/s1
> <PUBCHEM_IUPAC_INCHIKEY>
KKUSHTVUQRCLSF-JDXGNMNLSA-N
> <PUBCHEM_XLOGP3_AA>
4.7
> <PUBCHEM_EXACT_MASS>
568.30832707
> <PUBCHEM_MOLECULAR_FORMULA>
C31H44N4O4S
> <PUBCHEM_MOLECULAR_WEIGHT>
568.8
> <PUBCHEM_OPENEYE_CAN_SMILES>
CCNC(CC1=CC2=CC=CC=C2C=C1)C(=O)NCCCCC(CO)N(CC(C)C)S(=O)(=O)C3=CC=C(C=C3)N
> <PUBCHEM_OPENEYE_ISO_SMILES>
CCN[C@@H](CC1=CC2=CC=CC=C2C=C1)C(=O)NCCCC[C@@H](CO)N(CC(C)C)S(=O)(=O)C3=CC=C(C=C3)N
> <PUBCHEM_CACTVS_TPSA>
133
> <PUBCHEM_MONOISOTOPIC_WEIGHT>
568.30832707
> <PUBCHEM_TOTAL_CHARGE>
0
> <PUBCHEM_HEAVY_ATOM_COUNT>
40
> <PUBCHEM_ATOM_DEF_STEREO_COUNT>
2
> <PUBCHEM_ATOM_UDEF_STEREO_COUNT>
0
> <PUBCHEM_BOND_DEF_STEREO_COUNT>
0
> <PUBCHEM_BOND_UDEF_STEREO_COUNT>
0
> <PUBCHEM_ISOTOPIC_ATOM_COUNT>
0
> <PUBCHEM_COMPONENT_COUNT>
1
> <PUBCHEM_CACTVS_TAUTO_COUNT>
-1
> <PUBCHEM_COORDINATE_TYPE>
1
5
255
> <PUBCHEM_BONDANNOTATIONS>
17  22  8
17  23  8
22  26  8
23  27  8
26  29  8
27  29  8
28  31  8
28  32  8
31  33  8
32  35  8
33  34  8
33  37  8
34  35  8
34  38  8
37  39  8
38  40  8
39  40  8
10  6  5
21  8  5
$$$$
