513973
  -OEChem-10302200282D
 93 96  0     1  0  0  0  0  0999 V2000
    5.4641    6.0950    0.0000 Cl  0  0  0  0  0  0  0  0  0  0  0  0
    3.7320    3.0950    0.0000 S   0  0  0  0  0  0  0  0  0  0  0  0
    6.3301    1.5950    0.0000 O   0  0  0  0  0  0  0  0  0  0  0  0
    2.7320    3.0950    0.0000 O   0  0  0  0  0  0  0  0  0  0  0  0
    4.7320    3.0950    0.0000 O   0  0  0  0  0  0  0  0  0  0  0  0
    3.7320   -6.9050    0.0000 O   0  0  0  0  0  0  0  0  0  0  0  0
    8.0622   -2.4050    0.0000 O   0  0  0  0  0  0  0  0  0  0  0  0
    7.1962   -5.9050    0.0000 O   0  0  0  0  0  0  0  0  0  0  0  0
    3.7320    2.0950    0.0000 N   0  0  3  0  0  0  0  0  0  0  0  0
    6.3301   -2.4050    0.0000 N   0  0  0  0  0  0  0  0  0  0  0  0
    6.3301   -4.4050    0.0000 N   0  0  0  0  0  0  0  0  0  0  0  0
    5.4641   -5.9050    0.0000 N   0  0  0  0  0  0  0  0  0  0  0  0
    3.7320    7.0950    0.0000 N   0  0  0  0  0  0  0  0  0  0  0  0
    4.5981    1.5950    0.0000 C   0  0  1  0  0  0  0  0  0  0  0  0
    4.5981    0.5950    0.0000 C   0  0  0  0  0  0  0  0  0  0  0  0
    2.8660    1.5950    0.0000 C   0  0  0  0  0  0  0  0  0  0  0  0
    5.4641    0.0950    0.0000 C   0  0  0  0  0  0  0  0  0  0  0  0
    2.8660    0.5950    0.0000 C   0  0  0  0  0  0  0  0  0  0  0  0
    5.4641    2.0950    0.0000 C   0  0  0  0  0  0  0  0  0  0  0  0
    5.4641   -0.9050    0.0000 C   0  0  0  0  0  0  0  0  0  0  0  0
    6.3301   -1.4050    0.0000 C   0  0  0  0  0  0  0  0  0  0  0  0
    3.7320    4.0950    0.0000 C   0  0  0  0  0  0  0  0  0  0  0  0
    2.0000    0.0950    0.0000 C   0  0  0  0  0  0  0  0  0  0  0  0
    3.7320    0.0950    0.0000 C   0  0  0  0  0  0  0  0  0  0  0  0
    7.1962   -3.9050    0.0000 C   0  0  2  0  0  0  0  0  0  0  0  0
    4.5981    4.5950    0.0000 C   0  0  0  0  0  0  0  0  0  0  0  0
    2.8660    4.5950    0.0000 C   0  0  0  0  0  0  0  0  0  0  0  0
    7.1962   -2.9050    0.0000 C   0  0  0  0  0  0  0  0  0  0  0  0
    8.0622   -4.4050    0.0000 C   0  0  0  0  0  0  0  0  0  0  0  0
    4.5981    5.5950    0.0000 C   0  0  0  0  0  0  0  0  0  0  0  0
    2.8660    5.5950    0.0000 C   0  0  0  0  0  0  0  0  0  0  0  0
    8.9282   -3.9050    0.0000 C   0  0  0  0  0  0  0  0  0  0  0  0
    4.5981   -5.4050    0.0000 C   0  0  0  0  0  0  0  0  0  0  0  0
    5.4641   -6.9050    0.0000 C   0  0  0  0  0  0  0  0  0  0  0  0
    6.3301   -5.4050    0.0000 C   0  0  0  0  0  0  0  0  0  0  0  0
    3.7320    6.0950    0.0000 C   0  0  0  0  0  0  0  0  0  0  0  0
    3.7320   -5.9050    0.0000 C   0  0  0  0  0  0  0  0  0  0  0  0
    4.5981   -7.4050    0.0000 C   0  0  0  0  0  0  0  0  0  0  0  0
    9.7942   -4.4050    0.0000 C   0  0  0  0  0  0  0  0  0  0  0  0
    8.9282   -2.9050    0.0000 C   0  0  0  0  0  0  0  0  0  0  0  0
   10.6603   -3.9050    0.0000 C   0  0  0  0  0  0  0  0  0  0  0  0
   10.6603   -2.9050    0.0000 C   0  0  0  0  0  0  0  0  0  0  0  0
    9.7942   -2.4050    0.0000 C   0  0  0  0  0  0  0  0  0  0  0  0
   11.5542   -4.4397    0.0000 C   0  0  0  0  0  0  0  0  0  0  0  0
   11.5542   -2.3703    0.0000 C   0  0  0  0  0  0  0  0  0  0  0  0
   12.4603   -3.9258    0.0000 C   0  0  0  0  0  0  0  0  0  0  0  0
   12.4603   -2.8842    0.0000 C   0  0  0  0  0  0  0  0  0  0  0  0
    4.5981    2.2150    0.0000 H   0  0  0  0  0  0  0  0  0  0  0  0
    3.9875    0.7027    0.0000 H   0  0  0  0  0  0  0  0  0  0  0  0
    4.3860    0.0124    0.0000 H   0  0  0  0  0  0  0  0  0  0  0  0
    2.6540    2.1776    0.0000 H   0  0  0  0  0  0  0  0  0  0  0  0
    2.2554    1.4873    0.0000 H   0  0  0  0  0  0  0  0  0  0  0  0
    6.0747   -0.0127    0.0000 H   0  0  0  0  0  0  0  0  0  0  0  0
    5.6762    0.6776    0.0000 H   0  0  0  0  0  0  0  0  0  0  0  0
    2.8660   -0.0250    0.0000 H   0  0  0  0  0  0  0  0  0  0  0  0
    5.8626    2.5700    0.0000 H   0  0  0  0  0  0  0  0  0  0  0  0
    5.0656    2.5700    0.0000 H   0  0  0  0  0  0  0  0  0  0  0  0
    4.8535   -0.7973    0.0000 H   0  0  0  0  0  0  0  0  0  0  0  0
    5.2520   -1.4876    0.0000 H   0  0  0  0  0  0  0  0  0  0  0  0
    6.9407   -1.5127    0.0000 H   0  0  0  0  0  0  0  0  0  0  0  0
    6.5422   -0.8224    0.0000 H   0  0  0  0  0  0  0  0  0  0  0  0
    1.6900    0.6319    0.0000 H   0  0  0  0  0  0  0  0  0  0  0  0
    1.4631   -0.2150    0.0000 H   0  0  0  0  0  0  0  0  0  0  0  0
    2.3100   -0.4419    0.0000 H   0  0  0  0  0  0  0  0  0  0  0  0
    3.4220   -0.4419    0.0000 H   0  0  0  0  0  0  0  0  0  0  0  0
    4.2690   -0.2150    0.0000 H   0  0  0  0  0  0  0  0  0  0  0  0
    4.0420    0.6319    0.0000 H   0  0  0  0  0  0  0  0  0  0  0  0
    5.7932   -2.7150    0.0000 H   0  0  0  0  0  0  0  0  0  0  0  0
    6.6592   -3.5950    0.0000 H   0  0  0  0  0  0  0  0  0  0  0  0
    6.8671    1.9050    0.0000 H   0  0  0  0  0  0  0  0  0  0  0  0
    5.1350    4.2850    0.0000 H   0  0  0  0  0  0  0  0  0  0  0  0
    2.3291    4.2850    0.0000 H   0  0  0  0  0  0  0  0  0  0  0  0
    7.6636   -4.8800    0.0000 H   0  0  0  0  0  0  0  0  0  0  0  0
    8.4607   -4.8800    0.0000 H   0  0  0  0  0  0  0  0  0  0  0  0
    5.7932   -4.0950    0.0000 H   0  0  0  0  0  0  0  0  0  0  0  0
    2.3291    5.9050    0.0000 H   0  0  0  0  0  0  0  0  0  0  0  0
    4.9966   -4.9300    0.0000 H   0  0  0  0  0  0  0  0  0  0  0  0
    4.1996   -4.9300    0.0000 H   0  0  0  0  0  0  0  0  0  0  0  0
    5.6762   -7.4876    0.0000 H   0  0  0  0  0  0  0  0  0  0  0  0
    6.0747   -6.7973    0.0000 H   0  0  0  0  0  0  0  0  0  0  0  0
    3.5200   -5.3224    0.0000 H   0  0  0  0  0  0  0  0  0  0  0  0
    3.1215   -6.0127    0.0000 H   0  0  0  0  0  0  0  0  0  0  0  0
    4.1996   -7.8800    0.0000 H   0  0  0  0  0  0  0  0  0  0  0  0
    4.9966   -7.8800    0.0000 H   0  0  0  0  0  0  0  0  0  0  0  0
    9.7942   -5.0250    0.0000 H   0  0  0  0  0  0  0  0  0  0  0  0
    8.3913   -2.5950    0.0000 H   0  0  0  0  0  0  0  0  0  0  0  0
    9.7942   -1.7850    0.0000 H   0  0  0  0  0  0  0  0  0  0  0  0
    3.1951    7.4050    0.0000 H   0  0  0  0  0  0  0  0  0  0  0  0
    4.2690    7.4050    0.0000 H   0  0  0  0  0  0  0  0  0  0  0  0
   11.5470   -5.0596    0.0000 H   0  0  0  0  0  0  0  0  0  0  0  0
   11.5470   -1.7504    0.0000 H   0  0  0  0  0  0  0  0  0  0  0  0
   12.9960   -4.2379    0.0000 H   0  0  0  0  0  0  0  0  0  0  0  0
   12.9960   -2.5721    0.0000 H   0  0  0  0  0  0  0  0  0  0  0  0
  1 30  1  0  0  0  0
  2  4  2  0  0  0  0
  2  5  2  0  0  0  0
  2  9  1  0  0  0  0
  2 22  1  0  0  0  0
  3 19  1  0  0  0  0
  3 70  1  0  0  0  0
  6 37  1  0  0  0  0
  6 38  1  0  0  0  0
  7 28  2  0  0  0  0
  8 35  2  0  0  0  0
 14  9  1  6  0  0  0
  9 16  1  0  0  0  0
 10 21  1  0  0  0  0
 10 28  1  0  0  0  0
 10 68  1  0  0  0  0
 25 11  1  6  0  0  0
 11 35  1  0  0  0  0
 11 75  1  0  0  0  0
 12 33  1  0  0  0  0
 12 34  1  0  0  0  0
 12 35  1  0  0  0  0
 13 36  1  0  0  0  0
 13 88  1  0  0  0  0
 13 89  1  0  0  0  0
 14 15  1  0  0  0  0
 14 19  1  0  0  0  0
 14 48  1  0  0  0  0
 15 17  1  0  0  0  0
 15 49  1  0  0  0  0
 15 50  1  0  0  0  0
 16 18  1  0  0  0  0
 16 51  1  0  0  0  0
 16 52  1  0  0  0  0
 17 20  1  0  0  0  0
 17 53  1  0  0  0  0
 17 54  1  0  0  0  0
 18 23  1  0  0  0  0
 18 24  1  0  0  0  0
 18 55  1  0  0  0  0
 19 56  1  0  0  0  0
 19 57  1  0  0  0  0
 20 21  1  0  0  0  0
 20 58  1  0  0  0  0
 20 59  1  0  0  0  0
 21 60  1  0  0  0  0
 21 61  1  0  0  0  0
 22 26  2  0  0  0  0
 22 27  1  0  0  0  0
 23 62  1  0  0  0  0
 23 63  1  0  0  0  0
 23 64  1  0  0  0  0
 24 65  1  0  0  0  0
 24 66  1  0  0  0  0
 24 67  1  0  0  0  0
 25 28  1  0  0  0  0
 25 29  1  0  0  0  0
 25 69  1  0  0  0  0
 26 30  1  0  0  0  0
 26 71  1  0  0  0  0
 27 31  2  0  0  0  0
 27 72  1  0  0  0  0
 29 32  1  0  0  0  0
 29 73  1  0  0  0  0
 29 74  1  0  0  0  0
 30 36  2  0  0  0  0
 31 36  1  0  0  0  0
 31 76  1  0  0  0  0
 32 39  2  0  0  0  0
 32 40  1  0  0  0  0
 33 37  1  0  0  0  0
 33 77  1  0  0  0  0
 33 78  1  0  0  0  0
 34 38  1  0  0  0  0
 34 79  1  0  0  0  0
 34 80  1  0  0  0  0
 37 81  1  0  0  0  0
 37 82  1  0  0  0  0
 38 83  1  0  0  0  0
 38 84  1  0  0  0  0
 39 41  1  0  0  0  0
 39 85  1  0  0  0  0
 40 43  2  0  0  0  0
 40 86  1  0  0  0  0
 41 42  1  0  0  0  0
 41 44  2  0  0  0  0
 42 43  1  0  0  0  0
 42 45  2  0  0  0  0
 43 87  1  0  0  0  0
 44 46  1  0  0  0  0
 44 90  1  0  0  0  0
 45 47  1  0  0  0  0
 45 91  1  0  0  0  0
 46 47  2  0  0  0  0
 46 92  1  0  0  0  0
 47 93  1  0  0  0  0
M  END
> <PUBCHEM_COMPOUND_CID>
513973
> <PUBCHEM_COMPOUND_CANONICALIZED>
1
> <PUBCHEM_CACTVS_COMPLEXITY>
1090
> <PUBCHEM_CACTVS_HBOND_ACCEPTOR>
8
> <PUBCHEM_CACTVS_HBOND_DONOR>
4
> <PUBCHEM_CACTVS_ROTATABLE_BOND>
15
> <PUBCHEM_CACTVS_SUBSKEYS>
AAADcfB/uABEAAAAAAAAAAAAAAAAAAAAAAA8YMEAAAAAAADBVAAAHgYQSAAADSrh2CYzwcPABgKIAiVSUHDCABAgBwAIiJmIZoiKcDKBk7GXYABslgKYyAeYyMCOwAQCABAQABCACAQAICAAIAAAAAAAAA==
> <PUBCHEM_IUPAC_OPENEYE_NAME>
N-[(1S)-2-[[(5S)-5-[(4-amino-3-chloro-phenyl)sulfonyl-isobutyl-amino]-6-hydroxy-hexyl]amino]-1-(2-naphthylmethyl)-2-oxo-ethyl]morpholine-4-carboxamide
> <PUBCHEM_IUPAC_CAS_NAME>
N-[(2S)-1-[[(5S)-5-[(4-amino-3-chlorophenyl)sulfonyl-(2-methylpropyl)amino]-6-hydroxyhexyl]amino]-3-(2-naphthalenyl)-1-oxopropan-2-yl]-4-morpholinecarboxamide
> <PUBCHEM_IUPAC_NAME_MARKUP>
<I>N</I>-[(2<I>S</I>)-1-[[(5<I>S</I>)-5-[(4-amino-3-chlorophenyl)sulfonyl-(2-methylpropyl)amino]-6-hydroxyhexyl]amino]-3-naphthalen-2-yl-1-oxopropan-2-yl]morpholine-4-carboxamide
> <PUBCHEM_IUPAC_NAME>
N-[(2S)-1-[[(5S)-5-[(4-amino-3-chlorophenyl)sulfonyl-(2-methylpropyl)amino]-6-hydroxyhexyl]amino]-3-naphthalen-2-yl-1-oxopropan-2-yl]morpholine-4-carboxamide
> <PUBCHEM_IUPAC_SYSTEMATIC_NAME>
N-[(2S)-1-[[(5S)-5-[(4-azanyl-3-chloranyl-phenyl)sulfonyl-(2-methylpropyl)amino]-6-oxidanyl-hexyl]amino]-3-naphthalen-2-yl-1-oxidanylidene-propan-2-yl]morpholine-4-carboxamide
> <PUBCHEM_IUPAC_TRADITIONAL_NAME>
N-[(1S)-2-[[(5S)-5-[(4-amino-3-chloro-phenyl)sulfonyl-isobutyl-amino]-6-hydroxy-hexyl]amino]-2-keto-1-(2-naphthylmethyl)ethyl]morpholine-4-carboxamide
> <PUBCHEM_IUPAC_INCHI>
InChI=1S/C34H46ClN5O6S/c1-24(2)22-40(47(44,45)29-12-13-31(36)30(35)21-29)28(23-41)9-5-6-14-37-33(42)32(38-34(43)39-15-17-46-18-16-39)20-25-10-11-26-7-3-4-8-27(26)19-25/h3-4,7-8,10-13,19,21,24,28,32,41H,5-6,9,14-18,20,22-23,36H2,1-2H3,(H,37,42)(H,38,43)/t28-,32-/m0/s1
> <PUBCHEM_IUPAC_INCHIKEY>
IBWXLKMEBSMWMP-IUDBTDONSA-N
> <PUBCHEM_XLOGP3_AA>
4.3
> <PUBCHEM_EXACT_MASS>
687.2857331
> <PUBCHEM_MOLECULAR_FORMULA>
C34H46ClN5O6S
> <PUBCHEM_MOLECULAR_WEIGHT>
688.3
> <PUBCHEM_OPENEYE_CAN_SMILES>
CC(C)CN(C(CCCCNC(=O)C(CC1=CC2=CC=CC=C2C=C1)NC(=O)N3CCOCC3)CO)S(=O)(=O)C4=CC(=C(C=C4)N)Cl
> <PUBCHEM_OPENEYE_ISO_SMILES>
CC(C)CN([C@@H](CCCCNC(=O)[C@H](CC1=CC2=CC=CC=C2C=C1)NC(=O)N3CCOCC3)CO)S(=O)(=O)C4=CC(=C(C=C4)N)Cl
> <PUBCHEM_CACTVS_TPSA>
163
> <PUBCHEM_MONOISOTOPIC_WEIGHT>
687.2857331
> <PUBCHEM_TOTAL_CHARGE>
0
> <PUBCHEM_HEAVY_ATOM_COUNT>
47
> <PUBCHEM_ATOM_DEF_STEREO_COUNT>
2
> <PUBCHEM_ATOM_UDEF_STEREO_COUNT>
0
> <PUBCHEM_BOND_DEF_STEREO_COUNT>
0
> <PUBCHEM_BOND_UDEF_STEREO_COUNT>
0
> <PUBCHEM_ISOTOPIC_ATOM_COUNT>
0
> <PUBCHEM_COMPONENT_COUNT>
1
> <PUBCHEM_CACTVS_TAUTO_COUNT>
-1
> <PUBCHEM_COORDINATE_TYPE>
1
5
255
> <PUBCHEM_BONDANNOTATIONS>
25  11  6
22  26  8
22  27  8
26  30  8
27  31  8
30  36  8
31  36  8
32  39  8
32  40  8
39  41  8
40  43  8
41  42  8
41  44  8
42  43  8
42  45  8
44  46  8
45  47  8
46  47  8
14  9  6
$$$$
