513931
  -OEChem-10302200282D
 94 97  0     1  0  0  0  0  0999 V2000
    3.7320   -2.3450    0.0000 S   0  0  0  0  0  0  0  0  0  0  0  0
    6.3301   -0.8450    0.0000 O   0  0  0  0  0  0  0  0  0  0  0  0
    4.7320   -2.3450    0.0000 O   0  0  0  0  0  0  0  0  0  0  0  0
    2.7320   -2.3450    0.0000 O   0  0  0  0  0  0  0  0  0  0  0  0
    5.4641    3.6550    0.0000 O   0  0  0  0  0  0  0  0  0  0  0  0
   11.5622    2.2890    0.0000 O   0  0  0  0  0  0  0  0  0  0  0  0
    8.0622    1.4230    0.0000 O   0  0  0  0  0  0  0  0  0  0  0  0
    3.7320   -1.3450    0.0000 N   0  0  3  0  0  0  0  0  0  0  0  0
    6.3301    2.1550    0.0000 N   0  0  0  0  0  0  0  0  0  0  0  0
    8.0622    3.1550    0.0000 N   0  0  0  0  0  0  0  0  0  0  0  0
    9.5622    2.2890    0.0000 N   0  0  0  0  0  0  0  0  0  0  0  0
    3.7320   -6.3450    0.0000 N   0  0  0  0  0  0  0  0  0  0  0  0
    4.5981   -0.8450    0.0000 C   0  0  1  0  0  0  0  0  0  0  0  0
    4.5981    0.1550    0.0000 C   0  0  0  0  0  0  0  0  0  0  0  0
    2.8660   -0.8450    0.0000 C   0  0  0  0  0  0  0  0  0  0  0  0
    5.4641    0.6550    0.0000 C   0  0  0  0  0  0  0  0  0  0  0  0
    2.8660    0.1550    0.0000 C   0  0  0  0  0  0  0  0  0  0  0  0
    5.4641   -1.3450    0.0000 C   0  0  0  0  0  0  0  0  0  0  0  0
    5.4641    1.6550    0.0000 C   0  0  0  0  0  0  0  0  0  0  0  0
    7.1962    3.6550    0.0000 C   0  0  1  0  0  0  0  0  0  0  0  0
    7.1962    4.6550    0.0000 C   0  0  0  0  0  0  0  0  0  0  0  0
    3.7320   -3.3450    0.0000 C   0  0  0  0  0  0  0  0  0  0  0  0
    2.0000    0.6550    0.0000 C   0  0  0  0  0  0  0  0  0  0  0  0
    3.7320    0.6550    0.0000 C   0  0  0  0  0  0  0  0  0  0  0  0
    6.3301    3.1550    0.0000 C   0  0  0  0  0  0  0  0  0  0  0  0
    8.0622    5.1550    0.0000 C   0  0  0  0  0  0  0  0  0  0  0  0
    6.3301    5.1550    0.0000 C   0  0  0  0  0  0  0  0  0  0  0  0
    4.5981   -3.8450    0.0000 C   0  0  0  0  0  0  0  0  0  0  0  0
    2.8660   -3.8450    0.0000 C   0  0  0  0  0  0  0  0  0  0  0  0
    8.5623    2.2890    0.0000 C   0  0  0  0  0  0  0  0  0  0  0  0
   10.0622    3.1550    0.0000 C   0  0  0  0  0  0  0  0  0  0  0  0
   10.0622    1.4230    0.0000 C   0  0  0  0  0  0  0  0  0  0  0  0
    8.0622    6.1550    0.0000 C   0  0  0  0  0  0  0  0  0  0  0  0
    6.3301    6.1550    0.0000 C   0  0  0  0  0  0  0  0  0  0  0  0
    8.9282    4.6550    0.0000 C   0  0  0  0  0  0  0  0  0  0  0  0
    5.4641    4.6550    0.0000 C   0  0  0  0  0  0  0  0  0  0  0  0
   11.0622    3.1550    0.0000 C   0  0  0  0  0  0  0  0  0  0  0  0
   11.0622    1.4230    0.0000 C   0  0  0  0  0  0  0  0  0  0  0  0
    4.5981   -4.8450    0.0000 C   0  0  0  0  0  0  0  0  0  0  0  0
    2.8660   -4.8450    0.0000 C   0  0  0  0  0  0  0  0  0  0  0  0
    3.7320   -5.3450    0.0000 C   0  0  0  0  0  0  0  0  0  0  0  0
    8.9282    6.6550    0.0000 C   0  0  0  0  0  0  0  0  0  0  0  0
    5.4641    6.6550    0.0000 C   0  0  0  0  0  0  0  0  0  0  0  0
    9.7942    5.1550    0.0000 C   0  0  0  0  0  0  0  0  0  0  0  0
    4.5981    5.1550    0.0000 C   0  0  0  0  0  0  0  0  0  0  0  0
    9.7942    6.1550    0.0000 C   0  0  0  0  0  0  0  0  0  0  0  0
    4.5981    6.1550    0.0000 C   0  0  0  0  0  0  0  0  0  0  0  0
    4.5981   -1.4650    0.0000 H   0  0  0  0  0  0  0  0  0  0  0  0
    4.3860    0.7376    0.0000 H   0  0  0  0  0  0  0  0  0  0  0  0
    3.9875    0.0473    0.0000 H   0  0  0  0  0  0  0  0  0  0  0  0
    2.2554   -0.7373    0.0000 H   0  0  0  0  0  0  0  0  0  0  0  0
    2.6540   -1.4276    0.0000 H   0  0  0  0  0  0  0  0  0  0  0  0
    5.6762    0.0724    0.0000 H   0  0  0  0  0  0  0  0  0  0  0  0
    6.0747    0.7627    0.0000 H   0  0  0  0  0  0  0  0  0  0  0  0
    2.8660    0.7750    0.0000 H   0  0  0  0  0  0  0  0  0  0  0  0
    5.0656   -1.8200    0.0000 H   0  0  0  0  0  0  0  0  0  0  0  0
    5.8626   -1.8200    0.0000 H   0  0  0  0  0  0  0  0  0  0  0  0
    5.2520    2.2376    0.0000 H   0  0  0  0  0  0  0  0  0  0  0  0
    4.8535    1.5473    0.0000 H   0  0  0  0  0  0  0  0  0  0  0  0
    7.7331    3.9650    0.0000 H   0  0  0  0  0  0  0  0  0  0  0  0
    6.6592    4.3450    0.0000 H   0  0  0  0  0  0  0  0  0  0  0  0
    2.3100    1.1919    0.0000 H   0  0  0  0  0  0  0  0  0  0  0  0
    1.4631    0.9650    0.0000 H   0  0  0  0  0  0  0  0  0  0  0  0
    1.6900    0.1181    0.0000 H   0  0  0  0  0  0  0  0  0  0  0  0
    4.0420    0.1181    0.0000 H   0  0  0  0  0  0  0  0  0  0  0  0
    4.2690    0.9650    0.0000 H   0  0  0  0  0  0  0  0  0  0  0  0
    3.4220    1.1919    0.0000 H   0  0  0  0  0  0  0  0  0  0  0  0
    6.6401    1.6181    0.0000 H   0  0  0  0  0  0  0  0  0  0  0  0
    8.5991    3.4650    0.0000 H   0  0  0  0  0  0  0  0  0  0  0  0
    6.8671   -1.1550    0.0000 H   0  0  0  0  0  0  0  0  0  0  0  0
    5.1350   -3.5350    0.0000 H   0  0  0  0  0  0  0  0  0  0  0  0
    2.3291   -3.5350    0.0000 H   0  0  0  0  0  0  0  0  0  0  0  0
   10.1698    3.7656    0.0000 H   0  0  0  0  0  0  0  0  0  0  0  0
    9.4796    3.3670    0.0000 H   0  0  0  0  0  0  0  0  0  0  0  0
    9.4796    1.2109    0.0000 H   0  0  0  0  0  0  0  0  0  0  0  0
   10.1698    0.8124    0.0000 H   0  0  0  0  0  0  0  0  0  0  0  0
    7.5252    6.4650    0.0000 H   0  0  0  0  0  0  0  0  0  0  0  0
    6.8671    6.4650    0.0000 H   0  0  0  0  0  0  0  0  0  0  0  0
    8.9282    4.0350    0.0000 H   0  0  0  0  0  0  0  0  0  0  0  0
    5.4641    4.0350    0.0000 H   0  0  0  0  0  0  0  0  0  0  0  0
   11.6448    3.3670    0.0000 H   0  0  0  0  0  0  0  0  0  0  0  0
   10.9545    3.7656    0.0000 H   0  0  0  0  0  0  0  0  0  0  0  0
   10.9545    0.8124    0.0000 H   0  0  0  0  0  0  0  0  0  0  0  0
   11.6448    1.2109    0.0000 H   0  0  0  0  0  0  0  0  0  0  0  0
    5.1350   -5.1550    0.0000 H   0  0  0  0  0  0  0  0  0  0  0  0
    2.3291   -5.1550    0.0000 H   0  0  0  0  0  0  0  0  0  0  0  0
    8.9282    7.2750    0.0000 H   0  0  0  0  0  0  0  0  0  0  0  0
    5.4641    7.2750    0.0000 H   0  0  0  0  0  0  0  0  0  0  0  0
   10.3312    4.8450    0.0000 H   0  0  0  0  0  0  0  0  0  0  0  0
    4.0611    4.8450    0.0000 H   0  0  0  0  0  0  0  0  0  0  0  0
   10.3312    6.4650    0.0000 H   0  0  0  0  0  0  0  0  0  0  0  0
    4.0611    6.4650    0.0000 H   0  0  0  0  0  0  0  0  0  0  0  0
    3.1951   -6.6550    0.0000 H   0  0  0  0  0  0  0  0  0  0  0  0
    4.2690   -6.6550    0.0000 H   0  0  0  0  0  0  0  0  0  0  0  0
  1  3  2  0  0  0  0
  1  4  2  0  0  0  0
  1  8  1  0  0  0  0
  1 22  1  0  0  0  0
  2 18  1  0  0  0  0
  2 70  1  0  0  0  0
  5 25  2  0  0  0  0
  6 37  1  0  0  0  0
  6 38  1  0  0  0  0
  7 30  2  0  0  0  0
 13  8  1  1  0  0  0
  8 15  1  0  0  0  0
  9 19  1  0  0  0  0
  9 25  1  0  0  0  0
  9 68  1  0  0  0  0
 20 10  1  6  0  0  0
 10 30  1  0  0  0  0
 10 69  1  0  0  0  0
 11 30  1  0  0  0  0
 11 31  1  0  0  0  0
 11 32  1  0  0  0  0
 12 41  1  0  0  0  0
 12 93  1  0  0  0  0
 12 94  1  0  0  0  0
 13 14  1  0  0  0  0
 13 18  1  0  0  0  0
 13 48  1  0  0  0  0
 14 16  1  0  0  0  0
 14 49  1  0  0  0  0
 14 50  1  0  0  0  0
 15 17  1  0  0  0  0
 15 51  1  0  0  0  0
 15 52  1  0  0  0  0
 16 19  1  0  0  0  0
 16 53  1  0  0  0  0
 16 54  1  0  0  0  0
 17 23  1  0  0  0  0
 17 24  1  0  0  0  0
 17 55  1  0  0  0  0
 18 56  1  0  0  0  0
 18 57  1  0  0  0  0
 19 58  1  0  0  0  0
 19 59  1  0  0  0  0
 20 21  1  0  0  0  0
 20 25  1  0  0  0  0
 20 60  1  0  0  0  0
 21 26  1  0  0  0  0
 21 27  1  0  0  0  0
 21 61  1  0  0  0  0
 22 28  2  0  0  0  0
 22 29  1  0  0  0  0
 23 62  1  0  0  0  0
 23 63  1  0  0  0  0
 23 64  1  0  0  0  0
 24 65  1  0  0  0  0
 24 66  1  0  0  0  0
 24 67  1  0  0  0  0
 26 33  2  0  0  0  0
 26 35  1  0  0  0  0
 27 34  2  0  0  0  0
 27 36  1  0  0  0  0
 28 39  1  0  0  0  0
 28 71  1  0  0  0  0
 29 40  2  0  0  0  0
 29 72  1  0  0  0  0
 31 37  1  0  0  0  0
 31 73  1  0  0  0  0
 31 74  1  0  0  0  0
 32 38  1  0  0  0  0
 32 75  1  0  0  0  0
 32 76  1  0  0  0  0
 33 42  1  0  0  0  0
 33 77  1  0  0  0  0
 34 43  1  0  0  0  0
 34 78  1  0  0  0  0
 35 44  2  0  0  0  0
 35 79  1  0  0  0  0
 36 45  2  0  0  0  0
 36 80  1  0  0  0  0
 37 81  1  0  0  0  0
 37 82  1  0  0  0  0
 38 83  1  0  0  0  0
 38 84  1  0  0  0  0
 39 41  2  0  0  0  0
 39 85  1  0  0  0  0
 40 41  1  0  0  0  0
 40 86  1  0  0  0  0
 42 46  2  0  0  0  0
 42 87  1  0  0  0  0
 43 47  2  0  0  0  0
 43 88  1  0  0  0  0
 44 46  1  0  0  0  0
 44 89  1  0  0  0  0
 45 47  1  0  0  0  0
 45 90  1  0  0  0  0
 46 91  1  0  0  0  0
 47 92  1  0  0  0  0
M  END
> <PUBCHEM_COMPOUND_CID>
513931
> <PUBCHEM_COMPOUND_CANONICALIZED>
1
> <PUBCHEM_CACTVS_COMPLEXITY>
1030
> <PUBCHEM_CACTVS_HBOND_ACCEPTOR>
8
> <PUBCHEM_CACTVS_HBOND_DONOR>
4
> <PUBCHEM_CACTVS_ROTATABLE_BOND>
15
> <PUBCHEM_CACTVS_SUBSKEYS>
AAADcfB/uABAAAAAAAAAAAAAAAAAAAAAAAA8YMEAAAAAAAABUAAAHgQQSAAADSjh2AYzwYPABgKIAiVSUHDCABAgAgAIiJmIZIiKcDKAkbGXYABslgKYyAeYmMKOgAQAAAAAAAAACAAAAAAAAAAAAAAAAA==
> <PUBCHEM_IUPAC_OPENEYE_NAME>
N-[(1S)-1-[[(4S)-4-[(4-aminophenyl)sulfonyl-isobutyl-amino]-5-hydroxy-pentyl]carbamoyl]-2,2-diphenyl-ethyl]morpholine-4-carboxamide
> <PUBCHEM_IUPAC_CAS_NAME>
N-[(2S)-1-[[(4S)-4-[(4-aminophenyl)sulfonyl-(2-methylpropyl)amino]-5-hydroxypentyl]amino]-1-oxo-3,3-diphenylpropan-2-yl]-4-morpholinecarboxamide
> <PUBCHEM_IUPAC_NAME_MARKUP>
<I>N</I>-[(2<I>S</I>)-1-[[(4<I>S</I>)-4-[(4-aminophenyl)sulfonyl-(2-methylpropyl)amino]-5-hydroxypentyl]amino]-1-oxo-3,3-diphenylpropan-2-yl]morpholine-4-carboxamide
> <PUBCHEM_IUPAC_NAME>
N-[(2S)-1-[[(4S)-4-[(4-aminophenyl)sulfonyl-(2-methylpropyl)amino]-5-hydroxypentyl]amino]-1-oxo-3,3-diphenylpropan-2-yl]morpholine-4-carboxamide
> <PUBCHEM_IUPAC_SYSTEMATIC_NAME>
N-[(2S)-1-[[(4S)-4-[(4-aminophenyl)sulfonyl-(2-methylpropyl)amino]-5-oxidanyl-pentyl]amino]-1-oxidanylidene-3,3-diphenyl-propan-2-yl]morpholine-4-carboxamide
> <PUBCHEM_IUPAC_TRADITIONAL_NAME>
N-[(1S)-1-benzhydryl-2-[[(4S)-5-hydroxy-4-[isobutyl(sulfanilyl)amino]pentyl]amino]-2-keto-ethyl]morpholine-4-carboxamide
> <PUBCHEM_IUPAC_INCHI>
InChI=1S/C35H47N5O6S/c1-26(2)24-40(47(44,45)31-17-15-29(36)16-18-31)30(25-41)14-9-19-37-34(42)33(38-35(43)39-20-22-46-23-21-39)32(27-10-5-3-6-11-27)28-12-7-4-8-13-28/h3-8,10-13,15-18,26,30,32-33,41H,9,14,19-25,36H2,1-2H3,(H,37,42)(H,38,43)/t30-,33-/m0/s1
> <PUBCHEM_IUPAC_INCHIKEY>
RMQUPFITWMOKDA-DITALETJSA-N
> <PUBCHEM_XLOGP3_AA>
3.6
> <PUBCHEM_EXACT_MASS>
665.32470541
> <PUBCHEM_MOLECULAR_FORMULA>
C35H47N5O6S
> <PUBCHEM_MOLECULAR_WEIGHT>
665.8
> <PUBCHEM_OPENEYE_CAN_SMILES>
CC(C)CN(C(CCCNC(=O)C(C(C1=CC=CC=C1)C2=CC=CC=C2)NC(=O)N3CCOCC3)CO)S(=O)(=O)C4=CC=C(C=C4)N
> <PUBCHEM_OPENEYE_ISO_SMILES>
CC(C)CN([C@@H](CCCNC(=O)[C@H](C(C1=CC=CC=C1)C2=CC=CC=C2)NC(=O)N3CCOCC3)CO)S(=O)(=O)C4=CC=C(C=C4)N
> <PUBCHEM_CACTVS_TPSA>
163
> <PUBCHEM_MONOISOTOPIC_WEIGHT>
665.32470541
> <PUBCHEM_TOTAL_CHARGE>
0
> <PUBCHEM_HEAVY_ATOM_COUNT>
47
> <PUBCHEM_ATOM_DEF_STEREO_COUNT>
2
> <PUBCHEM_ATOM_UDEF_STEREO_COUNT>
0
> <PUBCHEM_BOND_DEF_STEREO_COUNT>
0
> <PUBCHEM_BOND_UDEF_STEREO_COUNT>
0
> <PUBCHEM_ISOTOPIC_ATOM_COUNT>
0
> <PUBCHEM_COMPONENT_COUNT>
1
> <PUBCHEM_CACTVS_TAUTO_COUNT>
-1
> <PUBCHEM_COORDINATE_TYPE>
1
5
255
> <PUBCHEM_BONDANNOTATIONS>
20  10  6
22  28  8
22  29  8
26  33  8
26  35  8
27  34  8
27  36  8
28  39  8
29  40  8
33  42  8
34  43  8
35  44  8
36  45  8
39  41  8
40  41  8
42  46  8
43  47  8
44  46  8
45  47  8
13  8  5
$$$$
