513949
  -OEChem-10302200282D
 81 83  0     1  0  0  0  0  0999 V2000
    6.0010   -3.4573    0.0000 S   0  0  0  0  0  0  0  0  0  0  0  0
    5.1350   -1.9573    0.0000 O   0  0  0  0  0  0  0  0  0  0  0  0
    6.5010   -4.3234    0.0000 O   0  0  0  0  0  0  0  0  0  0  0  0
    5.5010   -2.5913    0.0000 O   0  0  0  0  0  0  0  0  0  0  0  0
   10.3312    1.0427    0.0000 O   0  0  0  0  0  0  0  0  0  0  0  0
    6.0010    2.5427    0.0000 O   0  0  0  0  0  0  0  0  0  0  0  0
    6.8671    4.0427    0.0000 O   0  0  0  0  0  0  0  0  0  0  0  0
    6.8671   -2.9573    0.0000 N   0  0  3  0  0  0  0  0  0  0  0  0
    8.5991    1.0427    0.0000 N   0  0  0  0  0  0  0  0  0  0  0  0
    8.5991    3.0427    0.0000 N   0  0  0  0  0  0  0  0  0  0  0  0
    2.5369   -5.4573    0.0000 N   0  0  0  0  0  0  0  0  0  0  0  0
    6.8671   -1.9573    0.0000 C   0  0  1  0  0  0  0  0  0  0  0  0
    7.7331   -1.4573    0.0000 C   0  0  0  0  0  0  0  0  0  0  0  0
    7.7331   -3.4573    0.0000 C   0  0  0  0  0  0  0  0  0  0  0  0
    8.5991   -2.9573    0.0000 C   0  0  0  0  0  0  0  0  0  0  0  0
    7.7331   -0.4573    0.0000 C   0  0  0  0  0  0  0  0  0  0  0  0
    6.0010   -1.4573    0.0000 C   0  0  0  0  0  0  0  0  0  0  0  0
    8.5991    0.0427    0.0000 C   0  0  0  0  0  0  0  0  0  0  0  0
    5.1350   -3.9573    0.0000 C   0  0  0  0  0  0  0  0  0  0  0  0
    9.4651   -3.4573    0.0000 C   0  0  0  0  0  0  0  0  0  0  0  0
    8.5991   -1.9573    0.0000 C   0  0  0  0  0  0  0  0  0  0  0  0
    9.4651    2.5427    0.0000 C   0  0  2  0  0  0  0  0  0  0  0  0
    9.4651    1.5427    0.0000 C   0  0  0  0  0  0  0  0  0  0  0  0
   10.3312    3.0427    0.0000 C   0  0  0  0  0  0  0  0  0  0  0  0
    4.2690   -3.4573    0.0000 C   0  0  0  0  0  0  0  0  0  0  0  0
    5.1350   -4.9573    0.0000 C   0  0  0  0  0  0  0  0  0  0  0  0
   10.3312    4.0427    0.0000 C   0  0  0  0  0  0  0  0  0  0  0  0
    3.4030   -3.9573    0.0000 C   0  0  0  0  0  0  0  0  0  0  0  0
    4.2690   -5.4573    0.0000 C   0  0  0  0  0  0  0  0  0  0  0  0
   11.1972    4.5427    0.0000 C   0  0  0  0  0  0  0  0  0  0  0  0
    3.4030   -4.9573    0.0000 C   0  0  0  0  0  0  0  0  0  0  0  0
    7.7331    2.5427    0.0000 C   0  0  0  0  0  0  0  0  0  0  0  0
    9.4651    4.5427    0.0000 C   0  0  0  0  0  0  0  0  0  0  0  0
   11.1972    5.5427    0.0000 C   0  0  0  0  0  0  0  0  0  0  0  0
   12.0911    4.0080    0.0000 C   0  0  0  0  0  0  0  0  0  0  0  0
    9.4651    5.5427    0.0000 C   0  0  0  0  0  0  0  0  0  0  0  0
   10.3312    6.0427    0.0000 C   0  0  0  0  0  0  0  0  0  0  0  0
   12.0911    6.0773    0.0000 C   0  0  0  0  0  0  0  0  0  0  0  0
   12.9972    4.5218    0.0000 C   0  0  0  0  0  0  0  0  0  0  0  0
    6.8671    3.0427    0.0000 C   0  0  0  0  0  0  0  0  0  0  0  0
   12.9972    5.5635    0.0000 C   0  0  0  0  0  0  0  0  0  0  0  0
    6.3301   -2.2673    0.0000 H   0  0  0  0  0  0  0  0  0  0  0  0
    7.9451   -2.0399    0.0000 H   0  0  0  0  0  0  0  0  0  0  0  0
    8.3437   -1.3497    0.0000 H   0  0  0  0  0  0  0  0  0  0  0  0
    7.3346   -3.9323    0.0000 H   0  0  0  0  0  0  0  0  0  0  0  0
    8.1316   -3.9323    0.0000 H   0  0  0  0  0  0  0  0  0  0  0  0
    8.5991   -3.5773    0.0000 H   0  0  0  0  0  0  0  0  0  0  0  0
    7.5210    0.1253    0.0000 H   0  0  0  0  0  0  0  0  0  0  0  0
    7.1225   -0.5650    0.0000 H   0  0  0  0  0  0  0  0  0  0  0  0
    6.3996   -0.9824    0.0000 H   0  0  0  0  0  0  0  0  0  0  0  0
    5.6025   -0.9824    0.0000 H   0  0  0  0  0  0  0  0  0  0  0  0
    8.8112   -0.5399    0.0000 H   0  0  0  0  0  0  0  0  0  0  0  0
    9.2097    0.1503    0.0000 H   0  0  0  0  0  0  0  0  0  0  0  0
    9.1551   -3.9943    0.0000 H   0  0  0  0  0  0  0  0  0  0  0  0
   10.0021   -3.7673    0.0000 H   0  0  0  0  0  0  0  0  0  0  0  0
    9.7751   -2.9204    0.0000 H   0  0  0  0  0  0  0  0  0  0  0  0
    9.2191   -1.9573    0.0000 H   0  0  0  0  0  0  0  0  0  0  0  0
    8.5991   -1.3373    0.0000 H   0  0  0  0  0  0  0  0  0  0  0  0
    7.9791   -1.9573    0.0000 H   0  0  0  0  0  0  0  0  0  0  0  0
    8.0622    1.3527    0.0000 H   0  0  0  0  0  0  0  0  0  0  0  0
    9.4651    3.1627    0.0000 H   0  0  0  0  0  0  0  0  0  0  0  0
    4.5981   -1.6473    0.0000 H   0  0  0  0  0  0  0  0  0  0  0  0
   10.5432    2.4601    0.0000 H   0  0  0  0  0  0  0  0  0  0  0  0
   10.9417    3.1503    0.0000 H   0  0  0  0  0  0  0  0  0  0  0  0
    4.2690   -2.8373    0.0000 H   0  0  0  0  0  0  0  0  0  0  0  0
    5.6720   -5.2673    0.0000 H   0  0  0  0  0  0  0  0  0  0  0  0
    8.5991    3.6627    0.0000 H   0  0  0  0  0  0  0  0  0  0  0  0
    2.8660   -3.6473    0.0000 H   0  0  0  0  0  0  0  0  0  0  0  0
    4.2690   -6.0773    0.0000 H   0  0  0  0  0  0  0  0  0  0  0  0
    8.9282    4.2327    0.0000 H   0  0  0  0  0  0  0  0  0  0  0  0
    7.3346    2.0677    0.0000 H   0  0  0  0  0  0  0  0  0  0  0  0
    8.1316    2.0677    0.0000 H   0  0  0  0  0  0  0  0  0  0  0  0
   12.0840    3.3880    0.0000 H   0  0  0  0  0  0  0  0  0  0  0  0
    8.9282    5.8527    0.0000 H   0  0  0  0  0  0  0  0  0  0  0  0
   10.3312    6.6627    0.0000 H   0  0  0  0  0  0  0  0  0  0  0  0
   12.0840    6.6973    0.0000 H   0  0  0  0  0  0  0  0  0  0  0  0
    2.5369   -6.0773    0.0000 H   0  0  0  0  0  0  0  0  0  0  0  0
    2.0000   -5.1473    0.0000 H   0  0  0  0  0  0  0  0  0  0  0  0
   13.5329    4.2098    0.0000 H   0  0  0  0  0  0  0  0  0  0  0  0
   13.5329    5.8755    0.0000 H   0  0  0  0  0  0  0  0  0  0  0  0
    5.4641    2.8527    0.0000 H   0  0  0  0  0  0  0  0  0  0  0  0
  1  3  2  0  0  0  0
  1  4  2  0  0  0  0
  1  8  1  0  0  0  0
  1 19  1  0  0  0  0
  2 17  1  0  0  0  0
  2 62  1  0  0  0  0
  5 23  2  0  0  0  0
  6 40  1  0  0  0  0
  6 81  1  0  0  0  0
  7 40  2  0  0  0  0
 12  8  1  6  0  0  0
  8 14  1  0  0  0  0
  9 18  1  0  0  0  0
  9 23  1  0  0  0  0
  9 60  1  0  0  0  0
 22 10  1  1  0  0  0
 10 32  1  0  0  0  0
 10 67  1  0  0  0  0
 11 31  1  0  0  0  0
 11 77  1  0  0  0  0
 11 78  1  0  0  0  0
 12 13  1  0  0  0  0
 12 17  1  0  0  0  0
 12 42  1  0  0  0  0
 13 16  1  0  0  0  0
 13 43  1  0  0  0  0
 13 44  1  0  0  0  0
 14 15  1  0  0  0  0
 14 45  1  0  0  0  0
 14 46  1  0  0  0  0
 15 20  1  0  0  0  0
 15 21  1  0  0  0  0
 15 47  1  0  0  0  0
 16 18  1  0  0  0  0
 16 48  1  0  0  0  0
 16 49  1  0  0  0  0
 17 50  1  0  0  0  0
 17 51  1  0  0  0  0
 18 52  1  0  0  0  0
 18 53  1  0  0  0  0
 19 25  2  0  0  0  0
 19 26  1  0  0  0  0
 20 54  1  0  0  0  0
 20 55  1  0  0  0  0
 20 56  1  0  0  0  0
 21 57  1  0  0  0  0
 21 58  1  0  0  0  0
 21 59  1  0  0  0  0
 22 23  1  0  0  0  0
 22 24  1  0  0  0  0
 22 61  1  0  0  0  0
 24 27  1  0  0  0  0
 24 63  1  0  0  0  0
 24 64  1  0  0  0  0
 25 28  1  0  0  0  0
 25 65  1  0  0  0  0
 26 29  2  0  0  0  0
 26 66  1  0  0  0  0
 27 30  1  0  0  0  0
 27 33  2  0  0  0  0
 28 31  2  0  0  0  0
 28 68  1  0  0  0  0
 29 31  1  0  0  0  0
 29 69  1  0  0  0  0
 30 34  1  0  0  0  0
 30 35  2  0  0  0  0
 32 40  1  0  0  0  0
 32 71  1  0  0  0  0
 32 72  1  0  0  0  0
 33 36  1  0  0  0  0
 33 70  1  0  0  0  0
 34 37  1  0  0  0  0
 34 38  2  0  0  0  0
 35 39  1  0  0  0  0
 35 73  1  0  0  0  0
 36 37  2  0  0  0  0
 36 74  1  0  0  0  0
 37 75  1  0  0  0  0
 38 41  1  0  0  0  0
 38 76  1  0  0  0  0
 39 41  2  0  0  0  0
 39 79  1  0  0  0  0
 41 80  1  0  0  0  0
M  END
> <PUBCHEM_COMPOUND_CID>
513949
> <PUBCHEM_COMPOUND_CANONICALIZED>
1
> <PUBCHEM_CACTVS_COMPLEXITY>
918
> <PUBCHEM_CACTVS_HBOND_ACCEPTOR>
9
> <PUBCHEM_CACTVS_HBOND_DONOR>
5
> <PUBCHEM_CACTVS_ROTATABLE_BOND>
16
> <PUBCHEM_CACTVS_SUBSKEYS>
AAADcfB7uABAAAAAAAAAAAAAAAAAAAAAAAAwYMAAAAAAAADBVAAAHgQQSAAADSjh2AYyycLAAgKIAiXSWHDCABAgAgAIiJmIZIgKcDKAkbGUYABklgCYyAeYmMKOgAQCAAAQAAAACAQAACAAAAAAAAAAAA==
> <PUBCHEM_IUPAC_OPENEYE_NAME>
2-[[(1S)-2-[[(4S)-4-[(4-aminophenyl)sulfonyl-isobutyl-amino]-5-hydroxy-pentyl]amino]-1-(1-naphthylmethyl)-2-oxo-ethyl]amino]acetic acid
> <PUBCHEM_IUPAC_CAS_NAME>
2-[[(2S)-1-[[(4S)-4-[(4-aminophenyl)sulfonyl-(2-methylpropyl)amino]-5-hydroxypentyl]amino]-3-(1-naphthalenyl)-1-oxopropan-2-yl]amino]acetic acid
> <PUBCHEM_IUPAC_NAME_MARKUP>
2-[[(2<I>S</I>)-1-[[(4<I>S</I>)-4-[(4-aminophenyl)sulfonyl-(2-methylpropyl)amino]-5-hydroxypentyl]amino]-3-naphthalen-1-yl-1-oxopropan-2-yl]amino]acetic acid
> <PUBCHEM_IUPAC_NAME>
2-[[(2S)-1-[[(4S)-4-[(4-aminophenyl)sulfonyl-(2-methylpropyl)amino]-5-hydroxypentyl]amino]-3-naphthalen-1-yl-1-oxopropan-2-yl]amino]acetic acid
> <PUBCHEM_IUPAC_SYSTEMATIC_NAME>
2-[[(2S)-1-[[(4S)-4-[(4-aminophenyl)sulfonyl-(2-methylpropyl)amino]-5-oxidanyl-pentyl]amino]-3-naphthalen-1-yl-1-oxidanylidene-propan-2-yl]amino]ethanoic acid
> <PUBCHEM_IUPAC_TRADITIONAL_NAME>
2-[[(1S)-2-[[(4S)-5-hydroxy-4-[isobutyl(sulfanilyl)amino]pentyl]amino]-2-keto-1-(1-naphthylmethyl)ethyl]amino]acetic acid
> <PUBCHEM_IUPAC_INCHI>
InChI=1S/C30H40N4O6S/c1-21(2)19-34(41(39,40)26-14-12-24(31)13-15-26)25(20-35)10-6-16-32-30(38)28(33-18-29(36)37)17-23-9-5-8-22-7-3-4-11-27(22)23/h3-5,7-9,11-15,21,25,28,33,35H,6,10,16-20,31H2,1-2H3,(H,32,38)(H,36,37)/t25-,28-/m0/s1
> <PUBCHEM_IUPAC_INCHIKEY>
AFTKBKHIWONRKY-LSYYVWMOSA-N
> <PUBCHEM_XLOGP3_AA>
1.3
> <PUBCHEM_EXACT_MASS>
584.26685618
> <PUBCHEM_MOLECULAR_FORMULA>
C30H40N4O6S
> <PUBCHEM_MOLECULAR_WEIGHT>
584.7
> <PUBCHEM_OPENEYE_CAN_SMILES>
CC(C)CN(C(CCCNC(=O)C(CC1=CC=CC2=CC=CC=C21)NCC(=O)O)CO)S(=O)(=O)C3=CC=C(C=C3)N
> <PUBCHEM_OPENEYE_ISO_SMILES>
CC(C)CN([C@@H](CCCNC(=O)[C@H](CC1=CC=CC2=CC=CC=C21)NCC(=O)O)CO)S(=O)(=O)C3=CC=C(C=C3)N
> <PUBCHEM_CACTVS_TPSA>
170
> <PUBCHEM_MONOISOTOPIC_WEIGHT>
584.26685618
> <PUBCHEM_TOTAL_CHARGE>
0
> <PUBCHEM_HEAVY_ATOM_COUNT>
41
> <PUBCHEM_ATOM_DEF_STEREO_COUNT>
2
> <PUBCHEM_ATOM_UDEF_STEREO_COUNT>
0
> <PUBCHEM_BOND_DEF_STEREO_COUNT>
0
> <PUBCHEM_BOND_UDEF_STEREO_COUNT>
0
> <PUBCHEM_ISOTOPIC_ATOM_COUNT>
0
> <PUBCHEM_COMPONENT_COUNT>
1
> <PUBCHEM_CACTVS_TAUTO_COUNT>
-1
> <PUBCHEM_COORDINATE_TYPE>
1
5
255
> <PUBCHEM_BONDANNOTATIONS>
22  10  5
19  25  8
19  26  8
25  28  8
26  29  8
27  30  8
27  33  8
28  31  8
29  31  8
30  34  8
30  35  8
33  36  8
34  37  8
34  38  8
35  39  8
36  37  8
38  41  8
39  41  8
12  8  6
$$$$
