513942
  -OEChem-10302200282D
 87 89  0     1  0  0  0  0  0999 V2000
    6.0010   -3.4573    0.0000 S   0  0  0  0  0  0  0  0  0  0  0  0
    5.1350   -1.9573    0.0000 O   0  0  0  0  0  0  0  0  0  0  0  0
    6.5010   -4.3234    0.0000 O   0  0  0  0  0  0  0  0  0  0  0  0
    5.5010   -2.5913    0.0000 O   0  0  0  0  0  0  0  0  0  0  0  0
   10.3312    1.0427    0.0000 O   0  0  0  0  0  0  0  0  0  0  0  0
    6.8671   -2.9573    0.0000 N   0  0  3  0  0  0  0  0  0  0  0  0
    8.5991    1.0427    0.0000 N   0  0  0  0  0  0  0  0  0  0  0  0
    8.5991    3.0427    0.0000 N   0  0  0  0  0  0  0  0  0  0  0  0
    2.5369   -5.4573    0.0000 N   0  0  0  0  0  0  0  0  0  0  0  0
    6.8671   -1.9573    0.0000 C   0  0  1  0  0  0  0  0  0  0  0  0
    7.7331   -1.4573    0.0000 C   0  0  0  0  0  0  0  0  0  0  0  0
    7.7331   -3.4573    0.0000 C   0  0  0  0  0  0  0  0  0  0  0  0
    8.5991   -2.9573    0.0000 C   0  0  0  0  0  0  0  0  0  0  0  0
    7.7331   -0.4573    0.0000 C   0  0  0  0  0  0  0  0  0  0  0  0
    6.0010   -1.4573    0.0000 C   0  0  0  0  0  0  0  0  0  0  0  0
    8.5991    0.0427    0.0000 C   0  0  0  0  0  0  0  0  0  0  0  0
    5.1350   -3.9573    0.0000 C   0  0  0  0  0  0  0  0  0  0  0  0
    9.4651   -3.4573    0.0000 C   0  0  0  0  0  0  0  0  0  0  0  0
    8.5991   -1.9573    0.0000 C   0  0  0  0  0  0  0  0  0  0  0  0
    9.4651    2.5427    0.0000 C   0  0  1  0  0  0  0  0  0  0  0  0
   10.3312    3.0427    0.0000 C   0  0  0  0  0  0  0  0  0  0  0  0
    9.4651    1.5427    0.0000 C   0  0  0  0  0  0  0  0  0  0  0  0
    5.1350   -4.9573    0.0000 C   0  0  0  0  0  0  0  0  0  0  0  0
    4.2690   -3.4573    0.0000 C   0  0  0  0  0  0  0  0  0  0  0  0
   10.3312    4.0427    0.0000 C   0  0  0  0  0  0  0  0  0  0  0  0
    7.7331    2.5427    0.0000 C   0  0  0  0  0  0  0  0  0  0  0  0
    6.8671    3.0427    0.0000 C   0  0  0  0  0  0  0  0  0  0  0  0
   11.1972    4.5427    0.0000 C   0  0  0  0  0  0  0  0  0  0  0  0
    4.2690   -5.4573    0.0000 C   0  0  0  0  0  0  0  0  0  0  0  0
    3.4030   -3.9573    0.0000 C   0  0  0  0  0  0  0  0  0  0  0  0
    3.4030   -4.9573    0.0000 C   0  0  0  0  0  0  0  0  0  0  0  0
    9.4651    4.5427    0.0000 C   0  0  0  0  0  0  0  0  0  0  0  0
   11.1972    5.5427    0.0000 C   0  0  0  0  0  0  0  0  0  0  0  0
    6.0010    2.5427    0.0000 C   0  0  0  0  0  0  0  0  0  0  0  0
   12.0911    4.0080    0.0000 C   0  0  0  0  0  0  0  0  0  0  0  0
    9.4651    5.5427    0.0000 C   0  0  0  0  0  0  0  0  0  0  0  0
   10.3312    6.0427    0.0000 C   0  0  0  0  0  0  0  0  0  0  0  0
   12.0911    6.0773    0.0000 C   0  0  0  0  0  0  0  0  0  0  0  0
    5.1350    3.0427    0.0000 C   0  0  0  0  0  0  0  0  0  0  0  0
   12.9972    4.5218    0.0000 C   0  0  0  0  0  0  0  0  0  0  0  0
   12.9972    5.5635    0.0000 C   0  0  0  0  0  0  0  0  0  0  0  0
    6.3301   -2.2673    0.0000 H   0  0  0  0  0  0  0  0  0  0  0  0
    7.9451   -2.0399    0.0000 H   0  0  0  0  0  0  0  0  0  0  0  0
    8.3437   -1.3497    0.0000 H   0  0  0  0  0  0  0  0  0  0  0  0
    7.3346   -3.9323    0.0000 H   0  0  0  0  0  0  0  0  0  0  0  0
    8.1316   -3.9323    0.0000 H   0  0  0  0  0  0  0  0  0  0  0  0
    8.5991   -3.5773    0.0000 H   0  0  0  0  0  0  0  0  0  0  0  0
    7.5210    0.1253    0.0000 H   0  0  0  0  0  0  0  0  0  0  0  0
    7.1225   -0.5650    0.0000 H   0  0  0  0  0  0  0  0  0  0  0  0
    6.3996   -0.9824    0.0000 H   0  0  0  0  0  0  0  0  0  0  0  0
    5.6025   -0.9824    0.0000 H   0  0  0  0  0  0  0  0  0  0  0  0
    8.8112   -0.5399    0.0000 H   0  0  0  0  0  0  0  0  0  0  0  0
    9.2097    0.1503    0.0000 H   0  0  0  0  0  0  0  0  0  0  0  0
    9.1551   -3.9943    0.0000 H   0  0  0  0  0  0  0  0  0  0  0  0
   10.0021   -3.7673    0.0000 H   0  0  0  0  0  0  0  0  0  0  0  0
    9.7751   -2.9204    0.0000 H   0  0  0  0  0  0  0  0  0  0  0  0
    9.2191   -1.9573    0.0000 H   0  0  0  0  0  0  0  0  0  0  0  0
    8.5991   -1.3373    0.0000 H   0  0  0  0  0  0  0  0  0  0  0  0
    7.9791   -1.9573    0.0000 H   0  0  0  0  0  0  0  0  0  0  0  0
    9.4651    3.1627    0.0000 H   0  0  0  0  0  0  0  0  0  0  0  0
    8.0622    1.3527    0.0000 H   0  0  0  0  0  0  0  0  0  0  0  0
   10.5432    2.4601    0.0000 H   0  0  0  0  0  0  0  0  0  0  0  0
   10.9417    3.1503    0.0000 H   0  0  0  0  0  0  0  0  0  0  0  0
    4.5981   -1.6473    0.0000 H   0  0  0  0  0  0  0  0  0  0  0  0
    8.5991    3.6627    0.0000 H   0  0  0  0  0  0  0  0  0  0  0  0
    5.6720   -5.2673    0.0000 H   0  0  0  0  0  0  0  0  0  0  0  0
    4.2690   -2.8373    0.0000 H   0  0  0  0  0  0  0  0  0  0  0  0
    7.3346    2.0677    0.0000 H   0  0  0  0  0  0  0  0  0  0  0  0
    8.1316    2.0677    0.0000 H   0  0  0  0  0  0  0  0  0  0  0  0
    7.2656    3.5176    0.0000 H   0  0  0  0  0  0  0  0  0  0  0  0
    6.4685    3.5176    0.0000 H   0  0  0  0  0  0  0  0  0  0  0  0
    4.2690   -6.0773    0.0000 H   0  0  0  0  0  0  0  0  0  0  0  0
    2.8660   -3.6473    0.0000 H   0  0  0  0  0  0  0  0  0  0  0  0
    8.9282    4.2327    0.0000 H   0  0  0  0  0  0  0  0  0  0  0  0
    5.6025    2.0677    0.0000 H   0  0  0  0  0  0  0  0  0  0  0  0
    6.3996    2.0677    0.0000 H   0  0  0  0  0  0  0  0  0  0  0  0
   12.0840    3.3880    0.0000 H   0  0  0  0  0  0  0  0  0  0  0  0
    8.9282    5.8527    0.0000 H   0  0  0  0  0  0  0  0  0  0  0  0
   10.3312    6.6627    0.0000 H   0  0  0  0  0  0  0  0  0  0  0  0
   12.0840    6.6973    0.0000 H   0  0  0  0  0  0  0  0  0  0  0  0
    5.4450    3.5796    0.0000 H   0  0  0  0  0  0  0  0  0  0  0  0
    4.5981    3.3527    0.0000 H   0  0  0  0  0  0  0  0  0  0  0  0
    4.8250    2.5057    0.0000 H   0  0  0  0  0  0  0  0  0  0  0  0
   13.5329    4.2098    0.0000 H   0  0  0  0  0  0  0  0  0  0  0  0
    2.5369   -6.0773    0.0000 H   0  0  0  0  0  0  0  0  0  0  0  0
    2.0000   -5.1473    0.0000 H   0  0  0  0  0  0  0  0  0  0  0  0
   13.5329    5.8755    0.0000 H   0  0  0  0  0  0  0  0  0  0  0  0
  1  3  2  0  0  0  0
  1  4  2  0  0  0  0
  1  6  1  0  0  0  0
  1 17  1  0  0  0  0
  2 15  1  0  0  0  0
  2 64  1  0  0  0  0
  5 22  2  0  0  0  0
 10  6  1  6  0  0  0
  6 12  1  0  0  0  0
  7 16  1  0  0  0  0
  7 22  1  0  0  0  0
  7 61  1  0  0  0  0
 20  8  1  1  0  0  0
  8 26  1  0  0  0  0
  8 65  1  0  0  0  0
  9 31  1  0  0  0  0
  9 85  1  0  0  0  0
  9 86  1  0  0  0  0
 10 11  1  0  0  0  0
 10 15  1  0  0  0  0
 10 42  1  0  0  0  0
 11 14  1  0  0  0  0
 11 43  1  0  0  0  0
 11 44  1  0  0  0  0
 12 13  1  0  0  0  0
 12 45  1  0  0  0  0
 12 46  1  0  0  0  0
 13 18  1  0  0  0  0
 13 19  1  0  0  0  0
 13 47  1  0  0  0  0
 14 16  1  0  0  0  0
 14 48  1  0  0  0  0
 14 49  1  0  0  0  0
 15 50  1  0  0  0  0
 15 51  1  0  0  0  0
 16 52  1  0  0  0  0
 16 53  1  0  0  0  0
 17 23  2  0  0  0  0
 17 24  1  0  0  0  0
 18 54  1  0  0  0  0
 18 55  1  0  0  0  0
 18 56  1  0  0  0  0
 19 57  1  0  0  0  0
 19 58  1  0  0  0  0
 19 59  1  0  0  0  0
 20 21  1  0  0  0  0
 20 22  1  0  0  0  0
 20 60  1  0  0  0  0
 21 25  1  0  0  0  0
 21 62  1  0  0  0  0
 21 63  1  0  0  0  0
 23 29  1  0  0  0  0
 23 66  1  0  0  0  0
 24 30  2  0  0  0  0
 24 67  1  0  0  0  0
 25 28  1  0  0  0  0
 25 32  2  0  0  0  0
 26 27  1  0  0  0  0
 26 68  1  0  0  0  0
 26 69  1  0  0  0  0
 27 34  1  0  0  0  0
 27 70  1  0  0  0  0
 27 71  1  0  0  0  0
 28 33  1  0  0  0  0
 28 35  2  0  0  0  0
 29 31  2  0  0  0  0
 29 72  1  0  0  0  0
 30 31  1  0  0  0  0
 30 73  1  0  0  0  0
 32 36  1  0  0  0  0
 32 74  1  0  0  0  0
 33 37  1  0  0  0  0
 33 38  2  0  0  0  0
 34 39  1  0  0  0  0
 34 75  1  0  0  0  0
 34 76  1  0  0  0  0
 35 40  1  0  0  0  0
 35 77  1  0  0  0  0
 36 37  2  0  0  0  0
 36 78  1  0  0  0  0
 37 79  1  0  0  0  0
 38 41  1  0  0  0  0
 38 80  1  0  0  0  0
 39 81  1  0  0  0  0
 39 82  1  0  0  0  0
 39 83  1  0  0  0  0
 40 41  2  0  0  0  0
 40 84  1  0  0  0  0
 41 87  1  0  0  0  0
M  END
> <PUBCHEM_COMPOUND_CID>
513942
> <PUBCHEM_COMPOUND_CANONICALIZED>
1
> <PUBCHEM_CACTVS_COMPLEXITY>
856
> <PUBCHEM_CACTVS_HBOND_ACCEPTOR>
7
> <PUBCHEM_CACTVS_HBOND_DONOR>
4
> <PUBCHEM_CACTVS_ROTATABLE_BOND>
17
> <PUBCHEM_CACTVS_SUBSKEYS>
AAADcfB/uABAAAAAAAAAAAAAAAAAAAAAAAAwYMAAAAAAAADBVAAAHgQQSAAADSjh2AYywcLAAgKIAiVSUHDCABAgAgAIiJmIZIgKcDKAkbGUYABklgCYyAeYmMKOgAQCAAAQAAAACAQAACAAAAAAAAAAAA==
> <PUBCHEM_IUPAC_OPENEYE_NAME>
(2S)-N-[(4S)-4-[(4-aminophenyl)sulfonyl-isobutyl-amino]-5-hydroxy-pentyl]-2-(butylamino)-3-(1-naphthyl)propanamide
> <PUBCHEM_IUPAC_CAS_NAME>
(2S)-N-[(4S)-4-[(4-aminophenyl)sulfonyl-(2-methylpropyl)amino]-5-hydroxypentyl]-2-(butylamino)-3-(1-naphthalenyl)propanamide
> <PUBCHEM_IUPAC_NAME_MARKUP>
(2<I>S</I>)-<I>N</I>-[(4<I>S</I>)-4-[(4-aminophenyl)sulfonyl-(2-methylpropyl)amino]-5-hydroxypentyl]-2-(butylamino)-3-naphthalen-1-ylpropanamide
> <PUBCHEM_IUPAC_NAME>
(2S)-N-[(4S)-4-[(4-aminophenyl)sulfonyl-(2-methylpropyl)amino]-5-hydroxypentyl]-2-(butylamino)-3-naphthalen-1-ylpropanamide
> <PUBCHEM_IUPAC_SYSTEMATIC_NAME>
(2S)-N-[(4S)-4-[(4-aminophenyl)sulfonyl-(2-methylpropyl)amino]-5-oxidanyl-pentyl]-2-(butylamino)-3-naphthalen-1-yl-propanamide
> <PUBCHEM_IUPAC_TRADITIONAL_NAME>
(2S)-2-(butylamino)-N-[(4S)-5-hydroxy-4-[isobutyl(sulfanilyl)amino]pentyl]-3-(1-naphthyl)propionamide
> <PUBCHEM_IUPAC_INCHI>
InChI=1S/C32H46N4O4S/c1-4-5-19-34-31(21-26-12-8-11-25-10-6-7-14-30(25)26)32(38)35-20-9-13-28(23-37)36(22-24(2)3)41(39,40)29-17-15-27(33)16-18-29/h6-8,10-12,14-18,24,28,31,34,37H,4-5,9,13,19-23,33H2,1-3H3,(H,35,38)/t28-,31-/m0/s1
> <PUBCHEM_IUPAC_INCHIKEY>
PCPSBIZMBIBEMZ-IZEXYCQBSA-N
> <PUBCHEM_XLOGP3_AA>
5.2
> <PUBCHEM_EXACT_MASS>
582.32397713
> <PUBCHEM_MOLECULAR_FORMULA>
C32H46N4O4S
> <PUBCHEM_MOLECULAR_WEIGHT>
582.8
> <PUBCHEM_OPENEYE_CAN_SMILES>
CCCCNC(CC1=CC=CC2=CC=CC=C21)C(=O)NCCCC(CO)N(CC(C)C)S(=O)(=O)C3=CC=C(C=C3)N
> <PUBCHEM_OPENEYE_ISO_SMILES>
CCCCN[C@@H](CC1=CC=CC2=CC=CC=C21)C(=O)NCCC[C@@H](CO)N(CC(C)C)S(=O)(=O)C3=CC=C(C=C3)N
> <PUBCHEM_CACTVS_TPSA>
133
> <PUBCHEM_MONOISOTOPIC_WEIGHT>
582.32397713
> <PUBCHEM_TOTAL_CHARGE>
0
> <PUBCHEM_HEAVY_ATOM_COUNT>
41
> <PUBCHEM_ATOM_DEF_STEREO_COUNT>
2
> <PUBCHEM_ATOM_UDEF_STEREO_COUNT>
0
> <PUBCHEM_BOND_DEF_STEREO_COUNT>
0
> <PUBCHEM_BOND_UDEF_STEREO_COUNT>
0
> <PUBCHEM_ISOTOPIC_ATOM_COUNT>
0
> <PUBCHEM_COMPONENT_COUNT>
1
> <PUBCHEM_CACTVS_TAUTO_COUNT>
-1
> <PUBCHEM_COORDINATE_TYPE>
1
5
255
> <PUBCHEM_BONDANNOTATIONS>
17  23  8
17  24  8
23  29  8
24  30  8
25  28  8
25  32  8
28  33  8
28  35  8
29  31  8
30  31  8
32  36  8
33  37  8
33  38  8
35  40  8
36  37  8
38  41  8
40  41  8
10  6  6
20  8  5
$$$$
