513923
  -OEChem-10302200282D
 81 83  0     1  0  0  0  0  0999 V2000
    3.7320   -2.3450    0.0000 S   0  0  0  0  0  0  0  0  0  0  0  0
    5.4641   -2.3450    0.0000 O   0  0  0  0  0  0  0  0  0  0  0  0
    2.7320   -2.3450    0.0000 O   0  0  0  0  0  0  0  0  0  0  0  0
    4.7320   -2.3450    0.0000 O   0  0  0  0  0  0  0  0  0  0  0  0
    5.4641    3.6550    0.0000 O   0  0  0  0  0  0  0  0  0  0  0  0
    6.3301    6.1550    0.0000 O   0  0  0  0  0  0  0  0  0  0  0  0
    5.4641    4.6550    0.0000 O   0  0  0  0  0  0  0  0  0  0  0  0
    3.7320   -1.3450    0.0000 N   0  0  3  0  0  0  0  0  0  0  0  0
    6.3301    2.1550    0.0000 N   0  0  0  0  0  0  0  0  0  0  0  0
    7.1962    4.6550    0.0000 N   0  0  0  0  0  0  0  0  0  0  0  0
    3.7320   -6.3450    0.0000 N   0  0  0  0  0  0  0  0  0  0  0  0
    4.5981   -0.8450    0.0000 C   0  0  1  0  0  0  0  0  0  0  0  0
    4.5981    0.1550    0.0000 C   0  0  0  0  0  0  0  0  0  0  0  0
    2.8660   -0.8450    0.0000 C   0  0  0  0  0  0  0  0  0  0  0  0
    2.8660    0.1550    0.0000 C   0  0  0  0  0  0  0  0  0  0  0  0
    5.4641    0.6550    0.0000 C   0  0  0  0  0  0  0  0  0  0  0  0
    5.4641   -1.3450    0.0000 C   0  0  0  0  0  0  0  0  0  0  0  0
    5.4641    1.6550    0.0000 C   0  0  0  0  0  0  0  0  0  0  0  0
    3.7320   -3.3450    0.0000 C   0  0  0  0  0  0  0  0  0  0  0  0
    2.0000    0.6550    0.0000 C   0  0  0  0  0  0  0  0  0  0  0  0
    3.7320    0.6550    0.0000 C   0  0  0  0  0  0  0  0  0  0  0  0
    4.5981   -3.8450    0.0000 C   0  0  0  0  0  0  0  0  0  0  0  0
    2.8660   -3.8450    0.0000 C   0  0  0  0  0  0  0  0  0  0  0  0
    7.1962    3.6550    0.0000 C   0  0  2  0  0  0  0  0  0  0  0  0
    6.3301    3.1550    0.0000 C   0  0  0  0  0  0  0  0  0  0  0  0
    8.0622    3.1550    0.0000 C   0  0  0  0  0  0  0  0  0  0  0  0
    4.5981   -4.8450    0.0000 C   0  0  0  0  0  0  0  0  0  0  0  0
    2.8660   -4.8450    0.0000 C   0  0  0  0  0  0  0  0  0  0  0  0
    8.9282    3.6550    0.0000 C   0  0  0  0  0  0  0  0  0  0  0  0
    3.7320   -5.3450    0.0000 C   0  0  0  0  0  0  0  0  0  0  0  0
    9.7942    3.1550    0.0000 C   0  0  0  0  0  0  0  0  0  0  0  0
    8.9282    4.6550    0.0000 C   0  0  0  0  0  0  0  0  0  0  0  0
   10.6603    3.6550    0.0000 C   0  0  0  0  0  0  0  0  0  0  0  0
   10.6603    4.6550    0.0000 C   0  0  0  0  0  0  0  0  0  0  0  0
    9.7942    5.1550    0.0000 C   0  0  0  0  0  0  0  0  0  0  0  0
    6.3301    5.1550    0.0000 C   0  0  0  0  0  0  0  0  0  0  0  0
   11.5542    3.1203    0.0000 C   0  0  0  0  0  0  0  0  0  0  0  0
   11.5542    5.1897    0.0000 C   0  0  0  0  0  0  0  0  0  0  0  0
   12.4603    3.6342    0.0000 C   0  0  0  0  0  0  0  0  0  0  0  0
   12.4603    4.6758    0.0000 C   0  0  0  0  0  0  0  0  0  0  0  0
    5.4641    6.6550    0.0000 C   0  0  0  0  0  0  0  0  0  0  0  0
    4.5981   -1.4650    0.0000 H   0  0  0  0  0  0  0  0  0  0  0  0
    4.3860    0.7376    0.0000 H   0  0  0  0  0  0  0  0  0  0  0  0
    3.9875    0.0473    0.0000 H   0  0  0  0  0  0  0  0  0  0  0  0
    2.2554   -0.7373    0.0000 H   0  0  0  0  0  0  0  0  0  0  0  0
    2.6540   -1.4276    0.0000 H   0  0  0  0  0  0  0  0  0  0  0  0
    2.8660    0.7750    0.0000 H   0  0  0  0  0  0  0  0  0  0  0  0
    5.6762    0.0724    0.0000 H   0  0  0  0  0  0  0  0  0  0  0  0
    6.0747    0.7627    0.0000 H   0  0  0  0  0  0  0  0  0  0  0  0
    6.0747   -1.4527    0.0000 H   0  0  0  0  0  0  0  0  0  0  0  0
    5.6762   -0.7624    0.0000 H   0  0  0  0  0  0  0  0  0  0  0  0
    5.2520    2.2376    0.0000 H   0  0  0  0  0  0  0  0  0  0  0  0
    4.8535    1.5473    0.0000 H   0  0  0  0  0  0  0  0  0  0  0  0
    2.3100    1.1919    0.0000 H   0  0  0  0  0  0  0  0  0  0  0  0
    1.4631    0.9650    0.0000 H   0  0  0  0  0  0  0  0  0  0  0  0
    1.6900    0.1181    0.0000 H   0  0  0  0  0  0  0  0  0  0  0  0
    4.0420    0.1181    0.0000 H   0  0  0  0  0  0  0  0  0  0  0  0
    4.2690    0.9650    0.0000 H   0  0  0  0  0  0  0  0  0  0  0  0
    3.4220    1.1919    0.0000 H   0  0  0  0  0  0  0  0  0  0  0  0
    6.8671    1.8450    0.0000 H   0  0  0  0  0  0  0  0  0  0  0  0
    6.0010   -2.6550    0.0000 H   0  0  0  0  0  0  0  0  0  0  0  0
    5.1350   -3.5350    0.0000 H   0  0  0  0  0  0  0  0  0  0  0  0
    2.3291   -3.5350    0.0000 H   0  0  0  0  0  0  0  0  0  0  0  0
    6.6592    3.9650    0.0000 H   0  0  0  0  0  0  0  0  0  0  0  0
    7.6636    2.6800    0.0000 H   0  0  0  0  0  0  0  0  0  0  0  0
    8.4607    2.6800    0.0000 H   0  0  0  0  0  0  0  0  0  0  0  0
    5.1350   -5.1550    0.0000 H   0  0  0  0  0  0  0  0  0  0  0  0
    2.3291   -5.1550    0.0000 H   0  0  0  0  0  0  0  0  0  0  0  0
    7.7331    4.9650    0.0000 H   0  0  0  0  0  0  0  0  0  0  0  0
    9.7942    2.5350    0.0000 H   0  0  0  0  0  0  0  0  0  0  0  0
    8.3913    4.9650    0.0000 H   0  0  0  0  0  0  0  0  0  0  0  0
    9.7942    5.7750    0.0000 H   0  0  0  0  0  0  0  0  0  0  0  0
    3.1951   -6.6550    0.0000 H   0  0  0  0  0  0  0  0  0  0  0  0
    4.2690   -6.6550    0.0000 H   0  0  0  0  0  0  0  0  0  0  0  0
   11.5470    2.5004    0.0000 H   0  0  0  0  0  0  0  0  0  0  0  0
   11.5470    5.8096    0.0000 H   0  0  0  0  0  0  0  0  0  0  0  0
   12.9960    3.3221    0.0000 H   0  0  0  0  0  0  0  0  0  0  0  0
   12.9960    4.9879    0.0000 H   0  0  0  0  0  0  0  0  0  0  0  0
    5.7741    7.1919    0.0000 H   0  0  0  0  0  0  0  0  0  0  0  0
    4.9272    6.9650    0.0000 H   0  0  0  0  0  0  0  0  0  0  0  0
    5.1541    6.1181    0.0000 H   0  0  0  0  0  0  0  0  0  0  0  0
  1  3  2  0  0  0  0
  1  4  2  0  0  0  0
  1  8  1  0  0  0  0
  1 19  1  0  0  0  0
  2 17  1  0  0  0  0
  2 61  1  0  0  0  0
  5 25  2  0  0  0  0
  6 36  1  0  0  0  0
  6 41  1  0  0  0  0
  7 36  2  0  0  0  0
 12  8  1  1  0  0  0
  8 14  1  0  0  0  0
  9 18  1  0  0  0  0
  9 25  1  0  0  0  0
  9 60  1  0  0  0  0
 24 10  1  1  0  0  0
 10 36  1  0  0  0  0
 10 69  1  0  0  0  0
 11 30  1  0  0  0  0
 11 73  1  0  0  0  0
 11 74  1  0  0  0  0
 12 13  1  0  0  0  0
 12 17  1  0  0  0  0
 12 42  1  0  0  0  0
 13 16  1  0  0  0  0
 13 43  1  0  0  0  0
 13 44  1  0  0  0  0
 14 15  1  0  0  0  0
 14 45  1  0  0  0  0
 14 46  1  0  0  0  0
 15 20  1  0  0  0  0
 15 21  1  0  0  0  0
 15 47  1  0  0  0  0
 16 18  1  0  0  0  0
 16 48  1  0  0  0  0
 16 49  1  0  0  0  0
 17 50  1  0  0  0  0
 17 51  1  0  0  0  0
 18 52  1  0  0  0  0
 18 53  1  0  0  0  0
 19 22  2  0  0  0  0
 19 23  1  0  0  0  0
 20 54  1  0  0  0  0
 20 55  1  0  0  0  0
 20 56  1  0  0  0  0
 21 57  1  0  0  0  0
 21 58  1  0  0  0  0
 21 59  1  0  0  0  0
 22 27  1  0  0  0  0
 22 62  1  0  0  0  0
 23 28  2  0  0  0  0
 23 63  1  0  0  0  0
 24 25  1  0  0  0  0
 24 26  1  0  0  0  0
 24 64  1  0  0  0  0
 26 29  1  0  0  0  0
 26 65  1  0  0  0  0
 26 66  1  0  0  0  0
 27 30  2  0  0  0  0
 27 67  1  0  0  0  0
 28 30  1  0  0  0  0
 28 68  1  0  0  0  0
 29 31  2  0  0  0  0
 29 32  1  0  0  0  0
 31 33  1  0  0  0  0
 31 70  1  0  0  0  0
 32 35  2  0  0  0  0
 32 71  1  0  0  0  0
 33 34  1  0  0  0  0
 33 37  2  0  0  0  0
 34 35  1  0  0  0  0
 34 38  2  0  0  0  0
 35 72  1  0  0  0  0
 37 39  1  0  0  0  0
 37 75  1  0  0  0  0
 38 40  1  0  0  0  0
 38 76  1  0  0  0  0
 39 40  2  0  0  0  0
 39 77  1  0  0  0  0
 40 78  1  0  0  0  0
 41 79  1  0  0  0  0
 41 80  1  0  0  0  0
 41 81  1  0  0  0  0
M  END
> <PUBCHEM_COMPOUND_CID>
513923
> <PUBCHEM_COMPOUND_CANONICALIZED>
1
> <PUBCHEM_CACTVS_COMPLEXITY>
918
> <PUBCHEM_CACTVS_HBOND_ACCEPTOR>
8
> <PUBCHEM_CACTVS_HBOND_DONOR>
4
> <PUBCHEM_CACTVS_ROTATABLE_BOND>
15
> <PUBCHEM_CACTVS_SUBSKEYS>
AAADcfB7uABAAAAAAAAAAAAAAAAAAAAAAAAwYMAAAAAAAADBVAAAHgQQSAAADSjh2AYyycLABgKIAiVSWHDCABAgAgAIiJmIZIkKcDKAkbGUYABklgCYyAeYmMKOwAQCAAAQAACACAQAACAAAAAAAAAAAA==
> <PUBCHEM_IUPAC_OPENEYE_NAME>
methyl N-[(1S)-2-[[(4S)-4-[(4-aminophenyl)sulfonyl-isobutyl-amino]-5-hydroxy-pentyl]amino]-1-(2-naphthylmethyl)-2-oxo-ethyl]carbamate
> <PUBCHEM_IUPAC_CAS_NAME>
N-[(2S)-1-[[(4S)-4-[(4-aminophenyl)sulfonyl-(2-methylpropyl)amino]-5-hydroxypentyl]amino]-3-(2-naphthalenyl)-1-oxopropan-2-yl]carbamic acid methyl ester
> <PUBCHEM_IUPAC_NAME_MARKUP>
methyl <I>N</I>-[(2<I>S</I>)-1-[[(4<I>S</I>)-4-[(4-aminophenyl)sulfonyl-(2-methylpropyl)amino]-5-hydroxypentyl]amino]-3-naphthalen-2-yl-1-oxopropan-2-yl]carbamate
> <PUBCHEM_IUPAC_NAME>
methyl N-[(2S)-1-[[(4S)-4-[(4-aminophenyl)sulfonyl-(2-methylpropyl)amino]-5-hydroxypentyl]amino]-3-naphthalen-2-yl-1-oxopropan-2-yl]carbamate
> <PUBCHEM_IUPAC_SYSTEMATIC_NAME>
methyl N-[(2S)-1-[[(4S)-4-[(4-aminophenyl)sulfonyl-(2-methylpropyl)amino]-5-oxidanyl-pentyl]amino]-3-naphthalen-2-yl-1-oxidanylidene-propan-2-yl]carbamate
> <PUBCHEM_IUPAC_TRADITIONAL_NAME>
N-[(1S)-2-[[(4S)-5-hydroxy-4-[isobutyl(sulfanilyl)amino]pentyl]amino]-2-keto-1-(2-naphthylmethyl)ethyl]carbamic acid methyl ester
> <PUBCHEM_IUPAC_INCHI>
InChI=1S/C30H40N4O6S/c1-21(2)19-34(41(38,39)27-14-12-25(31)13-15-27)26(20-35)9-6-16-32-29(36)28(33-30(37)40-3)18-22-10-11-23-7-4-5-8-24(23)17-22/h4-5,7-8,10-15,17,21,26,28,35H,6,9,16,18-20,31H2,1-3H3,(H,32,36)(H,33,37)/t26-,28-/m0/s1
> <PUBCHEM_IUPAC_INCHIKEY>
GKYCIUQDYKZSRZ-XCZPVHLTSA-N
> <PUBCHEM_XLOGP3_AA>
4.1
> <PUBCHEM_EXACT_MASS>
584.26685618
> <PUBCHEM_MOLECULAR_FORMULA>
C30H40N4O6S
> <PUBCHEM_MOLECULAR_WEIGHT>
584.7
> <PUBCHEM_OPENEYE_CAN_SMILES>
CC(C)CN(C(CCCNC(=O)C(CC1=CC2=CC=CC=C2C=C1)NC(=O)OC)CO)S(=O)(=O)C3=CC=C(C=C3)N
> <PUBCHEM_OPENEYE_ISO_SMILES>
CC(C)CN([C@@H](CCCNC(=O)[C@H](CC1=CC2=CC=CC=C2C=C1)NC(=O)OC)CO)S(=O)(=O)C3=CC=C(C=C3)N
> <PUBCHEM_CACTVS_TPSA>
159
> <PUBCHEM_MONOISOTOPIC_WEIGHT>
584.26685618
> <PUBCHEM_TOTAL_CHARGE>
0
> <PUBCHEM_HEAVY_ATOM_COUNT>
41
> <PUBCHEM_ATOM_DEF_STEREO_COUNT>
2
> <PUBCHEM_ATOM_UDEF_STEREO_COUNT>
0
> <PUBCHEM_BOND_DEF_STEREO_COUNT>
0
> <PUBCHEM_BOND_UDEF_STEREO_COUNT>
0
> <PUBCHEM_ISOTOPIC_ATOM_COUNT>
0
> <PUBCHEM_COMPONENT_COUNT>
1
> <PUBCHEM_CACTVS_TAUTO_COUNT>
-1
> <PUBCHEM_COORDINATE_TYPE>
1
5
255
> <PUBCHEM_BONDANNOTATIONS>
24  10  5
19  22  8
19  23  8
22  27  8
23  28  8
27  30  8
28  30  8
29  31  8
29  32  8
31  33  8
32  35  8
33  34  8
33  37  8
34  35  8
34  38  8
37  39  8
38  40  8
39  40  8
12  8  5
$$$$
