513964
  -OEChem-10302200282D
 96 99  0     1  0  0  0  0  0999 V2000
    3.7320    3.0950    0.0000 S   0  0  0  0  0  0  0  0  0  0  0  0
    7.1962   -5.9050    0.0000 O   0  0  0  0  0  0  0  0  0  0  0  0
    6.3301    1.5950    0.0000 O   0  0  0  0  0  0  0  0  0  0  0  0
    2.7320    3.0950    0.0000 O   0  0  0  0  0  0  0  0  0  0  0  0
    4.7320    3.0950    0.0000 O   0  0  0  0  0  0  0  0  0  0  0  0
    8.0622   -2.4050    0.0000 O   0  0  0  0  0  0  0  0  0  0  0  0
    3.7320    2.0950    0.0000 N   0  0  3  0  0  0  0  0  0  0  0  0
    6.3301   -4.4050    0.0000 N   0  0  0  0  0  0  0  0  0  0  0  0
    6.3301   -2.4050    0.0000 N   0  0  0  0  0  0  0  0  0  0  0  0
    3.7320    7.0950    0.0000 N   0  0  0  0  0  0  0  0  0  0  0  0
    5.4641   -5.9050    0.0000 C   0  0  0  0  0  0  0  0  0  0  0  0
    5.4641   -6.9050    0.0000 C   0  0  0  0  0  0  0  0  0  0  0  0
    4.5981   -5.4050    0.0000 C   0  0  0  0  0  0  0  0  0  0  0  0
    4.5981   -7.4050    0.0000 C   0  0  0  0  0  0  0  0  0  0  0  0
    3.7320   -5.9050    0.0000 C   0  0  0  0  0  0  0  0  0  0  0  0
    3.7320   -6.9050    0.0000 C   0  0  0  0  0  0  0  0  0  0  0  0
    4.5981    1.5950    0.0000 C   0  0  1  0  0  0  0  0  0  0  0  0
    6.3301   -5.4050    0.0000 C   0  0  0  0  0  0  0  0  0  0  0  0
    4.5981    0.5950    0.0000 C   0  0  0  0  0  0  0  0  0  0  0  0
    2.8660    1.5950    0.0000 C   0  0  0  0  0  0  0  0  0  0  0  0
    5.4641    0.0950    0.0000 C   0  0  0  0  0  0  0  0  0  0  0  0
    7.1962   -3.9050    0.0000 C   0  0  1  0  0  0  0  0  0  0  0  0
    2.8660    0.5950    0.0000 C   0  0  0  0  0  0  0  0  0  0  0  0
    5.4641    2.0950    0.0000 C   0  0  0  0  0  0  0  0  0  0  0  0
    5.4641   -0.9050    0.0000 C   0  0  0  0  0  0  0  0  0  0  0  0
    6.3301   -1.4050    0.0000 C   0  0  0  0  0  0  0  0  0  0  0  0
    8.0622   -4.4050    0.0000 C   0  0  0  0  0  0  0  0  0  0  0  0
    7.1962   -2.9050    0.0000 C   0  0  0  0  0  0  0  0  0  0  0  0
    3.7320    4.0950    0.0000 C   0  0  0  0  0  0  0  0  0  0  0  0
    2.0000    0.0950    0.0000 C   0  0  0  0  0  0  0  0  0  0  0  0
    3.7320    0.0950    0.0000 C   0  0  0  0  0  0  0  0  0  0  0  0
    8.9282   -3.9050    0.0000 C   0  0  0  0  0  0  0  0  0  0  0  0
    4.5981    4.5950    0.0000 C   0  0  0  0  0  0  0  0  0  0  0  0
    2.8660    4.5950    0.0000 C   0  0  0  0  0  0  0  0  0  0  0  0
    9.7942   -4.4050    0.0000 C   0  0  0  0  0  0  0  0  0  0  0  0
    8.9282   -2.9050    0.0000 C   0  0  0  0  0  0  0  0  0  0  0  0
   10.6603   -3.9050    0.0000 C   0  0  0  0  0  0  0  0  0  0  0  0
    4.5981    5.5950    0.0000 C   0  0  0  0  0  0  0  0  0  0  0  0
    2.8660    5.5950    0.0000 C   0  0  0  0  0  0  0  0  0  0  0  0
   10.6603   -2.9050    0.0000 C   0  0  0  0  0  0  0  0  0  0  0  0
    3.7320    6.0950    0.0000 C   0  0  0  0  0  0  0  0  0  0  0  0
    9.7942   -2.4050    0.0000 C   0  0  0  0  0  0  0  0  0  0  0  0
   11.5542   -4.4397    0.0000 C   0  0  0  0  0  0  0  0  0  0  0  0
   11.5542   -2.3703    0.0000 C   0  0  0  0  0  0  0  0  0  0  0  0
   12.4603   -3.9258    0.0000 C   0  0  0  0  0  0  0  0  0  0  0  0
   12.4603   -2.8842    0.0000 C   0  0  0  0  0  0  0  0  0  0  0  0
    5.4641   -5.2850    0.0000 H   0  0  0  0  0  0  0  0  0  0  0  0
    5.6762   -7.4876    0.0000 H   0  0  0  0  0  0  0  0  0  0  0  0
    6.0747   -6.7973    0.0000 H   0  0  0  0  0  0  0  0  0  0  0  0
    4.9966   -4.9300    0.0000 H   0  0  0  0  0  0  0  0  0  0  0  0
    4.1996   -4.9300    0.0000 H   0  0  0  0  0  0  0  0  0  0  0  0
    4.1996   -7.8800    0.0000 H   0  0  0  0  0  0  0  0  0  0  0  0
    4.9966   -7.8800    0.0000 H   0  0  0  0  0  0  0  0  0  0  0  0
    3.5200   -5.3224    0.0000 H   0  0  0  0  0  0  0  0  0  0  0  0
    3.1215   -6.0127    0.0000 H   0  0  0  0  0  0  0  0  0  0  0  0
    3.1215   -6.7973    0.0000 H   0  0  0  0  0  0  0  0  0  0  0  0
    3.5200   -7.4876    0.0000 H   0  0  0  0  0  0  0  0  0  0  0  0
    4.5981    2.2150    0.0000 H   0  0  0  0  0  0  0  0  0  0  0  0
    3.9875    0.7027    0.0000 H   0  0  0  0  0  0  0  0  0  0  0  0
    4.3860    0.0124    0.0000 H   0  0  0  0  0  0  0  0  0  0  0  0
    2.6540    2.1776    0.0000 H   0  0  0  0  0  0  0  0  0  0  0  0
    2.2554    1.4873    0.0000 H   0  0  0  0  0  0  0  0  0  0  0  0
    6.0747   -0.0127    0.0000 H   0  0  0  0  0  0  0  0  0  0  0  0
    5.6762    0.6776    0.0000 H   0  0  0  0  0  0  0  0  0  0  0  0
    6.6592   -3.5950    0.0000 H   0  0  0  0  0  0  0  0  0  0  0  0
    5.7932   -4.0950    0.0000 H   0  0  0  0  0  0  0  0  0  0  0  0
    2.8660   -0.0250    0.0000 H   0  0  0  0  0  0  0  0  0  0  0  0
    5.8626    2.5700    0.0000 H   0  0  0  0  0  0  0  0  0  0  0  0
    5.0656    2.5700    0.0000 H   0  0  0  0  0  0  0  0  0  0  0  0
    4.8535   -0.7973    0.0000 H   0  0  0  0  0  0  0  0  0  0  0  0
    5.2520   -1.4876    0.0000 H   0  0  0  0  0  0  0  0  0  0  0  0
    6.9407   -1.5127    0.0000 H   0  0  0  0  0  0  0  0  0  0  0  0
    6.5422   -0.8224    0.0000 H   0  0  0  0  0  0  0  0  0  0  0  0
    7.6636   -4.8800    0.0000 H   0  0  0  0  0  0  0  0  0  0  0  0
    8.4607   -4.8800    0.0000 H   0  0  0  0  0  0  0  0  0  0  0  0
    5.7932   -2.7150    0.0000 H   0  0  0  0  0  0  0  0  0  0  0  0
    1.6900    0.6319    0.0000 H   0  0  0  0  0  0  0  0  0  0  0  0
    1.4631   -0.2150    0.0000 H   0  0  0  0  0  0  0  0  0  0  0  0
    2.3100   -0.4419    0.0000 H   0  0  0  0  0  0  0  0  0  0  0  0
    3.4220   -0.4419    0.0000 H   0  0  0  0  0  0  0  0  0  0  0  0
    4.2690   -0.2150    0.0000 H   0  0  0  0  0  0  0  0  0  0  0  0
    4.0420    0.6319    0.0000 H   0  0  0  0  0  0  0  0  0  0  0  0
    6.8671    1.9050    0.0000 H   0  0  0  0  0  0  0  0  0  0  0  0
    5.1350    4.2850    0.0000 H   0  0  0  0  0  0  0  0  0  0  0  0
    2.3291    4.2850    0.0000 H   0  0  0  0  0  0  0  0  0  0  0  0
    9.7942   -5.0250    0.0000 H   0  0  0  0  0  0  0  0  0  0  0  0
    8.3913   -2.5950    0.0000 H   0  0  0  0  0  0  0  0  0  0  0  0
    5.1350    5.9050    0.0000 H   0  0  0  0  0  0  0  0  0  0  0  0
    2.3291    5.9050    0.0000 H   0  0  0  0  0  0  0  0  0  0  0  0
    9.7942   -1.7850    0.0000 H   0  0  0  0  0  0  0  0  0  0  0  0
   11.5470   -5.0596    0.0000 H   0  0  0  0  0  0  0  0  0  0  0  0
   11.5470   -1.7504    0.0000 H   0  0  0  0  0  0  0  0  0  0  0  0
    3.1951    7.4050    0.0000 H   0  0  0  0  0  0  0  0  0  0  0  0
    4.2690    7.4050    0.0000 H   0  0  0  0  0  0  0  0  0  0  0  0
   12.9960   -4.2379    0.0000 H   0  0  0  0  0  0  0  0  0  0  0  0
   12.9960   -2.5721    0.0000 H   0  0  0  0  0  0  0  0  0  0  0  0
  1  4  2  0  0  0  0
  1  5  2  0  0  0  0
  1  7  1  0  0  0  0
  1 29  1  0  0  0  0
  2 18  2  0  0  0  0
  3 24  1  0  0  0  0
  3 83  1  0  0  0  0
  6 28  2  0  0  0  0
 17  7  1  6  0  0  0
  7 20  1  0  0  0  0
  8 18  1  0  0  0  0
 22  8  1  6  0  0  0
  8 66  1  0  0  0  0
  9 26  1  0  0  0  0
  9 28  1  0  0  0  0
  9 76  1  0  0  0  0
 10 41  1  0  0  0  0
 10 93  1  0  0  0  0
 10 94  1  0  0  0  0
 11 12  1  0  0  0  0
 11 13  1  0  0  0  0
 11 18  1  0  0  0  0
 11 47  1  0  0  0  0
 12 14  1  0  0  0  0
 12 48  1  0  0  0  0
 12 49  1  0  0  0  0
 13 15  1  0  0  0  0
 13 50  1  0  0  0  0
 13 51  1  0  0  0  0
 14 16  1  0  0  0  0
 14 52  1  0  0  0  0
 14 53  1  0  0  0  0
 15 16  1  0  0  0  0
 15 54  1  0  0  0  0
 15 55  1  0  0  0  0
 16 56  1  0  0  0  0
 16 57  1  0  0  0  0
 17 19  1  0  0  0  0
 17 24  1  0  0  0  0
 17 58  1  0  0  0  0
 19 21  1  0  0  0  0
 19 59  1  0  0  0  0
 19 60  1  0  0  0  0
 20 23  1  0  0  0  0
 20 61  1  0  0  0  0
 20 62  1  0  0  0  0
 21 25  1  0  0  0  0
 21 63  1  0  0  0  0
 21 64  1  0  0  0  0
 22 27  1  0  0  0  0
 22 28  1  0  0  0  0
 22 65  1  0  0  0  0
 23 30  1  0  0  0  0
 23 31  1  0  0  0  0
 23 67  1  0  0  0  0
 24 68  1  0  0  0  0
 24 69  1  0  0  0  0
 25 26  1  0  0  0  0
 25 70  1  0  0  0  0
 25 71  1  0  0  0  0
 26 72  1  0  0  0  0
 26 73  1  0  0  0  0
 27 32  1  0  0  0  0
 27 74  1  0  0  0  0
 27 75  1  0  0  0  0
 29 33  2  0  0  0  0
 29 34  1  0  0  0  0
 30 77  1  0  0  0  0
 30 78  1  0  0  0  0
 30 79  1  0  0  0  0
 31 80  1  0  0  0  0
 31 81  1  0  0  0  0
 31 82  1  0  0  0  0
 32 35  2  0  0  0  0
 32 36  1  0  0  0  0
 33 38  1  0  0  0  0
 33 84  1  0  0  0  0
 34 39  2  0  0  0  0
 34 85  1  0  0  0  0
 35 37  1  0  0  0  0
 35 86  1  0  0  0  0
 36 42  2  0  0  0  0
 36 87  1  0  0  0  0
 37 40  1  0  0  0  0
 37 43  2  0  0  0  0
 38 41  2  0  0  0  0
 38 88  1  0  0  0  0
 39 41  1  0  0  0  0
 39 89  1  0  0  0  0
 40 42  1  0  0  0  0
 40 44  2  0  0  0  0
 42 90  1  0  0  0  0
 43 45  1  0  0  0  0
 43 91  1  0  0  0  0
 44 46  1  0  0  0  0
 44 92  1  0  0  0  0
 45 46  2  0  0  0  0
 45 95  1  0  0  0  0
 46 96  1  0  0  0  0
M  END
> <PUBCHEM_COMPOUND_CID>
513964
> <PUBCHEM_COMPOUND_CANONICALIZED>
1
> <PUBCHEM_CACTVS_COMPLEXITY>
1040
> <PUBCHEM_CACTVS_HBOND_ACCEPTOR>
7
> <PUBCHEM_CACTVS_HBOND_DONOR>
4
> <PUBCHEM_CACTVS_ROTATABLE_BOND>
16
> <PUBCHEM_CACTVS_SUBSKEYS>
AAADcfB/uABAAAAAAAAAAAAAAAAAAAAAAAAwYMGAAAAAAADBVAAAHgQQSAAADSjh2AYywcLAAgKIAiVSUHDCABAgAgAIiJmIZIgKcDKAkbGUYABklgCYyAeYyMCOwAQCAAAQAACACAQAACAAAAAAAAAAAA==
> <PUBCHEM_IUPAC_OPENEYE_NAME>
N-[(1S)-2-[[(5S)-5-[(4-aminophenyl)sulfonyl-isobutyl-amino]-6-hydroxy-hexyl]amino]-1-(2-naphthylmethyl)-2-oxo-ethyl]cyclohexanecarboxamide
> <PUBCHEM_IUPAC_CAS_NAME>
N-[(2S)-1-[[(5S)-5-[(4-aminophenyl)sulfonyl-(2-methylpropyl)amino]-6-hydroxyhexyl]amino]-3-(2-naphthalenyl)-1-oxopropan-2-yl]cyclohexanecarboxamide
> <PUBCHEM_IUPAC_NAME_MARKUP>
<I>N</I>-[(2<I>S</I>)-1-[[(5<I>S</I>)-5-[(4-aminophenyl)sulfonyl-(2-methylpropyl)amino]-6-hydroxyhexyl]amino]-3-naphthalen-2-yl-1-oxopropan-2-yl]cyclohexanecarboxamide
> <PUBCHEM_IUPAC_NAME>
N-[(2S)-1-[[(5S)-5-[(4-aminophenyl)sulfonyl-(2-methylpropyl)amino]-6-hydroxyhexyl]amino]-3-naphthalen-2-yl-1-oxopropan-2-yl]cyclohexanecarboxamide
> <PUBCHEM_IUPAC_SYSTEMATIC_NAME>
N-[(2S)-1-[[(5S)-5-[(4-aminophenyl)sulfonyl-(2-methylpropyl)amino]-6-oxidanyl-hexyl]amino]-3-naphthalen-2-yl-1-oxidanylidene-propan-2-yl]cyclohexanecarboxamide
> <PUBCHEM_IUPAC_TRADITIONAL_NAME>
N-[(1S)-2-[[(5S)-6-hydroxy-5-[isobutyl(sulfanilyl)amino]hexyl]amino]-2-keto-1-(2-naphthylmethyl)ethyl]cyclohexanecarboxamide
> <PUBCHEM_IUPAC_INCHI>
InChI=1S/C36H50N4O5S/c1-26(2)24-40(46(44,45)33-19-17-31(37)18-20-33)32(25-41)14-8-9-21-38-36(43)34(39-35(42)29-11-4-3-5-12-29)23-27-15-16-28-10-6-7-13-30(28)22-27/h6-7,10,13,15-20,22,26,29,32,34,41H,3-5,8-9,11-12,14,21,23-25,37H2,1-2H3,(H,38,43)(H,39,42)/t32-,34-/m0/s1
> <PUBCHEM_IUPAC_INCHIKEY>
UZQDYUZQEYHFIL-TWJUONSBSA-N
> <PUBCHEM_XLOGP3_AA>
6.2
> <PUBCHEM_EXACT_MASS>
650.35019188
> <PUBCHEM_MOLECULAR_FORMULA>
C36H50N4O5S
> <PUBCHEM_MOLECULAR_WEIGHT>
650.9
> <PUBCHEM_OPENEYE_CAN_SMILES>
CC(C)CN(C(CCCCNC(=O)C(CC1=CC2=CC=CC=C2C=C1)NC(=O)C3CCCCC3)CO)S(=O)(=O)C4=CC=C(C=C4)N
> <PUBCHEM_OPENEYE_ISO_SMILES>
CC(C)CN([C@@H](CCCCNC(=O)[C@H](CC1=CC2=CC=CC=C2C=C1)NC(=O)C3CCCCC3)CO)S(=O)(=O)C4=CC=C(C=C4)N
> <PUBCHEM_CACTVS_TPSA>
150
> <PUBCHEM_MONOISOTOPIC_WEIGHT>
650.35019188
> <PUBCHEM_TOTAL_CHARGE>
0
> <PUBCHEM_HEAVY_ATOM_COUNT>
46
> <PUBCHEM_ATOM_DEF_STEREO_COUNT>
2
> <PUBCHEM_ATOM_UDEF_STEREO_COUNT>
0
> <PUBCHEM_BOND_DEF_STEREO_COUNT>
0
> <PUBCHEM_BOND_UDEF_STEREO_COUNT>
0
> <PUBCHEM_ISOTOPIC_ATOM_COUNT>
0
> <PUBCHEM_COMPONENT_COUNT>
1
> <PUBCHEM_CACTVS_TAUTO_COUNT>
-1
> <PUBCHEM_COORDINATE_TYPE>
1
5
255
> <PUBCHEM_BONDANNOTATIONS>
29  33  8
29  34  8
32  35  8
32  36  8
33  38  8
34  39  8
35  37  8
36  42  8
37  40  8
37  43  8
38  41  8
39  41  8
40  42  8
40  44  8
43  45  8
44  46  8
45  46  8
17  7  6
22  8  6
$$$$
