513988
  -OEChem-10302200282D
 94 98  0     1  0  0  0  0  0999 V2000
    6.1279    0.9827    0.0000 S   0  0  0  0  0  0  0  0  0  0  0  0
    8.7260    2.4827    0.0000 O   0  0  0  0  0  0  0  0  0  0  0  0
    5.6279    0.1166    0.0000 O   0  0  0  0  0  0  0  0  0  0  0  0
    6.6279    1.8487    0.0000 O   0  0  0  0  0  0  0  0  0  0  0  0
    2.5836    1.1779    0.0000 O   0  0  0  0  0  0  0  0  0  0  0  0
    2.5836    2.7874    0.0000 O   0  0  0  0  0  0  0  0  0  0  0  0
   14.7882   -4.0173    0.0000 O   0  0  0  0  0  0  0  0  0  0  0  0
   13.0561    1.9827    0.0000 O   0  0  0  0  0  0  0  0  0  0  0  0
   15.6542   -0.5173    0.0000 O   0  0  0  0  0  0  0  0  0  0  0  0
    6.9939    0.4827    0.0000 N   0  0  3  0  0  0  0  0  0  0  0  0
   12.1901    0.4827    0.0000 N   0  0  0  0  0  0  0  0  0  0  0  0
   13.9221   -0.5173    0.0000 N   0  0  0  0  0  0  0  0  0  0  0  0
   14.7882   -2.0173    0.0000 N   0  0  0  0  0  0  0  0  0  0  0  0
    7.8600    0.9827    0.0000 C   0  0  1  0  0  0  0  0  0  0  0  0
    8.7260    0.4827    0.0000 C   0  0  0  0  0  0  0  0  0  0  0  0
    6.9939   -0.5173    0.0000 C   0  0  0  0  0  0  0  0  0  0  0  0
    9.5920    0.9827    0.0000 C   0  0  0  0  0  0  0  0  0  0  0  0
    7.8600   -1.0173    0.0000 C   0  0  0  0  0  0  0  0  0  0  0  0
    7.8600    1.9827    0.0000 C   0  0  0  0  0  0  0  0  0  0  0  0
   10.4580    0.4827    0.0000 C   0  0  0  0  0  0  0  0  0  0  0  0
    5.2619    1.4827    0.0000 C   0  0  0  0  0  0  0  0  0  0  0  0
   11.3241    0.9827    0.0000 C   0  0  0  0  0  0  0  0  0  0  0  0
    7.8600   -2.0173    0.0000 C   0  0  0  0  0  0  0  0  0  0  0  0
    8.7260   -0.5173    0.0000 C   0  0  0  0  0  0  0  0  0  0  0  0
   13.9221    0.4827    0.0000 C   0  0  2  0  0  0  0  0  0  0  0  0
    4.3958    0.9827    0.0000 C   0  0  0  0  0  0  0  0  0  0  0  0
    5.2619    2.4827    0.0000 C   0  0  0  0  0  0  0  0  0  0  0  0
   13.0561    0.9827    0.0000 C   0  0  0  0  0  0  0  0  0  0  0  0
   14.7882    0.9827    0.0000 C   0  0  0  0  0  0  0  0  0  0  0  0
    3.5298    1.4827    0.0000 C   0  0  0  0  0  0  0  0  0  0  0  0
    4.3958    2.9827    0.0000 C   0  0  0  0  0  0  0  0  0  0  0  0
    3.5298    2.4827    0.0000 C   0  0  0  0  0  0  0  0  0  0  0  0
   14.7882    1.9827    0.0000 C   0  0  0  0  0  0  0  0  0  0  0  0
   14.7882   -1.0173    0.0000 C   0  0  0  0  0  0  0  0  0  0  0  0
   15.6542   -2.5173    0.0000 C   0  0  0  0  0  0  0  0  0  0  0  0
   13.9221   -2.5173    0.0000 C   0  0  0  0  0  0  0  0  0  0  0  0
   15.6542    2.4827    0.0000 C   0  0  0  0  0  0  0  0  0  0  0  0
   15.6542   -3.5173    0.0000 C   0  0  0  0  0  0  0  0  0  0  0  0
   13.9221   -3.5173    0.0000 C   0  0  0  0  0  0  0  0  0  0  0  0
    2.0000    1.9827    0.0000 C   0  0  0  0  0  0  0  0  0  0  0  0
   13.9221    2.4827    0.0000 C   0  0  0  0  0  0  0  0  0  0  0  0
   15.6542    3.4827    0.0000 C   0  0  0  0  0  0  0  0  0  0  0  0
   16.5481    1.9480    0.0000 C   0  0  0  0  0  0  0  0  0  0  0  0
   13.9221    3.4827    0.0000 C   0  0  0  0  0  0  0  0  0  0  0  0
   14.7882    3.9827    0.0000 C   0  0  0  0  0  0  0  0  0  0  0  0
   16.5481    4.0173    0.0000 C   0  0  0  0  0  0  0  0  0  0  0  0
   17.4542    2.4618    0.0000 C   0  0  0  0  0  0  0  0  0  0  0  0
   17.4542    3.5035    0.0000 C   0  0  0  0  0  0  0  0  0  0  0  0
    7.8600    0.3627    0.0000 H   0  0  0  0  0  0  0  0  0  0  0  0
    8.3274    0.0077    0.0000 H   0  0  0  0  0  0  0  0  0  0  0  0
    9.1245    0.0077    0.0000 H   0  0  0  0  0  0  0  0  0  0  0  0
    6.3834   -0.4097    0.0000 H   0  0  0  0  0  0  0  0  0  0  0  0
    6.7819   -1.0999    0.0000 H   0  0  0  0  0  0  0  0  0  0  0  0
    9.9905    1.4576    0.0000 H   0  0  0  0  0  0  0  0  0  0  0  0
    9.1935    1.4576    0.0000 H   0  0  0  0  0  0  0  0  0  0  0  0
    7.8600   -0.3973    0.0000 H   0  0  0  0  0  0  0  0  0  0  0  0
    7.6479    2.5653    0.0000 H   0  0  0  0  0  0  0  0  0  0  0  0
    7.2494    1.8750    0.0000 H   0  0  0  0  0  0  0  0  0  0  0  0
   10.0595    0.0077    0.0000 H   0  0  0  0  0  0  0  0  0  0  0  0
   10.8566    0.0077    0.0000 H   0  0  0  0  0  0  0  0  0  0  0  0
   11.7226    1.4576    0.0000 H   0  0  0  0  0  0  0  0  0  0  0  0
   10.9255    1.4576    0.0000 H   0  0  0  0  0  0  0  0  0  0  0  0
    7.2400   -2.0173    0.0000 H   0  0  0  0  0  0  0  0  0  0  0  0
    7.8600   -2.6373    0.0000 H   0  0  0  0  0  0  0  0  0  0  0  0
    8.4800   -2.0173    0.0000 H   0  0  0  0  0  0  0  0  0  0  0  0
    9.0360   -1.0543    0.0000 H   0  0  0  0  0  0  0  0  0  0  0  0
    9.2629   -0.2073    0.0000 H   0  0  0  0  0  0  0  0  0  0  0  0
    8.4160    0.0196    0.0000 H   0  0  0  0  0  0  0  0  0  0  0  0
   13.3852    0.1727    0.0000 H   0  0  0  0  0  0  0  0  0  0  0  0
   12.1901   -0.1373    0.0000 H   0  0  0  0  0  0  0  0  0  0  0  0
    4.3958    0.3627    0.0000 H   0  0  0  0  0  0  0  0  0  0  0  0
    5.7988    2.7927    0.0000 H   0  0  0  0  0  0  0  0  0  0  0  0
    8.7260    3.1027    0.0000 H   0  0  0  0  0  0  0  0  0  0  0  0
   15.0002    0.4001    0.0000 H   0  0  0  0  0  0  0  0  0  0  0  0
   15.3987    1.0903    0.0000 H   0  0  0  0  0  0  0  0  0  0  0  0
    4.3958    3.6027    0.0000 H   0  0  0  0  0  0  0  0  0  0  0  0
   13.3852   -0.8273    0.0000 H   0  0  0  0  0  0  0  0  0  0  0  0
   16.2648   -2.6250    0.0000 H   0  0  0  0  0  0  0  0  0  0  0  0
   15.8662   -1.9347    0.0000 H   0  0  0  0  0  0  0  0  0  0  0  0
   13.7101   -1.9347    0.0000 H   0  0  0  0  0  0  0  0  0  0  0  0
   13.3116   -2.6250    0.0000 H   0  0  0  0  0  0  0  0  0  0  0  0
   15.8662   -4.0999    0.0000 H   0  0  0  0  0  0  0  0  0  0  0  0
   16.2648   -3.4097    0.0000 H   0  0  0  0  0  0  0  0  0  0  0  0
   13.3116   -3.4097    0.0000 H   0  0  0  0  0  0  0  0  0  0  0  0
   13.7101   -4.0999    0.0000 H   0  0  0  0  0  0  0  0  0  0  0  0
    1.5391    2.3974    0.0000 H   0  0  0  0  0  0  0  0  0  0  0  0
    1.5391    1.5679    0.0000 H   0  0  0  0  0  0  0  0  0  0  0  0
   13.3852    2.1727    0.0000 H   0  0  0  0  0  0  0  0  0  0  0  0
   16.5410    1.3280    0.0000 H   0  0  0  0  0  0  0  0  0  0  0  0
   13.3852    3.7927    0.0000 H   0  0  0  0  0  0  0  0  0  0  0  0
   14.7882    4.6027    0.0000 H   0  0  0  0  0  0  0  0  0  0  0  0
   16.5410    4.6373    0.0000 H   0  0  0  0  0  0  0  0  0  0  0  0
   17.9899    2.1498    0.0000 H   0  0  0  0  0  0  0  0  0  0  0  0
   17.9899    3.8156    0.0000 H   0  0  0  0  0  0  0  0  0  0  0  0
  1  3  2  0  0  0  0
  1  4  2  0  0  0  0
  1 10  1  0  0  0  0
  1 21  1  0  0  0  0
  2 19  1  0  0  0  0
  2 73  1  0  0  0  0
  5 30  1  0  0  0  0
  5 40  1  0  0  0  0
  6 32  1  0  0  0  0
  6 40  1  0  0  0  0
  7 38  1  0  0  0  0
  7 39  1  0  0  0  0
  8 28  2  0  0  0  0
  9 34  2  0  0  0  0
 14 10  1  6  0  0  0
 10 16  1  0  0  0  0
 11 22  1  0  0  0  0
 11 28  1  0  0  0  0
 11 70  1  0  0  0  0
 25 12  1  6  0  0  0
 12 34  1  0  0  0  0
 12 77  1  0  0  0  0
 13 34  1  0  0  0  0
 13 35  1  0  0  0  0
 13 36  1  0  0  0  0
 14 15  1  0  0  0  0
 14 19  1  0  0  0  0
 14 49  1  0  0  0  0
 15 17  1  0  0  0  0
 15 50  1  0  0  0  0
 15 51  1  0  0  0  0
 16 18  1  0  0  0  0
 16 52  1  0  0  0  0
 16 53  1  0  0  0  0
 17 20  1  0  0  0  0
 17 54  1  0  0  0  0
 17 55  1  0  0  0  0
 18 23  1  0  0  0  0
 18 24  1  0  0  0  0
 18 56  1  0  0  0  0
 19 57  1  0  0  0  0
 19 58  1  0  0  0  0
 20 22  1  0  0  0  0
 20 59  1  0  0  0  0
 20 60  1  0  0  0  0
 21 26  2  0  0  0  0
 21 27  1  0  0  0  0
 22 61  1  0  0  0  0
 22 62  1  0  0  0  0
 23 63  1  0  0  0  0
 23 64  1  0  0  0  0
 23 65  1  0  0  0  0
 24 66  1  0  0  0  0
 24 67  1  0  0  0  0
 24 68  1  0  0  0  0
 25 28  1  0  0  0  0
 25 29  1  0  0  0  0
 25 69  1  0  0  0  0
 26 30  1  0  0  0  0
 26 71  1  0  0  0  0
 27 31  2  0  0  0  0
 27 72  1  0  0  0  0
 29 33  1  0  0  0  0
 29 74  1  0  0  0  0
 29 75  1  0  0  0  0
 30 32  2  0  0  0  0
 31 32  1  0  0  0  0
 31 76  1  0  0  0  0
 33 37  1  0  0  0  0
 33 41  2  0  0  0  0
 35 38  1  0  0  0  0
 35 78  1  0  0  0  0
 35 79  1  0  0  0  0
 36 39  1  0  0  0  0
 36 80  1  0  0  0  0
 36 81  1  0  0  0  0
 37 42  1  0  0  0  0
 37 43  2  0  0  0  0
 38 82  1  0  0  0  0
 38 83  1  0  0  0  0
 39 84  1  0  0  0  0
 39 85  1  0  0  0  0
 40 86  1  0  0  0  0
 40 87  1  0  0  0  0
 41 44  1  0  0  0  0
 41 88  1  0  0  0  0
 42 45  1  0  0  0  0
 42 46  2  0  0  0  0
 43 47  1  0  0  0  0
 43 89  1  0  0  0  0
 44 45  2  0  0  0  0
 44 90  1  0  0  0  0
 45 91  1  0  0  0  0
 46 48  1  0  0  0  0
 46 92  1  0  0  0  0
 47 48  2  0  0  0  0
 47 93  1  0  0  0  0
 48 94  1  0  0  0  0
M  END
> <PUBCHEM_COMPOUND_CID>
513988
> <PUBCHEM_COMPOUND_CANONICALIZED>
1
> <PUBCHEM_CACTVS_COMPLEXITY>
1130
> <PUBCHEM_CACTVS_HBOND_ACCEPTOR>
9
> <PUBCHEM_CACTVS_HBOND_DONOR>
3
> <PUBCHEM_CACTVS_ROTATABLE_BOND>
15
> <PUBCHEM_CACTVS_SUBSKEYS>
AAADcfB/vABAAAAAAAAAAAAAAAAAASAAAAA8YMEAAAAAAEjBVAAAHgQQSAAADSzh2AczD8PABgKIAiFSEHBCCBAgIAAIiJmOiIifdjKEsTu3cCIs1hOeqAeYyMCOgIACBAAQQAABAAQIACCAAAAAAAAAAA==
> <PUBCHEM_IUPAC_OPENEYE_NAME>
N-[(1S)-2-[[(5S)-5-[1,3-benzodioxol-5-ylsulfonyl(isobutyl)amino]-6-hydroxy-hexyl]amino]-1-(1-naphthylmethyl)-2-oxo-ethyl]morpholine-4-carboxamide
> <PUBCHEM_IUPAC_CAS_NAME>
N-[(2S)-1-[[(5S)-5-[1,3-benzodioxol-5-ylsulfonyl(2-methylpropyl)amino]-6-hydroxyhexyl]amino]-3-(1-naphthalenyl)-1-oxopropan-2-yl]-4-morpholinecarboxamide
> <PUBCHEM_IUPAC_NAME_MARKUP>
<I>N</I>-[(2<I>S</I>)-1-[[(5<I>S</I>)-5-[1,3-benzodioxol-5-ylsulfonyl(2-methylpropyl)amino]-6-hydroxyhexyl]amino]-3-naphthalen-1-yl-1-oxopropan-2-yl]morpholine-4-carboxamide
> <PUBCHEM_IUPAC_NAME>
N-[(2S)-1-[[(5S)-5-[1,3-benzodioxol-5-ylsulfonyl(2-methylpropyl)amino]-6-hydroxyhexyl]amino]-3-naphthalen-1-yl-1-oxopropan-2-yl]morpholine-4-carboxamide
> <PUBCHEM_IUPAC_SYSTEMATIC_NAME>
N-[(2S)-1-[[(5S)-5-[1,3-benzodioxol-5-ylsulfonyl(2-methylpropyl)amino]-6-oxidanyl-hexyl]amino]-3-naphthalen-1-yl-1-oxidanylidene-propan-2-yl]morpholine-4-carboxamide
> <PUBCHEM_IUPAC_TRADITIONAL_NAME>
N-[(1S)-2-[[(5S)-5-[1,3-benzodioxol-5-ylsulfonyl(isobutyl)amino]-6-hydroxy-hexyl]amino]-2-keto-1-(1-naphthylmethyl)ethyl]morpholine-4-carboxamide
> <PUBCHEM_IUPAC_INCHI>
InChI=1S/C35H46N4O8S/c1-25(2)22-39(48(43,44)29-13-14-32-33(21-29)47-24-46-32)28(23-40)11-5-6-15-36-34(41)31(37-35(42)38-16-18-45-19-17-38)20-27-10-7-9-26-8-3-4-12-30(26)27/h3-4,7-10,12-14,21,25,28,31,40H,5-6,11,15-20,22-24H2,1-2H3,(H,36,41)(H,37,42)/t28-,31-/m0/s1
> <PUBCHEM_IUPAC_INCHIKEY>
GJUMLRMKVKGCPD-IZEXYCQBSA-N
> <PUBCHEM_XLOGP3_AA>
4.2
> <PUBCHEM_EXACT_MASS>
682.30363561
> <PUBCHEM_MOLECULAR_FORMULA>
C35H46N4O8S
> <PUBCHEM_MOLECULAR_WEIGHT>
682.8
> <PUBCHEM_OPENEYE_CAN_SMILES>
CC(C)CN(C(CCCCNC(=O)C(CC1=CC=CC2=CC=CC=C21)NC(=O)N3CCOCC3)CO)S(=O)(=O)C4=CC5=C(C=C4)OCO5
> <PUBCHEM_OPENEYE_ISO_SMILES>
CC(C)CN([C@@H](CCCCNC(=O)[C@H](CC1=CC=CC2=CC=CC=C21)NC(=O)N3CCOCC3)CO)S(=O)(=O)C4=CC5=C(C=C4)OCO5
> <PUBCHEM_CACTVS_TPSA>
155
> <PUBCHEM_MONOISOTOPIC_WEIGHT>
682.30363561
> <PUBCHEM_TOTAL_CHARGE>
0
> <PUBCHEM_HEAVY_ATOM_COUNT>
48
> <PUBCHEM_ATOM_DEF_STEREO_COUNT>
2
> <PUBCHEM_ATOM_UDEF_STEREO_COUNT>
0
> <PUBCHEM_BOND_DEF_STEREO_COUNT>
0
> <PUBCHEM_BOND_UDEF_STEREO_COUNT>
0
> <PUBCHEM_ISOTOPIC_ATOM_COUNT>
0
> <PUBCHEM_COMPONENT_COUNT>
1
> <PUBCHEM_CACTVS_TAUTO_COUNT>
-1
> <PUBCHEM_COORDINATE_TYPE>
1
5
255
> <PUBCHEM_BONDANNOTATIONS>
14  10  6
25  12  6
21  26  8
21  27  8
26  30  8
27  31  8
30  32  8
31  32  8
33  37  8
33  41  8
37  42  8
37  43  8
41  44  8
42  45  8
42  46  8
43  47  8
44  45  8
46  48  8
47  48  8
$$$$
