513934
  -OEChem-10302200282D
 83 85  0     1  0  0  0  0  0999 V2000
    6.0010    0.1657    0.0000 S   0  0  0  0  0  0  0  0  0  0  0  0
   15.5273   -3.3343    0.0000 F   0  0  0  0  0  0  0  0  0  0  0  0
   14.1613   -3.7003    0.0000 F   0  0  0  0  0  0  0  0  0  0  0  0
   15.1613   -1.9683    0.0000 F   0  0  0  0  0  0  0  0  0  0  0  0
    6.8671   -1.3343    0.0000 O   0  0  0  0  0  0  0  0  0  0  0  0
    5.5010    1.0317    0.0000 O   0  0  0  0  0  0  0  0  0  0  0  0
    6.5010   -0.7003    0.0000 O   0  0  0  0  0  0  0  0  0  0  0  0
   12.0632    1.6657    0.0000 O   0  0  0  0  0  0  0  0  0  0  0  0
   14.6613   -0.8343    0.0000 O   0  0  0  0  0  0  0  0  0  0  0  0
    6.8671    0.6657    0.0000 N   0  0  3  0  0  0  0  0  0  0  0  0
   11.1972    0.1657    0.0000 N   0  0  0  0  0  0  0  0  0  0  0  0
   12.9292   -0.8343    0.0000 N   0  0  0  0  0  0  0  0  0  0  0  0
    2.5369   -1.8343    0.0000 N   0  0  0  0  0  0  0  0  0  0  0  0
    7.7331    0.1657    0.0000 C   0  0  1  0  0  0  0  0  0  0  0  0
    8.5991    0.6657    0.0000 C   0  0  0  0  0  0  0  0  0  0  0  0
    6.8671    1.6657    0.0000 C   0  0  0  0  0  0  0  0  0  0  0  0
    7.7331    2.1657    0.0000 C   0  0  0  0  0  0  0  0  0  0  0  0
    9.4651    0.1657    0.0000 C   0  0  0  0  0  0  0  0  0  0  0  0
    7.7331   -0.8343    0.0000 C   0  0  0  0  0  0  0  0  0  0  0  0
   10.3312    0.6657    0.0000 C   0  0  0  0  0  0  0  0  0  0  0  0
    5.1350   -0.3343    0.0000 C   0  0  0  0  0  0  0  0  0  0  0  0
    7.7331    3.1657    0.0000 C   0  0  0  0  0  0  0  0  0  0  0  0
    8.5991    1.6657    0.0000 C   0  0  0  0  0  0  0  0  0  0  0  0
   12.9292    0.1657    0.0000 C   0  0  2  0  0  0  0  0  0  0  0  0
   12.0632    0.6657    0.0000 C   0  0  0  0  0  0  0  0  0  0  0  0
    5.1350   -1.3343    0.0000 C   0  0  0  0  0  0  0  0  0  0  0  0
    4.2690    0.1657    0.0000 C   0  0  0  0  0  0  0  0  0  0  0  0
   13.7953    0.6657    0.0000 C   0  0  0  0  0  0  0  0  0  0  0  0
   13.7953    1.6657    0.0000 C   0  0  0  0  0  0  0  0  0  0  0  0
    4.2690   -1.8343    0.0000 C   0  0  0  0  0  0  0  0  0  0  0  0
    3.4030   -0.3343    0.0000 C   0  0  0  0  0  0  0  0  0  0  0  0
    3.4030   -1.3343    0.0000 C   0  0  0  0  0  0  0  0  0  0  0  0
   14.6613    2.1657    0.0000 C   0  0  0  0  0  0  0  0  0  0  0  0
   12.9292    2.1657    0.0000 C   0  0  0  0  0  0  0  0  0  0  0  0
   14.6613    3.1657    0.0000 C   0  0  0  0  0  0  0  0  0  0  0  0
   13.7953   -1.3343    0.0000 C   0  0  0  0  0  0  0  0  0  0  0  0
   15.5552    1.6310    0.0000 C   0  0  0  0  0  0  0  0  0  0  0  0
   12.9292    3.1657    0.0000 C   0  0  0  0  0  0  0  0  0  0  0  0
   13.7953    3.6657    0.0000 C   0  0  0  0  0  0  0  0  0  0  0  0
   13.7953   -2.3343    0.0000 C   0  0  0  0  0  0  0  0  0  0  0  0
   15.5552    3.7003    0.0000 C   0  0  0  0  0  0  0  0  0  0  0  0
   16.4613    2.1449    0.0000 C   0  0  0  0  0  0  0  0  0  0  0  0
   16.4613    3.1865    0.0000 C   0  0  0  0  0  0  0  0  0  0  0  0
   14.6613   -2.8343    0.0000 C   0  0  0  0  0  0  0  0  0  0  0  0
    7.7331    0.7857    0.0000 H   0  0  0  0  0  0  0  0  0  0  0  0
    8.9976    1.1406    0.0000 H   0  0  0  0  0  0  0  0  0  0  0  0
    8.2006    1.1406    0.0000 H   0  0  0  0  0  0  0  0  0  0  0  0
    6.6550    2.2483    0.0000 H   0  0  0  0  0  0  0  0  0  0  0  0
    6.2565    1.5580    0.0000 H   0  0  0  0  0  0  0  0  0  0  0  0
    7.7331    1.5457    0.0000 H   0  0  0  0  0  0  0  0  0  0  0  0
    9.0666   -0.3093    0.0000 H   0  0  0  0  0  0  0  0  0  0  0  0
    9.8637   -0.3093    0.0000 H   0  0  0  0  0  0  0  0  0  0  0  0
    7.9451   -1.4169    0.0000 H   0  0  0  0  0  0  0  0  0  0  0  0
    8.3437   -0.7267    0.0000 H   0  0  0  0  0  0  0  0  0  0  0  0
   10.7297    1.1406    0.0000 H   0  0  0  0  0  0  0  0  0  0  0  0
    9.9326    1.1406    0.0000 H   0  0  0  0  0  0  0  0  0  0  0  0
    8.3531    3.1657    0.0000 H   0  0  0  0  0  0  0  0  0  0  0  0
    7.7331    3.7857    0.0000 H   0  0  0  0  0  0  0  0  0  0  0  0
    7.1131    3.1657    0.0000 H   0  0  0  0  0  0  0  0  0  0  0  0
    8.2891    1.1288    0.0000 H   0  0  0  0  0  0  0  0  0  0  0  0
    9.1360    1.3557    0.0000 H   0  0  0  0  0  0  0  0  0  0  0  0
    8.9091    2.2026    0.0000 H   0  0  0  0  0  0  0  0  0  0  0  0
   11.1972   -0.4543    0.0000 H   0  0  0  0  0  0  0  0  0  0  0  0
   12.3923   -0.1443    0.0000 H   0  0  0  0  0  0  0  0  0  0  0  0
    6.8671   -1.9543    0.0000 H   0  0  0  0  0  0  0  0  0  0  0  0
    5.6720   -1.6443    0.0000 H   0  0  0  0  0  0  0  0  0  0  0  0
    4.2690    0.7857    0.0000 H   0  0  0  0  0  0  0  0  0  0  0  0
   14.0073    0.0831    0.0000 H   0  0  0  0  0  0  0  0  0  0  0  0
   14.4058    0.7733    0.0000 H   0  0  0  0  0  0  0  0  0  0  0  0
    4.2690   -2.4543    0.0000 H   0  0  0  0  0  0  0  0  0  0  0  0
    2.8660   -0.0243    0.0000 H   0  0  0  0  0  0  0  0  0  0  0  0
   12.3923   -1.1443    0.0000 H   0  0  0  0  0  0  0  0  0  0  0  0
   12.3923    1.8557    0.0000 H   0  0  0  0  0  0  0  0  0  0  0  0
   15.5481    1.0111    0.0000 H   0  0  0  0  0  0  0  0  0  0  0  0
   12.3923    3.4757    0.0000 H   0  0  0  0  0  0  0  0  0  0  0  0
   13.7953    4.2857    0.0000 H   0  0  0  0  0  0  0  0  0  0  0  0
   13.1847   -2.2267    0.0000 H   0  0  0  0  0  0  0  0  0  0  0  0
   13.5832   -2.9169    0.0000 H   0  0  0  0  0  0  0  0  0  0  0  0
   15.5481    4.3203    0.0000 H   0  0  0  0  0  0  0  0  0  0  0  0
    2.0000   -1.5243    0.0000 H   0  0  0  0  0  0  0  0  0  0  0  0
    2.5369   -2.4543    0.0000 H   0  0  0  0  0  0  0  0  0  0  0  0
   16.9970    1.8328    0.0000 H   0  0  0  0  0  0  0  0  0  0  0  0
   16.9970    3.4986    0.0000 H   0  0  0  0  0  0  0  0  0  0  0  0
  1  6  2  0  0  0  0
  1  7  2  0  0  0  0
  1 10  1  0  0  0  0
  1 21  1  0  0  0  0
  2 44  1  0  0  0  0
  3 44  1  0  0  0  0
  4 44  1  0  0  0  0
  5 19  1  0  0  0  0
  5 65  1  0  0  0  0
  8 25  2  0  0  0  0
  9 36  2  0  0  0  0
 14 10  1  1  0  0  0
 10 16  1  0  0  0  0
 11 20  1  0  0  0  0
 11 25  1  0  0  0  0
 11 63  1  0  0  0  0
 24 12  1  6  0  0  0
 12 36  1  0  0  0  0
 12 72  1  0  0  0  0
 13 32  1  0  0  0  0
 13 80  1  0  0  0  0
 13 81  1  0  0  0  0
 14 15  1  0  0  0  0
 14 19  1  0  0  0  0
 14 45  1  0  0  0  0
 15 18  1  0  0  0  0
 15 46  1  0  0  0  0
 15 47  1  0  0  0  0
 16 17  1  0  0  0  0
 16 48  1  0  0  0  0
 16 49  1  0  0  0  0
 17 22  1  0  0  0  0
 17 23  1  0  0  0  0
 17 50  1  0  0  0  0
 18 20  1  0  0  0  0
 18 51  1  0  0  0  0
 18 52  1  0  0  0  0
 19 53  1  0  0  0  0
 19 54  1  0  0  0  0
 20 55  1  0  0  0  0
 20 56  1  0  0  0  0
 21 26  2  0  0  0  0
 21 27  1  0  0  0  0
 22 57  1  0  0  0  0
 22 58  1  0  0  0  0
 22 59  1  0  0  0  0
 23 60  1  0  0  0  0
 23 61  1  0  0  0  0
 23 62  1  0  0  0  0
 24 25  1  0  0  0  0
 24 28  1  0  0  0  0
 24 64  1  0  0  0  0
 26 30  1  0  0  0  0
 26 66  1  0  0  0  0
 27 31  2  0  0  0  0
 27 67  1  0  0  0  0
 28 29  1  0  0  0  0
 28 68  1  0  0  0  0
 28 69  1  0  0  0  0
 29 33  1  0  0  0  0
 29 34  2  0  0  0  0
 30 32  2  0  0  0  0
 30 70  1  0  0  0  0
 31 32  1  0  0  0  0
 31 71  1  0  0  0  0
 33 35  1  0  0  0  0
 33 37  2  0  0  0  0
 34 38  1  0  0  0  0
 34 73  1  0  0  0  0
 35 39  1  0  0  0  0
 35 41  2  0  0  0  0
 36 40  1  0  0  0  0
 37 42  1  0  0  0  0
 37 74  1  0  0  0  0
 38 39  2  0  0  0  0
 38 75  1  0  0  0  0
 39 76  1  0  0  0  0
 40 44  1  0  0  0  0
 40 77  1  0  0  0  0
 40 78  1  0  0  0  0
 41 43  1  0  0  0  0
 41 79  1  0  0  0  0
 42 43  2  0  0  0  0
 42 82  1  0  0  0  0
 43 83  1  0  0  0  0
M  END
> <PUBCHEM_COMPOUND_CID>
513934
> <PUBCHEM_COMPOUND_CANONICALIZED>
1
> <PUBCHEM_CACTVS_COMPLEXITY>
1010
> <PUBCHEM_CACTVS_HBOND_ACCEPTOR>
10
> <PUBCHEM_CACTVS_HBOND_DONOR>
4
> <PUBCHEM_CACTVS_ROTATABLE_BOND>
15
> <PUBCHEM_CACTVS_SUBSKEYS>
AAADcfB7uYBAAAAAAAAAAAAAAAAAAAAAAAAwYMAAAAAAAADBVAAAHwQQSAAADSjh2BYywcLAAgKIAiVSUHDCABAgAgAIiJmIZIgKcDKAkbGUYABklgCYyAeYmMKOgAQCAAAQAAAACAQAACAAAAAAAAAAAA==
> <PUBCHEM_IUPAC_OPENEYE_NAME>
N-[(1S)-2-[[(4S)-4-[(4-aminophenyl)sulfonyl-isobutyl-amino]-5-hydroxy-pentyl]amino]-1-(1-naphthylmethyl)-2-oxo-ethyl]-3,3,3-trifluoro-propanamide
> <PUBCHEM_IUPAC_CAS_NAME>
N-[(2S)-1-[[(4S)-4-[(4-aminophenyl)sulfonyl-(2-methylpropyl)amino]-5-hydroxypentyl]amino]-3-(1-naphthalenyl)-1-oxopropan-2-yl]-3,3,3-trifluoropropanamide
> <PUBCHEM_IUPAC_NAME_MARKUP>
<I>N</I>-[(2<I>S</I>)-1-[[(4<I>S</I>)-4-[(4-aminophenyl)sulfonyl-(2-methylpropyl)amino]-5-hydroxypentyl]amino]-3-naphthalen-1-yl-1-oxopropan-2-yl]-3,3,3-trifluoropropanamide
> <PUBCHEM_IUPAC_NAME>
N-[(2S)-1-[[(4S)-4-[(4-aminophenyl)sulfonyl-(2-methylpropyl)amino]-5-hydroxypentyl]amino]-3-naphthalen-1-yl-1-oxopropan-2-yl]-3,3,3-trifluoropropanamide
> <PUBCHEM_IUPAC_SYSTEMATIC_NAME>
N-[(2S)-1-[[(4S)-4-[(4-aminophenyl)sulfonyl-(2-methylpropyl)amino]-5-oxidanyl-pentyl]amino]-3-naphthalen-1-yl-1-oxidanylidene-propan-2-yl]-3,3,3-tris(fluoranyl)propanamide
> <PUBCHEM_IUPAC_TRADITIONAL_NAME>
3,3,3-trifluoro-N-[(1S)-2-[[(4S)-5-hydroxy-4-[isobutyl(sulfanilyl)amino]pentyl]amino]-2-keto-1-(1-naphthylmethyl)ethyl]propionamide
> <PUBCHEM_IUPAC_INCHI>
InChI=1S/C31H39F3N4O5S/c1-21(2)19-38(44(42,43)26-14-12-24(35)13-15-26)25(20-39)10-6-16-36-30(41)28(37-29(40)18-31(32,33)34)17-23-9-5-8-22-7-3-4-11-27(22)23/h3-5,7-9,11-15,21,25,28,39H,6,10,16-20,35H2,1-2H3,(H,36,41)(H,37,40)/t25-,28-/m0/s1
> <PUBCHEM_IUPAC_INCHIKEY>
ATJIFKNIEZTEFA-LSYYVWMOSA-N
> <PUBCHEM_XLOGP3_AA>
4.8
> <PUBCHEM_EXACT_MASS>
636.25932602
> <PUBCHEM_MOLECULAR_FORMULA>
C31H39F3N4O5S
> <PUBCHEM_MOLECULAR_WEIGHT>
636.7
> <PUBCHEM_OPENEYE_CAN_SMILES>
CC(C)CN(C(CCCNC(=O)C(CC1=CC=CC2=CC=CC=C21)NC(=O)CC(F)(F)F)CO)S(=O)(=O)C3=CC=C(C=C3)N
> <PUBCHEM_OPENEYE_ISO_SMILES>
CC(C)CN([C@@H](CCCNC(=O)[C@H](CC1=CC=CC2=CC=CC=C21)NC(=O)CC(F)(F)F)CO)S(=O)(=O)C3=CC=C(C=C3)N
> <PUBCHEM_CACTVS_TPSA>
150
> <PUBCHEM_MONOISOTOPIC_WEIGHT>
636.25932602
> <PUBCHEM_TOTAL_CHARGE>
0
> <PUBCHEM_HEAVY_ATOM_COUNT>
44
> <PUBCHEM_ATOM_DEF_STEREO_COUNT>
2
> <PUBCHEM_ATOM_UDEF_STEREO_COUNT>
0
> <PUBCHEM_BOND_DEF_STEREO_COUNT>
0
> <PUBCHEM_BOND_UDEF_STEREO_COUNT>
0
> <PUBCHEM_ISOTOPIC_ATOM_COUNT>
0
> <PUBCHEM_COMPONENT_COUNT>
1
> <PUBCHEM_CACTVS_TAUTO_COUNT>
-1
> <PUBCHEM_COORDINATE_TYPE>
1
5
255
> <PUBCHEM_BONDANNOTATIONS>
14  10  5
24  12  6
21  26  8
21  27  8
26  30  8
27  31  8
29  33  8
29  34  8
30  32  8
31  32  8
33  35  8
33  37  8
34  38  8
35  39  8
35  41  8
37  42  8
38  39  8
41  43  8
42  43  8
$$$$
