513986
  -OEChem-10302200282D
 87 89  0     1  0  0  0  0  0999 V2000
    6.0010   -0.4400    0.0000 S   0  0  0  0  0  0  0  0  0  0  0  0
    8.5991   -1.9400    0.0000 O   0  0  0  0  0  0  0  0  0  0  0  0
    5.5010    0.4260    0.0000 O   0  0  0  0  0  0  0  0  0  0  0  0
    6.5010   -1.3060    0.0000 O   0  0  0  0  0  0  0  0  0  0  0  0
   12.9292   -1.4400    0.0000 O   0  0  0  0  0  0  0  0  0  0  0  0
    6.8671    0.0600    0.0000 N   0  0  3  0  0  0  0  0  0  0  0  0
   12.0632    0.0600    0.0000 N   0  0  0  0  0  0  0  0  0  0  0  0
   13.7953    1.0600    0.0000 N   0  0  0  0  0  0  0  0  0  0  0  0
    2.5369   -2.4400    0.0000 N   0  0  0  0  0  0  0  0  0  0  0  0
    7.7331   -0.4400    0.0000 C   0  0  1  0  0  0  0  0  0  0  0  0
    8.5991    0.0600    0.0000 C   0  0  0  0  0  0  0  0  0  0  0  0
    6.8671    1.0600    0.0000 C   0  0  0  0  0  0  0  0  0  0  0  0
    9.4651   -0.4400    0.0000 C   0  0  0  0  0  0  0  0  0  0  0  0
    7.7331    1.5600    0.0000 C   0  0  0  0  0  0  0  0  0  0  0  0
    7.7331   -1.4400    0.0000 C   0  0  0  0  0  0  0  0  0  0  0  0
   10.3312    0.0600    0.0000 C   0  0  0  0  0  0  0  0  0  0  0  0
   11.1972   -0.4400    0.0000 C   0  0  0  0  0  0  0  0  0  0  0  0
    5.1350   -0.9400    0.0000 C   0  0  0  0  0  0  0  0  0  0  0  0
    7.7331    2.5600    0.0000 C   0  0  0  0  0  0  0  0  0  0  0  0
    8.5991    1.0600    0.0000 C   0  0  0  0  0  0  0  0  0  0  0  0
   13.7953    0.0600    0.0000 C   0  0  2  0  0  0  0  0  0  0  0  0
    5.1350   -1.9400    0.0000 C   0  0  0  0  0  0  0  0  0  0  0  0
    4.2690   -0.4400    0.0000 C   0  0  0  0  0  0  0  0  0  0  0  0
   12.9292   -0.4400    0.0000 C   0  0  0  0  0  0  0  0  0  0  0  0
   14.6613   -0.4400    0.0000 C   0  0  0  0  0  0  0  0  0  0  0  0
   15.5273    0.0600    0.0000 C   0  0  0  0  0  0  0  0  0  0  0  0
    4.2690   -2.4400    0.0000 C   0  0  0  0  0  0  0  0  0  0  0  0
    3.4030   -0.9400    0.0000 C   0  0  0  0  0  0  0  0  0  0  0  0
   12.9292    1.5600    0.0000 C   0  0  0  0  0  0  0  0  0  0  0  0
    3.4030   -1.9400    0.0000 C   0  0  0  0  0  0  0  0  0  0  0  0
   12.9292    2.5600    0.0000 C   0  0  0  0  0  0  0  0  0  0  0  0
   16.3933   -0.4400    0.0000 C   0  0  0  0  0  0  0  0  0  0  0  0
   15.5273    1.0600    0.0000 C   0  0  0  0  0  0  0  0  0  0  0  0
   17.2594    0.0600    0.0000 C   0  0  0  0  0  0  0  0  0  0  0  0
   17.2594    1.0600    0.0000 C   0  0  0  0  0  0  0  0  0  0  0  0
   16.3933    1.5600    0.0000 C   0  0  0  0  0  0  0  0  0  0  0  0
   12.0632    3.0600    0.0000 C   0  0  0  0  0  0  0  0  0  0  0  0
   18.1533   -0.4747    0.0000 C   0  0  0  0  0  0  0  0  0  0  0  0
   18.1533    1.5947    0.0000 C   0  0  0  0  0  0  0  0  0  0  0  0
   19.0594    0.0392    0.0000 C   0  0  0  0  0  0  0  0  0  0  0  0
   19.0594    1.0808    0.0000 C   0  0  0  0  0  0  0  0  0  0  0  0
    7.7331    0.1800    0.0000 H   0  0  0  0  0  0  0  0  0  0  0  0
    8.9976    0.5349    0.0000 H   0  0  0  0  0  0  0  0  0  0  0  0
    8.2006    0.5349    0.0000 H   0  0  0  0  0  0  0  0  0  0  0  0
    6.6550    1.6426    0.0000 H   0  0  0  0  0  0  0  0  0  0  0  0
    6.2565    0.9523    0.0000 H   0  0  0  0  0  0  0  0  0  0  0  0
    9.0666   -0.9149    0.0000 H   0  0  0  0  0  0  0  0  0  0  0  0
    9.8637   -0.9149    0.0000 H   0  0  0  0  0  0  0  0  0  0  0  0
    7.7331    0.9400    0.0000 H   0  0  0  0  0  0  0  0  0  0  0  0
    7.1225   -1.3323    0.0000 H   0  0  0  0  0  0  0  0  0  0  0  0
    7.5210   -2.0226    0.0000 H   0  0  0  0  0  0  0  0  0  0  0  0
   10.7297    0.5349    0.0000 H   0  0  0  0  0  0  0  0  0  0  0  0
    9.9326    0.5349    0.0000 H   0  0  0  0  0  0  0  0  0  0  0  0
   10.7987   -0.9149    0.0000 H   0  0  0  0  0  0  0  0  0  0  0  0
   11.5957   -0.9149    0.0000 H   0  0  0  0  0  0  0  0  0  0  0  0
    8.3531    2.5600    0.0000 H   0  0  0  0  0  0  0  0  0  0  0  0
    7.7331    3.1800    0.0000 H   0  0  0  0  0  0  0  0  0  0  0  0
    7.1131    2.5600    0.0000 H   0  0  0  0  0  0  0  0  0  0  0  0
    8.2891    0.5231    0.0000 H   0  0  0  0  0  0  0  0  0  0  0  0
    9.1360    0.7500    0.0000 H   0  0  0  0  0  0  0  0  0  0  0  0
    8.9091    1.5969    0.0000 H   0  0  0  0  0  0  0  0  0  0  0  0
   12.0632    0.6800    0.0000 H   0  0  0  0  0  0  0  0  0  0  0  0
   14.3322    0.3700    0.0000 H   0  0  0  0  0  0  0  0  0  0  0  0
    8.5991   -2.5600    0.0000 H   0  0  0  0  0  0  0  0  0  0  0  0
    5.6720   -2.2500    0.0000 H   0  0  0  0  0  0  0  0  0  0  0  0
    4.2690    0.1800    0.0000 H   0  0  0  0  0  0  0  0  0  0  0  0
   14.2628   -0.9149    0.0000 H   0  0  0  0  0  0  0  0  0  0  0  0
   15.0598   -0.9149    0.0000 H   0  0  0  0  0  0  0  0  0  0  0  0
   14.3322    1.3700    0.0000 H   0  0  0  0  0  0  0  0  0  0  0  0
    4.2690   -3.0600    0.0000 H   0  0  0  0  0  0  0  0  0  0  0  0
    2.8660   -0.6300    0.0000 H   0  0  0  0  0  0  0  0  0  0  0  0
   12.3187    1.6677    0.0000 H   0  0  0  0  0  0  0  0  0  0  0  0
   12.7172    0.9774    0.0000 H   0  0  0  0  0  0  0  0  0  0  0  0
   13.5398    2.4523    0.0000 H   0  0  0  0  0  0  0  0  0  0  0  0
   13.1413    3.1426    0.0000 H   0  0  0  0  0  0  0  0  0  0  0  0
   16.3933   -1.0600    0.0000 H   0  0  0  0  0  0  0  0  0  0  0  0
   14.9904    1.3700    0.0000 H   0  0  0  0  0  0  0  0  0  0  0  0
   16.3933    2.1800    0.0000 H   0  0  0  0  0  0  0  0  0  0  0  0
   12.3732    3.5969    0.0000 H   0  0  0  0  0  0  0  0  0  0  0  0
   11.5263    3.3700    0.0000 H   0  0  0  0  0  0  0  0  0  0  0  0
   11.7532    2.5231    0.0000 H   0  0  0  0  0  0  0  0  0  0  0  0
    2.0000   -2.1300    0.0000 H   0  0  0  0  0  0  0  0  0  0  0  0
    2.5369   -3.0600    0.0000 H   0  0  0  0  0  0  0  0  0  0  0  0
   18.1461   -1.0946    0.0000 H   0  0  0  0  0  0  0  0  0  0  0  0
   18.1461    2.2146    0.0000 H   0  0  0  0  0  0  0  0  0  0  0  0
   19.5951   -0.2729    0.0000 H   0  0  0  0  0  0  0  0  0  0  0  0
   19.5951    1.3929    0.0000 H   0  0  0  0  0  0  0  0  0  0  0  0
  1  3  2  0  0  0  0
  1  4  2  0  0  0  0
  1  6  1  0  0  0  0
  1 18  1  0  0  0  0
  2 15  1  0  0  0  0
  2 64  1  0  0  0  0
  5 24  2  0  0  0  0
 10  6  1  1  0  0  0
  6 12  1  0  0  0  0
  7 17  1  0  0  0  0
  7 24  1  0  0  0  0
  7 62  1  0  0  0  0
 21  8  1  1  0  0  0
  8 29  1  0  0  0  0
  8 69  1  0  0  0  0
  9 30  1  0  0  0  0
  9 82  1  0  0  0  0
  9 83  1  0  0  0  0
 10 11  1  0  0  0  0
 10 15  1  0  0  0  0
 10 42  1  0  0  0  0
 11 13  1  0  0  0  0
 11 43  1  0  0  0  0
 11 44  1  0  0  0  0
 12 14  1  0  0  0  0
 12 45  1  0  0  0  0
 12 46  1  0  0  0  0
 13 16  1  0  0  0  0
 13 47  1  0  0  0  0
 13 48  1  0  0  0  0
 14 19  1  0  0  0  0
 14 20  1  0  0  0  0
 14 49  1  0  0  0  0
 15 50  1  0  0  0  0
 15 51  1  0  0  0  0
 16 17  1  0  0  0  0
 16 52  1  0  0  0  0
 16 53  1  0  0  0  0
 17 54  1  0  0  0  0
 17 55  1  0  0  0  0
 18 22  2  0  0  0  0
 18 23  1  0  0  0  0
 19 56  1  0  0  0  0
 19 57  1  0  0  0  0
 19 58  1  0  0  0  0
 20 59  1  0  0  0  0
 20 60  1  0  0  0  0
 20 61  1  0  0  0  0
 21 24  1  0  0  0  0
 21 25  1  0  0  0  0
 21 63  1  0  0  0  0
 22 27  1  0  0  0  0
 22 65  1  0  0  0  0
 23 28  2  0  0  0  0
 23 66  1  0  0  0  0
 25 26  1  0  0  0  0
 25 67  1  0  0  0  0
 25 68  1  0  0  0  0
 26 32  2  0  0  0  0
 26 33  1  0  0  0  0
 27 30  2  0  0  0  0
 27 70  1  0  0  0  0
 28 30  1  0  0  0  0
 28 71  1  0  0  0  0
 29 31  1  0  0  0  0
 29 72  1  0  0  0  0
 29 73  1  0  0  0  0
 31 37  1  0  0  0  0
 31 74  1  0  0  0  0
 31 75  1  0  0  0  0
 32 34  1  0  0  0  0
 32 76  1  0  0  0  0
 33 36  2  0  0  0  0
 33 77  1  0  0  0  0
 34 35  1  0  0  0  0
 34 38  2  0  0  0  0
 35 36  1  0  0  0  0
 35 39  2  0  0  0  0
 36 78  1  0  0  0  0
 37 79  1  0  0  0  0
 37 80  1  0  0  0  0
 37 81  1  0  0  0  0
 38 40  1  0  0  0  0
 38 84  1  0  0  0  0
 39 41  1  0  0  0  0
 39 85  1  0  0  0  0
 40 41  2  0  0  0  0
 40 86  1  0  0  0  0
 41 87  1  0  0  0  0
M  END
> <PUBCHEM_COMPOUND_CID>
513986
> <PUBCHEM_COMPOUND_CANONICALIZED>
1
> <PUBCHEM_CACTVS_COMPLEXITY>
856
> <PUBCHEM_CACTVS_HBOND_ACCEPTOR>
7
> <PUBCHEM_CACTVS_HBOND_DONOR>
4
> <PUBCHEM_CACTVS_ROTATABLE_BOND>
17
> <PUBCHEM_CACTVS_SUBSKEYS>
AAADcfB/uABAAAAAAAAAAAAAAAAAAAAAAAAwYMAAAAAAAADBVAAAHgQQSAAADSjh2AYywcLAAgKIAiVSUHDCABAgAgAIiJmIZIgKcDKAkbGUYABklgCYyAeYyMCOwAQCAAAQAACACAQAACAAAAAAAAAAAA==
> <PUBCHEM_IUPAC_OPENEYE_NAME>
(2S)-N-[(5S)-5-[(4-aminophenyl)sulfonyl-isobutyl-amino]-6-hydroxy-hexyl]-3-(2-naphthyl)-2-(propylamino)propanamide
> <PUBCHEM_IUPAC_CAS_NAME>
(2S)-N-[(5S)-5-[(4-aminophenyl)sulfonyl-(2-methylpropyl)amino]-6-hydroxyhexyl]-3-(2-naphthalenyl)-2-(propylamino)propanamide
> <PUBCHEM_IUPAC_NAME_MARKUP>
(2<I>S</I>)-<I>N</I>-[(5<I>S</I>)-5-[(4-aminophenyl)sulfonyl-(2-methylpropyl)amino]-6-hydroxyhexyl]-3-naphthalen-2-yl-2-(propylamino)propanamide
> <PUBCHEM_IUPAC_NAME>
(2S)-N-[(5S)-5-[(4-aminophenyl)sulfonyl-(2-methylpropyl)amino]-6-hydroxyhexyl]-3-naphthalen-2-yl-2-(propylamino)propanamide
> <PUBCHEM_IUPAC_SYSTEMATIC_NAME>
(2S)-N-[(5S)-5-[(4-aminophenyl)sulfonyl-(2-methylpropyl)amino]-6-oxidanyl-hexyl]-3-naphthalen-2-yl-2-(propylamino)propanamide
> <PUBCHEM_IUPAC_TRADITIONAL_NAME>
(2S)-N-[(5S)-6-hydroxy-5-[isobutyl(sulfanilyl)amino]hexyl]-3-(2-naphthyl)-2-(propylamino)propionamide
> <PUBCHEM_IUPAC_INCHI>
InChI=1S/C32H46N4O4S/c1-4-18-34-31(21-25-12-13-26-9-5-6-10-27(26)20-25)32(38)35-19-8-7-11-29(23-37)36(22-24(2)3)41(39,40)30-16-14-28(33)15-17-30/h5-6,9-10,12-17,20,24,29,31,34,37H,4,7-8,11,18-19,21-23,33H2,1-3H3,(H,35,38)/t29-,31-/m0/s1
> <PUBCHEM_IUPAC_INCHIKEY>
CQWPBDBKOCSRCR-SMCANUKXSA-N
> <PUBCHEM_XLOGP3_AA>
5.2
> <PUBCHEM_EXACT_MASS>
582.32397713
> <PUBCHEM_MOLECULAR_FORMULA>
C32H46N4O4S
> <PUBCHEM_MOLECULAR_WEIGHT>
582.8
> <PUBCHEM_OPENEYE_CAN_SMILES>
CCCNC(CC1=CC2=CC=CC=C2C=C1)C(=O)NCCCCC(CO)N(CC(C)C)S(=O)(=O)C3=CC=C(C=C3)N
> <PUBCHEM_OPENEYE_ISO_SMILES>
CCCN[C@@H](CC1=CC2=CC=CC=C2C=C1)C(=O)NCCCC[C@@H](CO)N(CC(C)C)S(=O)(=O)C3=CC=C(C=C3)N
> <PUBCHEM_CACTVS_TPSA>
133
> <PUBCHEM_MONOISOTOPIC_WEIGHT>
582.32397713
> <PUBCHEM_TOTAL_CHARGE>
0
> <PUBCHEM_HEAVY_ATOM_COUNT>
41
> <PUBCHEM_ATOM_DEF_STEREO_COUNT>
2
> <PUBCHEM_ATOM_UDEF_STEREO_COUNT>
0
> <PUBCHEM_BOND_DEF_STEREO_COUNT>
0
> <PUBCHEM_BOND_UDEF_STEREO_COUNT>
0
> <PUBCHEM_ISOTOPIC_ATOM_COUNT>
0
> <PUBCHEM_COMPONENT_COUNT>
1
> <PUBCHEM_CACTVS_TAUTO_COUNT>
-1
> <PUBCHEM_COORDINATE_TYPE>
1
5
255
> <PUBCHEM_BONDANNOTATIONS>
18  22  8
18  23  8
22  27  8
23  28  8
26  32  8
26  33  8
27  30  8
28  30  8
32  34  8
33  36  8
34  35  8
34  38  8
35  36  8
35  39  8
38  40  8
39  41  8
40  41  8
10  6  5
21  8  5
$$$$
