513992
  -OEChem-10302200282D
 90 93  0     1  0  0  0  0  0999 V2000
    6.0010   -1.1900    0.0000 S   0  0  0  0  0  0  0  0  0  0  0  0
    8.5991   -2.6900    0.0000 O   0  0  0  0  0  0  0  0  0  0  0  0
    5.5010   -0.3240    0.0000 O   0  0  0  0  0  0  0  0  0  0  0  0
    6.5010   -2.0560    0.0000 O   0  0  0  0  0  0  0  0  0  0  0  0
   12.9292   -2.1900    0.0000 O   0  0  0  0  0  0  0  0  0  0  0  0
    6.8671   -0.6900    0.0000 N   0  0  3  0  0  0  0  0  0  0  0  0
   12.0632   -0.6900    0.0000 N   0  0  0  0  0  0  0  0  0  0  0  0
   13.7953    0.3100    0.0000 N   0  0  0  0  0  0  0  0  0  0  0  0
    2.5369   -3.1900    0.0000 N   0  0  0  0  0  0  0  0  0  0  0  0
   13.7953    2.3100    0.0000 N   0  0  0  0  0  0  0  0  0  0  0  0
    7.7331   -1.1900    0.0000 C   0  0  1  0  0  0  0  0  0  0  0  0
    8.5991   -0.6900    0.0000 C   0  0  0  0  0  0  0  0  0  0  0  0
    6.8671    0.3100    0.0000 C   0  0  0  0  0  0  0  0  0  0  0  0
    9.4651   -1.1900    0.0000 C   0  0  0  0  0  0  0  0  0  0  0  0
    7.7331    0.8100    0.0000 C   0  0  0  0  0  0  0  0  0  0  0  0
    7.7331   -2.1900    0.0000 C   0  0  0  0  0  0  0  0  0  0  0  0
   10.3312   -0.6900    0.0000 C   0  0  0  0  0  0  0  0  0  0  0  0
    5.1350   -1.6900    0.0000 C   0  0  0  0  0  0  0  0  0  0  0  0
   11.1972   -1.1900    0.0000 C   0  0  0  0  0  0  0  0  0  0  0  0
    7.7331    1.8100    0.0000 C   0  0  0  0  0  0  0  0  0  0  0  0
    8.5991    0.3100    0.0000 C   0  0  0  0  0  0  0  0  0  0  0  0
   13.7953   -0.6900    0.0000 C   0  0  2  0  0  0  0  0  0  0  0  0
    4.2690   -1.1900    0.0000 C   0  0  0  0  0  0  0  0  0  0  0  0
    5.1350   -2.6900    0.0000 C   0  0  0  0  0  0  0  0  0  0  0  0
   12.9292   -1.1900    0.0000 C   0  0  0  0  0  0  0  0  0  0  0  0
   14.6613   -1.1900    0.0000 C   0  0  0  0  0  0  0  0  0  0  0  0
    3.4030   -1.6900    0.0000 C   0  0  0  0  0  0  0  0  0  0  0  0
    4.2690   -3.1900    0.0000 C   0  0  0  0  0  0  0  0  0  0  0  0
   15.5273   -0.6900    0.0000 C   0  0  0  0  0  0  0  0  0  0  0  0
    3.4030   -2.6900    0.0000 C   0  0  0  0  0  0  0  0  0  0  0  0
   12.9292    0.8100    0.0000 C   0  0  0  0  0  0  0  0  0  0  0  0
   16.3933   -1.1900    0.0000 C   0  0  0  0  0  0  0  0  0  0  0  0
   15.5273    0.3100    0.0000 C   0  0  0  0  0  0  0  0  0  0  0  0
   17.2594   -0.6900    0.0000 C   0  0  0  0  0  0  0  0  0  0  0  0
   17.2594    0.3100    0.0000 C   0  0  0  0  0  0  0  0  0  0  0  0
   16.3933    0.8100    0.0000 C   0  0  0  0  0  0  0  0  0  0  0  0
   12.9292    1.8100    0.0000 C   0  0  0  0  0  0  0  0  0  0  0  0
   18.1533   -1.2247    0.0000 C   0  0  0  0  0  0  0  0  0  0  0  0
   18.1533    0.8447    0.0000 C   0  0  0  0  0  0  0  0  0  0  0  0
   12.0632    2.3100    0.0000 C   0  0  0  0  0  0  0  0  0  0  0  0
   19.0594   -0.7108    0.0000 C   0  0  0  0  0  0  0  0  0  0  0  0
   19.0594    0.3308    0.0000 C   0  0  0  0  0  0  0  0  0  0  0  0
   12.0632    3.3100    0.0000 C   0  0  0  0  0  0  0  0  0  0  0  0
   13.7953    3.3100    0.0000 C   0  0  0  0  0  0  0  0  0  0  0  0
   12.9292    3.8100    0.0000 C   0  0  0  0  0  0  0  0  0  0  0  0
    7.1962   -1.5000    0.0000 H   0  0  0  0  0  0  0  0  0  0  0  0
    8.9976   -0.2151    0.0000 H   0  0  0  0  0  0  0  0  0  0  0  0
    8.2006   -0.2151    0.0000 H   0  0  0  0  0  0  0  0  0  0  0  0
    6.6550    0.8926    0.0000 H   0  0  0  0  0  0  0  0  0  0  0  0
    6.2565    0.2023    0.0000 H   0  0  0  0  0  0  0  0  0  0  0  0
    9.0666   -1.6650    0.0000 H   0  0  0  0  0  0  0  0  0  0  0  0
    9.8637   -1.6650    0.0000 H   0  0  0  0  0  0  0  0  0  0  0  0
    7.7331    0.1900    0.0000 H   0  0  0  0  0  0  0  0  0  0  0  0
    7.1225   -2.0823    0.0000 H   0  0  0  0  0  0  0  0  0  0  0  0
    7.5210   -2.7726    0.0000 H   0  0  0  0  0  0  0  0  0  0  0  0
   10.7297   -0.2151    0.0000 H   0  0  0  0  0  0  0  0  0  0  0  0
    9.9326   -0.2151    0.0000 H   0  0  0  0  0  0  0  0  0  0  0  0
   10.7987   -1.6650    0.0000 H   0  0  0  0  0  0  0  0  0  0  0  0
   11.5957   -1.6650    0.0000 H   0  0  0  0  0  0  0  0  0  0  0  0
    8.3531    1.8100    0.0000 H   0  0  0  0  0  0  0  0  0  0  0  0
    7.7331    2.4300    0.0000 H   0  0  0  0  0  0  0  0  0  0  0  0
    7.1131    1.8100    0.0000 H   0  0  0  0  0  0  0  0  0  0  0  0
    8.2891   -0.2269    0.0000 H   0  0  0  0  0  0  0  0  0  0  0  0
    9.1360    0.0000    0.0000 H   0  0  0  0  0  0  0  0  0  0  0  0
    8.9091    0.8469    0.0000 H   0  0  0  0  0  0  0  0  0  0  0  0
   12.0632   -0.0700    0.0000 H   0  0  0  0  0  0  0  0  0  0  0  0
    8.5991   -3.3100    0.0000 H   0  0  0  0  0  0  0  0  0  0  0  0
   14.3322   -0.3800    0.0000 H   0  0  0  0  0  0  0  0  0  0  0  0
    4.2690   -0.5700    0.0000 H   0  0  0  0  0  0  0  0  0  0  0  0
    5.6720   -3.0000    0.0000 H   0  0  0  0  0  0  0  0  0  0  0  0
   14.2628   -1.6650    0.0000 H   0  0  0  0  0  0  0  0  0  0  0  0
   15.0598   -1.6650    0.0000 H   0  0  0  0  0  0  0  0  0  0  0  0
    2.8660   -1.3800    0.0000 H   0  0  0  0  0  0  0  0  0  0  0  0
    4.2690   -3.8100    0.0000 H   0  0  0  0  0  0  0  0  0  0  0  0
   14.3322    0.6200    0.0000 H   0  0  0  0  0  0  0  0  0  0  0  0
   12.3187    0.9177    0.0000 H   0  0  0  0  0  0  0  0  0  0  0  0
   12.7172    0.2274    0.0000 H   0  0  0  0  0  0  0  0  0  0  0  0
   16.3933   -1.8100    0.0000 H   0  0  0  0  0  0  0  0  0  0  0  0
   14.9904    0.6200    0.0000 H   0  0  0  0  0  0  0  0  0  0  0  0
   16.3933    1.4300    0.0000 H   0  0  0  0  0  0  0  0  0  0  0  0
    2.0000   -2.8800    0.0000 H   0  0  0  0  0  0  0  0  0  0  0  0
    2.5369   -3.8100    0.0000 H   0  0  0  0  0  0  0  0  0  0  0  0
   18.1461   -1.8446    0.0000 H   0  0  0  0  0  0  0  0  0  0  0  0
   18.1461    1.4646    0.0000 H   0  0  0  0  0  0  0  0  0  0  0  0
   11.5263    2.0000    0.0000 H   0  0  0  0  0  0  0  0  0  0  0  0
   19.5951   -1.0229    0.0000 H   0  0  0  0  0  0  0  0  0  0  0  0
   19.5951    0.6429    0.0000 H   0  0  0  0  0  0  0  0  0  0  0  0
   11.5263    3.6200    0.0000 H   0  0  0  0  0  0  0  0  0  0  0  0
   14.3322    3.6200    0.0000 H   0  0  0  0  0  0  0  0  0  0  0  0
   12.9292    4.4300    0.0000 H   0  0  0  0  0  0  0  0  0  0  0  0
  1  3  2  0  0  0  0
  1  4  2  0  0  0  0
  1  6  1  0  0  0  0
  1 18  1  0  0  0  0
  2 16  1  0  0  0  0
  2 67  1  0  0  0  0
  5 25  2  0  0  0  0
 11  6  1  1  0  0  0
  6 13  1  0  0  0  0
  7 19  1  0  0  0  0
  7 25  1  0  0  0  0
  7 66  1  0  0  0  0
 22  8  1  1  0  0  0
  8 31  1  0  0  0  0
  8 75  1  0  0  0  0
  9 30  1  0  0  0  0
  9 81  1  0  0  0  0
  9 82  1  0  0  0  0
 10 37  1  0  0  0  0
 10 44  2  0  0  0  0
 11 12  1  0  0  0  0
 11 16  1  0  0  0  0
 11 46  1  0  0  0  0
 12 14  1  0  0  0  0
 12 47  1  0  0  0  0
 12 48  1  0  0  0  0
 13 15  1  0  0  0  0
 13 49  1  0  0  0  0
 13 50  1  0  0  0  0
 14 17  1  0  0  0  0
 14 51  1  0  0  0  0
 14 52  1  0  0  0  0
 15 20  1  0  0  0  0
 15 21  1  0  0  0  0
 15 53  1  0  0  0  0
 16 54  1  0  0  0  0
 16 55  1  0  0  0  0
 17 19  1  0  0  0  0
 17 56  1  0  0  0  0
 17 57  1  0  0  0  0
 18 23  2  0  0  0  0
 18 24  1  0  0  0  0
 19 58  1  0  0  0  0
 19 59  1  0  0  0  0
 20 60  1  0  0  0  0
 20 61  1  0  0  0  0
 20 62  1  0  0  0  0
 21 63  1  0  0  0  0
 21 64  1  0  0  0  0
 21 65  1  0  0  0  0
 22 25  1  0  0  0  0
 22 26  1  0  0  0  0
 22 68  1  0  0  0  0
 23 27  1  0  0  0  0
 23 69  1  0  0  0  0
 24 28  2  0  0  0  0
 24 70  1  0  0  0  0
 26 29  1  0  0  0  0
 26 71  1  0  0  0  0
 26 72  1  0  0  0  0
 27 30  2  0  0  0  0
 27 73  1  0  0  0  0
 28 30  1  0  0  0  0
 28 74  1  0  0  0  0
 29 32  2  0  0  0  0
 29 33  1  0  0  0  0
 31 37  1  0  0  0  0
 31 76  1  0  0  0  0
 31 77  1  0  0  0  0
 32 34  1  0  0  0  0
 32 78  1  0  0  0  0
 33 36  2  0  0  0  0
 33 79  1  0  0  0  0
 34 35  1  0  0  0  0
 34 38  2  0  0  0  0
 35 36  1  0  0  0  0
 35 39  2  0  0  0  0
 36 80  1  0  0  0  0
 37 40  2  0  0  0  0
 38 41  1  0  0  0  0
 38 83  1  0  0  0  0
 39 42  1  0  0  0  0
 39 84  1  0  0  0  0
 40 43  1  0  0  0  0
 40 85  1  0  0  0  0
 41 42  2  0  0  0  0
 41 86  1  0  0  0  0
 42 87  1  0  0  0  0
 43 45  2  0  0  0  0
 43 88  1  0  0  0  0
 44 45  1  0  0  0  0
 44 89  1  0  0  0  0
 45 90  1  0  0  0  0
M  END
> <PUBCHEM_COMPOUND_CID>
513992
> <PUBCHEM_COMPOUND_CANONICALIZED>
1
> <PUBCHEM_CACTVS_COMPLEXITY>
968
> <PUBCHEM_CACTVS_HBOND_ACCEPTOR>
8
> <PUBCHEM_CACTVS_HBOND_DONOR>
4
> <PUBCHEM_CACTVS_ROTATABLE_BOND>
17
> <PUBCHEM_CACTVS_SUBSKEYS>
AAADcfB/uABAAAAAAAAAAAAAAAAAAAAAAAA8YMEAAAAAAADB1AAAHgQQSAAADSjh3gY+wdLIEgKoAzV3VHDCgDAxAiAI2Lm4ZJgKcPLAkbGUYAhklgDYyAeYyMCOwAQCAAAQAACACAQAACAAAAAAAAAAAA==
> <PUBCHEM_IUPAC_OPENEYE_NAME>
(2S)-N-[(5S)-5-[(4-aminophenyl)sulfonyl-isobutyl-amino]-6-hydroxy-hexyl]-3-(2-naphthyl)-2-(2-pyridylmethylamino)propanamide
> <PUBCHEM_IUPAC_CAS_NAME>
(2S)-N-[(5S)-5-[(4-aminophenyl)sulfonyl-(2-methylpropyl)amino]-6-hydroxyhexyl]-3-(2-naphthalenyl)-2-(2-pyridinylmethylamino)propanamide
> <PUBCHEM_IUPAC_NAME_MARKUP>
(2<I>S</I>)-<I>N</I>-[(5<I>S</I>)-5-[(4-aminophenyl)sulfonyl-(2-methylpropyl)amino]-6-hydroxyhexyl]-3-naphthalen-2-yl-2-(pyridin-2-ylmethylamino)propanamide
> <PUBCHEM_IUPAC_NAME>
(2S)-N-[(5S)-5-[(4-aminophenyl)sulfonyl-(2-methylpropyl)amino]-6-hydroxyhexyl]-3-naphthalen-2-yl-2-(pyridin-2-ylmethylamino)propanamide
> <PUBCHEM_IUPAC_SYSTEMATIC_NAME>
(2S)-N-[(5S)-5-[(4-aminophenyl)sulfonyl-(2-methylpropyl)amino]-6-oxidanyl-hexyl]-3-naphthalen-2-yl-2-(pyridin-2-ylmethylamino)propanamide
> <PUBCHEM_IUPAC_TRADITIONAL_NAME>
(2S)-N-[(5S)-6-hydroxy-5-[isobutyl(sulfanilyl)amino]hexyl]-3-(2-naphthyl)-2-(2-pyridylmethylamino)propionamide
> <PUBCHEM_IUPAC_INCHI>
InChI=1S/C35H45N5O4S/c1-26(2)24-40(45(43,44)33-17-15-30(36)16-18-33)32(25-41)12-6-8-20-38-35(42)34(39-23-31-11-5-7-19-37-31)22-27-13-14-28-9-3-4-10-29(28)21-27/h3-5,7,9-11,13-19,21,26,32,34,39,41H,6,8,12,20,22-25,36H2,1-2H3,(H,38,42)/t32-,34-/m0/s1
> <PUBCHEM_IUPAC_INCHIKEY>
XCANMBXWBTYOBG-TWJUONSBSA-N
> <PUBCHEM_XLOGP3_AA>
4.8
> <PUBCHEM_EXACT_MASS>
631.31922611
> <PUBCHEM_MOLECULAR_FORMULA>
C35H45N5O4S
> <PUBCHEM_MOLECULAR_WEIGHT>
631.8
> <PUBCHEM_OPENEYE_CAN_SMILES>
CC(C)CN(C(CCCCNC(=O)C(CC1=CC2=CC=CC=C2C=C1)NCC3=CC=CC=N3)CO)S(=O)(=O)C4=CC=C(C=C4)N
> <PUBCHEM_OPENEYE_ISO_SMILES>
CC(C)CN([C@@H](CCCCNC(=O)[C@H](CC1=CC2=CC=CC=C2C=C1)NCC3=CC=CC=N3)CO)S(=O)(=O)C4=CC=C(C=C4)N
> <PUBCHEM_CACTVS_TPSA>
146
> <PUBCHEM_MONOISOTOPIC_WEIGHT>
631.31922611
> <PUBCHEM_TOTAL_CHARGE>
0
> <PUBCHEM_HEAVY_ATOM_COUNT>
45
> <PUBCHEM_ATOM_DEF_STEREO_COUNT>
2
> <PUBCHEM_ATOM_UDEF_STEREO_COUNT>
0
> <PUBCHEM_BOND_DEF_STEREO_COUNT>
0
> <PUBCHEM_BOND_UDEF_STEREO_COUNT>
0
> <PUBCHEM_ISOTOPIC_ATOM_COUNT>
0
> <PUBCHEM_COMPONENT_COUNT>
1
> <PUBCHEM_CACTVS_TAUTO_COUNT>
-1
> <PUBCHEM_COORDINATE_TYPE>
1
5
255
> <PUBCHEM_BONDANNOTATIONS>
10  37  8
10  44  8
18  23  8
18  24  8
23  27  8
24  28  8
27  30  8
28  30  8
29  32  8
29  33  8
32  34  8
33  36  8
34  35  8
34  38  8
35  36  8
35  39  8
37  40  8
38  41  8
39  42  8
40  43  8
41  42  8
43  45  8
44  45  8
11  6  5
22  8  5
$$$$
