513946
  -OEChem-10302200282D
 79 81  0     1  0  0  0  0  0999 V2000
    3.7320   -2.3450    0.0000 S   0  0  0  0  0  0  0  0  0  0  0  0
    6.3301   -0.8450    0.0000 O   0  0  0  0  0  0  0  0  0  0  0  0
    4.7320   -2.3450    0.0000 O   0  0  0  0  0  0  0  0  0  0  0  0
    2.7320   -2.3450    0.0000 O   0  0  0  0  0  0  0  0  0  0  0  0
    5.4641    3.6550    0.0000 O   0  0  0  0  0  0  0  0  0  0  0  0
    3.7320   -1.3450    0.0000 N   0  0  3  0  0  0  0  0  0  0  0  0
    6.3301    2.1550    0.0000 N   0  0  0  0  0  0  0  0  0  0  0  0
    8.0622    3.1550    0.0000 N   0  0  0  0  0  0  0  0  0  0  0  0
    3.7320   -6.3450    0.0000 N   0  0  0  0  0  0  0  0  0  0  0  0
    4.5981   -0.8450    0.0000 C   0  0  1  0  0  0  0  0  0  0  0  0
    4.5981    0.1550    0.0000 C   0  0  0  0  0  0  0  0  0  0  0  0
    2.8660   -0.8450    0.0000 C   0  0  0  0  0  0  0  0  0  0  0  0
    2.8660    0.1550    0.0000 C   0  0  0  0  0  0  0  0  0  0  0  0
    5.4641    0.6550    0.0000 C   0  0  0  0  0  0  0  0  0  0  0  0
    5.4641   -1.3450    0.0000 C   0  0  0  0  0  0  0  0  0  0  0  0
    5.4641    1.6550    0.0000 C   0  0  0  0  0  0  0  0  0  0  0  0
    3.7320   -3.3450    0.0000 C   0  0  0  0  0  0  0  0  0  0  0  0
    2.0000    0.6550    0.0000 C   0  0  0  0  0  0  0  0  0  0  0  0
    3.7320    0.6550    0.0000 C   0  0  0  0  0  0  0  0  0  0  0  0
    7.1962    4.6550    0.0000 C   0  0  0  0  0  0  0  0  0  0  0  0
    7.1962    3.6550    0.0000 C   0  0  1  0  0  0  0  0  0  0  0  0
    6.3301    3.1550    0.0000 C   0  0  0  0  0  0  0  0  0  0  0  0
    2.8660   -3.8450    0.0000 C   0  0  0  0  0  0  0  0  0  0  0  0
    4.5981   -3.8450    0.0000 C   0  0  0  0  0  0  0  0  0  0  0  0
    8.0622    5.1550    0.0000 C   0  0  0  0  0  0  0  0  0  0  0  0
    6.3301    5.1550    0.0000 C   0  0  0  0  0  0  0  0  0  0  0  0
    2.8660   -4.8450    0.0000 C   0  0  0  0  0  0  0  0  0  0  0  0
    4.5981   -4.8450    0.0000 C   0  0  0  0  0  0  0  0  0  0  0  0
    3.7320   -5.3450    0.0000 C   0  0  0  0  0  0  0  0  0  0  0  0
    8.0622    6.1550    0.0000 C   0  0  0  0  0  0  0  0  0  0  0  0
    5.4641    4.6550    0.0000 C   0  0  0  0  0  0  0  0  0  0  0  0
    8.9282    4.6550    0.0000 C   0  0  0  0  0  0  0  0  0  0  0  0
    6.3301    6.1550    0.0000 C   0  0  0  0  0  0  0  0  0  0  0  0
    8.9282    6.6550    0.0000 C   0  0  0  0  0  0  0  0  0  0  0  0
    4.5981    5.1550    0.0000 C   0  0  0  0  0  0  0  0  0  0  0  0
    9.7942    5.1550    0.0000 C   0  0  0  0  0  0  0  0  0  0  0  0
    5.4641    6.6550    0.0000 C   0  0  0  0  0  0  0  0  0  0  0  0
    9.7942    6.1550    0.0000 C   0  0  0  0  0  0  0  0  0  0  0  0
    4.5981    6.1550    0.0000 C   0  0  0  0  0  0  0  0  0  0  0  0
    4.5981   -1.4650    0.0000 H   0  0  0  0  0  0  0  0  0  0  0  0
    4.3860    0.7376    0.0000 H   0  0  0  0  0  0  0  0  0  0  0  0
    3.9875    0.0473    0.0000 H   0  0  0  0  0  0  0  0  0  0  0  0
    2.2554   -0.7373    0.0000 H   0  0  0  0  0  0  0  0  0  0  0  0
    2.6540   -1.4276    0.0000 H   0  0  0  0  0  0  0  0  0  0  0  0
    2.8660    0.7750    0.0000 H   0  0  0  0  0  0  0  0  0  0  0  0
    5.6762    0.0724    0.0000 H   0  0  0  0  0  0  0  0  0  0  0  0
    6.0747    0.7627    0.0000 H   0  0  0  0  0  0  0  0  0  0  0  0
    5.0656   -1.8200    0.0000 H   0  0  0  0  0  0  0  0  0  0  0  0
    5.8626   -1.8200    0.0000 H   0  0  0  0  0  0  0  0  0  0  0  0
    5.2520    2.2376    0.0000 H   0  0  0  0  0  0  0  0  0  0  0  0
    4.8535    1.5473    0.0000 H   0  0  0  0  0  0  0  0  0  0  0  0
    2.3100    1.1919    0.0000 H   0  0  0  0  0  0  0  0  0  0  0  0
    1.4631    0.9650    0.0000 H   0  0  0  0  0  0  0  0  0  0  0  0
    1.6900    0.1181    0.0000 H   0  0  0  0  0  0  0  0  0  0  0  0
    4.0420    0.1181    0.0000 H   0  0  0  0  0  0  0  0  0  0  0  0
    4.2690    0.9650    0.0000 H   0  0  0  0  0  0  0  0  0  0  0  0
    3.4220    1.1919    0.0000 H   0  0  0  0  0  0  0  0  0  0  0  0
    6.6592    4.3450    0.0000 H   0  0  0  0  0  0  0  0  0  0  0  0
    7.7331    3.9650    0.0000 H   0  0  0  0  0  0  0  0  0  0  0  0
    6.8671    1.8450    0.0000 H   0  0  0  0  0  0  0  0  0  0  0  0
    6.8671   -1.1550    0.0000 H   0  0  0  0  0  0  0  0  0  0  0  0
    2.3291   -3.5350    0.0000 H   0  0  0  0  0  0  0  0  0  0  0  0
    5.1350   -3.5350    0.0000 H   0  0  0  0  0  0  0  0  0  0  0  0
    8.0622    2.5350    0.0000 H   0  0  0  0  0  0  0  0  0  0  0  0
    8.5991    3.4650    0.0000 H   0  0  0  0  0  0  0  0  0  0  0  0
    2.3291   -5.1550    0.0000 H   0  0  0  0  0  0  0  0  0  0  0  0
    5.1350   -5.1550    0.0000 H   0  0  0  0  0  0  0  0  0  0  0  0
    7.5252    6.4650    0.0000 H   0  0  0  0  0  0  0  0  0  0  0  0
    5.4641    4.0350    0.0000 H   0  0  0  0  0  0  0  0  0  0  0  0
    8.9282    4.0350    0.0000 H   0  0  0  0  0  0  0  0  0  0  0  0
    6.8671    6.4650    0.0000 H   0  0  0  0  0  0  0  0  0  0  0  0
    8.9282    7.2750    0.0000 H   0  0  0  0  0  0  0  0  0  0  0  0
    4.0611    4.8450    0.0000 H   0  0  0  0  0  0  0  0  0  0  0  0
   10.3312    4.8450    0.0000 H   0  0  0  0  0  0  0  0  0  0  0  0
    5.4641    7.2750    0.0000 H   0  0  0  0  0  0  0  0  0  0  0  0
   10.3312    6.4650    0.0000 H   0  0  0  0  0  0  0  0  0  0  0  0
    4.0611    6.4650    0.0000 H   0  0  0  0  0  0  0  0  0  0  0  0
    3.1951   -6.6550    0.0000 H   0  0  0  0  0  0  0  0  0  0  0  0
    4.2690   -6.6550    0.0000 H   0  0  0  0  0  0  0  0  0  0  0  0
  1  3  2  0  0  0  0
  1  4  2  0  0  0  0
  1  6  1  0  0  0  0
  1 17  1  0  0  0  0
  2 15  1  0  0  0  0
  2 61  1  0  0  0  0
  5 22  2  0  0  0  0
 10  6  1  1  0  0  0
  6 12  1  0  0  0  0
  7 16  1  0  0  0  0
  7 22  1  0  0  0  0
  7 60  1  0  0  0  0
 21  8  1  6  0  0  0
  8 64  1  0  0  0  0
  8 65  1  0  0  0  0
  9 29  1  0  0  0  0
  9 78  1  0  0  0  0
  9 79  1  0  0  0  0
 10 11  1  0  0  0  0
 10 15  1  0  0  0  0
 10 40  1  0  0  0  0
 11 14  1  0  0  0  0
 11 41  1  0  0  0  0
 11 42  1  0  0  0  0
 12 13  1  0  0  0  0
 12 43  1  0  0  0  0
 12 44  1  0  0  0  0
 13 18  1  0  0  0  0
 13 19  1  0  0  0  0
 13 45  1  0  0  0  0
 14 16  1  0  0  0  0
 14 46  1  0  0  0  0
 14 47  1  0  0  0  0
 15 48  1  0  0  0  0
 15 49  1  0  0  0  0
 16 50  1  0  0  0  0
 16 51  1  0  0  0  0
 17 23  2  0  0  0  0
 17 24  1  0  0  0  0
 18 52  1  0  0  0  0
 18 53  1  0  0  0  0
 18 54  1  0  0  0  0
 19 55  1  0  0  0  0
 19 56  1  0  0  0  0
 19 57  1  0  0  0  0
 20 21  1  0  0  0  0
 20 25  1  0  0  0  0
 20 26  1  0  0  0  0
 20 58  1  0  0  0  0
 21 22  1  0  0  0  0
 21 59  1  0  0  0  0
 23 27  1  0  0  0  0
 23 62  1  0  0  0  0
 24 28  2  0  0  0  0
 24 63  1  0  0  0  0
 25 30  2  0  0  0  0
 25 32  1  0  0  0  0
 26 31  2  0  0  0  0
 26 33  1  0  0  0  0
 27 29  2  0  0  0  0
 27 66  1  0  0  0  0
 28 29  1  0  0  0  0
 28 67  1  0  0  0  0
 30 34  1  0  0  0  0
 30 68  1  0  0  0  0
 31 35  1  0  0  0  0
 31 69  1  0  0  0  0
 32 36  2  0  0  0  0
 32 70  1  0  0  0  0
 33 37  2  0  0  0  0
 33 71  1  0  0  0  0
 34 38  2  0  0  0  0
 34 72  1  0  0  0  0
 35 39  2  0  0  0  0
 35 73  1  0  0  0  0
 36 38  1  0  0  0  0
 36 74  1  0  0  0  0
 37 39  1  0  0  0  0
 37 75  1  0  0  0  0
 38 76  1  0  0  0  0
 39 77  1  0  0  0  0
M  END
> <PUBCHEM_COMPOUND_CID>
513946
> <PUBCHEM_COMPOUND_CANONICALIZED>
1
> <PUBCHEM_CACTVS_COMPLEXITY>
795
> <PUBCHEM_CACTVS_HBOND_ACCEPTOR>
7
> <PUBCHEM_CACTVS_HBOND_DONOR>
4
> <PUBCHEM_CACTVS_ROTATABLE_BOND>
14
> <PUBCHEM_CACTVS_SUBSKEYS>
AAADcfB7uABAAAAAAAAAAAAAAAAAAAAAAAAwYMAAAAAAAAABUAAAHgQQSAAADSjh2AYywYLAAgKIAiVSUHDCABAgAgAIiJmIZIgKcDKAkZGUYABklgCYyAeYmMKOgAQAAAAAAAAACAAAAAAAAAAAAAAAAA==
> <PUBCHEM_IUPAC_OPENEYE_NAME>
(2S)-2-amino-N-[(4S)-4-[(4-aminophenyl)sulfonyl-isobutyl-amino]-5-hydroxy-pentyl]-3,3-diphenyl-propanamide
> <PUBCHEM_IUPAC_CAS_NAME>
(2S)-2-amino-N-[(4S)-4-[(4-aminophenyl)sulfonyl-(2-methylpropyl)amino]-5-hydroxypentyl]-3,3-diphenylpropanamide
> <PUBCHEM_IUPAC_NAME_MARKUP>
(2<I>S</I>)-2-amino-<I>N</I>-[(4<I>S</I>)-4-[(4-aminophenyl)sulfonyl-(2-methylpropyl)amino]-5-hydroxypentyl]-3,3-diphenylpropanamide
> <PUBCHEM_IUPAC_NAME>
(2S)-2-amino-N-[(4S)-4-[(4-aminophenyl)sulfonyl-(2-methylpropyl)amino]-5-hydroxypentyl]-3,3-diphenylpropanamide
> <PUBCHEM_IUPAC_SYSTEMATIC_NAME>
(2S)-N-[(4S)-4-[(4-aminophenyl)sulfonyl-(2-methylpropyl)amino]-5-oxidanyl-pentyl]-2-azanyl-3,3-diphenyl-propanamide
> <PUBCHEM_IUPAC_TRADITIONAL_NAME>
(2S)-2-amino-N-[(4S)-5-hydroxy-4-[isobutyl(sulfanilyl)amino]pentyl]-3,3-diphenyl-propionamide
> <PUBCHEM_IUPAC_INCHI>
InChI=1S/C30H40N4O4S/c1-22(2)20-34(39(37,38)27-17-15-25(31)16-18-27)26(21-35)14-9-19-33-30(36)29(32)28(23-10-5-3-6-11-23)24-12-7-4-8-13-24/h3-8,10-13,15-18,22,26,28-29,35H,9,14,19-21,31-32H2,1-2H3,(H,33,36)/t26-,29-/m0/s1
> <PUBCHEM_IUPAC_INCHIKEY>
KNFFLUCVCBEAHR-WNJJXGMVSA-N
> <PUBCHEM_XLOGP3_AA>
3.7
> <PUBCHEM_EXACT_MASS>
552.27702694
> <PUBCHEM_MOLECULAR_FORMULA>
C30H40N4O4S
> <PUBCHEM_MOLECULAR_WEIGHT>
552.7
> <PUBCHEM_OPENEYE_CAN_SMILES>
CC(C)CN(C(CCCNC(=O)C(C(C1=CC=CC=C1)C2=CC=CC=C2)N)CO)S(=O)(=O)C3=CC=C(C=C3)N
> <PUBCHEM_OPENEYE_ISO_SMILES>
CC(C)CN([C@@H](CCCNC(=O)[C@H](C(C1=CC=CC=C1)C2=CC=CC=C2)N)CO)S(=O)(=O)C3=CC=C(C=C3)N
> <PUBCHEM_CACTVS_TPSA>
147
> <PUBCHEM_MONOISOTOPIC_WEIGHT>
552.27702694
> <PUBCHEM_TOTAL_CHARGE>
0
> <PUBCHEM_HEAVY_ATOM_COUNT>
39
> <PUBCHEM_ATOM_DEF_STEREO_COUNT>
2
> <PUBCHEM_ATOM_UDEF_STEREO_COUNT>
0
> <PUBCHEM_BOND_DEF_STEREO_COUNT>
0
> <PUBCHEM_BOND_UDEF_STEREO_COUNT>
0
> <PUBCHEM_ISOTOPIC_ATOM_COUNT>
0
> <PUBCHEM_COMPONENT_COUNT>
1
> <PUBCHEM_CACTVS_TAUTO_COUNT>
-1
> <PUBCHEM_COORDINATE_TYPE>
1
5
255
> <PUBCHEM_BONDANNOTATIONS>
17  23  8
17  24  8
23  27  8
24  28  8
25  30  8
25  32  8
26  31  8
26  33  8
27  29  8
28  29  8
30  34  8
31  35  8
32  36  8
33  37  8
34  38  8
35  39  8
36  38  8
37  39  8
10  6  5
21  8  6
$$$$
