513970
  -OEChem-10302200282D
 83 85  0     1  0  0  0  0  0999 V2000
    6.0010   -3.1900    0.0000 S   0  0  0  0  0  0  0  0  0  0  0  0
    6.0010   -0.1900    0.0000 O   0  0  0  0  0  0  0  0  0  0  0  0
    6.5010   -4.0560    0.0000 O   0  0  0  0  0  0  0  0  0  0  0  0
    5.5010   -2.3240    0.0000 O   0  0  0  0  0  0  0  0  0  0  0  0
    8.5991    3.3100    0.0000 O   0  0  0  0  0  0  0  0  0  0  0  0
    8.5991    4.3100    0.0000 O   0  0  0  0  0  0  0  0  0  0  0  0
    6.8671   -2.6900    0.0000 N   0  0  3  0  0  0  0  0  0  0  0  0
    9.4651    1.8100    0.0000 N   0  0  0  0  0  0  0  0  0  0  0  0
   10.3312    4.3100    0.0000 N   0  0  0  0  0  0  0  0  0  0  0  0
    2.5369   -5.1900    0.0000 N   0  0  0  0  0  0  0  0  0  0  0  0
    6.8671   -1.6900    0.0000 C   0  0  1  0  0  0  0  0  0  0  0  0
    7.7331   -1.1900    0.0000 C   0  0  0  0  0  0  0  0  0  0  0  0
    7.7331   -3.1900    0.0000 C   0  0  0  0  0  0  0  0  0  0  0  0
    7.7331   -0.1900    0.0000 C   0  0  0  0  0  0  0  0  0  0  0  0
    8.5991   -2.6900    0.0000 C   0  0  0  0  0  0  0  0  0  0  0  0
    6.0010   -1.1900    0.0000 C   0  0  0  0  0  0  0  0  0  0  0  0
    8.5991    0.3100    0.0000 C   0  0  0  0  0  0  0  0  0  0  0  0
    5.1350   -3.6900    0.0000 C   0  0  0  0  0  0  0  0  0  0  0  0
    9.4651   -3.1900    0.0000 C   0  0  0  0  0  0  0  0  0  0  0  0
    8.5991   -1.6900    0.0000 C   0  0  0  0  0  0  0  0  0  0  0  0
    8.5991    1.3100    0.0000 C   0  0  0  0  0  0  0  0  0  0  0  0
    5.1350   -4.6900    0.0000 C   0  0  0  0  0  0  0  0  0  0  0  0
    4.2690   -3.1900    0.0000 C   0  0  0  0  0  0  0  0  0  0  0  0
   10.3312    3.3100    0.0000 C   0  0  2  0  0  0  0  0  0  0  0  0
    9.4651    2.8100    0.0000 C   0  0  0  0  0  0  0  0  0  0  0  0
   11.1972    2.8100    0.0000 C   0  0  0  0  0  0  0  0  0  0  0  0
    4.2690   -5.1900    0.0000 C   0  0  0  0  0  0  0  0  0  0  0  0
    3.4030   -3.6900    0.0000 C   0  0  0  0  0  0  0  0  0  0  0  0
    3.4030   -4.6900    0.0000 C   0  0  0  0  0  0  0  0  0  0  0  0
   12.0632    3.3100    0.0000 C   0  0  0  0  0  0  0  0  0  0  0  0
   12.9292    2.8100    0.0000 C   0  0  0  0  0  0  0  0  0  0  0  0
   12.0632    4.3100    0.0000 C   0  0  0  0  0  0  0  0  0  0  0  0
   13.7953    3.3100    0.0000 C   0  0  0  0  0  0  0  0  0  0  0  0
   13.7953    4.3100    0.0000 C   0  0  0  0  0  0  0  0  0  0  0  0
   12.9292    4.8100    0.0000 C   0  0  0  0  0  0  0  0  0  0  0  0
    9.4651    4.8100    0.0000 C   0  0  0  0  0  0  0  0  0  0  0  0
   14.6892    2.7753    0.0000 C   0  0  0  0  0  0  0  0  0  0  0  0
   14.6892    4.8447    0.0000 C   0  0  0  0  0  0  0  0  0  0  0  0
    9.4651    5.8100    0.0000 C   0  0  0  0  0  0  0  0  0  0  0  0
   15.5953    3.2892    0.0000 C   0  0  0  0  0  0  0  0  0  0  0  0
   15.5953    4.3308    0.0000 C   0  0  0  0  0  0  0  0  0  0  0  0
    6.3301   -2.0000    0.0000 H   0  0  0  0  0  0  0  0  0  0  0  0
    7.9451   -1.7726    0.0000 H   0  0  0  0  0  0  0  0  0  0  0  0
    8.3437   -1.0823    0.0000 H   0  0  0  0  0  0  0  0  0  0  0  0
    7.3346   -3.6650    0.0000 H   0  0  0  0  0  0  0  0  0  0  0  0
    8.1316   -3.6650    0.0000 H   0  0  0  0  0  0  0  0  0  0  0  0
    7.5210    0.3926    0.0000 H   0  0  0  0  0  0  0  0  0  0  0  0
    7.1225   -0.2977    0.0000 H   0  0  0  0  0  0  0  0  0  0  0  0
    8.5991   -3.3100    0.0000 H   0  0  0  0  0  0  0  0  0  0  0  0
    5.3905   -1.0823    0.0000 H   0  0  0  0  0  0  0  0  0  0  0  0
    5.7890   -1.7726    0.0000 H   0  0  0  0  0  0  0  0  0  0  0  0
    8.8112   -0.2726    0.0000 H   0  0  0  0  0  0  0  0  0  0  0  0
    9.2097    0.4177    0.0000 H   0  0  0  0  0  0  0  0  0  0  0  0
    9.1551   -3.7269    0.0000 H   0  0  0  0  0  0  0  0  0  0  0  0
   10.0021   -3.5000    0.0000 H   0  0  0  0  0  0  0  0  0  0  0  0
    9.7751   -2.6531    0.0000 H   0  0  0  0  0  0  0  0  0  0  0  0
    9.2191   -1.6900    0.0000 H   0  0  0  0  0  0  0  0  0  0  0  0
    8.5991   -1.0700    0.0000 H   0  0  0  0  0  0  0  0  0  0  0  0
    7.9791   -1.6900    0.0000 H   0  0  0  0  0  0  0  0  0  0  0  0
    8.3871    1.8926    0.0000 H   0  0  0  0  0  0  0  0  0  0  0  0
    7.9885    1.2023    0.0000 H   0  0  0  0  0  0  0  0  0  0  0  0
    5.4641    0.1200    0.0000 H   0  0  0  0  0  0  0  0  0  0  0  0
   10.0021    1.5000    0.0000 H   0  0  0  0  0  0  0  0  0  0  0  0
    5.6720   -5.0000    0.0000 H   0  0  0  0  0  0  0  0  0  0  0  0
    4.2690   -2.5700    0.0000 H   0  0  0  0  0  0  0  0  0  0  0  0
   10.8681    3.6200    0.0000 H   0  0  0  0  0  0  0  0  0  0  0  0
   10.7987    2.3350    0.0000 H   0  0  0  0  0  0  0  0  0  0  0  0
   11.5957    2.3350    0.0000 H   0  0  0  0  0  0  0  0  0  0  0  0
    4.2690   -5.8100    0.0000 H   0  0  0  0  0  0  0  0  0  0  0  0
    2.8660   -3.3800    0.0000 H   0  0  0  0  0  0  0  0  0  0  0  0
   10.8681    4.6200    0.0000 H   0  0  0  0  0  0  0  0  0  0  0  0
   12.9292    2.1900    0.0000 H   0  0  0  0  0  0  0  0  0  0  0  0
   11.5263    4.6200    0.0000 H   0  0  0  0  0  0  0  0  0  0  0  0
   12.9292    5.4300    0.0000 H   0  0  0  0  0  0  0  0  0  0  0  0
    2.5369   -5.8100    0.0000 H   0  0  0  0  0  0  0  0  0  0  0  0
    2.0000   -4.8800    0.0000 H   0  0  0  0  0  0  0  0  0  0  0  0
   14.6820    2.1554    0.0000 H   0  0  0  0  0  0  0  0  0  0  0  0
   14.6820    5.4646    0.0000 H   0  0  0  0  0  0  0  0  0  0  0  0
   10.0851    5.8100    0.0000 H   0  0  0  0  0  0  0  0  0  0  0  0
    9.4651    6.4300    0.0000 H   0  0  0  0  0  0  0  0  0  0  0  0
    8.8451    5.8100    0.0000 H   0  0  0  0  0  0  0  0  0  0  0  0
   16.1310    2.9771    0.0000 H   0  0  0  0  0  0  0  0  0  0  0  0
   16.1310    4.6429    0.0000 H   0  0  0  0  0  0  0  0  0  0  0  0
  1  3  2  0  0  0  0
  1  4  2  0  0  0  0
  1  7  1  0  0  0  0
  1 18  1  0  0  0  0
  2 16  1  0  0  0  0
  2 62  1  0  0  0  0
  5 25  2  0  0  0  0
  6 36  2  0  0  0  0
 11  7  1  6  0  0  0
  7 13  1  0  0  0  0
  8 21  1  0  0  0  0
  8 25  1  0  0  0  0
  8 63  1  0  0  0  0
 24  9  1  1  0  0  0
  9 36  1  0  0  0  0
  9 71  1  0  0  0  0
 10 29  1  0  0  0  0
 10 75  1  0  0  0  0
 10 76  1  0  0  0  0
 11 12  1  0  0  0  0
 11 16  1  0  0  0  0
 11 42  1  0  0  0  0
 12 14  1  0  0  0  0
 12 43  1  0  0  0  0
 12 44  1  0  0  0  0
 13 15  1  0  0  0  0
 13 45  1  0  0  0  0
 13 46  1  0  0  0  0
 14 17  1  0  0  0  0
 14 47  1  0  0  0  0
 14 48  1  0  0  0  0
 15 19  1  0  0  0  0
 15 20  1  0  0  0  0
 15 49  1  0  0  0  0
 16 50  1  0  0  0  0
 16 51  1  0  0  0  0
 17 21  1  0  0  0  0
 17 52  1  0  0  0  0
 17 53  1  0  0  0  0
 18 22  2  0  0  0  0
 18 23  1  0  0  0  0
 19 54  1  0  0  0  0
 19 55  1  0  0  0  0
 19 56  1  0  0  0  0
 20 57  1  0  0  0  0
 20 58  1  0  0  0  0
 20 59  1  0  0  0  0
 21 60  1  0  0  0  0
 21 61  1  0  0  0  0
 22 27  1  0  0  0  0
 22 64  1  0  0  0  0
 23 28  2  0  0  0  0
 23 65  1  0  0  0  0
 24 25  1  0  0  0  0
 24 26  1  0  0  0  0
 24 66  1  0  0  0  0
 26 30  1  0  0  0  0
 26 67  1  0  0  0  0
 26 68  1  0  0  0  0
 27 29  2  0  0  0  0
 27 69  1  0  0  0  0
 28 29  1  0  0  0  0
 28 70  1  0  0  0  0
 30 31  2  0  0  0  0
 30 32  1  0  0  0  0
 31 33  1  0  0  0  0
 31 72  1  0  0  0  0
 32 35  2  0  0  0  0
 32 73  1  0  0  0  0
 33 34  1  0  0  0  0
 33 37  2  0  0  0  0
 34 35  1  0  0  0  0
 34 38  2  0  0  0  0
 35 74  1  0  0  0  0
 36 39  1  0  0  0  0
 37 40  1  0  0  0  0
 37 77  1  0  0  0  0
 38 41  1  0  0  0  0
 38 78  1  0  0  0  0
 39 79  1  0  0  0  0
 39 80  1  0  0  0  0
 39 81  1  0  0  0  0
 40 41  2  0  0  0  0
 40 82  1  0  0  0  0
 41 83  1  0  0  0  0
M  END
> <PUBCHEM_COMPOUND_CID>
513970
> <PUBCHEM_COMPOUND_CANONICALIZED>
1
> <PUBCHEM_CACTVS_COMPLEXITY>
916
> <PUBCHEM_CACTVS_HBOND_ACCEPTOR>
7
> <PUBCHEM_CACTVS_HBOND_DONOR>
4
> <PUBCHEM_CACTVS_ROTATABLE_BOND>
15
> <PUBCHEM_CACTVS_SUBSKEYS>
AAADcfB7uABAAAAAAAAAAAAAAAAAAAAAAAAwYMAAAAAAAADBVAAAHgQQSAAADSjh2AYywcLAAgKIAiVSUHDCABAgAgAIiJmIZIgKcDKAkbGUYABklgCYyAeYyMCOwAQCAAAQAACACAQAACAAAAAAAAAAAA==
> <PUBCHEM_IUPAC_OPENEYE_NAME>
(2S)-2-acetamido-N-[(5S)-5-[(4-aminophenyl)sulfonyl-isobutyl-amino]-6-hydroxy-hexyl]-3-(2-naphthyl)propanamide
> <PUBCHEM_IUPAC_CAS_NAME>
(2S)-2-acetamido-N-[(5S)-5-[(4-aminophenyl)sulfonyl-(2-methylpropyl)amino]-6-hydroxyhexyl]-3-(2-naphthalenyl)propanamide
> <PUBCHEM_IUPAC_NAME_MARKUP>
(2<I>S</I>)-2-acetamido-<I>N</I>-[(5<I>S</I>)-5-[(4-aminophenyl)sulfonyl-(2-methylpropyl)amino]-6-hydroxyhexyl]-3-naphthalen-2-ylpropanamide
> <PUBCHEM_IUPAC_NAME>
(2S)-2-acetamido-N-[(5S)-5-[(4-aminophenyl)sulfonyl-(2-methylpropyl)amino]-6-hydroxyhexyl]-3-naphthalen-2-ylpropanamide
> <PUBCHEM_IUPAC_SYSTEMATIC_NAME>
(2S)-2-acetamido-N-[(5S)-5-[(4-aminophenyl)sulfonyl-(2-methylpropyl)amino]-6-oxidanyl-hexyl]-3-naphthalen-2-yl-propanamide
> <PUBCHEM_IUPAC_TRADITIONAL_NAME>
(2S)-2-acetamido-N-[(5S)-6-hydroxy-5-[isobutyl(sulfanilyl)amino]hexyl]-3-(2-naphthyl)propionamide
> <PUBCHEM_IUPAC_INCHI>
InChI=1S/C31H42N4O5S/c1-22(2)20-35(41(39,40)29-15-13-27(32)14-16-29)28(21-36)10-6-7-17-33-31(38)30(34-23(3)37)19-24-11-12-25-8-4-5-9-26(25)18-24/h4-5,8-9,11-16,18,22,28,30,36H,6-7,10,17,19-21,32H2,1-3H3,(H,33,38)(H,34,37)/t28-,30-/m0/s1
> <PUBCHEM_IUPAC_INCHIKEY>
VXAAQRKENIMLRL-JDXGNMNLSA-N
> <PUBCHEM_XLOGP3_AA>
4.1
> <PUBCHEM_EXACT_MASS>
582.28759163
> <PUBCHEM_MOLECULAR_FORMULA>
C31H42N4O5S
> <PUBCHEM_MOLECULAR_WEIGHT>
582.8
> <PUBCHEM_OPENEYE_CAN_SMILES>
CC(C)CN(C(CCCCNC(=O)C(CC1=CC2=CC=CC=C2C=C1)NC(=O)C)CO)S(=O)(=O)C3=CC=C(C=C3)N
> <PUBCHEM_OPENEYE_ISO_SMILES>
CC(C)CN([C@@H](CCCCNC(=O)[C@H](CC1=CC2=CC=CC=C2C=C1)NC(=O)C)CO)S(=O)(=O)C3=CC=C(C=C3)N
> <PUBCHEM_CACTVS_TPSA>
150
> <PUBCHEM_MONOISOTOPIC_WEIGHT>
582.28759163
> <PUBCHEM_TOTAL_CHARGE>
0
> <PUBCHEM_HEAVY_ATOM_COUNT>
41
> <PUBCHEM_ATOM_DEF_STEREO_COUNT>
2
> <PUBCHEM_ATOM_UDEF_STEREO_COUNT>
0
> <PUBCHEM_BOND_DEF_STEREO_COUNT>
0
> <PUBCHEM_BOND_UDEF_STEREO_COUNT>
0
> <PUBCHEM_ISOTOPIC_ATOM_COUNT>
0
> <PUBCHEM_COMPONENT_COUNT>
1
> <PUBCHEM_CACTVS_TAUTO_COUNT>
-1
> <PUBCHEM_COORDINATE_TYPE>
1
5
255
> <PUBCHEM_BONDANNOTATIONS>
18  22  8
18  23  8
22  27  8
23  28  8
27  29  8
28  29  8
30  31  8
30  32  8
31  33  8
32  35  8
33  34  8
33  37  8
34  35  8
34  38  8
37  40  8
38  41  8
40  41  8
11  7  6
24  9  5
$$$$
