513930
  -OEChem-10302200282D
 75 77  0     1  0  0  0  0  0999 V2000
    6.0010   -3.4573    0.0000 S   0  0  0  0  0  0  0  0  0  0  0  0
    6.0010   -0.4573    0.0000 O   0  0  0  0  0  0  0  0  0  0  0  0
    6.5010   -4.3234    0.0000 O   0  0  0  0  0  0  0  0  0  0  0  0
    5.5010   -2.5913    0.0000 O   0  0  0  0  0  0  0  0  0  0  0  0
   10.3312    1.0427    0.0000 O   0  0  0  0  0  0  0  0  0  0  0  0
    6.8671   -2.9573    0.0000 N   0  0  3  0  0  0  0  0  0  0  0  0
    8.5991    1.0427    0.0000 N   0  0  0  0  0  0  0  0  0  0  0  0
    8.5991    3.0427    0.0000 N   0  0  0  0  0  0  0  0  0  0  0  0
    2.5369   -5.4573    0.0000 N   0  0  0  0  0  0  0  0  0  0  0  0
    6.8671   -1.9573    0.0000 C   0  0  1  0  0  0  0  0  0  0  0  0
    7.7331   -1.4573    0.0000 C   0  0  0  0  0  0  0  0  0  0  0  0
    7.7331   -3.4573    0.0000 C   0  0  0  0  0  0  0  0  0  0  0  0
    8.5991   -2.9573    0.0000 C   0  0  0  0  0  0  0  0  0  0  0  0
    7.7331   -0.4573    0.0000 C   0  0  0  0  0  0  0  0  0  0  0  0
    6.0010   -1.4573    0.0000 C   0  0  0  0  0  0  0  0  0  0  0  0
    8.5991    0.0427    0.0000 C   0  0  0  0  0  0  0  0  0  0  0  0
    5.1350   -3.9573    0.0000 C   0  0  0  0  0  0  0  0  0  0  0  0
    9.4651   -3.4573    0.0000 C   0  0  0  0  0  0  0  0  0  0  0  0
    8.5991   -1.9573    0.0000 C   0  0  0  0  0  0  0  0  0  0  0  0
    5.1350   -4.9573    0.0000 C   0  0  0  0  0  0  0  0  0  0  0  0
    4.2690   -3.4573    0.0000 C   0  0  0  0  0  0  0  0  0  0  0  0
    9.4651    2.5427    0.0000 C   0  0  2  0  0  0  0  0  0  0  0  0
    9.4651    1.5427    0.0000 C   0  0  0  0  0  0  0  0  0  0  0  0
   10.3312    3.0427    0.0000 C   0  0  0  0  0  0  0  0  0  0  0  0
   10.3312    4.0427    0.0000 C   0  0  0  0  0  0  0  0  0  0  0  0
    4.2690   -5.4573    0.0000 C   0  0  0  0  0  0  0  0  0  0  0  0
    3.4030   -3.9573    0.0000 C   0  0  0  0  0  0  0  0  0  0  0  0
    3.4030   -4.9573    0.0000 C   0  0  0  0  0  0  0  0  0  0  0  0
   11.1972    4.5427    0.0000 C   0  0  0  0  0  0  0  0  0  0  0  0
   11.1972    5.5427    0.0000 C   0  0  0  0  0  0  0  0  0  0  0  0
    9.4651    4.5427    0.0000 C   0  0  0  0  0  0  0  0  0  0  0  0
   12.0911    4.0080    0.0000 C   0  0  0  0  0  0  0  0  0  0  0  0
   10.3312    6.0427    0.0000 C   0  0  0  0  0  0  0  0  0  0  0  0
    9.4651    5.5427    0.0000 C   0  0  0  0  0  0  0  0  0  0  0  0
   12.0911    6.0773    0.0000 C   0  0  0  0  0  0  0  0  0  0  0  0
   12.9972    4.5218    0.0000 C   0  0  0  0  0  0  0  0  0  0  0  0
   12.9972    5.5635    0.0000 C   0  0  0  0  0  0  0  0  0  0  0  0
    6.3301   -2.2673    0.0000 H   0  0  0  0  0  0  0  0  0  0  0  0
    7.9451   -2.0399    0.0000 H   0  0  0  0  0  0  0  0  0  0  0  0
    8.3437   -1.3497    0.0000 H   0  0  0  0  0  0  0  0  0  0  0  0
    7.3346   -3.9323    0.0000 H   0  0  0  0  0  0  0  0  0  0  0  0
    8.1316   -3.9323    0.0000 H   0  0  0  0  0  0  0  0  0  0  0  0
    8.5991   -3.5773    0.0000 H   0  0  0  0  0  0  0  0  0  0  0  0
    7.5210    0.1253    0.0000 H   0  0  0  0  0  0  0  0  0  0  0  0
    7.1225   -0.5650    0.0000 H   0  0  0  0  0  0  0  0  0  0  0  0
    5.3905   -1.3497    0.0000 H   0  0  0  0  0  0  0  0  0  0  0  0
    5.7890   -2.0399    0.0000 H   0  0  0  0  0  0  0  0  0  0  0  0
    8.8112   -0.5399    0.0000 H   0  0  0  0  0  0  0  0  0  0  0  0
    9.2097    0.1503    0.0000 H   0  0  0  0  0  0  0  0  0  0  0  0
    9.1551   -3.9943    0.0000 H   0  0  0  0  0  0  0  0  0  0  0  0
   10.0021   -3.7673    0.0000 H   0  0  0  0  0  0  0  0  0  0  0  0
    9.7751   -2.9204    0.0000 H   0  0  0  0  0  0  0  0  0  0  0  0
    9.2191   -1.9573    0.0000 H   0  0  0  0  0  0  0  0  0  0  0  0
    8.5991   -1.3373    0.0000 H   0  0  0  0  0  0  0  0  0  0  0  0
    7.9791   -1.9573    0.0000 H   0  0  0  0  0  0  0  0  0  0  0  0
    8.0622    1.3527    0.0000 H   0  0  0  0  0  0  0  0  0  0  0  0
    5.4641   -0.1473    0.0000 H   0  0  0  0  0  0  0  0  0  0  0  0
    5.6720   -5.2673    0.0000 H   0  0  0  0  0  0  0  0  0  0  0  0
    4.2690   -2.8373    0.0000 H   0  0  0  0  0  0  0  0  0  0  0  0
    9.4651    3.1627    0.0000 H   0  0  0  0  0  0  0  0  0  0  0  0
   10.5432    2.4601    0.0000 H   0  0  0  0  0  0  0  0  0  0  0  0
   10.9417    3.1503    0.0000 H   0  0  0  0  0  0  0  0  0  0  0  0
    4.2690   -6.0773    0.0000 H   0  0  0  0  0  0  0  0  0  0  0  0
    2.8660   -3.6473    0.0000 H   0  0  0  0  0  0  0  0  0  0  0  0
    8.0622    2.7327    0.0000 H   0  0  0  0  0  0  0  0  0  0  0  0
    8.5991    3.6627    0.0000 H   0  0  0  0  0  0  0  0  0  0  0  0
    8.9282    4.2327    0.0000 H   0  0  0  0  0  0  0  0  0  0  0  0
   12.0840    3.3880    0.0000 H   0  0  0  0  0  0  0  0  0  0  0  0
   10.3312    6.6627    0.0000 H   0  0  0  0  0  0  0  0  0  0  0  0
    8.9282    5.8527    0.0000 H   0  0  0  0  0  0  0  0  0  0  0  0
    2.5369   -6.0773    0.0000 H   0  0  0  0  0  0  0  0  0  0  0  0
    2.0000   -5.1473    0.0000 H   0  0  0  0  0  0  0  0  0  0  0  0
   12.0840    6.6973    0.0000 H   0  0  0  0  0  0  0  0  0  0  0  0
   13.5329    4.2098    0.0000 H   0  0  0  0  0  0  0  0  0  0  0  0
   13.5329    5.8755    0.0000 H   0  0  0  0  0  0  0  0  0  0  0  0
  1  3  2  0  0  0  0
  1  4  2  0  0  0  0
  1  6  1  0  0  0  0
  1 17  1  0  0  0  0
  2 15  1  0  0  0  0
  2 57  1  0  0  0  0
  5 23  2  0  0  0  0
 10  6  1  6  0  0  0
  6 12  1  0  0  0  0
  7 16  1  0  0  0  0
  7 23  1  0  0  0  0
  7 56  1  0  0  0  0
 22  8  1  1  0  0  0
  8 65  1  0  0  0  0
  8 66  1  0  0  0  0
  9 28  1  0  0  0  0
  9 71  1  0  0  0  0
  9 72  1  0  0  0  0
 10 11  1  0  0  0  0
 10 15  1  0  0  0  0
 10 38  1  0  0  0  0
 11 14  1  0  0  0  0
 11 39  1  0  0  0  0
 11 40  1  0  0  0  0
 12 13  1  0  0  0  0
 12 41  1  0  0  0  0
 12 42  1  0  0  0  0
 13 18  1  0  0  0  0
 13 19  1  0  0  0  0
 13 43  1  0  0  0  0
 14 16  1  0  0  0  0
 14 44  1  0  0  0  0
 14 45  1  0  0  0  0
 15 46  1  0  0  0  0
 15 47  1  0  0  0  0
 16 48  1  0  0  0  0
 16 49  1  0  0  0  0
 17 20  2  0  0  0  0
 17 21  1  0  0  0  0
 18 50  1  0  0  0  0
 18 51  1  0  0  0  0
 18 52  1  0  0  0  0
 19 53  1  0  0  0  0
 19 54  1  0  0  0  0
 19 55  1  0  0  0  0
 20 26  1  0  0  0  0
 20 58  1  0  0  0  0
 21 27  2  0  0  0  0
 21 59  1  0  0  0  0
 22 23  1  0  0  0  0
 22 24  1  0  0  0  0
 22 60  1  0  0  0  0
 24 25  1  0  0  0  0
 24 61  1  0  0  0  0
 24 62  1  0  0  0  0
 25 29  1  0  0  0  0
 25 31  2  0  0  0  0
 26 28  2  0  0  0  0
 26 63  1  0  0  0  0
 27 28  1  0  0  0  0
 27 64  1  0  0  0  0
 29 30  1  0  0  0  0
 29 32  2  0  0  0  0
 30 33  1  0  0  0  0
 30 35  2  0  0  0  0
 31 34  1  0  0  0  0
 31 67  1  0  0  0  0
 32 36  1  0  0  0  0
 32 68  1  0  0  0  0
 33 34  2  0  0  0  0
 33 69  1  0  0  0  0
 34 70  1  0  0  0  0
 35 37  1  0  0  0  0
 35 73  1  0  0  0  0
 36 37  2  0  0  0  0
 36 74  1  0  0  0  0
 37 75  1  0  0  0  0
M  END
> <PUBCHEM_COMPOUND_CID>
513930
> <PUBCHEM_COMPOUND_CANONICALIZED>
1
> <PUBCHEM_CACTVS_COMPLEXITY>
795
> <PUBCHEM_CACTVS_HBOND_ACCEPTOR>
7
> <PUBCHEM_CACTVS_HBOND_DONOR>
4
> <PUBCHEM_CACTVS_ROTATABLE_BOND>
13
> <PUBCHEM_CACTVS_SUBSKEYS>
AAADcfB7uABAAAAAAAAAAAAAAAAAAAAAAAAwYMAAAAAAAADBVAAAHgQQSAAADSjh2AYywcLAAgKIAiVSUHDCABAgAgAIiJmIZIgKcDKAkZGUYABklgCYyAeYmMKOgAQCAAAQAAAACAQAACAAAAAAAAAAAA==
> <PUBCHEM_IUPAC_OPENEYE_NAME>
(2S)-2-amino-N-[(4S)-4-[(4-aminophenyl)sulfonyl-isobutyl-amino]-5-hydroxy-pentyl]-3-(1-naphthyl)propanamide
> <PUBCHEM_IUPAC_CAS_NAME>
(2S)-2-amino-N-[(4S)-4-[(4-aminophenyl)sulfonyl-(2-methylpropyl)amino]-5-hydroxypentyl]-3-(1-naphthalenyl)propanamide
> <PUBCHEM_IUPAC_NAME_MARKUP>
(2<I>S</I>)-2-amino-<I>N</I>-[(4<I>S</I>)-4-[(4-aminophenyl)sulfonyl-(2-methylpropyl)amino]-5-hydroxypentyl]-3-naphthalen-1-ylpropanamide
> <PUBCHEM_IUPAC_NAME>
(2S)-2-amino-N-[(4S)-4-[(4-aminophenyl)sulfonyl-(2-methylpropyl)amino]-5-hydroxypentyl]-3-naphthalen-1-ylpropanamide
> <PUBCHEM_IUPAC_SYSTEMATIC_NAME>
(2S)-N-[(4S)-4-[(4-aminophenyl)sulfonyl-(2-methylpropyl)amino]-5-oxidanyl-pentyl]-2-azanyl-3-naphthalen-1-yl-propanamide
> <PUBCHEM_IUPAC_TRADITIONAL_NAME>
(2S)-2-amino-N-[(4S)-5-hydroxy-4-[isobutyl(sulfanilyl)amino]pentyl]-3-(1-naphthyl)propionamide
> <PUBCHEM_IUPAC_INCHI>
InChI=1S/C28H38N4O4S/c1-20(2)18-32(37(35,36)25-14-12-23(29)13-15-25)24(19-33)10-6-16-31-28(34)27(30)17-22-9-5-8-21-7-3-4-11-26(21)22/h3-5,7-9,11-15,20,24,27,33H,6,10,16-19,29-30H2,1-2H3,(H,31,34)/t24-,27-/m0/s1
> <PUBCHEM_IUPAC_INCHIKEY>
PMLGQJQFDGGOQU-IGKIAQTJSA-N
> <PUBCHEM_XLOGP3_AA>
3.5
> <PUBCHEM_EXACT_MASS>
526.26137688
> <PUBCHEM_MOLECULAR_FORMULA>
C28H38N4O4S
> <PUBCHEM_MOLECULAR_WEIGHT>
526.7
> <PUBCHEM_OPENEYE_CAN_SMILES>
CC(C)CN(C(CCCNC(=O)C(CC1=CC=CC2=CC=CC=C21)N)CO)S(=O)(=O)C3=CC=C(C=C3)N
> <PUBCHEM_OPENEYE_ISO_SMILES>
CC(C)CN([C@@H](CCCNC(=O)[C@H](CC1=CC=CC2=CC=CC=C21)N)CO)S(=O)(=O)C3=CC=C(C=C3)N
> <PUBCHEM_CACTVS_TPSA>
147
> <PUBCHEM_MONOISOTOPIC_WEIGHT>
526.26137688
> <PUBCHEM_TOTAL_CHARGE>
0
> <PUBCHEM_HEAVY_ATOM_COUNT>
37
> <PUBCHEM_ATOM_DEF_STEREO_COUNT>
2
> <PUBCHEM_ATOM_UDEF_STEREO_COUNT>
0
> <PUBCHEM_BOND_DEF_STEREO_COUNT>
0
> <PUBCHEM_BOND_UDEF_STEREO_COUNT>
0
> <PUBCHEM_ISOTOPIC_ATOM_COUNT>
0
> <PUBCHEM_COMPONENT_COUNT>
1
> <PUBCHEM_CACTVS_TAUTO_COUNT>
-1
> <PUBCHEM_COORDINATE_TYPE>
1
5
255
> <PUBCHEM_BONDANNOTATIONS>
17  20  8
17  21  8
20  26  8
21  27  8
25  29  8
25  31  8
26  28  8
27  28  8
29  30  8
29  32  8
30  33  8
30  35  8
31  34  8
32  36  8
33  34  8
35  37  8
36  37  8
10  6  6
22  8  5
$$$$
