513941
  -OEChem-10302200282D
 84 86  0     1  0  0  0  0  0999 V2000
    9.7942   -3.4573    0.0000 S   0  0  0  0  0  0  0  0  0  0  0  0
   10.6603   -1.9573    0.0000 O   0  0  0  0  0  0  0  0  0  0  0  0
    9.2942   -4.3234    0.0000 O   0  0  0  0  0  0  0  0  0  0  0  0
   10.2942   -2.5913    0.0000 O   0  0  0  0  0  0  0  0  0  0  0  0
    5.4641    1.0427    0.0000 O   0  0  0  0  0  0  0  0  0  0  0  0
    4.5981    1.5427    0.0000 O   0  0  0  0  0  0  0  0  0  0  0  0
    2.8660    2.5427    0.0000 O   0  0  0  0  0  0  0  0  0  0  0  0
    8.9282   -2.9573    0.0000 N   0  0  3  0  0  0  0  0  0  0  0  0
    7.1962    1.0427    0.0000 N   0  0  0  0  0  0  0  0  0  0  0  0
    5.4641    3.0427    0.0000 N   0  0  0  0  0  0  0  0  0  0  0  0
   13.2583   -5.4573    0.0000 N   0  0  0  0  0  0  0  0  0  0  0  0
    8.9282   -1.9573    0.0000 C   0  0  1  0  0  0  0  0  0  0  0  0
    8.0622   -1.4573    0.0000 C   0  0  0  0  0  0  0  0  0  0  0  0
    8.0622   -3.4573    0.0000 C   0  0  0  0  0  0  0  0  0  0  0  0
    7.1962   -2.9573    0.0000 C   0  0  0  0  0  0  0  0  0  0  0  0
    8.0622   -0.4573    0.0000 C   0  0  0  0  0  0  0  0  0  0  0  0
    9.7942   -1.4573    0.0000 C   0  0  0  0  0  0  0  0  0  0  0  0
    7.1962    0.0427    0.0000 C   0  0  0  0  0  0  0  0  0  0  0  0
   10.6603   -3.9573    0.0000 C   0  0  0  0  0  0  0  0  0  0  0  0
    6.3301   -3.4573    0.0000 C   0  0  0  0  0  0  0  0  0  0  0  0
    7.1962   -1.9573    0.0000 C   0  0  0  0  0  0  0  0  0  0  0  0
    6.3301    2.5427    0.0000 C   0  0  2  0  0  0  0  0  0  0  0  0
   11.5263   -3.4573    0.0000 C   0  0  0  0  0  0  0  0  0  0  0  0
   10.6603   -4.9573    0.0000 C   0  0  0  0  0  0  0  0  0  0  0  0
    6.3301    1.5427    0.0000 C   0  0  0  0  0  0  0  0  0  0  0  0
    7.1962    3.0427    0.0000 C   0  0  0  0  0  0  0  0  0  0  0  0
    7.1962    4.0427    0.0000 C   0  0  0  0  0  0  0  0  0  0  0  0
   12.3923   -3.9573    0.0000 C   0  0  0  0  0  0  0  0  0  0  0  0
   11.5263   -5.4573    0.0000 C   0  0  0  0  0  0  0  0  0  0  0  0
   12.3923   -4.9573    0.0000 C   0  0  0  0  0  0  0  0  0  0  0  0
    8.0622    4.5427    0.0000 C   0  0  0  0  0  0  0  0  0  0  0  0
    6.3301    4.5427    0.0000 C   0  0  0  0  0  0  0  0  0  0  0  0
    8.0622    5.5427    0.0000 C   0  0  0  0  0  0  0  0  0  0  0  0
    4.5981    2.5427    0.0000 C   0  0  0  0  0  0  0  0  0  0  0  0
    8.9561    4.0080    0.0000 C   0  0  0  0  0  0  0  0  0  0  0  0
    6.3301    5.5427    0.0000 C   0  0  0  0  0  0  0  0  0  0  0  0
    7.1962    6.0427    0.0000 C   0  0  0  0  0  0  0  0  0  0  0  0
    8.9561    6.0773    0.0000 C   0  0  0  0  0  0  0  0  0  0  0  0
    9.8622    4.5218    0.0000 C   0  0  0  0  0  0  0  0  0  0  0  0
    3.7320    3.0427    0.0000 C   0  0  0  0  0  0  0  0  0  0  0  0
    9.8622    5.5635    0.0000 C   0  0  0  0  0  0  0  0  0  0  0  0
    2.0000    3.0427    0.0000 C   0  0  0  0  0  0  0  0  0  0  0  0
    9.4651   -2.2673    0.0000 H   0  0  0  0  0  0  0  0  0  0  0  0
    7.4516   -1.3497    0.0000 H   0  0  0  0  0  0  0  0  0  0  0  0
    7.8501   -2.0399    0.0000 H   0  0  0  0  0  0  0  0  0  0  0  0
    7.6636   -3.9323    0.0000 H   0  0  0  0  0  0  0  0  0  0  0  0
    8.4607   -3.9323    0.0000 H   0  0  0  0  0  0  0  0  0  0  0  0
    6.6592   -2.6473    0.0000 H   0  0  0  0  0  0  0  0  0  0  0  0
    8.6728   -0.5650    0.0000 H   0  0  0  0  0  0  0  0  0  0  0  0
    8.2742    0.1253    0.0000 H   0  0  0  0  0  0  0  0  0  0  0  0
   10.1928   -0.9824    0.0000 H   0  0  0  0  0  0  0  0  0  0  0  0
    9.3957   -0.9824    0.0000 H   0  0  0  0  0  0  0  0  0  0  0  0
    6.5856    0.1503    0.0000 H   0  0  0  0  0  0  0  0  0  0  0  0
    6.9841   -0.5399    0.0000 H   0  0  0  0  0  0  0  0  0  0  0  0
    6.0201   -2.9204    0.0000 H   0  0  0  0  0  0  0  0  0  0  0  0
    5.7932   -3.7673    0.0000 H   0  0  0  0  0  0  0  0  0  0  0  0
    6.6401   -3.9943    0.0000 H   0  0  0  0  0  0  0  0  0  0  0  0
    7.8162   -1.9573    0.0000 H   0  0  0  0  0  0  0  0  0  0  0  0
    7.1962   -1.3373    0.0000 H   0  0  0  0  0  0  0  0  0  0  0  0
    6.5762   -1.9573    0.0000 H   0  0  0  0  0  0  0  0  0  0  0  0
    7.7331    1.3527    0.0000 H   0  0  0  0  0  0  0  0  0  0  0  0
    5.7932    2.2327    0.0000 H   0  0  0  0  0  0  0  0  0  0  0  0
   11.1972   -1.6473    0.0000 H   0  0  0  0  0  0  0  0  0  0  0  0
   11.5263   -2.8373    0.0000 H   0  0  0  0  0  0  0  0  0  0  0  0
   10.1233   -5.2673    0.0000 H   0  0  0  0  0  0  0  0  0  0  0  0
    7.4082    2.4601    0.0000 H   0  0  0  0  0  0  0  0  0  0  0  0
    7.8067    3.1503    0.0000 H   0  0  0  0  0  0  0  0  0  0  0  0
   12.9292   -3.6473    0.0000 H   0  0  0  0  0  0  0  0  0  0  0  0
   11.5263   -6.0773    0.0000 H   0  0  0  0  0  0  0  0  0  0  0  0
    5.4641    3.6627    0.0000 H   0  0  0  0  0  0  0  0  0  0  0  0
    5.7932    4.2327    0.0000 H   0  0  0  0  0  0  0  0  0  0  0  0
    8.9490    3.3880    0.0000 H   0  0  0  0  0  0  0  0  0  0  0  0
    5.7932    5.8527    0.0000 H   0  0  0  0  0  0  0  0  0  0  0  0
    7.1962    6.6627    0.0000 H   0  0  0  0  0  0  0  0  0  0  0  0
    8.9490    6.6973    0.0000 H   0  0  0  0  0  0  0  0  0  0  0  0
   13.2583   -6.0773    0.0000 H   0  0  0  0  0  0  0  0  0  0  0  0
   13.7953   -5.1473    0.0000 H   0  0  0  0  0  0  0  0  0  0  0  0
   10.3979    4.2098    0.0000 H   0  0  0  0  0  0  0  0  0  0  0  0
    4.1306    3.5176    0.0000 H   0  0  0  0  0  0  0  0  0  0  0  0
    3.3335    3.5176    0.0000 H   0  0  0  0  0  0  0  0  0  0  0  0
   10.3979    5.8755    0.0000 H   0  0  0  0  0  0  0  0  0  0  0  0
    2.3100    3.5796    0.0000 H   0  0  0  0  0  0  0  0  0  0  0  0
    1.4631    3.3527    0.0000 H   0  0  0  0  0  0  0  0  0  0  0  0
    1.6900    2.5057    0.0000 H   0  0  0  0  0  0  0  0  0  0  0  0
  1  3  2  0  0  0  0
  1  4  2  0  0  0  0
  1  8  1  0  0  0  0
  1 19  1  0  0  0  0
  2 17  1  0  0  0  0
  2 63  1  0  0  0  0
  5 25  2  0  0  0  0
  6 34  2  0  0  0  0
  7 40  1  0  0  0  0
  7 42  1  0  0  0  0
 12  8  1  1  0  0  0
  8 14  1  0  0  0  0
  9 18  1  0  0  0  0
  9 25  1  0  0  0  0
  9 61  1  0  0  0  0
 22 10  1  1  0  0  0
 10 34  1  0  0  0  0
 10 70  1  0  0  0  0
 11 30  1  0  0  0  0
 11 76  1  0  0  0  0
 11 77  1  0  0  0  0
 12 13  1  0  0  0  0
 12 17  1  0  0  0  0
 12 43  1  0  0  0  0
 13 16  1  0  0  0  0
 13 44  1  0  0  0  0
 13 45  1  0  0  0  0
 14 15  1  0  0  0  0
 14 46  1  0  0  0  0
 14 47  1  0  0  0  0
 15 20  1  0  0  0  0
 15 21  1  0  0  0  0
 15 48  1  0  0  0  0
 16 18  1  0  0  0  0
 16 49  1  0  0  0  0
 16 50  1  0  0  0  0
 17 51  1  0  0  0  0
 17 52  1  0  0  0  0
 18 53  1  0  0  0  0
 18 54  1  0  0  0  0
 19 23  2  0  0  0  0
 19 24  1  0  0  0  0
 20 55  1  0  0  0  0
 20 56  1  0  0  0  0
 20 57  1  0  0  0  0
 21 58  1  0  0  0  0
 21 59  1  0  0  0  0
 21 60  1  0  0  0  0
 22 25  1  0  0  0  0
 22 26  1  0  0  0  0
 22 62  1  0  0  0  0
 23 28  1  0  0  0  0
 23 64  1  0  0  0  0
 24 29  2  0  0  0  0
 24 65  1  0  0  0  0
 26 27  1  0  0  0  0
 26 66  1  0  0  0  0
 26 67  1  0  0  0  0
 27 31  1  0  0  0  0
 27 32  2  0  0  0  0
 28 30  2  0  0  0  0
 28 68  1  0  0  0  0
 29 30  1  0  0  0  0
 29 69  1  0  0  0  0
 31 33  1  0  0  0  0
 31 35  2  0  0  0  0
 32 36  1  0  0  0  0
 32 71  1  0  0  0  0
 33 37  1  0  0  0  0
 33 38  2  0  0  0  0
 34 40  1  0  0  0  0
 35 39  1  0  0  0  0
 35 72  1  0  0  0  0
 36 37  2  0  0  0  0
 36 73  1  0  0  0  0
 37 74  1  0  0  0  0
 38 41  1  0  0  0  0
 38 75  1  0  0  0  0
 39 41  2  0  0  0  0
 39 78  1  0  0  0  0
 40 79  1  0  0  0  0
 40 80  1  0  0  0  0
 41 81  1  0  0  0  0
 42 82  1  0  0  0  0
 42 83  1  0  0  0  0
 42 84  1  0  0  0  0
M  END
> <PUBCHEM_COMPOUND_CID>
513941
> <PUBCHEM_COMPOUND_CANONICALIZED>
1
> <PUBCHEM_CACTVS_COMPLEXITY>
934
> <PUBCHEM_CACTVS_HBOND_ACCEPTOR>
8
> <PUBCHEM_CACTVS_HBOND_DONOR>
4
> <PUBCHEM_CACTVS_ROTATABLE_BOND>
16
> <PUBCHEM_CACTVS_SUBSKEYS>
AAADcfB7uABAAAAAAAAAAAAAAAAAAAAAAAAwYMAAAAAAAADBVAAAHgQQSAAADSjh2AYywcLABgKIAiVSUHLCABAgAgAIiJnIZIgKcDKAkbWVYABklgCYyAeYmMKOgAQCAAAQAAAACAQAACAAAAAAAAAAAA==
> <PUBCHEM_IUPAC_OPENEYE_NAME>
(2S)-N-[(4S)-4-[(4-aminophenyl)sulfonyl-isobutyl-amino]-5-hydroxy-pentyl]-2-[(2-methoxyacetyl)amino]-3-(1-naphthyl)propanamide
> <PUBCHEM_IUPAC_CAS_NAME>
(2S)-N-[(4S)-4-[(4-aminophenyl)sulfonyl-(2-methylpropyl)amino]-5-hydroxypentyl]-2-[(2-methoxy-1-oxoethyl)amino]-3-(1-naphthalenyl)propanamide
> <PUBCHEM_IUPAC_NAME_MARKUP>
(2<I>S</I>)-<I>N</I>-[(4<I>S</I>)-4-[(4-aminophenyl)sulfonyl-(2-methylpropyl)amino]-5-hydroxypentyl]-2-[(2-methoxyacetyl)amino]-3-naphthalen-1-ylpropanamide
> <PUBCHEM_IUPAC_NAME>
(2S)-N-[(4S)-4-[(4-aminophenyl)sulfonyl-(2-methylpropyl)amino]-5-hydroxypentyl]-2-[(2-methoxyacetyl)amino]-3-naphthalen-1-ylpropanamide
> <PUBCHEM_IUPAC_SYSTEMATIC_NAME>
(2S)-N-[(4S)-4-[(4-aminophenyl)sulfonyl-(2-methylpropyl)amino]-5-oxidanyl-pentyl]-2-(2-methoxyethanoylamino)-3-naphthalen-1-yl-propanamide
> <PUBCHEM_IUPAC_TRADITIONAL_NAME>
(2S)-N-[(4S)-5-hydroxy-4-[isobutyl(sulfanilyl)amino]pentyl]-2-[(2-methoxyacetyl)amino]-3-(1-naphthyl)propionamide
> <PUBCHEM_IUPAC_INCHI>
InChI=1S/C31H42N4O6S/c1-22(2)19-35(42(39,40)27-15-13-25(32)14-16-27)26(20-36)11-7-17-33-31(38)29(34-30(37)21-41-3)18-24-10-6-9-23-8-4-5-12-28(23)24/h4-6,8-10,12-16,22,26,29,36H,7,11,17-21,32H2,1-3H3,(H,33,38)(H,34,37)/t26-,29-/m0/s1
> <PUBCHEM_IUPAC_INCHIKEY>
PLRIJBNNPPBVMV-WNJJXGMVSA-N
> <PUBCHEM_XLOGP3_AA>
3.6
> <PUBCHEM_EXACT_MASS>
598.28250625
> <PUBCHEM_MOLECULAR_FORMULA>
C31H42N4O6S
> <PUBCHEM_MOLECULAR_WEIGHT>
598.8
> <PUBCHEM_OPENEYE_CAN_SMILES>
CC(C)CN(C(CCCNC(=O)C(CC1=CC=CC2=CC=CC=C21)NC(=O)COC)CO)S(=O)(=O)C3=CC=C(C=C3)N
> <PUBCHEM_OPENEYE_ISO_SMILES>
CC(C)CN([C@@H](CCCNC(=O)[C@H](CC1=CC=CC2=CC=CC=C21)NC(=O)COC)CO)S(=O)(=O)C3=CC=C(C=C3)N
> <PUBCHEM_CACTVS_TPSA>
159
> <PUBCHEM_MONOISOTOPIC_WEIGHT>
598.28250625
> <PUBCHEM_TOTAL_CHARGE>
0
> <PUBCHEM_HEAVY_ATOM_COUNT>
42
> <PUBCHEM_ATOM_DEF_STEREO_COUNT>
2
> <PUBCHEM_ATOM_UDEF_STEREO_COUNT>
0
> <PUBCHEM_BOND_DEF_STEREO_COUNT>
0
> <PUBCHEM_BOND_UDEF_STEREO_COUNT>
0
> <PUBCHEM_ISOTOPIC_ATOM_COUNT>
0
> <PUBCHEM_COMPONENT_COUNT>
1
> <PUBCHEM_CACTVS_TAUTO_COUNT>
-1
> <PUBCHEM_COORDINATE_TYPE>
1
5
255
> <PUBCHEM_BONDANNOTATIONS>
22  10  5
19  23  8
19  24  8
23  28  8
24  29  8
27  31  8
27  32  8
28  30  8
29  30  8
31  33  8
31  35  8
32  36  8
33  37  8
33  38  8
35  39  8
36  37  8
38  41  8
39  41  8
12  8  5
$$$$
