513937
  -OEChem-10302200282D
 84 86  0     1  0  0  0  0  0999 V2000
    6.0010   -3.4573    0.0000 S   0  0  0  0  0  0  0  0  0  0  0  0
    5.1350   -1.9573    0.0000 O   0  0  0  0  0  0  0  0  0  0  0  0
    6.5010   -4.3234    0.0000 O   0  0  0  0  0  0  0  0  0  0  0  0
    5.5010   -2.5913    0.0000 O   0  0  0  0  0  0  0  0  0  0  0  0
   10.3312    1.0427    0.0000 O   0  0  0  0  0  0  0  0  0  0  0  0
    6.0010    2.5427    0.0000 O   0  0  0  0  0  0  0  0  0  0  0  0
    6.8671    4.0427    0.0000 O   0  0  0  0  0  0  0  0  0  0  0  0
    6.8671   -2.9573    0.0000 N   0  0  3  0  0  0  0  0  0  0  0  0
    8.5991    1.0427    0.0000 N   0  0  0  0  0  0  0  0  0  0  0  0
    8.5991    3.0427    0.0000 N   0  0  0  0  0  0  0  0  0  0  0  0
    2.5369   -5.4573    0.0000 N   0  0  0  0  0  0  0  0  0  0  0  0
    6.8671   -1.9573    0.0000 C   0  0  1  0  0  0  0  0  0  0  0  0
    7.7331   -1.4573    0.0000 C   0  0  0  0  0  0  0  0  0  0  0  0
    7.7331   -3.4573    0.0000 C   0  0  0  0  0  0  0  0  0  0  0  0
    8.5991   -2.9573    0.0000 C   0  0  0  0  0  0  0  0  0  0  0  0
    7.7331   -0.4573    0.0000 C   0  0  0  0  0  0  0  0  0  0  0  0
    6.0010   -1.4573    0.0000 C   0  0  0  0  0  0  0  0  0  0  0  0
    8.5991    0.0427    0.0000 C   0  0  0  0  0  0  0  0  0  0  0  0
    5.1350   -3.9573    0.0000 C   0  0  0  0  0  0  0  0  0  0  0  0
    9.4651   -3.4573    0.0000 C   0  0  0  0  0  0  0  0  0  0  0  0
    8.5991   -1.9573    0.0000 C   0  0  0  0  0  0  0  0  0  0  0  0
    9.4651    2.5427    0.0000 C   0  0  2  0  0  0  0  0  0  0  0  0
    9.4651    1.5427    0.0000 C   0  0  0  0  0  0  0  0  0  0  0  0
   10.3312    3.0427    0.0000 C   0  0  0  0  0  0  0  0  0  0  0  0
    4.2690   -3.4573    0.0000 C   0  0  0  0  0  0  0  0  0  0  0  0
    5.1350   -4.9573    0.0000 C   0  0  0  0  0  0  0  0  0  0  0  0
   10.3312    4.0427    0.0000 C   0  0  0  0  0  0  0  0  0  0  0  0
    3.4030   -3.9573    0.0000 C   0  0  0  0  0  0  0  0  0  0  0  0
    4.2690   -5.4573    0.0000 C   0  0  0  0  0  0  0  0  0  0  0  0
   11.1972    4.5427    0.0000 C   0  0  0  0  0  0  0  0  0  0  0  0
    3.4030   -4.9573    0.0000 C   0  0  0  0  0  0  0  0  0  0  0  0
    7.7331    2.5427    0.0000 C   0  0  0  0  0  0  0  0  0  0  0  0
    9.4651    4.5427    0.0000 C   0  0  0  0  0  0  0  0  0  0  0  0
   11.1972    5.5427    0.0000 C   0  0  0  0  0  0  0  0  0  0  0  0
   12.0911    4.0080    0.0000 C   0  0  0  0  0  0  0  0  0  0  0  0
    9.4651    5.5427    0.0000 C   0  0  0  0  0  0  0  0  0  0  0  0
   10.3312    6.0427    0.0000 C   0  0  0  0  0  0  0  0  0  0  0  0
   12.0911    6.0773    0.0000 C   0  0  0  0  0  0  0  0  0  0  0  0
    6.8671    3.0427    0.0000 C   0  0  0  0  0  0  0  0  0  0  0  0
   12.9972    4.5218    0.0000 C   0  0  0  0  0  0  0  0  0  0  0  0
   12.9972    5.5635    0.0000 C   0  0  0  0  0  0  0  0  0  0  0  0
    5.1350    3.0427    0.0000 C   0  0  0  0  0  0  0  0  0  0  0  0
    6.3301   -2.2673    0.0000 H   0  0  0  0  0  0  0  0  0  0  0  0
    7.9451   -2.0399    0.0000 H   0  0  0  0  0  0  0  0  0  0  0  0
    8.3437   -1.3497    0.0000 H   0  0  0  0  0  0  0  0  0  0  0  0
    7.3346   -3.9323    0.0000 H   0  0  0  0  0  0  0  0  0  0  0  0
    8.1316   -3.9323    0.0000 H   0  0  0  0  0  0  0  0  0  0  0  0
    8.5991   -3.5773    0.0000 H   0  0  0  0  0  0  0  0  0  0  0  0
    7.5210    0.1253    0.0000 H   0  0  0  0  0  0  0  0  0  0  0  0
    7.1225   -0.5650    0.0000 H   0  0  0  0  0  0  0  0  0  0  0  0
    6.3996   -0.9824    0.0000 H   0  0  0  0  0  0  0  0  0  0  0  0
    5.6025   -0.9824    0.0000 H   0  0  0  0  0  0  0  0  0  0  0  0
    8.8112   -0.5399    0.0000 H   0  0  0  0  0  0  0  0  0  0  0  0
    9.2097    0.1503    0.0000 H   0  0  0  0  0  0  0  0  0  0  0  0
    9.1551   -3.9943    0.0000 H   0  0  0  0  0  0  0  0  0  0  0  0
   10.0021   -3.7673    0.0000 H   0  0  0  0  0  0  0  0  0  0  0  0
    9.7751   -2.9204    0.0000 H   0  0  0  0  0  0  0  0  0  0  0  0
    9.2191   -1.9573    0.0000 H   0  0  0  0  0  0  0  0  0  0  0  0
    8.5991   -1.3373    0.0000 H   0  0  0  0  0  0  0  0  0  0  0  0
    7.9791   -1.9573    0.0000 H   0  0  0  0  0  0  0  0  0  0  0  0
    8.0622    1.3527    0.0000 H   0  0  0  0  0  0  0  0  0  0  0  0
    9.4651    3.1627    0.0000 H   0  0  0  0  0  0  0  0  0  0  0  0
    4.5981   -1.6473    0.0000 H   0  0  0  0  0  0  0  0  0  0  0  0
   10.5432    2.4601    0.0000 H   0  0  0  0  0  0  0  0  0  0  0  0
   10.9417    3.1503    0.0000 H   0  0  0  0  0  0  0  0  0  0  0  0
    4.2690   -2.8373    0.0000 H   0  0  0  0  0  0  0  0  0  0  0  0
    5.6720   -5.2673    0.0000 H   0  0  0  0  0  0  0  0  0  0  0  0
    8.5991    3.6627    0.0000 H   0  0  0  0  0  0  0  0  0  0  0  0
    2.8660   -3.6473    0.0000 H   0  0  0  0  0  0  0  0  0  0  0  0
    4.2690   -6.0773    0.0000 H   0  0  0  0  0  0  0  0  0  0  0  0
    7.3346    2.0677    0.0000 H   0  0  0  0  0  0  0  0  0  0  0  0
    8.1316    2.0677    0.0000 H   0  0  0  0  0  0  0  0  0  0  0  0
    8.9282    4.2327    0.0000 H   0  0  0  0  0  0  0  0  0  0  0  0
   12.0840    3.3880    0.0000 H   0  0  0  0  0  0  0  0  0  0  0  0
    8.9282    5.8527    0.0000 H   0  0  0  0  0  0  0  0  0  0  0  0
   10.3312    6.6627    0.0000 H   0  0  0  0  0  0  0  0  0  0  0  0
   12.0840    6.6973    0.0000 H   0  0  0  0  0  0  0  0  0  0  0  0
    2.5369   -6.0773    0.0000 H   0  0  0  0  0  0  0  0  0  0  0  0
    2.0000   -5.1473    0.0000 H   0  0  0  0  0  0  0  0  0  0  0  0
   13.5329    4.2098    0.0000 H   0  0  0  0  0  0  0  0  0  0  0  0
   13.5329    5.8755    0.0000 H   0  0  0  0  0  0  0  0  0  0  0  0
    5.4450    3.5796    0.0000 H   0  0  0  0  0  0  0  0  0  0  0  0
    4.5981    3.3527    0.0000 H   0  0  0  0  0  0  0  0  0  0  0  0
    4.8250    2.5057    0.0000 H   0  0  0  0  0  0  0  0  0  0  0  0
  1  3  2  0  0  0  0
  1  4  2  0  0  0  0
  1  8  1  0  0  0  0
  1 19  1  0  0  0  0
  2 17  1  0  0  0  0
  2 63  1  0  0  0  0
  5 23  2  0  0  0  0
  6 39  1  0  0  0  0
  6 42  1  0  0  0  0
  7 39  2  0  0  0  0
 12  8  1  6  0  0  0
  8 14  1  0  0  0  0
  9 18  1  0  0  0  0
  9 23  1  0  0  0  0
  9 61  1  0  0  0  0
 22 10  1  1  0  0  0
 10 32  1  0  0  0  0
 10 68  1  0  0  0  0
 11 31  1  0  0  0  0
 11 78  1  0  0  0  0
 11 79  1  0  0  0  0
 12 13  1  0  0  0  0
 12 17  1  0  0  0  0
 12 43  1  0  0  0  0
 13 16  1  0  0  0  0
 13 44  1  0  0  0  0
 13 45  1  0  0  0  0
 14 15  1  0  0  0  0
 14 46  1  0  0  0  0
 14 47  1  0  0  0  0
 15 20  1  0  0  0  0
 15 21  1  0  0  0  0
 15 48  1  0  0  0  0
 16 18  1  0  0  0  0
 16 49  1  0  0  0  0
 16 50  1  0  0  0  0
 17 51  1  0  0  0  0
 17 52  1  0  0  0  0
 18 53  1  0  0  0  0
 18 54  1  0  0  0  0
 19 25  2  0  0  0  0
 19 26  1  0  0  0  0
 20 55  1  0  0  0  0
 20 56  1  0  0  0  0
 20 57  1  0  0  0  0
 21 58  1  0  0  0  0
 21 59  1  0  0  0  0
 21 60  1  0  0  0  0
 22 23  1  0  0  0  0
 22 24  1  0  0  0  0
 22 62  1  0  0  0  0
 24 27  1  0  0  0  0
 24 64  1  0  0  0  0
 24 65  1  0  0  0  0
 25 28  1  0  0  0  0
 25 66  1  0  0  0  0
 26 29  2  0  0  0  0
 26 67  1  0  0  0  0
 27 30  1  0  0  0  0
 27 33  2  0  0  0  0
 28 31  2  0  0  0  0
 28 69  1  0  0  0  0
 29 31  1  0  0  0  0
 29 70  1  0  0  0  0
 30 34  1  0  0  0  0
 30 35  2  0  0  0  0
 32 39  1  0  0  0  0
 32 71  1  0  0  0  0
 32 72  1  0  0  0  0
 33 36  1  0  0  0  0
 33 73  1  0  0  0  0
 34 37  1  0  0  0  0
 34 38  2  0  0  0  0
 35 40  1  0  0  0  0
 35 74  1  0  0  0  0
 36 37  2  0  0  0  0
 36 75  1  0  0  0  0
 37 76  1  0  0  0  0
 38 41  1  0  0  0  0
 38 77  1  0  0  0  0
 40 41  2  0  0  0  0
 40 80  1  0  0  0  0
 41 81  1  0  0  0  0
 42 82  1  0  0  0  0
 42 83  1  0  0  0  0
 42 84  1  0  0  0  0
M  END
> <PUBCHEM_COMPOUND_CID>
513937
> <PUBCHEM_COMPOUND_CANONICALIZED>
1
> <PUBCHEM_CACTVS_COMPLEXITY>
934
> <PUBCHEM_CACTVS_HBOND_ACCEPTOR>
9
> <PUBCHEM_CACTVS_HBOND_DONOR>
4
> <PUBCHEM_CACTVS_ROTATABLE_BOND>
17
> <PUBCHEM_CACTVS_SUBSKEYS>
AAADcfB7uABAAAAAAAAAAAAAAAAAAAAAAAAwYMAAAAAAAADBVAAAHgQQSAAADSjh2AYyycLABgKIAiXSWHDCABAgAgAIiJmIZIgKcDKAkbGVYABklgCYyAeYmMKOgAQCAAAQAAAACAQAACAAAAAAAAAAAA==
> <PUBCHEM_IUPAC_OPENEYE_NAME>
methyl 2-[[(1S)-2-[[(4S)-4-[(4-aminophenyl)sulfonyl-isobutyl-amino]-5-hydroxy-pentyl]amino]-1-(1-naphthylmethyl)-2-oxo-ethyl]amino]acetate
> <PUBCHEM_IUPAC_CAS_NAME>
2-[[(2S)-1-[[(4S)-4-[(4-aminophenyl)sulfonyl-(2-methylpropyl)amino]-5-hydroxypentyl]amino]-3-(1-naphthalenyl)-1-oxopropan-2-yl]amino]acetic acid methyl ester
> <PUBCHEM_IUPAC_NAME_MARKUP>
methyl 2-[[(2<I>S</I>)-1-[[(4<I>S</I>)-4-[(4-aminophenyl)sulfonyl-(2-methylpropyl)amino]-5-hydroxypentyl]amino]-3-naphthalen-1-yl-1-oxopropan-2-yl]amino]acetate
> <PUBCHEM_IUPAC_NAME>
methyl 2-[[(2S)-1-[[(4S)-4-[(4-aminophenyl)sulfonyl-(2-methylpropyl)amino]-5-hydroxypentyl]amino]-3-naphthalen-1-yl-1-oxopropan-2-yl]amino]acetate
> <PUBCHEM_IUPAC_SYSTEMATIC_NAME>
methyl 2-[[(2S)-1-[[(4S)-4-[(4-aminophenyl)sulfonyl-(2-methylpropyl)amino]-5-oxidanyl-pentyl]amino]-3-naphthalen-1-yl-1-oxidanylidene-propan-2-yl]amino]ethanoate
> <PUBCHEM_IUPAC_TRADITIONAL_NAME>
2-[[(1S)-2-[[(4S)-5-hydroxy-4-[isobutyl(sulfanilyl)amino]pentyl]amino]-2-keto-1-(1-naphthylmethyl)ethyl]amino]acetic acid methyl ester
> <PUBCHEM_IUPAC_INCHI>
InChI=1S/C31H42N4O6S/c1-22(2)20-35(42(39,40)27-15-13-25(32)14-16-27)26(21-36)11-7-17-33-31(38)29(34-19-30(37)41-3)18-24-10-6-9-23-8-4-5-12-28(23)24/h4-6,8-10,12-16,22,26,29,34,36H,7,11,17-21,32H2,1-3H3,(H,33,38)/t26-,29-/m0/s1
> <PUBCHEM_IUPAC_INCHIKEY>
GWKUIDPNYIJWLA-WNJJXGMVSA-N
> <PUBCHEM_XLOGP3_AA>
3.9
> <PUBCHEM_EXACT_MASS>
598.28250625
> <PUBCHEM_MOLECULAR_FORMULA>
C31H42N4O6S
> <PUBCHEM_MOLECULAR_WEIGHT>
598.8
> <PUBCHEM_OPENEYE_CAN_SMILES>
CC(C)CN(C(CCCNC(=O)C(CC1=CC=CC2=CC=CC=C21)NCC(=O)OC)CO)S(=O)(=O)C3=CC=C(C=C3)N
> <PUBCHEM_OPENEYE_ISO_SMILES>
CC(C)CN([C@@H](CCCNC(=O)[C@H](CC1=CC=CC2=CC=CC=C21)NCC(=O)OC)CO)S(=O)(=O)C3=CC=C(C=C3)N
> <PUBCHEM_CACTVS_TPSA>
159
> <PUBCHEM_MONOISOTOPIC_WEIGHT>
598.28250625
> <PUBCHEM_TOTAL_CHARGE>
0
> <PUBCHEM_HEAVY_ATOM_COUNT>
42
> <PUBCHEM_ATOM_DEF_STEREO_COUNT>
2
> <PUBCHEM_ATOM_UDEF_STEREO_COUNT>
0
> <PUBCHEM_BOND_DEF_STEREO_COUNT>
0
> <PUBCHEM_BOND_UDEF_STEREO_COUNT>
0
> <PUBCHEM_ISOTOPIC_ATOM_COUNT>
0
> <PUBCHEM_COMPONENT_COUNT>
1
> <PUBCHEM_CACTVS_TAUTO_COUNT>
-1
> <PUBCHEM_COORDINATE_TYPE>
1
5
255
> <PUBCHEM_BONDANNOTATIONS>
22  10  5
19  25  8
19  26  8
25  28  8
26  29  8
27  30  8
27  33  8
28  31  8
29  31  8
30  34  8
30  35  8
33  36  8
34  37  8
34  38  8
35  40  8
36  37  8
38  41  8
40  41  8
12  8  6
$$$$
