513978
  -OEChem-10302200282D
 88 90  0     1  0  0  0  0  0999 V2000
    4.2690   -3.2500    0.0000 S   0  0  0  0  0  0  0  0  0  0  0  0
    4.2690   -7.2500    0.0000 F   0  0  0  0  0  0  0  0  0  0  0  0
    2.5369    5.7500    0.0000 F   0  0  0  0  0  0  0  0  0  0  0  0
    6.8671   -1.7500    0.0000 O   0  0  0  0  0  0  0  0  0  0  0  0
    5.2690   -3.2500    0.0000 O   0  0  0  0  0  0  0  0  0  0  0  0
    3.2690   -3.2500    0.0000 O   0  0  0  0  0  0  0  0  0  0  0  0
    8.5991    2.2500    0.0000 O   0  0  0  0  0  0  0  0  0  0  0  0
   10.3312    4.2500    0.0000 O   0  0  0  0  0  0  0  0  0  0  0  0
    9.4651    2.7500    0.0000 O   0  0  0  0  0  0  0  0  0  0  0  0
    4.2690   -2.2500    0.0000 N   0  0  3  0  0  0  0  0  0  0  0  0
    6.8671    2.2500    0.0000 N   0  0  0  0  0  0  0  0  0  0  0  0
    8.5991    4.2500    0.0000 N   0  0  0  0  0  0  0  0  0  0  0  0
    2.5369   -6.2500    0.0000 N   0  0  0  0  0  0  0  0  0  0  0  0
    5.1350   -1.7500    0.0000 C   0  0  1  0  0  0  0  0  0  0  0  0
    5.1350   -0.7500    0.0000 C   0  0  0  0  0  0  0  0  0  0  0  0
    3.4030   -1.7500    0.0000 C   0  0  0  0  0  0  0  0  0  0  0  0
    6.0010   -0.2500    0.0000 C   0  0  0  0  0  0  0  0  0  0  0  0
    3.4030   -0.7500    0.0000 C   0  0  0  0  0  0  0  0  0  0  0  0
    6.0010   -2.2500    0.0000 C   0  0  0  0  0  0  0  0  0  0  0  0
    6.0010    0.7500    0.0000 C   0  0  0  0  0  0  0  0  0  0  0  0
    4.2690   -4.2500    0.0000 C   0  0  0  0  0  0  0  0  0  0  0  0
    2.5369   -0.2500    0.0000 C   0  0  0  0  0  0  0  0  0  0  0  0
    4.2690   -0.2500    0.0000 C   0  0  0  0  0  0  0  0  0  0  0  0
    6.8671    1.2500    0.0000 C   0  0  0  0  0  0  0  0  0  0  0  0
    3.4030   -4.7500    0.0000 C   0  0  0  0  0  0  0  0  0  0  0  0
    5.1350   -4.7500    0.0000 C   0  0  0  0  0  0  0  0  0  0  0  0
    7.7331    3.7500    0.0000 C   0  0  2  0  0  0  0  0  0  0  0  0
    7.7331    2.7500    0.0000 C   0  0  0  0  0  0  0  0  0  0  0  0
    3.4030   -5.7500    0.0000 C   0  0  0  0  0  0  0  0  0  0  0  0
    6.8671    4.2500    0.0000 C   0  0  0  0  0  0  0  0  0  0  0  0
    5.1350   -5.7500    0.0000 C   0  0  0  0  0  0  0  0  0  0  0  0
    4.2690   -6.2500    0.0000 C   0  0  0  0  0  0  0  0  0  0  0  0
    6.8671    5.2500    0.0000 C   0  0  0  0  0  0  0  0  0  0  0  0
    6.0010    5.7500    0.0000 C   0  0  0  0  0  0  0  0  0  0  0  0
    7.7331    5.7500    0.0000 C   0  0  0  0  0  0  0  0  0  0  0  0
    5.1350    5.2500    0.0000 C   0  0  0  0  0  0  0  0  0  0  0  0
    6.0010    6.7500    0.0000 C   0  0  0  0  0  0  0  0  0  0  0  0
    9.4651    3.7500    0.0000 C   0  0  0  0  0  0  0  0  0  0  0  0
    7.7331    6.7500    0.0000 C   0  0  0  0  0  0  0  0  0  0  0  0
    6.8671    7.2500    0.0000 C   0  0  0  0  0  0  0  0  0  0  0  0
    4.2690    5.7500    0.0000 C   0  0  0  0  0  0  0  0  0  0  0  0
    5.1350    4.2500    0.0000 C   0  0  0  0  0  0  0  0  0  0  0  0
    3.4030    5.2500    0.0000 C   0  0  0  0  0  0  0  0  0  0  0  0
    4.2690    3.7500    0.0000 C   0  0  0  0  0  0  0  0  0  0  0  0
    3.4030    4.2500    0.0000 C   0  0  0  0  0  0  0  0  0  0  0  0
   11.1972    3.7500    0.0000 C   0  0  0  0  0  0  0  0  0  0  0  0
    5.1350   -2.3700    0.0000 H   0  0  0  0  0  0  0  0  0  0  0  0
    4.9230   -0.1674    0.0000 H   0  0  0  0  0  0  0  0  0  0  0  0
    4.5244   -0.8577    0.0000 H   0  0  0  0  0  0  0  0  0  0  0  0
    2.7924   -1.6423    0.0000 H   0  0  0  0  0  0  0  0  0  0  0  0
    3.1909   -2.3326    0.0000 H   0  0  0  0  0  0  0  0  0  0  0  0
    6.2131   -0.8326    0.0000 H   0  0  0  0  0  0  0  0  0  0  0  0
    6.6116   -0.1423    0.0000 H   0  0  0  0  0  0  0  0  0  0  0  0
    3.4030   -0.1300    0.0000 H   0  0  0  0  0  0  0  0  0  0  0  0
    5.6025   -2.7250    0.0000 H   0  0  0  0  0  0  0  0  0  0  0  0
    6.3996   -2.7250    0.0000 H   0  0  0  0  0  0  0  0  0  0  0  0
    5.7890    1.3326    0.0000 H   0  0  0  0  0  0  0  0  0  0  0  0
    5.3905    0.6423    0.0000 H   0  0  0  0  0  0  0  0  0  0  0  0
    2.8469    0.2869    0.0000 H   0  0  0  0  0  0  0  0  0  0  0  0
    2.0000    0.0600    0.0000 H   0  0  0  0  0  0  0  0  0  0  0  0
    2.2269   -0.7869    0.0000 H   0  0  0  0  0  0  0  0  0  0  0  0
    4.5790   -0.7869    0.0000 H   0  0  0  0  0  0  0  0  0  0  0  0
    4.8059    0.0600    0.0000 H   0  0  0  0  0  0  0  0  0  0  0  0
    3.9590    0.2869    0.0000 H   0  0  0  0  0  0  0  0  0  0  0  0
    7.0791    0.6674    0.0000 H   0  0  0  0  0  0  0  0  0  0  0  0
    7.4776    1.3577    0.0000 H   0  0  0  0  0  0  0  0  0  0  0  0
    7.4040   -2.0600    0.0000 H   0  0  0  0  0  0  0  0  0  0  0  0
    6.3301    2.5600    0.0000 H   0  0  0  0  0  0  0  0  0  0  0  0
    2.8660   -4.4400    0.0000 H   0  0  0  0  0  0  0  0  0  0  0  0
    5.6720   -4.4400    0.0000 H   0  0  0  0  0  0  0  0  0  0  0  0
    7.7331    4.3700    0.0000 H   0  0  0  0  0  0  0  0  0  0  0  0
    6.2565    4.3577    0.0000 H   0  0  0  0  0  0  0  0  0  0  0  0
    6.6550    3.6674    0.0000 H   0  0  0  0  0  0  0  0  0  0  0  0
    5.6720   -6.0600    0.0000 H   0  0  0  0  0  0  0  0  0  0  0  0
    8.5991    4.8700    0.0000 H   0  0  0  0  0  0  0  0  0  0  0  0
    2.0000   -5.9400    0.0000 H   0  0  0  0  0  0  0  0  0  0  0  0
    2.5369   -6.8700    0.0000 H   0  0  0  0  0  0  0  0  0  0  0  0
    8.2700    5.4400    0.0000 H   0  0  0  0  0  0  0  0  0  0  0  0
    5.4641    7.0600    0.0000 H   0  0  0  0  0  0  0  0  0  0  0  0
    8.2700    7.0600    0.0000 H   0  0  0  0  0  0  0  0  0  0  0  0
    6.8671    7.8700    0.0000 H   0  0  0  0  0  0  0  0  0  0  0  0
    4.2690    6.3700    0.0000 H   0  0  0  0  0  0  0  0  0  0  0  0
    5.6720    3.9400    0.0000 H   0  0  0  0  0  0  0  0  0  0  0  0
    4.2690    3.1300    0.0000 H   0  0  0  0  0  0  0  0  0  0  0  0
    2.8660    3.9400    0.0000 H   0  0  0  0  0  0  0  0  0  0  0  0
   10.8872    3.2131    0.0000 H   0  0  0  0  0  0  0  0  0  0  0  0
   11.7341    3.4400    0.0000 H   0  0  0  0  0  0  0  0  0  0  0  0
   11.5072    4.2869    0.0000 H   0  0  0  0  0  0  0  0  0  0  0  0
  1  5  2  0  0  0  0
  1  6  2  0  0  0  0
  1 10  1  0  0  0  0
  1 21  1  0  0  0  0
  2 32  1  0  0  0  0
  3 43  1  0  0  0  0
  4 19  1  0  0  0  0
  4 67  1  0  0  0  0
  7 28  2  0  0  0  0
  8 38  1  0  0  0  0
  8 46  1  0  0  0  0
  9 38  2  0  0  0  0
 14 10  1  1  0  0  0
 10 16  1  0  0  0  0
 11 24  1  0  0  0  0
 11 28  1  0  0  0  0
 11 68  1  0  0  0  0
 27 12  1  6  0  0  0
 12 38  1  0  0  0  0
 12 75  1  0  0  0  0
 13 29  1  0  0  0  0
 13 76  1  0  0  0  0
 13 77  1  0  0  0  0
 14 15  1  0  0  0  0
 14 19  1  0  0  0  0
 14 47  1  0  0  0  0
 15 17  1  0  0  0  0
 15 48  1  0  0  0  0
 15 49  1  0  0  0  0
 16 18  1  0  0  0  0
 16 50  1  0  0  0  0
 16 51  1  0  0  0  0
 17 20  1  0  0  0  0
 17 52  1  0  0  0  0
 17 53  1  0  0  0  0
 18 22  1  0  0  0  0
 18 23  1  0  0  0  0
 18 54  1  0  0  0  0
 19 55  1  0  0  0  0
 19 56  1  0  0  0  0
 20 24  1  0  0  0  0
 20 57  1  0  0  0  0
 20 58  1  0  0  0  0
 21 25  2  0  0  0  0
 21 26  1  0  0  0  0
 22 59  1  0  0  0  0
 22 60  1  0  0  0  0
 22 61  1  0  0  0  0
 23 62  1  0  0  0  0
 23 63  1  0  0  0  0
 23 64  1  0  0  0  0
 24 65  1  0  0  0  0
 24 66  1  0  0  0  0
 25 29  1  0  0  0  0
 25 69  1  0  0  0  0
 26 31  2  0  0  0  0
 26 70  1  0  0  0  0
 27 28  1  0  0  0  0
 27 30  1  0  0  0  0
 27 71  1  0  0  0  0
 29 32  2  0  0  0  0
 30 33  1  0  0  0  0
 30 72  1  0  0  0  0
 30 73  1  0  0  0  0
 31 32  1  0  0  0  0
 31 74  1  0  0  0  0
 33 34  1  0  0  0  0
 33 35  2  0  0  0  0
 34 36  1  0  0  0  0
 34 37  2  0  0  0  0
 35 39  1  0  0  0  0
 35 78  1  0  0  0  0
 36 41  2  0  0  0  0
 36 42  1  0  0  0  0
 37 40  1  0  0  0  0
 37 79  1  0  0  0  0
 39 40  2  0  0  0  0
 39 80  1  0  0  0  0
 40 81  1  0  0  0  0
 41 43  1  0  0  0  0
 41 82  1  0  0  0  0
 42 44  2  0  0  0  0
 42 83  1  0  0  0  0
 43 45  2  0  0  0  0
 44 45  1  0  0  0  0
 44 84  1  0  0  0  0
 45 85  1  0  0  0  0
 46 86  1  0  0  0  0
 46 87  1  0  0  0  0
 46 88  1  0  0  0  0
M  END
> <PUBCHEM_COMPOUND_CID>
513978
> <PUBCHEM_COMPOUND_CANONICALIZED>
1
> <PUBCHEM_CACTVS_COMPLEXITY>
1050
> <PUBCHEM_CACTVS_HBOND_ACCEPTOR>
10
> <PUBCHEM_CACTVS_HBOND_DONOR>
4
> <PUBCHEM_CACTVS_ROTATABLE_BOND>
17
> <PUBCHEM_CACTVS_SUBSKEYS>
AAADcfB/uYBAAAAAAAAAAAAAAAAAAAAAAAAwYMAAAAAAAAABUAAAHwQQSAAADSjh2A4yyYLABgKIAiVSWHDCABAgAgAIiJmIZIkKcDKAkbGUYARklgCYyAeYyMCOgAAAACAQAAAAAAAAQCAAAAAAAAAAAA==
> <PUBCHEM_IUPAC_OPENEYE_NAME>
methyl N-[(1S)-2-[[(5S)-5-[(3-amino-4-fluoro-phenyl)sulfonyl-isobutyl-amino]-6-hydroxy-hexyl]amino]-1-[[2-(3-fluorophenyl)phenyl]methyl]-2-oxo-ethyl]carbamate
> <PUBCHEM_IUPAC_CAS_NAME>
N-[(2S)-1-[[(5S)-5-[(3-amino-4-fluorophenyl)sulfonyl-(2-methylpropyl)amino]-6-hydroxyhexyl]amino]-3-[2-(3-fluorophenyl)phenyl]-1-oxopropan-2-yl]carbamic acid methyl ester
> <PUBCHEM_IUPAC_NAME_MARKUP>
methyl <I>N</I>-[(2<I>S</I>)-1-[[(5<I>S</I>)-5-[(3-amino-4-fluorophenyl)sulfonyl-(2-methylpropyl)amino]-6-hydroxyhexyl]amino]-3-[2-(3-fluorophenyl)phenyl]-1-oxopropan-2-yl]carbamate
> <PUBCHEM_IUPAC_NAME>
methyl N-[(2S)-1-[[(5S)-5-[(3-amino-4-fluorophenyl)sulfonyl-(2-methylpropyl)amino]-6-hydroxyhexyl]amino]-3-[2-(3-fluorophenyl)phenyl]-1-oxopropan-2-yl]carbamate
> <PUBCHEM_IUPAC_SYSTEMATIC_NAME>
methyl N-[(2S)-1-[[(5S)-5-[(3-azanyl-4-fluoranyl-phenyl)sulfonyl-(2-methylpropyl)amino]-6-oxidanyl-hexyl]amino]-3-[2-(3-fluorophenyl)phenyl]-1-oxidanylidene-propan-2-yl]carbamate
> <PUBCHEM_IUPAC_TRADITIONAL_NAME>
N-[(1S)-2-[[(5S)-5-[(3-amino-4-fluoro-phenyl)sulfonyl-isobutyl-amino]-6-hydroxy-hexyl]amino]-1-[2-(3-fluorophenyl)benzyl]-2-keto-ethyl]carbamic acid methyl ester
> <PUBCHEM_IUPAC_INCHI>
InChI=1S/C33H42F2N4O6S/c1-22(2)20-39(46(43,44)27-14-15-29(35)30(36)19-27)26(21-40)12-6-7-16-37-32(41)31(38-33(42)45-3)18-24-9-4-5-13-28(24)23-10-8-11-25(34)17-23/h4-5,8-11,13-15,17,19,22,26,31,40H,6-7,12,16,18,20-21,36H2,1-3H3,(H,37,41)(H,38,42)/t26-,31-/m0/s1
> <PUBCHEM_IUPAC_INCHIKEY>
HPXYFZZGYQDNDJ-HVNZXBJASA-N
> <PUBCHEM_XLOGP3_AA>
5.1
> <PUBCHEM_EXACT_MASS>
660.27931257
> <PUBCHEM_MOLECULAR_FORMULA>
C33H42F2N4O6S
> <PUBCHEM_MOLECULAR_WEIGHT>
660.8
> <PUBCHEM_OPENEYE_CAN_SMILES>
CC(C)CN(C(CCCCNC(=O)C(CC1=CC=CC=C1C2=CC(=CC=C2)F)NC(=O)OC)CO)S(=O)(=O)C3=CC(=C(C=C3)F)N
> <PUBCHEM_OPENEYE_ISO_SMILES>
CC(C)CN([C@@H](CCCCNC(=O)[C@H](CC1=CC=CC=C1C2=CC(=CC=C2)F)NC(=O)OC)CO)S(=O)(=O)C3=CC(=C(C=C3)F)N
> <PUBCHEM_CACTVS_TPSA>
159
> <PUBCHEM_MONOISOTOPIC_WEIGHT>
660.27931257
> <PUBCHEM_TOTAL_CHARGE>
0
> <PUBCHEM_HEAVY_ATOM_COUNT>
46
> <PUBCHEM_ATOM_DEF_STEREO_COUNT>
2
> <PUBCHEM_ATOM_UDEF_STEREO_COUNT>
0
> <PUBCHEM_BOND_DEF_STEREO_COUNT>
0
> <PUBCHEM_BOND_UDEF_STEREO_COUNT>
0
> <PUBCHEM_ISOTOPIC_ATOM_COUNT>
0
> <PUBCHEM_COMPONENT_COUNT>
1
> <PUBCHEM_CACTVS_TAUTO_COUNT>
-1
> <PUBCHEM_COORDINATE_TYPE>
1
5
255
> <PUBCHEM_BONDANNOTATIONS>
14  10  5
27  12  6
21  25  8
21  26  8
25  29  8
26  31  8
29  32  8
31  32  8
33  34  8
33  35  8
34  37  8
35  39  8
36  41  8
36  42  8
37  40  8
39  40  8
41  43  8
42  44  8
43  45  8
44  45  8
$$$$
