513945
  -OEChem-10302200282D
 90 93  0     1  0  0  0  0  0999 V2000
    6.0010    0.2521    0.0000 S   0  0  0  0  0  0  0  0  0  0  0  0
   14.6613   -0.7479    0.0000 O   0  0  0  0  0  0  0  0  0  0  0  0
    6.8671   -1.2479    0.0000 O   0  0  0  0  0  0  0  0  0  0  0  0
    5.5010    1.1181    0.0000 O   0  0  0  0  0  0  0  0  0  0  0  0
    6.5010   -0.6139    0.0000 O   0  0  0  0  0  0  0  0  0  0  0  0
   12.0632    1.7521    0.0000 O   0  0  0  0  0  0  0  0  0  0  0  0
    6.8671    0.7521    0.0000 N   0  0  3  0  0  0  0  0  0  0  0  0
   12.9292   -0.7479    0.0000 N   0  0  0  0  0  0  0  0  0  0  0  0
   11.1972    0.2521    0.0000 N   0  0  0  0  0  0  0  0  0  0  0  0
    2.5369   -1.7479    0.0000 N   0  0  0  0  0  0  0  0  0  0  0  0
   13.7953   -2.2479    0.0000 C   0  0  0  0  0  0  0  0  0  0  0  0
   14.6043   -2.8357    0.0000 C   0  0  0  0  0  0  0  0  0  0  0  0
   12.9862   -2.8357    0.0000 C   0  0  0  0  0  0  0  0  0  0  0  0
   14.2953   -3.7868    0.0000 C   0  0  0  0  0  0  0  0  0  0  0  0
   13.2953   -3.7868    0.0000 C   0  0  0  0  0  0  0  0  0  0  0  0
   13.7953   -1.2479    0.0000 C   0  0  0  0  0  0  0  0  0  0  0  0
    7.7331    0.2521    0.0000 C   0  0  1  0  0  0  0  0  0  0  0  0
    8.5991    0.7521    0.0000 C   0  0  0  0  0  0  0  0  0  0  0  0
   12.9292    0.2521    0.0000 C   0  0  1  0  0  0  0  0  0  0  0  0
    6.8671    1.7521    0.0000 C   0  0  0  0  0  0  0  0  0  0  0  0
    9.4651    0.2521    0.0000 C   0  0  0  0  0  0  0  0  0  0  0  0
    7.7331    2.2521    0.0000 C   0  0  0  0  0  0  0  0  0  0  0  0
    7.7331   -0.7479    0.0000 C   0  0  0  0  0  0  0  0  0  0  0  0
   13.7953    0.7521    0.0000 C   0  0  0  0  0  0  0  0  0  0  0  0
   10.3312    0.7521    0.0000 C   0  0  0  0  0  0  0  0  0  0  0  0
   12.0632    0.7521    0.0000 C   0  0  0  0  0  0  0  0  0  0  0  0
    5.1350   -0.2479    0.0000 C   0  0  0  0  0  0  0  0  0  0  0  0
    7.7331    3.2521    0.0000 C   0  0  0  0  0  0  0  0  0  0  0  0
    8.5991    1.7521    0.0000 C   0  0  0  0  0  0  0  0  0  0  0  0
   13.7953    1.7521    0.0000 C   0  0  0  0  0  0  0  0  0  0  0  0
   14.6613    2.2521    0.0000 C   0  0  0  0  0  0  0  0  0  0  0  0
    4.2690    0.2521    0.0000 C   0  0  0  0  0  0  0  0  0  0  0  0
    5.1350   -1.2479    0.0000 C   0  0  0  0  0  0  0  0  0  0  0  0
   12.9292    2.2521    0.0000 C   0  0  0  0  0  0  0  0  0  0  0  0
   14.6613    3.2521    0.0000 C   0  0  0  0  0  0  0  0  0  0  0  0
   12.9292    3.2521    0.0000 C   0  0  0  0  0  0  0  0  0  0  0  0
   15.5552    1.7174    0.0000 C   0  0  0  0  0  0  0  0  0  0  0  0
    3.4030   -0.2479    0.0000 C   0  0  0  0  0  0  0  0  0  0  0  0
    4.2690   -1.7479    0.0000 C   0  0  0  0  0  0  0  0  0  0  0  0
   13.7953    3.7521    0.0000 C   0  0  0  0  0  0  0  0  0  0  0  0
    3.4030   -1.2479    0.0000 C   0  0  0  0  0  0  0  0  0  0  0  0
   15.5552    3.7868    0.0000 C   0  0  0  0  0  0  0  0  0  0  0  0
   16.4613    2.2313    0.0000 C   0  0  0  0  0  0  0  0  0  0  0  0
   16.4613    3.2729    0.0000 C   0  0  0  0  0  0  0  0  0  0  0  0
   14.3477   -1.9664    0.0000 H   0  0  0  0  0  0  0  0  0  0  0  0
   15.1707   -3.0879    0.0000 H   0  0  0  0  0  0  0  0  0  0  0  0
   14.9143   -2.2988    0.0000 H   0  0  0  0  0  0  0  0  0  0  0  0
   12.6762   -2.2988    0.0000 H   0  0  0  0  0  0  0  0  0  0  0  0
   12.4199   -3.0879    0.0000 H   0  0  0  0  0  0  0  0  0  0  0  0
   14.2305   -4.4034    0.0000 H   0  0  0  0  0  0  0  0  0  0  0  0
   14.9017   -3.9157    0.0000 H   0  0  0  0  0  0  0  0  0  0  0  0
   12.6888   -3.9157    0.0000 H   0  0  0  0  0  0  0  0  0  0  0  0
   13.3601   -4.4034    0.0000 H   0  0  0  0  0  0  0  0  0  0  0  0
    7.7331    0.8721    0.0000 H   0  0  0  0  0  0  0  0  0  0  0  0
    8.9976    1.2270    0.0000 H   0  0  0  0  0  0  0  0  0  0  0  0
    8.2006    1.2270    0.0000 H   0  0  0  0  0  0  0  0  0  0  0  0
   12.3923   -0.0579    0.0000 H   0  0  0  0  0  0  0  0  0  0  0  0
   12.3923   -1.0579    0.0000 H   0  0  0  0  0  0  0  0  0  0  0  0
    6.6550    2.3347    0.0000 H   0  0  0  0  0  0  0  0  0  0  0  0
    6.2565    1.6444    0.0000 H   0  0  0  0  0  0  0  0  0  0  0  0
    9.0666   -0.2229    0.0000 H   0  0  0  0  0  0  0  0  0  0  0  0
    9.8637   -0.2229    0.0000 H   0  0  0  0  0  0  0  0  0  0  0  0
    7.7331    1.6321    0.0000 H   0  0  0  0  0  0  0  0  0  0  0  0
    7.9451   -1.3305    0.0000 H   0  0  0  0  0  0  0  0  0  0  0  0
    8.3437   -0.6402    0.0000 H   0  0  0  0  0  0  0  0  0  0  0  0
   14.0073    0.1695    0.0000 H   0  0  0  0  0  0  0  0  0  0  0  0
   14.4058    0.8598    0.0000 H   0  0  0  0  0  0  0  0  0  0  0  0
   10.7297    1.2270    0.0000 H   0  0  0  0  0  0  0  0  0  0  0  0
    9.9326    1.2270    0.0000 H   0  0  0  0  0  0  0  0  0  0  0  0
   11.1972   -0.3679    0.0000 H   0  0  0  0  0  0  0  0  0  0  0  0
    8.3531    3.2521    0.0000 H   0  0  0  0  0  0  0  0  0  0  0  0
    7.7331    3.8721    0.0000 H   0  0  0  0  0  0  0  0  0  0  0  0
    7.1131    3.2521    0.0000 H   0  0  0  0  0  0  0  0  0  0  0  0
    8.2891    1.2152    0.0000 H   0  0  0  0  0  0  0  0  0  0  0  0
    9.1360    1.4421    0.0000 H   0  0  0  0  0  0  0  0  0  0  0  0
    8.9091    2.2890    0.0000 H   0  0  0  0  0  0  0  0  0  0  0  0
    6.8671   -1.8679    0.0000 H   0  0  0  0  0  0  0  0  0  0  0  0
    4.2690    0.8721    0.0000 H   0  0  0  0  0  0  0  0  0  0  0  0
    5.6720   -1.5579    0.0000 H   0  0  0  0  0  0  0  0  0  0  0  0
   12.3923    1.9421    0.0000 H   0  0  0  0  0  0  0  0  0  0  0  0
   15.5481    1.0975    0.0000 H   0  0  0  0  0  0  0  0  0  0  0  0
   12.3923    3.5621    0.0000 H   0  0  0  0  0  0  0  0  0  0  0  0
    2.8660    0.0621    0.0000 H   0  0  0  0  0  0  0  0  0  0  0  0
    4.2690   -2.3679    0.0000 H   0  0  0  0  0  0  0  0  0  0  0  0
   13.7953    4.3721    0.0000 H   0  0  0  0  0  0  0  0  0  0  0  0
   15.5481    4.4067    0.0000 H   0  0  0  0  0  0  0  0  0  0  0  0
   16.9970    1.9192    0.0000 H   0  0  0  0  0  0  0  0  0  0  0  0
   16.9970    3.5850    0.0000 H   0  0  0  0  0  0  0  0  0  0  0  0
    2.0000   -1.4379    0.0000 H   0  0  0  0  0  0  0  0  0  0  0  0
    2.5369   -2.3679    0.0000 H   0  0  0  0  0  0  0  0  0  0  0  0
  1  4  2  0  0  0  0
  1  5  2  0  0  0  0
  1  7  1  0  0  0  0
  1 27  1  0  0  0  0
  2 16  2  0  0  0  0
  3 23  1  0  0  0  0
  3 77  1  0  0  0  0
  6 26  2  0  0  0  0
 17  7  1  1  0  0  0
  7 20  1  0  0  0  0
  8 16  1  0  0  0  0
 19  8  1  6  0  0  0
  8 58  1  0  0  0  0
  9 25  1  0  0  0  0
  9 26  1  0  0  0  0
  9 70  1  0  0  0  0
 10 41  1  0  0  0  0
 10 89  1  0  0  0  0
 10 90  1  0  0  0  0
 11 12  1  0  0  0  0
 11 13  1  0  0  0  0
 11 16  1  0  0  0  0
 11 45  1  0  0  0  0
 12 14  1  0  0  0  0
 12 46  1  0  0  0  0
 12 47  1  0  0  0  0
 13 15  1  0  0  0  0
 13 48  1  0  0  0  0
 13 49  1  0  0  0  0
 14 15  1  0  0  0  0
 14 50  1  0  0  0  0
 14 51  1  0  0  0  0
 15 52  1  0  0  0  0
 15 53  1  0  0  0  0
 17 18  1  0  0  0  0
 17 23  1  0  0  0  0
 17 54  1  0  0  0  0
 18 21  1  0  0  0  0
 18 55  1  0  0  0  0
 18 56  1  0  0  0  0
 19 24  1  0  0  0  0
 19 26  1  0  0  0  0
 19 57  1  0  0  0  0
 20 22  1  0  0  0  0
 20 59  1  0  0  0  0
 20 60  1  0  0  0  0
 21 25  1  0  0  0  0
 21 61  1  0  0  0  0
 21 62  1  0  0  0  0
 22 28  1  0  0  0  0
 22 29  1  0  0  0  0
 22 63  1  0  0  0  0
 23 64  1  0  0  0  0
 23 65  1  0  0  0  0
 24 30  1  0  0  0  0
 24 66  1  0  0  0  0
 24 67  1  0  0  0  0
 25 68  1  0  0  0  0
 25 69  1  0  0  0  0
 27 32  2  0  0  0  0
 27 33  1  0  0  0  0
 28 71  1  0  0  0  0
 28 72  1  0  0  0  0
 28 73  1  0  0  0  0
 29 74  1  0  0  0  0
 29 75  1  0  0  0  0
 29 76  1  0  0  0  0
 30 31  1  0  0  0  0
 30 34  2  0  0  0  0
 31 35  1  0  0  0  0
 31 37  2  0  0  0  0
 32 38  1  0  0  0  0
 32 78  1  0  0  0  0
 33 39  2  0  0  0  0
 33 79  1  0  0  0  0
 34 36  1  0  0  0  0
 34 80  1  0  0  0  0
 35 40  1  0  0  0  0
 35 42  2  0  0  0  0
 36 40  2  0  0  0  0
 36 82  1  0  0  0  0
 37 43  1  0  0  0  0
 37 81  1  0  0  0  0
 38 41  2  0  0  0  0
 38 83  1  0  0  0  0
 39 41  1  0  0  0  0
 39 84  1  0  0  0  0
 40 85  1  0  0  0  0
 42 44  1  0  0  0  0
 42 86  1  0  0  0  0
 43 44  2  0  0  0  0
 43 87  1  0  0  0  0
 44 88  1  0  0  0  0
M  END
> <PUBCHEM_COMPOUND_CID>
513945
> <PUBCHEM_COMPOUND_CANONICALIZED>
1
> <PUBCHEM_CACTVS_COMPLEXITY>
1000
> <PUBCHEM_CACTVS_HBOND_ACCEPTOR>
7
> <PUBCHEM_CACTVS_HBOND_DONOR>
4
> <PUBCHEM_CACTVS_ROTATABLE_BOND>
15
> <PUBCHEM_CACTVS_SUBSKEYS>
AAADcfB/uABAAAAAAAAAAAAAAAAAAYAAAAAwYMAAAAAAAADBVAAAHgQQSAAADSjh2AYywcLAAgKIAiVSUHDCABAgAgAIiJmIZIgKcDKAkbGUYABklgCYyAeYmMKOgAQCAAAQAAAACAQAACAAAAAAAAAAAA==
> <PUBCHEM_IUPAC_OPENEYE_NAME>
N-[(1S)-2-[[(4S)-4-[(4-aminophenyl)sulfonyl-isobutyl-amino]-5-hydroxy-pentyl]amino]-1-(1-naphthylmethyl)-2-oxo-ethyl]cyclopentanecarboxamide
> <PUBCHEM_IUPAC_CAS_NAME>
N-[(2S)-1-[[(4S)-4-[(4-aminophenyl)sulfonyl-(2-methylpropyl)amino]-5-hydroxypentyl]amino]-3-(1-naphthalenyl)-1-oxopropan-2-yl]cyclopentanecarboxamide
> <PUBCHEM_IUPAC_NAME_MARKUP>
<I>N</I>-[(2<I>S</I>)-1-[[(4<I>S</I>)-4-[(4-aminophenyl)sulfonyl-(2-methylpropyl)amino]-5-hydroxypentyl]amino]-3-naphthalen-1-yl-1-oxopropan-2-yl]cyclopentanecarboxamide
> <PUBCHEM_IUPAC_NAME>
N-[(2S)-1-[[(4S)-4-[(4-aminophenyl)sulfonyl-(2-methylpropyl)amino]-5-hydroxypentyl]amino]-3-naphthalen-1-yl-1-oxopropan-2-yl]cyclopentanecarboxamide
> <PUBCHEM_IUPAC_SYSTEMATIC_NAME>
N-[(2S)-1-[[(4S)-4-[(4-aminophenyl)sulfonyl-(2-methylpropyl)amino]-5-oxidanyl-pentyl]amino]-3-naphthalen-1-yl-1-oxidanylidene-propan-2-yl]cyclopentanecarboxamide
> <PUBCHEM_IUPAC_TRADITIONAL_NAME>
N-[(1S)-2-[[(4S)-5-hydroxy-4-[isobutyl(sulfanilyl)amino]pentyl]amino]-2-keto-1-(1-naphthylmethyl)ethyl]cyclopentanecarboxamide
> <PUBCHEM_IUPAC_INCHI>
InChI=1S/C34H46N4O5S/c1-24(2)22-38(44(42,43)30-18-16-28(35)17-19-30)29(23-39)14-8-20-36-34(41)32(37-33(40)26-10-3-4-11-26)21-27-13-7-12-25-9-5-6-15-31(25)27/h5-7,9,12-13,15-19,24,26,29,32,39H,3-4,8,10-11,14,20-23,35H2,1-2H3,(H,36,41)(H,37,40)/t29-,32-/m0/s1
> <PUBCHEM_IUPAC_INCHIKEY>
RKELLRMRNRGOSR-NYDCQLBNSA-N
> <PUBCHEM_XLOGP3_AA>
5.3
> <PUBCHEM_EXACT_MASS>
622.31889175
> <PUBCHEM_MOLECULAR_FORMULA>
C34H46N4O5S
> <PUBCHEM_MOLECULAR_WEIGHT>
622.8
> <PUBCHEM_OPENEYE_CAN_SMILES>
CC(C)CN(C(CCCNC(=O)C(CC1=CC=CC2=CC=CC=C21)NC(=O)C3CCCC3)CO)S(=O)(=O)C4=CC=C(C=C4)N
> <PUBCHEM_OPENEYE_ISO_SMILES>
CC(C)CN([C@@H](CCCNC(=O)[C@H](CC1=CC=CC2=CC=CC=C21)NC(=O)C3CCCC3)CO)S(=O)(=O)C4=CC=C(C=C4)N
> <PUBCHEM_CACTVS_TPSA>
150
> <PUBCHEM_MONOISOTOPIC_WEIGHT>
622.31889175
> <PUBCHEM_TOTAL_CHARGE>
0
> <PUBCHEM_HEAVY_ATOM_COUNT>
44
> <PUBCHEM_ATOM_DEF_STEREO_COUNT>
2
> <PUBCHEM_ATOM_UDEF_STEREO_COUNT>
0
> <PUBCHEM_BOND_DEF_STEREO_COUNT>
0
> <PUBCHEM_BOND_UDEF_STEREO_COUNT>
0
> <PUBCHEM_ISOTOPIC_ATOM_COUNT>
0
> <PUBCHEM_COMPONENT_COUNT>
1
> <PUBCHEM_CACTVS_TAUTO_COUNT>
-1
> <PUBCHEM_COORDINATE_TYPE>
1
5
255
> <PUBCHEM_BONDANNOTATIONS>
27  32  8
27  33  8
30  31  8
30  34  8
31  35  8
31  37  8
32  38  8
33  39  8
34  36  8
35  40  8
35  42  8
36  40  8
37  43  8
38  41  8
39  41  8
42  44  8
43  44  8
17  7  5
19  8  6
$$$$
