513981
  -OEChem-10302200282D
 97 99  0     1  0  0  0  0  0999 V2000
    3.7320   -4.5950    0.0000 S   0  0  0  0  0  0  0  0  0  0  0  0
    6.3301   -3.0950    0.0000 O   0  0  0  0  0  0  0  0  0  0  0  0
    4.7320   -4.5950    0.0000 O   0  0  0  0  0  0  0  0  0  0  0  0
    2.7320   -4.5950    0.0000 O   0  0  0  0  0  0  0  0  0  0  0  0
    8.0622    0.9050    0.0000 O   0  0  0  0  0  0  0  0  0  0  0  0
    9.7942    2.9050    0.0000 O   0  0  0  0  0  0  0  0  0  0  0  0
    8.9282    1.4050    0.0000 O   0  0  0  0  0  0  0  0  0  0  0  0
    3.7320   -3.5950    0.0000 N   0  0  3  0  0  0  0  0  0  0  0  0
    6.3301    0.9050    0.0000 N   0  0  0  0  0  0  0  0  0  0  0  0
    8.0622    2.9050    0.0000 N   0  0  0  0  0  0  0  0  0  0  0  0
    3.7320   -8.5950    0.0000 N   0  0  0  0  0  0  0  0  0  0  0  0
    4.5981   -3.0950    0.0000 C   0  0  1  0  0  0  0  0  0  0  0  0
    4.5981   -2.0950    0.0000 C   0  0  0  0  0  0  0  0  0  0  0  0
    2.8660   -3.0950    0.0000 C   0  0  0  0  0  0  0  0  0  0  0  0
    5.4641   -1.5950    0.0000 C   0  0  0  0  0  0  0  0  0  0  0  0
    2.8660   -2.0950    0.0000 C   0  0  0  0  0  0  0  0  0  0  0  0
    5.4641   -3.5950    0.0000 C   0  0  0  0  0  0  0  0  0  0  0  0
    5.4641   -0.5950    0.0000 C   0  0  0  0  0  0  0  0  0  0  0  0
    3.7320   -5.5950    0.0000 C   0  0  0  0  0  0  0  0  0  0  0  0
    2.0000   -1.5950    0.0000 C   0  0  0  0  0  0  0  0  0  0  0  0
    3.7320   -1.5950    0.0000 C   0  0  0  0  0  0  0  0  0  0  0  0
    6.3301   -0.0950    0.0000 C   0  0  0  0  0  0  0  0  0  0  0  0
    4.5981   -6.0950    0.0000 C   0  0  0  0  0  0  0  0  0  0  0  0
    2.8660   -6.0950    0.0000 C   0  0  0  0  0  0  0  0  0  0  0  0
    7.1962    2.4050    0.0000 C   0  0  2  0  0  0  0  0  0  0  0  0
    7.1962    1.4050    0.0000 C   0  0  0  0  0  0  0  0  0  0  0  0
    4.5981   -7.0950    0.0000 C   0  0  0  0  0  0  0  0  0  0  0  0
    2.8660   -7.0950    0.0000 C   0  0  0  0  0  0  0  0  0  0  0  0
    6.3301    2.9050    0.0000 C   0  0  0  0  0  0  0  0  0  0  0  0
    3.7320   -7.5950    0.0000 C   0  0  0  0  0  0  0  0  0  0  0  0
    6.3301    3.9050    0.0000 C   0  0  0  0  0  0  0  0  0  0  0  0
   10.6603    2.4050    0.0000 C   0  0  0  0  0  0  0  0  0  0  0  0
    8.9282    2.4050    0.0000 C   0  0  0  0  0  0  0  0  0  0  0  0
    7.1962    4.4050    0.0000 C   0  0  0  0  0  0  0  0  0  0  0  0
    5.4641    4.4050    0.0000 C   0  0  0  0  0  0  0  0  0  0  0  0
    6.3301    5.9050    0.0000 C   0  0  0  0  0  0  0  0  0  0  0  0
    7.1962    5.4050    0.0000 C   0  0  0  0  0  0  0  0  0  0  0  0
    5.4641    5.4050    0.0000 C   0  0  0  0  0  0  0  0  0  0  0  0
   11.5263    1.9050    0.0000 C   0  0  0  0  0  0  0  0  0  0  0  0
   11.1603    3.2710    0.0000 C   0  0  0  0  0  0  0  0  0  0  0  0
   10.1603    1.5390    0.0000 C   0  0  0  0  0  0  0  0  0  0  0  0
    6.3301    6.9050    0.0000 C   0  0  0  0  0  0  0  0  0  0  0  0
    5.4641    7.4050    0.0000 C   0  0  0  0  0  0  0  0  0  0  0  0
    7.1962    7.4050    0.0000 C   0  0  0  0  0  0  0  0  0  0  0  0
    5.4641    8.4050    0.0000 C   0  0  0  0  0  0  0  0  0  0  0  0
    7.1962    8.4050    0.0000 C   0  0  0  0  0  0  0  0  0  0  0  0
    6.3301    8.9050    0.0000 C   0  0  0  0  0  0  0  0  0  0  0  0
    4.5981   -3.7150    0.0000 H   0  0  0  0  0  0  0  0  0  0  0  0
    4.3860   -1.5124    0.0000 H   0  0  0  0  0  0  0  0  0  0  0  0
    3.9875   -2.2027    0.0000 H   0  0  0  0  0  0  0  0  0  0  0  0
    2.2554   -2.9873    0.0000 H   0  0  0  0  0  0  0  0  0  0  0  0
    2.6540   -3.6776    0.0000 H   0  0  0  0  0  0  0  0  0  0  0  0
    5.6762   -2.1776    0.0000 H   0  0  0  0  0  0  0  0  0  0  0  0
    6.0747   -1.4873    0.0000 H   0  0  0  0  0  0  0  0  0  0  0  0
    2.8660   -1.4750    0.0000 H   0  0  0  0  0  0  0  0  0  0  0  0
    5.0656   -4.0700    0.0000 H   0  0  0  0  0  0  0  0  0  0  0  0
    5.8626   -4.0700    0.0000 H   0  0  0  0  0  0  0  0  0  0  0  0
    5.2520   -0.0124    0.0000 H   0  0  0  0  0  0  0  0  0  0  0  0
    4.8535   -0.7027    0.0000 H   0  0  0  0  0  0  0  0  0  0  0  0
    2.3100   -1.0581    0.0000 H   0  0  0  0  0  0  0  0  0  0  0  0
    1.4631   -1.2850    0.0000 H   0  0  0  0  0  0  0  0  0  0  0  0
    1.6900   -2.1319    0.0000 H   0  0  0  0  0  0  0  0  0  0  0  0
    4.0420   -2.1319    0.0000 H   0  0  0  0  0  0  0  0  0  0  0  0
    4.2690   -1.2850    0.0000 H   0  0  0  0  0  0  0  0  0  0  0  0
    3.4220   -1.0581    0.0000 H   0  0  0  0  0  0  0  0  0  0  0  0
    6.5422   -0.6776    0.0000 H   0  0  0  0  0  0  0  0  0  0  0  0
    6.9407    0.0127    0.0000 H   0  0  0  0  0  0  0  0  0  0  0  0
    6.8671   -3.4050    0.0000 H   0  0  0  0  0  0  0  0  0  0  0  0
    5.7932    1.2150    0.0000 H   0  0  0  0  0  0  0  0  0  0  0  0
    5.1350   -5.7850    0.0000 H   0  0  0  0  0  0  0  0  0  0  0  0
    2.3291   -5.7850    0.0000 H   0  0  0  0  0  0  0  0  0  0  0  0
    7.7331    2.0950    0.0000 H   0  0  0  0  0  0  0  0  0  0  0  0
    5.1350   -7.4050    0.0000 H   0  0  0  0  0  0  0  0  0  0  0  0
    2.3291   -7.4050    0.0000 H   0  0  0  0  0  0  0  0  0  0  0  0
    5.7196    3.0127    0.0000 H   0  0  0  0  0  0  0  0  0  0  0  0
    6.1181    2.3224    0.0000 H   0  0  0  0  0  0  0  0  0  0  0  0
    8.0622    3.5250    0.0000 H   0  0  0  0  0  0  0  0  0  0  0  0
    3.1951   -8.9050    0.0000 H   0  0  0  0  0  0  0  0  0  0  0  0
    4.2690   -8.9050    0.0000 H   0  0  0  0  0  0  0  0  0  0  0  0
    7.7331    4.0950    0.0000 H   0  0  0  0  0  0  0  0  0  0  0  0
    4.9272    4.0950    0.0000 H   0  0  0  0  0  0  0  0  0  0  0  0
    7.7331    5.7150    0.0000 H   0  0  0  0  0  0  0  0  0  0  0  0
    4.9272    5.7150    0.0000 H   0  0  0  0  0  0  0  0  0  0  0  0
   11.2163    1.3681    0.0000 H   0  0  0  0  0  0  0  0  0  0  0  0
   12.0632    1.5950    0.0000 H   0  0  0  0  0  0  0  0  0  0  0  0
   11.8363    2.4419    0.0000 H   0  0  0  0  0  0  0  0  0  0  0  0
   11.6972    2.9610    0.0000 H   0  0  0  0  0  0  0  0  0  0  0  0
   11.4703    3.8080    0.0000 H   0  0  0  0  0  0  0  0  0  0  0  0
   10.6233    3.5810    0.0000 H   0  0  0  0  0  0  0  0  0  0  0  0
    9.6233    1.8490    0.0000 H   0  0  0  0  0  0  0  0  0  0  0  0
    9.8503    1.0020    0.0000 H   0  0  0  0  0  0  0  0  0  0  0  0
   10.6972    1.2290    0.0000 H   0  0  0  0  0  0  0  0  0  0  0  0
    4.9272    7.0950    0.0000 H   0  0  0  0  0  0  0  0  0  0  0  0
    7.7331    7.0950    0.0000 H   0  0  0  0  0  0  0  0  0  0  0  0
    4.9272    8.7150    0.0000 H   0  0  0  0  0  0  0  0  0  0  0  0
    7.7331    8.7150    0.0000 H   0  0  0  0  0  0  0  0  0  0  0  0
    6.3301    9.5250    0.0000 H   0  0  0  0  0  0  0  0  0  0  0  0
  1  3  2  0  0  0  0
  1  4  2  0  0  0  0
  1  8  1  0  0  0  0
  1 19  1  0  0  0  0
  2 17  1  0  0  0  0
  2 68  1  0  0  0  0
  5 26  2  0  0  0  0
  6 32  1  0  0  0  0
  6 33  1  0  0  0  0
  7 33  2  0  0  0  0
 12  8  1  1  0  0  0
  8 14  1  0  0  0  0
  9 22  1  0  0  0  0
  9 26  1  0  0  0  0
  9 69  1  0  0  0  0
 25 10  1  6  0  0  0
 10 33  1  0  0  0  0
 10 77  1  0  0  0  0
 11 30  1  0  0  0  0
 11 78  1  0  0  0  0
 11 79  1  0  0  0  0
 12 13  1  0  0  0  0
 12 17  1  0  0  0  0
 12 48  1  0  0  0  0
 13 15  1  0  0  0  0
 13 49  1  0  0  0  0
 13 50  1  0  0  0  0
 14 16  1  0  0  0  0
 14 51  1  0  0  0  0
 14 52  1  0  0  0  0
 15 18  1  0  0  0  0
 15 53  1  0  0  0  0
 15 54  1  0  0  0  0
 16 20  1  0  0  0  0
 16 21  1  0  0  0  0
 16 55  1  0  0  0  0
 17 56  1  0  0  0  0
 17 57  1  0  0  0  0
 18 22  1  0  0  0  0
 18 58  1  0  0  0  0
 18 59  1  0  0  0  0
 19 23  2  0  0  0  0
 19 24  1  0  0  0  0
 20 60  1  0  0  0  0
 20 61  1  0  0  0  0
 20 62  1  0  0  0  0
 21 63  1  0  0  0  0
 21 64  1  0  0  0  0
 21 65  1  0  0  0  0
 22 66  1  0  0  0  0
 22 67  1  0  0  0  0
 23 27  1  0  0  0  0
 23 70  1  0  0  0  0
 24 28  2  0  0  0  0
 24 71  1  0  0  0  0
 25 26  1  0  0  0  0
 25 29  1  0  0  0  0
 25 72  1  0  0  0  0
 27 30  2  0  0  0  0
 27 73  1  0  0  0  0
 28 30  1  0  0  0  0
 28 74  1  0  0  0  0
 29 31  1  0  0  0  0
 29 75  1  0  0  0  0
 29 76  1  0  0  0  0
 31 34  2  0  0  0  0
 31 35  1  0  0  0  0
 32 39  1  0  0  0  0
 32 40  1  0  0  0  0
 32 41  1  0  0  0  0
 34 37  1  0  0  0  0
 34 80  1  0  0  0  0
 35 38  2  0  0  0  0
 35 81  1  0  0  0  0
 36 37  2  0  0  0  0
 36 38  1  0  0  0  0
 36 42  1  0  0  0  0
 37 82  1  0  0  0  0
 38 83  1  0  0  0  0
 39 84  1  0  0  0  0
 39 85  1  0  0  0  0
 39 86  1  0  0  0  0
 40 87  1  0  0  0  0
 40 88  1  0  0  0  0
 40 89  1  0  0  0  0
 41 90  1  0  0  0  0
 41 91  1  0  0  0  0
 41 92  1  0  0  0  0
 42 43  2  0  0  0  0
 42 44  1  0  0  0  0
 43 45  1  0  0  0  0
 43 93  1  0  0  0  0
 44 46  2  0  0  0  0
 44 94  1  0  0  0  0
 45 47  2  0  0  0  0
 45 95  1  0  0  0  0
 46 47  1  0  0  0  0
 46 96  1  0  0  0  0
 47 97  1  0  0  0  0
M  END
> <PUBCHEM_COMPOUND_CID>
513981
> <PUBCHEM_COMPOUND_CANONICALIZED>
1
> <PUBCHEM_CACTVS_COMPLEXITY>
1040
> <PUBCHEM_CACTVS_HBOND_ACCEPTOR>
8
> <PUBCHEM_CACTVS_HBOND_DONOR>
4
> <PUBCHEM_CACTVS_ROTATABLE_BOND>
18
> <PUBCHEM_CACTVS_SUBSKEYS>
AAADcfB/uABAAAAAAAAAAAAAAAAAAAAAAAAwYMAAAAAAAAABUAAAHgQQSAAADWzh2AYyyYLABgKIAiVSWHDCABAgAgAIiJmIZIkKcDKAkbGcYABklgCYyAeYyMCOwAQAAAAAAACACAAAAAAAAAAAAAAAAA==
> <PUBCHEM_IUPAC_OPENEYE_NAME>
tert-butyl N-[(1S)-2-[[(5S)-5-[(4-aminophenyl)sulfonyl-isobutyl-amino]-6-hydroxy-hexyl]amino]-2-oxo-1-[(4-phenylphenyl)methyl]ethyl]carbamate
> <PUBCHEM_IUPAC_CAS_NAME>
N-[(2S)-1-[[(5S)-5-[(4-aminophenyl)sulfonyl-(2-methylpropyl)amino]-6-hydroxyhexyl]amino]-1-oxo-3-(4-phenylphenyl)propan-2-yl]carbamic acid tert-butyl ester
> <PUBCHEM_IUPAC_NAME_MARKUP>
<I>tert</I>-butyl <I>N</I>-[(2<I>S</I>)-1-[[(5<I>S</I>)-5-[(4-aminophenyl)sulfonyl-(2-methylpropyl)amino]-6-hydroxyhexyl]amino]-1-oxo-3-(4-phenylphenyl)propan-2-yl]carbamate
> <PUBCHEM_IUPAC_NAME>
tert-butyl N-[(2S)-1-[[(5S)-5-[(4-aminophenyl)sulfonyl-(2-methylpropyl)amino]-6-hydroxyhexyl]amino]-1-oxo-3-(4-phenylphenyl)propan-2-yl]carbamate
> <PUBCHEM_IUPAC_SYSTEMATIC_NAME>
tert-butyl N-[(2S)-1-[[(5S)-5-[(4-aminophenyl)sulfonyl-(2-methylpropyl)amino]-6-oxidanyl-hexyl]amino]-1-oxidanylidene-3-(4-phenylphenyl)propan-2-yl]carbamate
> <PUBCHEM_IUPAC_TRADITIONAL_NAME>
N-[(1S)-2-[[(5S)-6-hydroxy-5-[isobutyl(sulfanilyl)amino]hexyl]amino]-2-keto-1-(4-phenylbenzyl)ethyl]carbamic acid tert-butyl ester
> <PUBCHEM_IUPAC_INCHI>
InChI=1S/C36H50N4O6S/c1-26(2)24-40(47(44,45)32-20-18-30(37)19-21-32)31(25-41)13-9-10-22-38-34(42)33(39-35(43)46-36(3,4)5)23-27-14-16-29(17-15-27)28-11-7-6-8-12-28/h6-8,11-12,14-21,26,31,33,41H,9-10,13,22-25,37H2,1-5H3,(H,38,42)(H,39,43)/t31-,33-/m0/s1
> <PUBCHEM_IUPAC_INCHIKEY>
CNSWHWFJXONFFV-WEZIJMHWSA-N
> <PUBCHEM_XLOGP3_AA>
5.8
> <PUBCHEM_EXACT_MASS>
666.34510650
> <PUBCHEM_MOLECULAR_FORMULA>
C36H50N4O6S
> <PUBCHEM_MOLECULAR_WEIGHT>
666.9
> <PUBCHEM_OPENEYE_CAN_SMILES>
CC(C)CN(C(CCCCNC(=O)C(CC1=CC=C(C=C1)C2=CC=CC=C2)NC(=O)OC(C)(C)C)CO)S(=O)(=O)C3=CC=C(C=C3)N
> <PUBCHEM_OPENEYE_ISO_SMILES>
CC(C)CN([C@@H](CCCCNC(=O)[C@H](CC1=CC=C(C=C1)C2=CC=CC=C2)NC(=O)OC(C)(C)C)CO)S(=O)(=O)C3=CC=C(C=C3)N
> <PUBCHEM_CACTVS_TPSA>
159
> <PUBCHEM_MONOISOTOPIC_WEIGHT>
666.34510650
> <PUBCHEM_TOTAL_CHARGE>
0
> <PUBCHEM_HEAVY_ATOM_COUNT>
47
> <PUBCHEM_ATOM_DEF_STEREO_COUNT>
2
> <PUBCHEM_ATOM_UDEF_STEREO_COUNT>
0
> <PUBCHEM_BOND_DEF_STEREO_COUNT>
0
> <PUBCHEM_BOND_UDEF_STEREO_COUNT>
0
> <PUBCHEM_ISOTOPIC_ATOM_COUNT>
0
> <PUBCHEM_COMPONENT_COUNT>
1
> <PUBCHEM_CACTVS_TAUTO_COUNT>
-1
> <PUBCHEM_COORDINATE_TYPE>
1
5
255
> <PUBCHEM_BONDANNOTATIONS>
25  10  6
19  23  8
19  24  8
23  27  8
24  28  8
27  30  8
28  30  8
31  34  8
31  35  8
34  37  8
35  38  8
36  37  8
36  38  8
42  43  8
42  44  8
43  45  8
44  46  8
45  47  8
46  47  8
12  8  5
$$$$
