513914
  -OEChem-10302200282D
 23 23  0     1  0  0  0  0  0999 V2000
    5.9543   -1.6149    0.0000 O   0  0  0  0  0  0  0  0  0  0  0  0
    5.4543    0.9239    0.0000 O   0  0  0  0  0  0  0  0  0  0  0  0
    3.6942   -0.3548    0.0000 O   0  0  0  0  0  0  0  0  0  0  0  0
    7.2144   -0.3548    0.0000 O   0  0  0  0  0  0  0  0  0  0  0  0
    4.3665   -2.4239    0.0000 O   0  0  0  0  0  0  0  0  0  0  0  0
    7.1863    0.9239    0.0000 O   0  0  0  0  0  0  0  0  0  0  0  0
    3.1590   -2.0021    0.0000 O   0  0  0  0  0  0  0  0  0  0  0  0
    5.4543   -0.0761    0.0000 C   0  0  2  0  0  0  0  0  0  0  0  0
    4.6453   -0.6639    0.0000 C   0  0  2  0  0  0  0  0  0  0  0  0
    6.2633   -0.6639    0.0000 C   0  0  0  0  0  0  0  0  0  0  0  0
    4.9543   -1.6149    0.0000 C   0  0  0  0  0  0  0  0  0  0  0  0
    6.3203    1.4239    0.0000 C   0  0  0  0  0  0  0  0  0  0  0  0
    2.9511   -1.0240    0.0000 C   0  0  0  0  0  0  0  0  0  0  0  0
    6.3203    2.4239    0.0000 C   0  0  0  0  0  0  0  0  0  0  0  0
    2.0000   -0.7150    0.0000 C   0  0  0  0  0  0  0  0  0  0  0  0
    4.9018    0.2054    0.0000 H   0  0  0  0  0  0  0  0  0  0  0  0
    4.5483   -0.0515    0.0000 H   0  0  0  0  0  0  0  0  0  0  0  0
    6.9403    2.4239    0.0000 H   0  0  0  0  0  0  0  0  0  0  0  0
    6.3203    3.0439    0.0000 H   0  0  0  0  0  0  0  0  0  0  0  0
    5.7003    2.4239    0.0000 H   0  0  0  0  0  0  0  0  0  0  0  0
    2.1916   -0.1253    0.0000 H   0  0  0  0  0  0  0  0  0  0  0  0
    1.4103   -0.5234    0.0000 H   0  0  0  0  0  0  0  0  0  0  0  0
    1.8084   -1.3046    0.0000 H   0  0  0  0  0  0  0  0  0  0  0  0
  1 10  1  0  0  0  0
  1 11  1  0  0  0  0
  8  2  1  1  0  0  0
  2 12  1  0  0  0  0
  9  3  1  6  0  0  0
  3 13  1  0  0  0  0
  4 10  2  0  0  0  0
  5 11  2  0  0  0  0
  6 12  2  0  0  0  0
  7 13  2  0  0  0  0
  8  9  1  0  0  0  0
  8 10  1  0  0  0  0
  8 16  1  0  0  0  0
  9 11  1  0  0  0  0
  9 17  1  0  0  0  0
 12 14  1  0  0  0  0
 13 15  1  0  0  0  0
 14 18  1  0  0  0  0
 14 19  1  0  0  0  0
 14 20  1  0  0  0  0
 15 21  1  0  0  0  0
 15 22  1  0  0  0  0
 15 23  1  0  0  0  0
M  END
> <PUBCHEM_COMPOUND_CID>
513914
> <PUBCHEM_COMPOUND_CANONICALIZED>
1
> <PUBCHEM_CACTVS_COMPLEXITY>
300
> <PUBCHEM_CACTVS_HBOND_ACCEPTOR>
7
> <PUBCHEM_CACTVS_HBOND_DONOR>
0
> <PUBCHEM_CACTVS_ROTATABLE_BOND>
4
> <PUBCHEM_CACTVS_SUBSKEYS>
AAADccBwOAAAAAAAAAAAAAAAAAAAASAAAAAAAAAAAAAAAAAAAAAAGgAAAAAACBSggAICCAAABAAIAACQCAIAAAAAAAAAAAFAAAABABQAAAQCAAAFIAACAAADAAAAAAAAAAAAAAAAAAAAAAAAAAAAAAAAAA==
> <PUBCHEM_IUPAC_OPENEYE_NAME>
[(3R,4R)-4-acetoxy-2,5-dioxo-tetrahydrofuran-3-yl] acetate
> <PUBCHEM_IUPAC_CAS_NAME>
acetic acid [(3R,4R)-4-acetyloxy-2,5-dioxo-3-oxolanyl] ester
> <PUBCHEM_IUPAC_NAME_MARKUP>
[(3<I>R</I>,4<I>R</I>)-4-acetyloxy-2,5-dioxooxolan-3-yl] acetate
> <PUBCHEM_IUPAC_NAME>
[(3R,4R)-4-acetyloxy-2,5-dioxooxolan-3-yl] acetate
> <PUBCHEM_IUPAC_SYSTEMATIC_NAME>
[(3R,4R)-4-acetyloxy-2,5-bis(oxidanylidene)oxolan-3-yl] ethanoate
> <PUBCHEM_IUPAC_TRADITIONAL_NAME>
acetic acid [(3R,4R)-4-acetoxy-2,5-diketo-tetrahydrofuran-3-yl] ester
> <PUBCHEM_IUPAC_INCHI>
InChI=1S/C8H8O7/c1-3(9)13-5-6(14-4(2)10)8(12)15-7(5)11/h5-6H,1-2H3/t5-,6-/m1/s1
> <PUBCHEM_IUPAC_INCHIKEY>
XAKITKDHDMPGPW-PHDIDXHHSA-N
> <PUBCHEM_XLOGP3_AA>
-0.4
> <PUBCHEM_EXACT_MASS>
216.02700259
> <PUBCHEM_MOLECULAR_FORMULA>
C8H8O7
> <PUBCHEM_MOLECULAR_WEIGHT>
216.14
> <PUBCHEM_OPENEYE_CAN_SMILES>
CC(=O)OC1C(C(=O)OC1=O)OC(=O)C
> <PUBCHEM_OPENEYE_ISO_SMILES>
CC(=O)O[C@@H]1[C@H](C(=O)OC1=O)OC(=O)C
> <PUBCHEM_CACTVS_TPSA>
96
> <PUBCHEM_MONOISOTOPIC_WEIGHT>
216.02700259
> <PUBCHEM_TOTAL_CHARGE>
0
> <PUBCHEM_HEAVY_ATOM_COUNT>
15
> <PUBCHEM_ATOM_DEF_STEREO_COUNT>
2
> <PUBCHEM_ATOM_UDEF_STEREO_COUNT>
0
> <PUBCHEM_BOND_DEF_STEREO_COUNT>
0
> <PUBCHEM_BOND_UDEF_STEREO_COUNT>
0
> <PUBCHEM_ISOTOPIC_ATOM_COUNT>
0
> <PUBCHEM_COMPONENT_COUNT>
1
> <PUBCHEM_CACTVS_TAUTO_COUNT>
3
> <PUBCHEM_COORDINATE_TYPE>
1
5
255
> <PUBCHEM_BONDANNOTATIONS>
8  2  5
9  3  6
$$$$
