514009
  -OEChem-10302200282D
 87 90  0     1  0  0  0  0  0999 V2000
    3.7320    2.9330    0.0000 S   0  0  0  0  0  0  0  0  0  0  0  0
    3.7320    6.9330    0.0000 F   0  0  0  0  0  0  0  0  0  0  0  0
    7.1962   -6.0670    0.0000 O   0  0  0  0  0  0  0  0  0  0  0  0
    6.3301    1.4330    0.0000 O   0  0  0  0  0  0  0  0  0  0  0  0
    2.7320    2.9330    0.0000 O   0  0  0  0  0  0  0  0  0  0  0  0
    4.7320    2.9330    0.0000 O   0  0  0  0  0  0  0  0  0  0  0  0
    8.0622   -2.5670    0.0000 O   0  0  0  0  0  0  0  0  0  0  0  0
    6.3301   -4.5670    0.0000 N   0  0  0  0  0  0  0  0  0  0  0  0
    3.7320    1.9330    0.0000 N   0  0  3  0  0  0  0  0  0  0  0  0
    6.3301   -2.5670    0.0000 N   0  0  0  0  0  0  0  0  0  0  0  0
    5.4641    5.9330    0.0000 N   0  0  0  0  0  0  0  0  0  0  0  0
    5.4641   -6.0670    0.0000 C   0  0  0  0  0  0  0  0  0  0  0  0
    4.9641   -6.9330    0.0000 C   0  0  0  0  0  0  0  0  0  0  0  0
    4.4641   -6.0670    0.0000 C   0  0  0  0  0  0  0  0  0  0  0  0
    6.3301   -5.5670    0.0000 C   0  0  0  0  0  0  0  0  0  0  0  0
    4.5981    1.4330    0.0000 C   0  0  1  0  0  0  0  0  0  0  0  0
    7.1962   -4.0670    0.0000 C   0  0  1  0  0  0  0  0  0  0  0  0
    4.5981    0.4330    0.0000 C   0  0  0  0  0  0  0  0  0  0  0  0
    2.8660    1.4330    0.0000 C   0  0  0  0  0  0  0  0  0  0  0  0
    5.4641   -0.0670    0.0000 C   0  0  0  0  0  0  0  0  0  0  0  0
    2.8660    0.4330    0.0000 C   0  0  0  0  0  0  0  0  0  0  0  0
    8.0622   -4.5670    0.0000 C   0  0  0  0  0  0  0  0  0  0  0  0
    5.4641   -1.0670    0.0000 C   0  0  0  0  0  0  0  0  0  0  0  0
    5.4641    1.9330    0.0000 C   0  0  0  0  0  0  0  0  0  0  0  0
    7.1962   -3.0670    0.0000 C   0  0  0  0  0  0  0  0  0  0  0  0
    6.3301   -1.5670    0.0000 C   0  0  0  0  0  0  0  0  0  0  0  0
    8.9282   -4.0670    0.0000 C   0  0  0  0  0  0  0  0  0  0  0  0
    3.7320    3.9330    0.0000 C   0  0  0  0  0  0  0  0  0  0  0  0
    2.0000   -0.0670    0.0000 C   0  0  0  0  0  0  0  0  0  0  0  0
    3.7320   -0.0670    0.0000 C   0  0  0  0  0  0  0  0  0  0  0  0
    9.7942   -4.5670    0.0000 C   0  0  0  0  0  0  0  0  0  0  0  0
    8.9282   -3.0670    0.0000 C   0  0  0  0  0  0  0  0  0  0  0  0
    4.5981    4.4330    0.0000 C   0  0  0  0  0  0  0  0  0  0  0  0
    2.8660    4.4330    0.0000 C   0  0  0  0  0  0  0  0  0  0  0  0
   10.6603   -4.0670    0.0000 C   0  0  0  0  0  0  0  0  0  0  0  0
    9.7942   -2.5670    0.0000 C   0  0  0  0  0  0  0  0  0  0  0  0
    4.5981    5.4330    0.0000 C   0  0  0  0  0  0  0  0  0  0  0  0
   10.6603   -3.0670    0.0000 C   0  0  0  0  0  0  0  0  0  0  0  0
    2.8660    5.4330    0.0000 C   0  0  0  0  0  0  0  0  0  0  0  0
    3.7320    5.9330    0.0000 C   0  0  0  0  0  0  0  0  0  0  0  0
   11.5542   -4.6016    0.0000 C   0  0  0  0  0  0  0  0  0  0  0  0
   11.5542   -2.5323    0.0000 C   0  0  0  0  0  0  0  0  0  0  0  0
   12.4603   -4.0878    0.0000 C   0  0  0  0  0  0  0  0  0  0  0  0
   12.4603   -3.0462    0.0000 C   0  0  0  0  0  0  0  0  0  0  0  0
    5.9025   -6.5054    0.0000 H   0  0  0  0  0  0  0  0  0  0  0  0
    4.4892   -7.3315    0.0000 H   0  0  0  0  0  0  0  0  0  0  0  0
    5.4390   -7.3315    0.0000 H   0  0  0  0  0  0  0  0  0  0  0  0
    4.3564   -5.4564    0.0000 H   0  0  0  0  0  0  0  0  0  0  0  0
    3.8815   -6.2790    0.0000 H   0  0  0  0  0  0  0  0  0  0  0  0
    5.7932   -4.2570    0.0000 H   0  0  0  0  0  0  0  0  0  0  0  0
    4.5981    2.0530    0.0000 H   0  0  0  0  0  0  0  0  0  0  0  0
    6.6592   -3.7570    0.0000 H   0  0  0  0  0  0  0  0  0  0  0  0
    3.9875    0.5407    0.0000 H   0  0  0  0  0  0  0  0  0  0  0  0
    4.3860   -0.1496    0.0000 H   0  0  0  0  0  0  0  0  0  0  0  0
    2.6540    2.0156    0.0000 H   0  0  0  0  0  0  0  0  0  0  0  0
    2.2554    1.3254    0.0000 H   0  0  0  0  0  0  0  0  0  0  0  0
    6.0747   -0.1746    0.0000 H   0  0  0  0  0  0  0  0  0  0  0  0
    5.6762    0.5156    0.0000 H   0  0  0  0  0  0  0  0  0  0  0  0
    2.8660   -0.1870    0.0000 H   0  0  0  0  0  0  0  0  0  0  0  0
    7.6636   -5.0419    0.0000 H   0  0  0  0  0  0  0  0  0  0  0  0
    8.4607   -5.0419    0.0000 H   0  0  0  0  0  0  0  0  0  0  0  0
    4.8535   -0.9593    0.0000 H   0  0  0  0  0  0  0  0  0  0  0  0
    5.2520   -1.6496    0.0000 H   0  0  0  0  0  0  0  0  0  0  0  0
    5.8626    2.4080    0.0000 H   0  0  0  0  0  0  0  0  0  0  0  0
    5.0656    2.4080    0.0000 H   0  0  0  0  0  0  0  0  0  0  0  0
    6.9407   -1.6746    0.0000 H   0  0  0  0  0  0  0  0  0  0  0  0
    6.5422   -0.9844    0.0000 H   0  0  0  0  0  0  0  0  0  0  0  0
    5.7932   -2.8770    0.0000 H   0  0  0  0  0  0  0  0  0  0  0  0
    1.6900    0.4699    0.0000 H   0  0  0  0  0  0  0  0  0  0  0  0
    1.4631   -0.3770    0.0000 H   0  0  0  0  0  0  0  0  0  0  0  0
    2.3100   -0.6039    0.0000 H   0  0  0  0  0  0  0  0  0  0  0  0
    3.4220   -0.6039    0.0000 H   0  0  0  0  0  0  0  0  0  0  0  0
    4.2690   -0.3770    0.0000 H   0  0  0  0  0  0  0  0  0  0  0  0
    4.0420    0.4699    0.0000 H   0  0  0  0  0  0  0  0  0  0  0  0
    6.8671    1.7430    0.0000 H   0  0  0  0  0  0  0  0  0  0  0  0
    9.7942   -5.1870    0.0000 H   0  0  0  0  0  0  0  0  0  0  0  0
    5.1350    4.1230    0.0000 H   0  0  0  0  0  0  0  0  0  0  0  0
    8.3913   -2.7570    0.0000 H   0  0  0  0  0  0  0  0  0  0  0  0
    2.3291    4.1230    0.0000 H   0  0  0  0  0  0  0  0  0  0  0  0
    9.7942   -1.9470    0.0000 H   0  0  0  0  0  0  0  0  0  0  0  0
    2.3291    5.7430    0.0000 H   0  0  0  0  0  0  0  0  0  0  0  0
   11.5470   -5.2216    0.0000 H   0  0  0  0  0  0  0  0  0  0  0  0
   11.5470   -1.9124    0.0000 H   0  0  0  0  0  0  0  0  0  0  0  0
    5.4641    6.5530    0.0000 H   0  0  0  0  0  0  0  0  0  0  0  0
    6.0010    5.6230    0.0000 H   0  0  0  0  0  0  0  0  0  0  0  0
   12.9960   -4.3999    0.0000 H   0  0  0  0  0  0  0  0  0  0  0  0
   12.9960   -2.7341    0.0000 H   0  0  0  0  0  0  0  0  0  0  0  0
  1  5  2  0  0  0  0
  1  6  2  0  0  0  0
  1  9  1  0  0  0  0
  1 28  1  0  0  0  0
  2 40  1  0  0  0  0
  3 15  2  0  0  0  0
  4 24  1  0  0  0  0
  4 75  1  0  0  0  0
  7 25  2  0  0  0  0
  8 15  1  0  0  0  0
 17  8  1  6  0  0  0
  8 50  1  0  0  0  0
 16  9  1  6  0  0  0
  9 19  1  0  0  0  0
 10 25  1  0  0  0  0
 10 26  1  0  0  0  0
 10 68  1  0  0  0  0
 11 37  1  0  0  0  0
 11 84  1  0  0  0  0
 11 85  1  0  0  0  0
 12 13  1  0  0  0  0
 12 14  1  0  0  0  0
 12 15  1  0  0  0  0
 12 45  1  0  0  0  0
 13 14  1  0  0  0  0
 13 46  1  0  0  0  0
 13 47  1  0  0  0  0
 14 48  1  0  0  0  0
 14 49  1  0  0  0  0
 16 18  1  0  0  0  0
 16 24  1  0  0  0  0
 16 51  1  0  0  0  0
 17 22  1  0  0  0  0
 17 25  1  0  0  0  0
 17 52  1  0  0  0  0
 18 20  1  0  0  0  0
 18 53  1  0  0  0  0
 18 54  1  0  0  0  0
 19 21  1  0  0  0  0
 19 55  1  0  0  0  0
 19 56  1  0  0  0  0
 20 23  1  0  0  0  0
 20 57  1  0  0  0  0
 20 58  1  0  0  0  0
 21 29  1  0  0  0  0
 21 30  1  0  0  0  0
 21 59  1  0  0  0  0
 22 27  1  0  0  0  0
 22 60  1  0  0  0  0
 22 61  1  0  0  0  0
 23 26  1  0  0  0  0
 23 62  1  0  0  0  0
 23 63  1  0  0  0  0
 24 64  1  0  0  0  0
 24 65  1  0  0  0  0
 26 66  1  0  0  0  0
 26 67  1  0  0  0  0
 27 31  2  0  0  0  0
 27 32  1  0  0  0  0
 28 33  2  0  0  0  0
 28 34  1  0  0  0  0
 29 69  1  0  0  0  0
 29 70  1  0  0  0  0
 29 71  1  0  0  0  0
 30 72  1  0  0  0  0
 30 73  1  0  0  0  0
 30 74  1  0  0  0  0
 31 35  1  0  0  0  0
 31 76  1  0  0  0  0
 32 36  2  0  0  0  0
 32 78  1  0  0  0  0
 33 37  1  0  0  0  0
 33 77  1  0  0  0  0
 34 39  2  0  0  0  0
 34 79  1  0  0  0  0
 35 38  1  0  0  0  0
 35 41  2  0  0  0  0
 36 38  1  0  0  0  0
 36 80  1  0  0  0  0
 37 40  2  0  0  0  0
 38 42  2  0  0  0  0
 39 40  1  0  0  0  0
 39 81  1  0  0  0  0
 41 43  1  0  0  0  0
 41 82  1  0  0  0  0
 42 44  1  0  0  0  0
 42 83  1  0  0  0  0
 43 44  2  0  0  0  0
 43 86  1  0  0  0  0
 44 87  1  0  0  0  0
M  END
> <PUBCHEM_COMPOUND_CID>
514009
> <PUBCHEM_COMPOUND_CANONICALIZED>
1
> <PUBCHEM_CACTVS_COMPLEXITY>
1040
> <PUBCHEM_CACTVS_HBOND_ACCEPTOR>
8
> <PUBCHEM_CACTVS_HBOND_DONOR>
4
> <PUBCHEM_CACTVS_ROTATABLE_BOND>
16
> <PUBCHEM_CACTVS_SUBSKEYS>
AAADcfB/uQBAAAAAAAAAAAAAGAAAAAAAAAAwYMAAAAAAAADBVAAAHwQQSAAADSjh2A4ywcLAAgKIAiVSUHDCABAgAgAIiJmIZIgKcDKAkbGUYARklgCYyAeYyMCOwAACACAQAACAAAQAQCAAAAAAAAAAAA==
> <PUBCHEM_IUPAC_OPENEYE_NAME>
N-[(1S)-2-[[(5S)-5-[(3-amino-4-fluoro-phenyl)sulfonyl-isobutyl-amino]-6-hydroxy-hexyl]amino]-1-(2-naphthylmethyl)-2-oxo-ethyl]cyclopropanecarboxamide
> <PUBCHEM_IUPAC_CAS_NAME>
N-[(2S)-1-[[(5S)-5-[(3-amino-4-fluorophenyl)sulfonyl-(2-methylpropyl)amino]-6-hydroxyhexyl]amino]-3-(2-naphthalenyl)-1-oxopropan-2-yl]cyclopropanecarboxamide
> <PUBCHEM_IUPAC_NAME_MARKUP>
<I>N</I>-[(2<I>S</I>)-1-[[(5<I>S</I>)-5-[(3-amino-4-fluorophenyl)sulfonyl-(2-methylpropyl)amino]-6-hydroxyhexyl]amino]-3-naphthalen-2-yl-1-oxopropan-2-yl]cyclopropanecarboxamide
> <PUBCHEM_IUPAC_NAME>
N-[(2S)-1-[[(5S)-5-[(3-amino-4-fluorophenyl)sulfonyl-(2-methylpropyl)amino]-6-hydroxyhexyl]amino]-3-naphthalen-2-yl-1-oxopropan-2-yl]cyclopropanecarboxamide
> <PUBCHEM_IUPAC_SYSTEMATIC_NAME>
N-[(2S)-1-[[(5S)-5-[(3-azanyl-4-fluoranyl-phenyl)sulfonyl-(2-methylpropyl)amino]-6-oxidanyl-hexyl]amino]-3-naphthalen-2-yl-1-oxidanylidene-propan-2-yl]cyclopropanecarboxamide
> <PUBCHEM_IUPAC_TRADITIONAL_NAME>
N-[(1S)-2-[[(5S)-5-[(3-amino-4-fluoro-phenyl)sulfonyl-isobutyl-amino]-6-hydroxy-hexyl]amino]-2-keto-1-(2-naphthylmethyl)ethyl]cyclopropanecarboxamide
> <PUBCHEM_IUPAC_INCHI>
InChI=1S/C33H43FN4O5S/c1-22(2)20-38(44(42,43)28-14-15-29(34)30(35)19-28)27(21-39)9-5-6-16-36-33(41)31(37-32(40)25-12-13-25)18-23-10-11-24-7-3-4-8-26(24)17-23/h3-4,7-8,10-11,14-15,17,19,22,25,27,31,39H,5-6,9,12-13,16,18,20-21,35H2,1-2H3,(H,36,41)(H,37,40)/t27-,31-/m0/s1
> <PUBCHEM_IUPAC_INCHIKEY>
BTOPYVIINLIBTN-DHIFEGFHSA-N
> <PUBCHEM_XLOGP3_AA>
4.6
> <PUBCHEM_EXACT_MASS>
626.29381982
> <PUBCHEM_MOLECULAR_FORMULA>
C33H43FN4O5S
> <PUBCHEM_MOLECULAR_WEIGHT>
626.8
> <PUBCHEM_OPENEYE_CAN_SMILES>
CC(C)CN(C(CCCCNC(=O)C(CC1=CC2=CC=CC=C2C=C1)NC(=O)C3CC3)CO)S(=O)(=O)C4=CC(=C(C=C4)F)N
> <PUBCHEM_OPENEYE_ISO_SMILES>
CC(C)CN([C@@H](CCCCNC(=O)[C@H](CC1=CC2=CC=CC=C2C=C1)NC(=O)C3CC3)CO)S(=O)(=O)C4=CC(=C(C=C4)F)N
> <PUBCHEM_CACTVS_TPSA>
150
> <PUBCHEM_MONOISOTOPIC_WEIGHT>
626.29381982
> <PUBCHEM_TOTAL_CHARGE>
0
> <PUBCHEM_HEAVY_ATOM_COUNT>
44
> <PUBCHEM_ATOM_DEF_STEREO_COUNT>
2
> <PUBCHEM_ATOM_UDEF_STEREO_COUNT>
0
> <PUBCHEM_BOND_DEF_STEREO_COUNT>
0
> <PUBCHEM_BOND_UDEF_STEREO_COUNT>
0
> <PUBCHEM_ISOTOPIC_ATOM_COUNT>
0
> <PUBCHEM_COMPONENT_COUNT>
1
> <PUBCHEM_CACTVS_TAUTO_COUNT>
-1
> <PUBCHEM_COORDINATE_TYPE>
1
5
255
> <PUBCHEM_BONDANNOTATIONS>
27  31  8
27  32  8
28  33  8
28  34  8
31  35  8
32  36  8
33  37  8
34  39  8
35  38  8
35  41  8
36  38  8
37  40  8
38  42  8
39  40  8
41  43  8
42  44  8
43  44  8
17  8  6
16  9  6
$$$$
