514001
  -OEChem-10302200282D
 88 90  0     1  0  0  0  0  0999 V2000
    3.7320   -2.4400    0.0000 S   0  0  0  0  0  0  0  0  0  0  0  0
    6.3301   -0.9400    0.0000 O   0  0  0  0  0  0  0  0  0  0  0  0
    4.7320   -2.4400    0.0000 O   0  0  0  0  0  0  0  0  0  0  0  0
    2.7320   -2.4400    0.0000 O   0  0  0  0  0  0  0  0  0  0  0  0
    8.0622    3.0600    0.0000 O   0  0  0  0  0  0  0  0  0  0  0  0
    4.8302    5.9261    0.0000 O   0  0  0  0  0  0  0  0  0  0  0  0
    4.8302    4.1939    0.0000 O   0  0  0  0  0  0  0  0  0  0  0  0
    3.7320   -1.4400    0.0000 N   0  0  3  0  0  0  0  0  0  0  0  0
    6.3301    3.0600    0.0000 N   0  0  0  0  0  0  0  0  0  0  0  0
    6.3301    5.0600    0.0000 N   0  0  0  0  0  0  0  0  0  0  0  0
    4.5981   -0.9400    0.0000 C   0  0  1  0  0  0  0  0  0  0  0  0
    4.5981    0.0600    0.0000 C   0  0  0  0  0  0  0  0  0  0  0  0
    2.8660   -0.9400    0.0000 C   0  0  0  0  0  0  0  0  0  0  0  0
    5.4641    0.5600    0.0000 C   0  0  0  0  0  0  0  0  0  0  0  0
    2.8660    0.0600    0.0000 C   0  0  0  0  0  0  0  0  0  0  0  0
    5.4641   -1.4400    0.0000 C   0  0  0  0  0  0  0  0  0  0  0  0
    5.4641    1.5600    0.0000 C   0  0  0  0  0  0  0  0  0  0  0  0
    6.3301    2.0600    0.0000 C   0  0  0  0  0  0  0  0  0  0  0  0
    3.7320   -3.4400    0.0000 C   0  0  0  0  0  0  0  0  0  0  0  0
    2.0000    0.5600    0.0000 C   0  0  0  0  0  0  0  0  0  0  0  0
    3.7320    0.5600    0.0000 C   0  0  0  0  0  0  0  0  0  0  0  0
    7.1962    4.5600    0.0000 C   0  0  1  0  0  0  0  0  0  0  0  0
    8.0622    5.0600    0.0000 C   0  0  0  0  0  0  0  0  0  0  0  0
    7.1962    3.5600    0.0000 C   0  0  0  0  0  0  0  0  0  0  0  0
    2.8660   -3.9400    0.0000 C   0  0  0  0  0  0  0  0  0  0  0  0
    4.5981   -3.9400    0.0000 C   0  0  0  0  0  0  0  0  0  0  0  0
    8.0622    6.0600    0.0000 C   0  0  0  0  0  0  0  0  0  0  0  0
    8.9282    4.5600    0.0000 C   0  0  0  0  0  0  0  0  0  0  0  0
    2.8660   -4.9400    0.0000 C   0  0  0  0  0  0  0  0  0  0  0  0
    4.5981   -4.9400    0.0000 C   0  0  0  0  0  0  0  0  0  0  0  0
    7.1962    6.5600    0.0000 C   0  0  0  0  0  0  0  0  0  0  0  0
    9.7942    5.0600    0.0000 C   0  0  0  0  0  0  0  0  0  0  0  0
    8.9282    6.5600    0.0000 C   0  0  0  0  0  0  0  0  0  0  0  0
    8.9282    3.5600    0.0000 C   0  0  0  0  0  0  0  0  0  0  0  0
    3.7320   -5.4400    0.0000 C   0  0  0  0  0  0  0  0  0  0  0  0
    5.3301    5.0600    0.0000 C   0  0  0  0  0  0  0  0  0  0  0  0
    7.1962    7.5600    0.0000 C   0  0  0  0  0  0  0  0  0  0  0  0
   10.6603    4.5600    0.0000 C   0  0  0  0  0  0  0  0  0  0  0  0
    8.9282    7.5600    0.0000 C   0  0  0  0  0  0  0  0  0  0  0  0
    9.7942    3.0600    0.0000 C   0  0  0  0  0  0  0  0  0  0  0  0
    8.0622    8.0600    0.0000 C   0  0  0  0  0  0  0  0  0  0  0  0
   10.6603    3.5600    0.0000 C   0  0  0  0  0  0  0  0  0  0  0  0
    3.7320   -6.4400    0.0000 C   0  0  0  0  0  0  0  0  0  0  0  0
    3.8302    5.9261    0.0000 C   0  0  0  0  0  0  0  0  0  0  0  0
    3.7320   -7.4400    0.0000 C   0  0  0  0  0  0  0  0  0  0  0  0
    4.0611   -0.6300    0.0000 H   0  0  0  0  0  0  0  0  0  0  0  0
    4.3860    0.6426    0.0000 H   0  0  0  0  0  0  0  0  0  0  0  0
    3.9875   -0.0477    0.0000 H   0  0  0  0  0  0  0  0  0  0  0  0
    2.2554   -0.8323    0.0000 H   0  0  0  0  0  0  0  0  0  0  0  0
    2.6540   -1.5226    0.0000 H   0  0  0  0  0  0  0  0  0  0  0  0
    5.6762   -0.0226    0.0000 H   0  0  0  0  0  0  0  0  0  0  0  0
    6.0747    0.6677    0.0000 H   0  0  0  0  0  0  0  0  0  0  0  0
    2.8660    0.6800    0.0000 H   0  0  0  0  0  0  0  0  0  0  0  0
    5.0656   -1.9150    0.0000 H   0  0  0  0  0  0  0  0  0  0  0  0
    5.8626   -1.9150    0.0000 H   0  0  0  0  0  0  0  0  0  0  0  0
    5.2520    2.1426    0.0000 H   0  0  0  0  0  0  0  0  0  0  0  0
    4.8535    1.4523    0.0000 H   0  0  0  0  0  0  0  0  0  0  0  0
    6.5422    1.4774    0.0000 H   0  0  0  0  0  0  0  0  0  0  0  0
    6.9407    2.1677    0.0000 H   0  0  0  0  0  0  0  0  0  0  0  0
    2.3100    1.0969    0.0000 H   0  0  0  0  0  0  0  0  0  0  0  0
    1.4631    0.8700    0.0000 H   0  0  0  0  0  0  0  0  0  0  0  0
    1.6900    0.0231    0.0000 H   0  0  0  0  0  0  0  0  0  0  0  0
    4.0420    0.0231    0.0000 H   0  0  0  0  0  0  0  0  0  0  0  0
    4.2690    0.8700    0.0000 H   0  0  0  0  0  0  0  0  0  0  0  0
    3.4220    1.0969    0.0000 H   0  0  0  0  0  0  0  0  0  0  0  0
    6.6592    4.2500    0.0000 H   0  0  0  0  0  0  0  0  0  0  0  0
    8.0622    4.4400    0.0000 H   0  0  0  0  0  0  0  0  0  0  0  0
    5.7101    3.0600    0.0000 H   0  0  0  0  0  0  0  0  0  0  0  0
    6.8671   -1.2500    0.0000 H   0  0  0  0  0  0  0  0  0  0  0  0
    2.3291   -3.6300    0.0000 H   0  0  0  0  0  0  0  0  0  0  0  0
    5.1350   -3.6300    0.0000 H   0  0  0  0  0  0  0  0  0  0  0  0
    6.3301    5.6800    0.0000 H   0  0  0  0  0  0  0  0  0  0  0  0
    2.3291   -5.2500    0.0000 H   0  0  0  0  0  0  0  0  0  0  0  0
    5.1350   -5.2500    0.0000 H   0  0  0  0  0  0  0  0  0  0  0  0
    6.6592    6.2500    0.0000 H   0  0  0  0  0  0  0  0  0  0  0  0
    9.7942    5.6800    0.0000 H   0  0  0  0  0  0  0  0  0  0  0  0
    9.4651    6.2500    0.0000 H   0  0  0  0  0  0  0  0  0  0  0  0
    8.3913    3.2500    0.0000 H   0  0  0  0  0  0  0  0  0  0  0  0
    6.6592    7.8700    0.0000 H   0  0  0  0  0  0  0  0  0  0  0  0
   11.1972    4.8700    0.0000 H   0  0  0  0  0  0  0  0  0  0  0  0
    9.4651    7.8700    0.0000 H   0  0  0  0  0  0  0  0  0  0  0  0
    9.7942    2.4400    0.0000 H   0  0  0  0  0  0  0  0  0  0  0  0
    8.0622    8.6800    0.0000 H   0  0  0  0  0  0  0  0  0  0  0  0
   11.1972    3.2500    0.0000 H   0  0  0  0  0  0  0  0  0  0  0  0
    3.8302    6.5461    0.0000 H   0  0  0  0  0  0  0  0  0  0  0  0
    3.2102    5.9261    0.0000 H   0  0  0  0  0  0  0  0  0  0  0  0
    3.8302    5.3061    0.0000 H   0  0  0  0  0  0  0  0  0  0  0  0
    3.7320   -8.0600    0.0000 H   0  0  0  0  0  0  0  0  0  0  0  0
  1  3  2  0  0  0  0
  1  4  2  0  0  0  0
  1  8  1  0  0  0  0
  1 19  1  0  0  0  0
  2 16  1  0  0  0  0
  2 69  1  0  0  0  0
  5 24  2  0  0  0  0
  6 36  1  0  0  0  0
  6 44  1  0  0  0  0
  7 36  2  0  0  0  0
 11  8  1  1  0  0  0
  8 13  1  0  0  0  0
  9 18  1  0  0  0  0
  9 24  1  0  0  0  0
  9 68  1  0  0  0  0
 22 10  1  1  0  0  0
 10 36  1  0  0  0  0
 10 72  1  0  0  0  0
 11 12  1  0  0  0  0
 11 16  1  0  0  0  0
 11 46  1  0  0  0  0
 12 14  1  0  0  0  0
 12 47  1  0  0  0  0
 12 48  1  0  0  0  0
 13 15  1  0  0  0  0
 13 49  1  0  0  0  0
 13 50  1  0  0  0  0
 14 17  1  0  0  0  0
 14 51  1  0  0  0  0
 14 52  1  0  0  0  0
 15 20  1  0  0  0  0
 15 21  1  0  0  0  0
 15 53  1  0  0  0  0
 16 54  1  0  0  0  0
 16 55  1  0  0  0  0
 17 18  1  0  0  0  0
 17 56  1  0  0  0  0
 17 57  1  0  0  0  0
 18 58  1  0  0  0  0
 18 59  1  0  0  0  0
 19 25  2  0  0  0  0
 19 26  1  0  0  0  0
 20 60  1  0  0  0  0
 20 61  1  0  0  0  0
 20 62  1  0  0  0  0
 21 63  1  0  0  0  0
 21 64  1  0  0  0  0
 21 65  1  0  0  0  0
 22 23  1  0  0  0  0
 22 24  1  0  0  0  0
 22 66  1  0  0  0  0
 23 27  1  0  0  0  0
 23 28  1  0  0  0  0
 23 67  1  0  0  0  0
 25 29  1  0  0  0  0
 25 70  1  0  0  0  0
 26 30  2  0  0  0  0
 26 71  1  0  0  0  0
 27 31  2  0  0  0  0
 27 33  1  0  0  0  0
 28 32  2  0  0  0  0
 28 34  1  0  0  0  0
 29 35  2  0  0  0  0
 29 73  1  0  0  0  0
 30 35  1  0  0  0  0
 30 74  1  0  0  0  0
 31 37  1  0  0  0  0
 31 75  1  0  0  0  0
 32 38  1  0  0  0  0
 32 76  1  0  0  0  0
 33 39  2  0  0  0  0
 33 77  1  0  0  0  0
 34 40  2  0  0  0  0
 34 78  1  0  0  0  0
 35 43  1  0  0  0  0
 37 41  2  0  0  0  0
 37 79  1  0  0  0  0
 38 42  2  0  0  0  0
 38 80  1  0  0  0  0
 39 41  1  0  0  0  0
 39 81  1  0  0  0  0
 40 42  1  0  0  0  0
 40 82  1  0  0  0  0
 41 83  1  0  0  0  0
 42 84  1  0  0  0  0
 43 45  3  0  0  0  0
 44 85  1  0  0  0  0
 44 86  1  0  0  0  0
 44 87  1  0  0  0  0
 45 88  1  0  0  0  0
M  END
> <PUBCHEM_COMPOUND_CID>
514001
> <PUBCHEM_COMPOUND_CANONICALIZED>
1
> <PUBCHEM_CACTVS_COMPLEXITY>
1030
> <PUBCHEM_CACTVS_HBOND_ACCEPTOR>
7
> <PUBCHEM_CACTVS_HBOND_DONOR>
3
> <PUBCHEM_CACTVS_ROTATABLE_BOND>
18
> <PUBCHEM_CACTVS_SUBSKEYS>
AAADcfB/OABAAAAAAAAAAAAAAAAAAAAAAAAwYMAAAAAAAAABUAAAHgQQSAAADSjh2AYyCYLABgLIGiFSGHhCABAgAAAIiJmIAIkKcDKAkTGUYAAklgCYiAeYyMCOkAAAAAAAAAAgAAAAAAAAAAAAAAAAAA==
> <PUBCHEM_IUPAC_OPENEYE_NAME>
methyl N-[(1S)-1-benzhydryl-2-[[(5S)-5-[(4-ethynylphenyl)sulfonyl-isobutyl-amino]-6-hydroxy-hexyl]amino]-2-oxo-ethyl]carbamate
> <PUBCHEM_IUPAC_CAS_NAME>
N-[(2S)-1-[[(5S)-5-[(4-ethynylphenyl)sulfonyl-(2-methylpropyl)amino]-6-hydroxyhexyl]amino]-1-oxo-3,3-diphenylpropan-2-yl]carbamic acid methyl ester
> <PUBCHEM_IUPAC_NAME_MARKUP>
methyl <I>N</I>-[(2<I>S</I>)-1-[[(5<I>S</I>)-5-[(4-ethynylphenyl)sulfonyl-(2-methylpropyl)amino]-6-hydroxyhexyl]amino]-1-oxo-3,3-diphenylpropan-2-yl]carbamate
> <PUBCHEM_IUPAC_NAME>
methyl N-[(2S)-1-[[(5S)-5-[(4-ethynylphenyl)sulfonyl-(2-methylpropyl)amino]-6-hydroxyhexyl]amino]-1-oxo-3,3-diphenylpropan-2-yl]carbamate
> <PUBCHEM_IUPAC_SYSTEMATIC_NAME>
methyl N-[(2S)-1-[[(5S)-5-[(4-ethynylphenyl)sulfonyl-(2-methylpropyl)amino]-6-oxidanyl-hexyl]amino]-1-oxidanylidene-3,3-diphenyl-propan-2-yl]carbamate
> <PUBCHEM_IUPAC_TRADITIONAL_NAME>
N-[(1S)-1-benzhydryl-2-[[(5S)-5-[(4-ethynylphenyl)sulfonyl-isobutyl-amino]-6-hydroxy-hexyl]amino]-2-keto-ethyl]carbamic acid methyl ester
> <PUBCHEM_IUPAC_INCHI>
InChI=1S/C35H43N3O6S/c1-5-27-19-21-31(22-20-27)45(42,43)38(24-26(2)3)30(25-39)18-12-13-23-36-34(40)33(37-35(41)44-4)32(28-14-8-6-9-15-28)29-16-10-7-11-17-29/h1,6-11,14-17,19-22,26,30,32-33,39H,12-13,18,23-25H2,2-4H3,(H,36,40)(H,37,41)/t30-,33-/m0/s1
> <PUBCHEM_IUPAC_INCHIKEY>
XWVDLHFPKFLACQ-DITALETJSA-N
> <PUBCHEM_XLOGP3_AA>
5.6
> <PUBCHEM_EXACT_MASS>
633.28725727
> <PUBCHEM_MOLECULAR_FORMULA>
C35H43N3O6S
> <PUBCHEM_MOLECULAR_WEIGHT>
633.8
> <PUBCHEM_OPENEYE_CAN_SMILES>
CC(C)CN(C(CCCCNC(=O)C(C(C1=CC=CC=C1)C2=CC=CC=C2)NC(=O)OC)CO)S(=O)(=O)C3=CC=C(C=C3)C#C
> <PUBCHEM_OPENEYE_ISO_SMILES>
CC(C)CN([C@@H](CCCCNC(=O)[C@H](C(C1=CC=CC=C1)C2=CC=CC=C2)NC(=O)OC)CO)S(=O)(=O)C3=CC=C(C=C3)C#C
> <PUBCHEM_CACTVS_TPSA>
133
> <PUBCHEM_MONOISOTOPIC_WEIGHT>
633.28725727
> <PUBCHEM_TOTAL_CHARGE>
0
> <PUBCHEM_HEAVY_ATOM_COUNT>
45
> <PUBCHEM_ATOM_DEF_STEREO_COUNT>
2
> <PUBCHEM_ATOM_UDEF_STEREO_COUNT>
0
> <PUBCHEM_BOND_DEF_STEREO_COUNT>
0
> <PUBCHEM_BOND_UDEF_STEREO_COUNT>
0
> <PUBCHEM_ISOTOPIC_ATOM_COUNT>
0
> <PUBCHEM_COMPONENT_COUNT>
1
> <PUBCHEM_CACTVS_TAUTO_COUNT>
-1
> <PUBCHEM_COORDINATE_TYPE>
1
5
255
> <PUBCHEM_BONDANNOTATIONS>
22  10  5
19  25  8
19  26  8
25  29  8
26  30  8
27  31  8
27  33  8
28  32  8
28  34  8
29  35  8
30  35  8
31  37  8
32  38  8
33  39  8
34  40  8
37  41  8
38  42  8
39  41  8
40  42  8
11  8  5
$$$$
