514011
  -OEChem-10302200282D
 83 85  0     1  0  0  0  0  0999 V2000
    5.4641   -2.8450    0.0000 S   0  0  0  0  0  0  0  0  0  0  0  0
    2.0000   -4.8450    0.0000 F   0  0  0  0  0  0  0  0  0  0  0  0
    5.4641    0.1550    0.0000 O   0  0  0  0  0  0  0  0  0  0  0  0
    5.9641   -3.7110    0.0000 O   0  0  0  0  0  0  0  0  0  0  0  0
    4.9641   -1.9790    0.0000 O   0  0  0  0  0  0  0  0  0  0  0  0
    8.0622    3.6550    0.0000 O   0  0  0  0  0  0  0  0  0  0  0  0
    8.0622    4.6550    0.0000 O   0  0  0  0  0  0  0  0  0  0  0  0
    6.3301   -2.3450    0.0000 N   0  0  3  0  0  0  0  0  0  0  0  0
    8.9282    2.1550    0.0000 N   0  0  0  0  0  0  0  0  0  0  0  0
    9.7942    4.6550    0.0000 N   0  0  0  0  0  0  0  0  0  0  0  0
    3.7320   -5.8450    0.0000 N   0  0  0  0  0  0  0  0  0  0  0  0
    6.3301   -1.3450    0.0000 C   0  0  1  0  0  0  0  0  0  0  0  0
    7.1962   -0.8450    0.0000 C   0  0  0  0  0  0  0  0  0  0  0  0
    7.1962   -2.8450    0.0000 C   0  0  0  0  0  0  0  0  0  0  0  0
    7.1962    0.1550    0.0000 C   0  0  0  0  0  0  0  0  0  0  0  0
    8.0622   -2.3450    0.0000 C   0  0  0  0  0  0  0  0  0  0  0  0
    5.4641   -0.8450    0.0000 C   0  0  0  0  0  0  0  0  0  0  0  0
    8.0622    0.6550    0.0000 C   0  0  0  0  0  0  0  0  0  0  0  0
    4.5981   -3.3450    0.0000 C   0  0  0  0  0  0  0  0  0  0  0  0
    8.9282   -2.8450    0.0000 C   0  0  0  0  0  0  0  0  0  0  0  0
    8.0622   -1.3450    0.0000 C   0  0  0  0  0  0  0  0  0  0  0  0
    8.0622    1.6550    0.0000 C   0  0  0  0  0  0  0  0  0  0  0  0
    4.5981   -4.3450    0.0000 C   0  0  0  0  0  0  0  0  0  0  0  0
    3.7320   -2.8450    0.0000 C   0  0  0  0  0  0  0  0  0  0  0  0
    9.7942    3.6550    0.0000 C   0  0  2  0  0  0  0  0  0  0  0  0
    8.9282    3.1550    0.0000 C   0  0  0  0  0  0  0  0  0  0  0  0
   10.6603    3.1550    0.0000 C   0  0  0  0  0  0  0  0  0  0  0  0
    3.7320   -4.8450    0.0000 C   0  0  0  0  0  0  0  0  0  0  0  0
    2.8660   -3.3450    0.0000 C   0  0  0  0  0  0  0  0  0  0  0  0
    2.8660   -4.3450    0.0000 C   0  0  0  0  0  0  0  0  0  0  0  0
   11.5263    3.6550    0.0000 C   0  0  0  0  0  0  0  0  0  0  0  0
   12.3923    3.1550    0.0000 C   0  0  0  0  0  0  0  0  0  0  0  0
   11.5263    4.6550    0.0000 C   0  0  0  0  0  0  0  0  0  0  0  0
   13.2583    3.6550    0.0000 C   0  0  0  0  0  0  0  0  0  0  0  0
   13.2583    4.6550    0.0000 C   0  0  0  0  0  0  0  0  0  0  0  0
    8.9282    5.1550    0.0000 C   0  0  0  0  0  0  0  0  0  0  0  0
   12.3923    5.1550    0.0000 C   0  0  0  0  0  0  0  0  0  0  0  0
   14.1523    3.1203    0.0000 C   0  0  0  0  0  0  0  0  0  0  0  0
   14.1523    5.1897    0.0000 C   0  0  0  0  0  0  0  0  0  0  0  0
    8.9282    6.1550    0.0000 C   0  0  0  0  0  0  0  0  0  0  0  0
   15.0583    3.6342    0.0000 C   0  0  0  0  0  0  0  0  0  0  0  0
   15.0583    4.6758    0.0000 C   0  0  0  0  0  0  0  0  0  0  0  0
    6.8671   -1.6550    0.0000 H   0  0  0  0  0  0  0  0  0  0  0  0
    7.4082   -1.4276    0.0000 H   0  0  0  0  0  0  0  0  0  0  0  0
    7.8067   -0.7373    0.0000 H   0  0  0  0  0  0  0  0  0  0  0  0
    6.7976   -3.3200    0.0000 H   0  0  0  0  0  0  0  0  0  0  0  0
    7.5947   -3.3200    0.0000 H   0  0  0  0  0  0  0  0  0  0  0  0
    6.9841    0.7376    0.0000 H   0  0  0  0  0  0  0  0  0  0  0  0
    6.5856    0.0473    0.0000 H   0  0  0  0  0  0  0  0  0  0  0  0
    8.0622   -2.9650    0.0000 H   0  0  0  0  0  0  0  0  0  0  0  0
    4.8535   -0.7373    0.0000 H   0  0  0  0  0  0  0  0  0  0  0  0
    5.2520   -1.4276    0.0000 H   0  0  0  0  0  0  0  0  0  0  0  0
    8.2742    0.0724    0.0000 H   0  0  0  0  0  0  0  0  0  0  0  0
    8.6728    0.7627    0.0000 H   0  0  0  0  0  0  0  0  0  0  0  0
    8.6182   -3.3819    0.0000 H   0  0  0  0  0  0  0  0  0  0  0  0
    9.4651   -3.1550    0.0000 H   0  0  0  0  0  0  0  0  0  0  0  0
    9.2382   -2.3081    0.0000 H   0  0  0  0  0  0  0  0  0  0  0  0
    8.6822   -1.3450    0.0000 H   0  0  0  0  0  0  0  0  0  0  0  0
    8.0622   -0.7250    0.0000 H   0  0  0  0  0  0  0  0  0  0  0  0
    7.4422   -1.3450    0.0000 H   0  0  0  0  0  0  0  0  0  0  0  0
    7.8501    2.2376    0.0000 H   0  0  0  0  0  0  0  0  0  0  0  0
    7.4516    1.5473    0.0000 H   0  0  0  0  0  0  0  0  0  0  0  0
    4.9272    0.4650    0.0000 H   0  0  0  0  0  0  0  0  0  0  0  0
    9.4651    1.8450    0.0000 H   0  0  0  0  0  0  0  0  0  0  0  0
    5.1350   -4.6550    0.0000 H   0  0  0  0  0  0  0  0  0  0  0  0
    3.7320   -2.2250    0.0000 H   0  0  0  0  0  0  0  0  0  0  0  0
    9.2573    3.9650    0.0000 H   0  0  0  0  0  0  0  0  0  0  0  0
   10.2617    2.6800    0.0000 H   0  0  0  0  0  0  0  0  0  0  0  0
   11.0588    2.6800    0.0000 H   0  0  0  0  0  0  0  0  0  0  0  0
    2.3291   -3.0350    0.0000 H   0  0  0  0  0  0  0  0  0  0  0  0
   10.3312    4.9650    0.0000 H   0  0  0  0  0  0  0  0  0  0  0  0
   12.3923    2.5350    0.0000 H   0  0  0  0  0  0  0  0  0  0  0  0
   10.9893    4.9650    0.0000 H   0  0  0  0  0  0  0  0  0  0  0  0
    3.1951   -6.1550    0.0000 H   0  0  0  0  0  0  0  0  0  0  0  0
    4.2690   -6.1550    0.0000 H   0  0  0  0  0  0  0  0  0  0  0  0
   12.3923    5.7750    0.0000 H   0  0  0  0  0  0  0  0  0  0  0  0
   14.1451    2.5004    0.0000 H   0  0  0  0  0  0  0  0  0  0  0  0
   14.1451    5.8096    0.0000 H   0  0  0  0  0  0  0  0  0  0  0  0
    9.5482    6.1550    0.0000 H   0  0  0  0  0  0  0  0  0  0  0  0
    8.9282    6.7750    0.0000 H   0  0  0  0  0  0  0  0  0  0  0  0
    8.3082    6.1550    0.0000 H   0  0  0  0  0  0  0  0  0  0  0  0
   15.5941    3.3221    0.0000 H   0  0  0  0  0  0  0  0  0  0  0  0
   15.5941    4.9879    0.0000 H   0  0  0  0  0  0  0  0  0  0  0  0
  1  4  2  0  0  0  0
  1  5  2  0  0  0  0
  1  8  1  0  0  0  0
  1 19  1  0  0  0  0
  2 30  1  0  0  0  0
  3 17  1  0  0  0  0
  3 63  1  0  0  0  0
  6 26  2  0  0  0  0
  7 36  2  0  0  0  0
 12  8  1  6  0  0  0
  8 14  1  0  0  0  0
  9 22  1  0  0  0  0
  9 26  1  0  0  0  0
  9 64  1  0  0  0  0
 25 10  1  1  0  0  0
 10 36  1  0  0  0  0
 10 71  1  0  0  0  0
 11 28  1  0  0  0  0
 11 74  1  0  0  0  0
 11 75  1  0  0  0  0
 12 13  1  0  0  0  0
 12 17  1  0  0  0  0
 12 43  1  0  0  0  0
 13 15  1  0  0  0  0
 13 44  1  0  0  0  0
 13 45  1  0  0  0  0
 14 16  1  0  0  0  0
 14 46  1  0  0  0  0
 14 47  1  0  0  0  0
 15 18  1  0  0  0  0
 15 48  1  0  0  0  0
 15 49  1  0  0  0  0
 16 20  1  0  0  0  0
 16 21  1  0  0  0  0
 16 50  1  0  0  0  0
 17 51  1  0  0  0  0
 17 52  1  0  0  0  0
 18 22  1  0  0  0  0
 18 53  1  0  0  0  0
 18 54  1  0  0  0  0
 19 23  2  0  0  0  0
 19 24  1  0  0  0  0
 20 55  1  0  0  0  0
 20 56  1  0  0  0  0
 20 57  1  0  0  0  0
 21 58  1  0  0  0  0
 21 59  1  0  0  0  0
 21 60  1  0  0  0  0
 22 61  1  0  0  0  0
 22 62  1  0  0  0  0
 23 28  1  0  0  0  0
 23 65  1  0  0  0  0
 24 29  2  0  0  0  0
 24 66  1  0  0  0  0
 25 26  1  0  0  0  0
 25 27  1  0  0  0  0
 25 67  1  0  0  0  0
 27 31  1  0  0  0  0
 27 68  1  0  0  0  0
 27 69  1  0  0  0  0
 28 30  2  0  0  0  0
 29 30  1  0  0  0  0
 29 70  1  0  0  0  0
 31 32  2  0  0  0  0
 31 33  1  0  0  0  0
 32 34  1  0  0  0  0
 32 72  1  0  0  0  0
 33 37  2  0  0  0  0
 33 73  1  0  0  0  0
 34 35  1  0  0  0  0
 34 38  2  0  0  0  0
 35 37  1  0  0  0  0
 35 39  2  0  0  0  0
 36 40  1  0  0  0  0
 37 76  1  0  0  0  0
 38 41  1  0  0  0  0
 38 77  1  0  0  0  0
 39 42  1  0  0  0  0
 39 78  1  0  0  0  0
 40 79  1  0  0  0  0
 40 80  1  0  0  0  0
 40 81  1  0  0  0  0
 41 42  2  0  0  0  0
 41 82  1  0  0  0  0
 42 83  1  0  0  0  0
M  END
> <PUBCHEM_COMPOUND_CID>
514011
> <PUBCHEM_COMPOUND_CANONICALIZED>
1
> <PUBCHEM_CACTVS_COMPLEXITY>
962
> <PUBCHEM_CACTVS_HBOND_ACCEPTOR>
8
> <PUBCHEM_CACTVS_HBOND_DONOR>
4
> <PUBCHEM_CACTVS_ROTATABLE_BOND>
15
> <PUBCHEM_CACTVS_SUBSKEYS>
AAADcfB7uQBAAAAAAAAAAAAAAAAAAAAAAAAwYMAAAAAAAADBVAAAHwQQSAAADSjh2A4ywcLAAgKIAiVSUHDCABAgAgAIiJmIZIgKcDKAkbGUYARklgCYyAeYyMCOwAACACAQAACAAAQAQCAAAAAAAAAAAA==
> <PUBCHEM_IUPAC_OPENEYE_NAME>
(2S)-2-acetamido-N-[(5S)-5-[(3-amino-4-fluoro-phenyl)sulfonyl-isobutyl-amino]-6-hydroxy-hexyl]-3-(2-naphthyl)propanamide
> <PUBCHEM_IUPAC_CAS_NAME>
(2S)-2-acetamido-N-[(5S)-5-[(3-amino-4-fluorophenyl)sulfonyl-(2-methylpropyl)amino]-6-hydroxyhexyl]-3-(2-naphthalenyl)propanamide
> <PUBCHEM_IUPAC_NAME_MARKUP>
(2<I>S</I>)-2-acetamido-<I>N</I>-[(5<I>S</I>)-5-[(3-amino-4-fluorophenyl)sulfonyl-(2-methylpropyl)amino]-6-hydroxyhexyl]-3-naphthalen-2-ylpropanamide
> <PUBCHEM_IUPAC_NAME>
(2S)-2-acetamido-N-[(5S)-5-[(3-amino-4-fluorophenyl)sulfonyl-(2-methylpropyl)amino]-6-hydroxyhexyl]-3-naphthalen-2-ylpropanamide
> <PUBCHEM_IUPAC_SYSTEMATIC_NAME>
(2S)-2-acetamido-N-[(5S)-5-[(3-azanyl-4-fluoranyl-phenyl)sulfonyl-(2-methylpropyl)amino]-6-oxidanyl-hexyl]-3-naphthalen-2-yl-propanamide
> <PUBCHEM_IUPAC_TRADITIONAL_NAME>
(2S)-2-acetamido-N-[(5S)-5-[(3-amino-4-fluoro-phenyl)sulfonyl-isobutyl-amino]-6-hydroxy-hexyl]-3-(2-naphthyl)propionamide
> <PUBCHEM_IUPAC_INCHI>
InChI=1S/C31H41FN4O5S/c1-21(2)19-36(42(40,41)27-13-14-28(32)29(33)18-27)26(20-37)10-6-7-15-34-31(39)30(35-22(3)38)17-23-11-12-24-8-4-5-9-25(24)16-23/h4-5,8-9,11-14,16,18,21,26,30,37H,6-7,10,15,17,19-20,33H2,1-3H3,(H,34,39)(H,35,38)/t26-,30-/m0/s1
> <PUBCHEM_IUPAC_INCHIKEY>
IFRGIBNATXZKMC-YZNIXAGQSA-N
> <PUBCHEM_XLOGP3_AA>
4.2
> <PUBCHEM_EXACT_MASS>
600.27816976
> <PUBCHEM_MOLECULAR_FORMULA>
C31H41FN4O5S
> <PUBCHEM_MOLECULAR_WEIGHT>
600.7
> <PUBCHEM_OPENEYE_CAN_SMILES>
CC(C)CN(C(CCCCNC(=O)C(CC1=CC2=CC=CC=C2C=C1)NC(=O)C)CO)S(=O)(=O)C3=CC(=C(C=C3)F)N
> <PUBCHEM_OPENEYE_ISO_SMILES>
CC(C)CN([C@@H](CCCCNC(=O)[C@H](CC1=CC2=CC=CC=C2C=C1)NC(=O)C)CO)S(=O)(=O)C3=CC(=C(C=C3)F)N
> <PUBCHEM_CACTVS_TPSA>
150
> <PUBCHEM_MONOISOTOPIC_WEIGHT>
600.27816976
> <PUBCHEM_TOTAL_CHARGE>
0
> <PUBCHEM_HEAVY_ATOM_COUNT>
42
> <PUBCHEM_ATOM_DEF_STEREO_COUNT>
2
> <PUBCHEM_ATOM_UDEF_STEREO_COUNT>
0
> <PUBCHEM_BOND_DEF_STEREO_COUNT>
0
> <PUBCHEM_BOND_UDEF_STEREO_COUNT>
0
> <PUBCHEM_ISOTOPIC_ATOM_COUNT>
0
> <PUBCHEM_COMPONENT_COUNT>
1
> <PUBCHEM_CACTVS_TAUTO_COUNT>
-1
> <PUBCHEM_COORDINATE_TYPE>
1
5
255
> <PUBCHEM_BONDANNOTATIONS>
25  10  5
19  23  8
19  24  8
23  28  8
24  29  8
28  30  8
29  30  8
31  32  8
31  33  8
32  34  8
33  37  8
34  35  8
34  38  8
35  37  8
35  39  8
38  41  8
39  42  8
41  42  8
12  8  6
$$$$
