514026
  -OEChem-10302200282D
 99102  0     1  0  0  0  0  0999 V2000
    4.6200    2.8866    0.0000 S   0  0  0  0  0  0  0  0  0  0  0  0
    6.1200    3.7526    0.0000 O   0  0  0  0  0  0  0  0  0  0  0  0
    3.7540    2.3866    0.0000 O   0  0  0  0  0  0  0  0  0  0  0  0
    5.4860    3.3865    0.0000 O   0  0  0  0  0  0  0  0  0  0  0  0
   10.6200    0.4224    0.0000 O   0  0  0  0  0  0  0  0  0  0  0  0
    9.7540   -2.0776    0.0000 O   0  0  0  0  0  0  0  0  0  0  0  0
    8.8880   -5.5776    0.0000 O   0  0  0  0  0  0  0  0  0  0  0  0
   10.6200   -6.5776    0.0000 O   0  0  0  0  0  0  0  0  0  0  0  0
    5.1200    2.0206    0.0000 N   0  0  3  0  0  0  0  0  0  0  0  0
    9.6200   -0.5775    0.0000 N   0  0  0  0  0  0  0  0  0  0  0  0
   11.4860   -2.0776    0.0000 N   0  0  0  0  0  0  0  0  0  0  0  0
    2.6200    6.3506    0.0000 N   0  0  0  0  0  0  0  0  0  0  0  0
    6.1200    2.0206    0.0000 C   0  0  1  0  0  0  0  0  0  0  0  0
    6.6200    1.1546    0.0000 C   0  0  0  0  0  0  0  0  0  0  0  0
    4.6200    1.1546    0.0000 C   0  0  0  0  0  0  0  0  0  0  0  0
    7.6200    1.1546    0.0000 C   0  0  0  0  0  0  0  0  0  0  0  0
    3.6200    1.1546    0.0000 C   0  0  0  0  0  0  0  0  0  0  0  0
    6.6200    2.8865    0.0000 C   0  0  0  0  0  0  0  0  0  0  0  0
    8.1200    0.2885    0.0000 C   0  0  0  0  0  0  0  0  0  0  0  0
    9.1201    0.2885    0.0000 C   0  0  0  0  0  0  0  0  0  0  0  0
    4.1200    3.7526    0.0000 C   0  0  0  0  0  0  0  0  0  0  0  0
    3.1200    0.2885    0.0000 C   0  0  0  0  0  0  0  0  0  0  0  0
    3.1200    2.0206    0.0000 C   0  0  0  0  0  0  0  0  0  0  0  0
   11.4860   -1.0776    0.0000 C   0  0  1  0  0  0  0  0  0  0  0  0
   12.3521   -0.5776    0.0000 C   0  0  0  0  0  0  0  0  0  0  0  0
   10.6200   -0.5776    0.0000 C   0  0  0  0  0  0  0  0  0  0  0  0
    4.6200    4.6186    0.0000 C   0  0  0  0  0  0  0  0  0  0  0  0
    3.1200    3.7526    0.0000 C   0  0  0  0  0  0  0  0  0  0  0  0
   12.3521    0.4224    0.0000 C   0  0  0  0  0  0  0  0  0  0  0  0
   13.2181   -1.0776    0.0000 C   0  0  0  0  0  0  0  0  0  0  0  0
    4.1200    5.4846    0.0000 C   0  0  0  0  0  0  0  0  0  0  0  0
    2.6200    4.6186    0.0000 C   0  0  0  0  0  0  0  0  0  0  0  0
    3.1200    5.4846    0.0000 C   0  0  0  0  0  0  0  0  0  0  0  0
   11.4860    0.9224    0.0000 C   0  0  0  0  0  0  0  0  0  0  0  0
   14.0841   -0.5776    0.0000 C   0  0  0  0  0  0  0  0  0  0  0  0
   13.2181    0.9224    0.0000 C   0  0  0  0  0  0  0  0  0  0  0  0
   13.2181   -2.0776    0.0000 C   0  0  0  0  0  0  0  0  0  0  0  0
   10.6200   -2.5776    0.0000 C   0  0  0  0  0  0  0  0  0  0  0  0
   11.4860    1.9224    0.0000 C   0  0  0  0  0  0  0  0  0  0  0  0
   14.9501   -1.0776    0.0000 C   0  0  0  0  0  0  0  0  0  0  0  0
   13.2181    1.9224    0.0000 C   0  0  0  0  0  0  0  0  0  0  0  0
   14.0841   -2.5776    0.0000 C   0  0  0  0  0  0  0  0  0  0  0  0
   10.6200   -3.5776    0.0000 C   0  0  0  0  0  0  0  0  0  0  0  0
   12.3521    2.4224    0.0000 C   0  0  0  0  0  0  0  0  0  0  0  0
   14.9501   -2.0776    0.0000 C   0  0  0  0  0  0  0  0  0  0  0  0
    9.7540   -4.0776    0.0000 C   0  0  0  0  0  0  0  0  0  0  0  0
   11.4860   -4.0776    0.0000 C   0  0  0  0  0  0  0  0  0  0  0  0
    9.7540   -5.0776    0.0000 C   0  0  0  0  0  0  0  0  0  0  0  0
   11.4860   -5.0776    0.0000 C   0  0  0  0  0  0  0  0  0  0  0  0
   10.6200   -5.5776    0.0000 C   0  0  0  0  0  0  0  0  0  0  0  0
    8.0219   -5.0776    0.0000 C   0  0  0  0  0  0  0  0  0  0  0  0
    5.8101    2.5575    0.0000 H   0  0  0  0  0  0  0  0  0  0  0  0
    6.0374    0.9425    0.0000 H   0  0  0  0  0  0  0  0  0  0  0  0
    6.7277    0.5440    0.0000 H   0  0  0  0  0  0  0  0  0  0  0  0
    4.5124    0.5440    0.0000 H   0  0  0  0  0  0  0  0  0  0  0  0
    5.2026    0.9425    0.0000 H   0  0  0  0  0  0  0  0  0  0  0  0
    8.2027    1.3666    0.0000 H   0  0  0  0  0  0  0  0  0  0  0  0
    7.5124    1.7652    0.0000 H   0  0  0  0  0  0  0  0  0  0  0  0
    3.0000    1.1546    0.0000 H   0  0  0  0  0  0  0  0  0  0  0  0
    7.0950    2.4880    0.0000 H   0  0  0  0  0  0  0  0  0  0  0  0
    7.0950    3.2851    0.0000 H   0  0  0  0  0  0  0  0  0  0  0  0
    7.5374    0.0765    0.0000 H   0  0  0  0  0  0  0  0  0  0  0  0
    8.2277   -0.3220    0.0000 H   0  0  0  0  0  0  0  0  0  0  0  0
    9.7027    0.5006    0.0000 H   0  0  0  0  0  0  0  0  0  0  0  0
    9.0124    0.8991    0.0000 H   0  0  0  0  0  0  0  0  0  0  0  0
    2.5831    0.5985    0.0000 H   0  0  0  0  0  0  0  0  0  0  0  0
    2.8100   -0.2484    0.0000 H   0  0  0  0  0  0  0  0  0  0  0  0
    3.6569   -0.0215    0.0000 H   0  0  0  0  0  0  0  0  0  0  0  0
    3.6570    2.3306    0.0000 H   0  0  0  0  0  0  0  0  0  0  0  0
    2.8100    2.5575    0.0000 H   0  0  0  0  0  0  0  0  0  0  0  0
    2.5831    1.7106    0.0000 H   0  0  0  0  0  0  0  0  0  0  0  0
   12.0230   -1.3876    0.0000 H   0  0  0  0  0  0  0  0  0  0  0  0
   11.8151   -0.2676    0.0000 H   0  0  0  0  0  0  0  0  0  0  0  0
    9.3100   -1.1145    0.0000 H   0  0  0  0  0  0  0  0  0  0  0  0
    6.4300    4.2895    0.0000 H   0  0  0  0  0  0  0  0  0  0  0  0
    5.2400    4.6186    0.0000 H   0  0  0  0  0  0  0  0  0  0  0  0
    2.8100    3.2157    0.0000 H   0  0  0  0  0  0  0  0  0  0  0  0
   12.0230   -2.3876    0.0000 H   0  0  0  0  0  0  0  0  0  0  0  0
    4.4300    6.0215    0.0000 H   0  0  0  0  0  0  0  0  0  0  0  0
    2.0000    4.6186    0.0000 H   0  0  0  0  0  0  0  0  0  0  0  0
   10.9491    0.6124    0.0000 H   0  0  0  0  0  0  0  0  0  0  0  0
   14.0841    0.0424    0.0000 H   0  0  0  0  0  0  0  0  0  0  0  0
   13.7550    0.6124    0.0000 H   0  0  0  0  0  0  0  0  0  0  0  0
   12.6811   -2.3876    0.0000 H   0  0  0  0  0  0  0  0  0  0  0  0
   10.9491    2.2324    0.0000 H   0  0  0  0  0  0  0  0  0  0  0  0
   15.4871   -0.7676    0.0000 H   0  0  0  0  0  0  0  0  0  0  0  0
   13.7550    2.2324    0.0000 H   0  0  0  0  0  0  0  0  0  0  0  0
   14.0841   -3.1976    0.0000 H   0  0  0  0  0  0  0  0  0  0  0  0
   12.3521    3.0424    0.0000 H   0  0  0  0  0  0  0  0  0  0  0  0
   15.4871   -2.3876    0.0000 H   0  0  0  0  0  0  0  0  0  0  0  0
    2.0000    6.3506    0.0000 H   0  0  0  0  0  0  0  0  0  0  0  0
    2.9300    6.8876    0.0000 H   0  0  0  0  0  0  0  0  0  0  0  0
    9.2170   -3.7676    0.0000 H   0  0  0  0  0  0  0  0  0  0  0  0
   12.0230   -3.7676    0.0000 H   0  0  0  0  0  0  0  0  0  0  0  0
   12.0230   -5.3876    0.0000 H   0  0  0  0  0  0  0  0  0  0  0  0
   11.1569   -6.8876    0.0000 H   0  0  0  0  0  0  0  0  0  0  0  0
    8.3319   -4.5406    0.0000 H   0  0  0  0  0  0  0  0  0  0  0  0
    7.4850   -4.7676    0.0000 H   0  0  0  0  0  0  0  0  0  0  0  0
    7.7119   -5.6145    0.0000 H   0  0  0  0  0  0  0  0  0  0  0  0
  1  3  2  0  0  0  0
  1  4  2  0  0  0  0
  1  9  1  0  0  0  0
  1 21  1  0  0  0  0
  2 18  1  0  0  0  0
  2 75  1  0  0  0  0
  5 26  2  0  0  0  0
  6 38  2  0  0  0  0
  7 48  1  0  0  0  0
  7 51  1  0  0  0  0
  8 50  1  0  0  0  0
  8 96  1  0  0  0  0
 13  9  1  6  0  0  0
  9 15  1  0  0  0  0
 10 20  1  0  0  0  0
 10 26  1  0  0  0  0
 10 74  1  0  0  0  0
 24 11  1  6  0  0  0
 11 38  1  0  0  0  0
 11 78  1  0  0  0  0
 12 33  1  0  0  0  0
 12 91  1  0  0  0  0
 12 92  1  0  0  0  0
 13 14  1  0  0  0  0
 13 18  1  0  0  0  0
 13 52  1  0  0  0  0
 14 16  1  0  0  0  0
 14 53  1  0  0  0  0
 14 54  1  0  0  0  0
 15 17  1  0  0  0  0
 15 55  1  0  0  0  0
 15 56  1  0  0  0  0
 16 19  1  0  0  0  0
 16 57  1  0  0  0  0
 16 58  1  0  0  0  0
 17 22  1  0  0  0  0
 17 23  1  0  0  0  0
 17 59  1  0  0  0  0
 18 60  1  0  0  0  0
 18 61  1  0  0  0  0
 19 20  1  0  0  0  0
 19 62  1  0  0  0  0
 19 63  1  0  0  0  0
 20 64  1  0  0  0  0
 20 65  1  0  0  0  0
 21 27  2  0  0  0  0
 21 28  1  0  0  0  0
 22 66  1  0  0  0  0
 22 67  1  0  0  0  0
 22 68  1  0  0  0  0
 23 69  1  0  0  0  0
 23 70  1  0  0  0  0
 23 71  1  0  0  0  0
 24 25  1  0  0  0  0
 24 26  1  0  0  0  0
 24 72  1  0  0  0  0
 25 29  1  0  0  0  0
 25 30  1  0  0  0  0
 25 73  1  0  0  0  0
 27 31  1  0  0  0  0
 27 76  1  0  0  0  0
 28 32  2  0  0  0  0
 28 77  1  0  0  0  0
 29 34  2  0  0  0  0
 29 36  1  0  0  0  0
 30 35  2  0  0  0  0
 30 37  1  0  0  0  0
 31 33  2  0  0  0  0
 31 79  1  0  0  0  0
 32 33  1  0  0  0  0
 32 80  1  0  0  0  0
 34 39  1  0  0  0  0
 34 81  1  0  0  0  0
 35 40  1  0  0  0  0
 35 82  1  0  0  0  0
 36 41  2  0  0  0  0
 36 83  1  0  0  0  0
 37 42  2  0  0  0  0
 37 84  1  0  0  0  0
 38 43  1  0  0  0  0
 39 44  2  0  0  0  0
 39 85  1  0  0  0  0
 40 45  2  0  0  0  0
 40 86  1  0  0  0  0
 41 44  1  0  0  0  0
 41 87  1  0  0  0  0
 42 45  1  0  0  0  0
 42 88  1  0  0  0  0
 43 46  2  0  0  0  0
 43 47  1  0  0  0  0
 44 89  1  0  0  0  0
 45 90  1  0  0  0  0
 46 48  1  0  0  0  0
 46 93  1  0  0  0  0
 47 49  2  0  0  0  0
 47 94  1  0  0  0  0
 48 50  2  0  0  0  0
 49 50  1  0  0  0  0
 49 95  1  0  0  0  0
 51 97  1  0  0  0  0
 51 98  1  0  0  0  0
 51 99  1  0  0  0  0
M  END
> <PUBCHEM_COMPOUND_CID>
514026
> <PUBCHEM_COMPOUND_CANONICALIZED>
1
> <PUBCHEM_CACTVS_COMPLEXITY>
1130
> <PUBCHEM_CACTVS_HBOND_ACCEPTOR>
9
> <PUBCHEM_CACTVS_HBOND_DONOR>
5
> <PUBCHEM_CACTVS_ROTATABLE_BOND>
18
> <PUBCHEM_CACTVS_SUBSKEYS>
AAADcfB/uABAAAAAAAAAAAAAAAAAAAAAAAAwYMGAAAAAAAABVAAAHgQQSAAADSzh2AYyx4LABgKIAiVSUHDCCBAkIgAIiJmO7MgPdjKGtbuUcStk1hGb+Ye63NLOoAQBAAAAQABACAIAAACAAAAAAAAAAA==
> <PUBCHEM_IUPAC_OPENEYE_NAME>
N-[(1S)-1-[[(5S)-5-[(4-aminophenyl)sulfonyl-isobutyl-amino]-6-hydroxy-hexyl]carbamoyl]-2,2-diphenyl-ethyl]-4-hydroxy-3-methoxy-benzamide
> <PUBCHEM_IUPAC_CAS_NAME>
N-[(2S)-1-[[(5S)-5-[(4-aminophenyl)sulfonyl-(2-methylpropyl)amino]-6-hydroxyhexyl]amino]-1-oxo-3,3-diphenylpropan-2-yl]-4-hydroxy-3-methoxybenzamide
> <PUBCHEM_IUPAC_NAME_MARKUP>
<I>N</I>-[(2<I>S</I>)-1-[[(5<I>S</I>)-5-[(4-aminophenyl)sulfonyl-(2-methylpropyl)amino]-6-hydroxyhexyl]amino]-1-oxo-3,3-diphenylpropan-2-yl]-4-hydroxy-3-methoxybenzamide
> <PUBCHEM_IUPAC_NAME>
N-[(2S)-1-[[(5S)-5-[(4-aminophenyl)sulfonyl-(2-methylpropyl)amino]-6-hydroxyhexyl]amino]-1-oxo-3,3-diphenylpropan-2-yl]-4-hydroxy-3-methoxybenzamide
> <PUBCHEM_IUPAC_SYSTEMATIC_NAME>
N-[(2S)-1-[[(5S)-5-[(4-aminophenyl)sulfonyl-(2-methylpropyl)amino]-6-oxidanyl-hexyl]amino]-1-oxidanylidene-3,3-diphenyl-propan-2-yl]-3-methoxy-4-oxidanyl-benzamide
> <PUBCHEM_IUPAC_TRADITIONAL_NAME>
N-[(1S)-1-benzhydryl-2-[[(5S)-6-hydroxy-5-[isobutyl(sulfanilyl)amino]hexyl]amino]-2-keto-ethyl]-4-hydroxy-3-methoxy-benzamide
> <PUBCHEM_IUPAC_INCHI>
InChI=1S/C39H48N4O7S/c1-27(2)25-43(51(48,49)33-20-18-31(40)19-21-33)32(26-44)16-10-11-23-41-39(47)37(42-38(46)30-17-22-34(45)35(24-30)50-3)36(28-12-6-4-7-13-28)29-14-8-5-9-15-29/h4-9,12-15,17-22,24,27,32,36-37,44-45H,10-11,16,23,25-26,40H2,1-3H3,(H,41,47)(H,42,46)/t32-,37-/m0/s1
> <PUBCHEM_IUPAC_INCHIKEY>
WQQGWSHSBOBISV-OCZFFWILSA-N
> <PUBCHEM_XLOGP3_AA>
5.6
> <PUBCHEM_EXACT_MASS>
716.32437106
> <PUBCHEM_MOLECULAR_FORMULA>
C39H48N4O7S
> <PUBCHEM_MOLECULAR_WEIGHT>
716.9
> <PUBCHEM_OPENEYE_CAN_SMILES>
CC(C)CN(C(CCCCNC(=O)C(C(C1=CC=CC=C1)C2=CC=CC=C2)NC(=O)C3=CC(=C(C=C3)O)OC)CO)S(=O)(=O)C4=CC=C(C=C4)N
> <PUBCHEM_OPENEYE_ISO_SMILES>
CC(C)CN([C@@H](CCCCNC(=O)[C@H](C(C1=CC=CC=C1)C2=CC=CC=C2)NC(=O)C3=CC(=C(C=C3)O)OC)CO)S(=O)(=O)C4=CC=C(C=C4)N
> <PUBCHEM_CACTVS_TPSA>
180
> <PUBCHEM_MONOISOTOPIC_WEIGHT>
716.32437106
> <PUBCHEM_TOTAL_CHARGE>
0
> <PUBCHEM_HEAVY_ATOM_COUNT>
51
> <PUBCHEM_ATOM_DEF_STEREO_COUNT>
2
> <PUBCHEM_ATOM_UDEF_STEREO_COUNT>
0
> <PUBCHEM_BOND_DEF_STEREO_COUNT>
0
> <PUBCHEM_BOND_UDEF_STEREO_COUNT>
0
> <PUBCHEM_ISOTOPIC_ATOM_COUNT>
0
> <PUBCHEM_COMPONENT_COUNT>
1
> <PUBCHEM_CACTVS_TAUTO_COUNT>
-1
> <PUBCHEM_COORDINATE_TYPE>
1
5
255
> <PUBCHEM_BONDANNOTATIONS>
24  11  6
21  27  8
21  28  8
27  31  8
28  32  8
29  34  8
29  36  8
30  35  8
30  37  8
31  33  8
32  33  8
34  39  8
35  40  8
36  41  8
37  42  8
39  44  8
40  45  8
41  44  8
42  45  8
43  46  8
43  47  8
46  48  8
47  49  8
48  50  8
49  50  8
13  9  6
$$$$
