514028
  -OEChem-10302200282D
 94 97  0     1  0  0  0  0  0999 V2000
    3.7320   -3.0101    0.0000 S   0  0  0  0  0  0  0  0  0  0  0  0
    6.3301   -1.5101    0.0000 O   0  0  0  0  0  0  0  0  0  0  0  0
    4.7320   -3.0101    0.0000 O   0  0  0  0  0  0  0  0  0  0  0  0
    2.7320   -3.0101    0.0000 O   0  0  0  0  0  0  0  0  0  0  0  0
    8.0622    2.4899    0.0000 O   0  0  0  0  0  0  0  0  0  0  0  0
    5.6962    3.8560    0.0000 O   0  0  0  0  0  0  0  0  0  0  0  0
    7.1962    6.4540    0.0000 O   0  0  0  0  0  0  0  0  0  0  0  0
    3.7320   -2.0101    0.0000 N   0  0  3  0  0  0  0  0  0  0  0  0
    6.3301    2.4899    0.0000 N   0  0  0  0  0  0  0  0  0  0  0  0
    7.1962    4.7220    0.0000 N   0  0  0  0  0  0  0  0  0  0  0  0
    3.7320   -7.0101    0.0000 N   0  0  0  0  0  0  0  0  0  0  0  0
    4.6962    5.5880    0.0000 N   0  0  0  0  0  0  0  0  0  0  0  0
    4.5981   -1.5101    0.0000 C   0  0  1  0  0  0  0  0  0  0  0  0
    4.5981   -0.5101    0.0000 C   0  0  0  0  0  0  0  0  0  0  0  0
    2.8660   -1.5101    0.0000 C   0  0  0  0  0  0  0  0  0  0  0  0
    5.4641   -0.0101    0.0000 C   0  0  0  0  0  0  0  0  0  0  0  0
    2.8660   -0.5101    0.0000 C   0  0  0  0  0  0  0  0  0  0  0  0
    5.4641   -2.0101    0.0000 C   0  0  0  0  0  0  0  0  0  0  0  0
    5.4641    0.9899    0.0000 C   0  0  0  0  0  0  0  0  0  0  0  0
    6.3301    1.4899    0.0000 C   0  0  0  0  0  0  0  0  0  0  0  0
    3.7320   -4.0101    0.0000 C   0  0  0  0  0  0  0  0  0  0  0  0
    2.0000   -0.0101    0.0000 C   0  0  0  0  0  0  0  0  0  0  0  0
    3.7320   -0.0101    0.0000 C   0  0  0  0  0  0  0  0  0  0  0  0
    7.6962    3.8560    0.0000 C   0  0  1  0  0  0  0  0  0  0  0  0
    8.6962    3.8560    0.0000 C   0  0  0  0  0  0  0  0  0  0  0  0
    7.1962    2.9899    0.0000 C   0  0  0  0  0  0  0  0  0  0  0  0
    4.5981   -4.5101    0.0000 C   0  0  0  0  0  0  0  0  0  0  0  0
    2.8660   -4.5101    0.0000 C   0  0  0  0  0  0  0  0  0  0  0  0
    9.1962    4.7220    0.0000 C   0  0  0  0  0  0  0  0  0  0  0  0
    9.1962    2.9899    0.0000 C   0  0  0  0  0  0  0  0  0  0  0  0
    4.5981   -5.5101    0.0000 C   0  0  0  0  0  0  0  0  0  0  0  0
    2.8660   -5.5101    0.0000 C   0  0  0  0  0  0  0  0  0  0  0  0
    3.7320   -6.0101    0.0000 C   0  0  0  0  0  0  0  0  0  0  0  0
    8.6962    5.5880    0.0000 C   0  0  0  0  0  0  0  0  0  0  0  0
   10.1962    2.9899    0.0000 C   0  0  0  0  0  0  0  0  0  0  0  0
   10.1962    4.7220    0.0000 C   0  0  0  0  0  0  0  0  0  0  0  0
    8.6962    2.1239    0.0000 C   0  0  0  0  0  0  0  0  0  0  0  0
    6.1962    4.7220    0.0000 C   0  0  0  0  0  0  0  0  0  0  0  0
    9.1962    6.4540    0.0000 C   0  0  0  0  0  0  0  0  0  0  0  0
   10.6962    2.1239    0.0000 C   0  0  0  0  0  0  0  0  0  0  0  0
   10.6962    5.5880    0.0000 C   0  0  0  0  0  0  0  0  0  0  0  0
    9.1962    1.2579    0.0000 C   0  0  0  0  0  0  0  0  0  0  0  0
   10.1962    6.4540    0.0000 C   0  0  0  0  0  0  0  0  0  0  0  0
   10.1962    1.2579    0.0000 C   0  0  0  0  0  0  0  0  0  0  0  0
    5.6962    5.5880    0.0000 C   0  0  0  0  0  0  0  0  0  0  0  0
    6.1962    6.4540    0.0000 C   0  0  0  0  0  0  0  0  0  0  0  0
    5.6962    7.3201    0.0000 C   0  0  0  0  0  0  0  0  0  0  0  0
    4.1962    6.4540    0.0000 C   0  0  0  0  0  0  0  0  0  0  0  0
    4.6962    7.3201    0.0000 C   0  0  0  0  0  0  0  0  0  0  0  0
    4.5981   -2.1301    0.0000 H   0  0  0  0  0  0  0  0  0  0  0  0
    4.3860    0.0725    0.0000 H   0  0  0  0  0  0  0  0  0  0  0  0
    3.9875   -0.6177    0.0000 H   0  0  0  0  0  0  0  0  0  0  0  0
    2.2554   -1.4024    0.0000 H   0  0  0  0  0  0  0  0  0  0  0  0
    2.6540   -2.0927    0.0000 H   0  0  0  0  0  0  0  0  0  0  0  0
    5.6762   -0.5927    0.0000 H   0  0  0  0  0  0  0  0  0  0  0  0
    6.0747    0.0976    0.0000 H   0  0  0  0  0  0  0  0  0  0  0  0
    2.8660    0.1099    0.0000 H   0  0  0  0  0  0  0  0  0  0  0  0
    5.0656   -2.4850    0.0000 H   0  0  0  0  0  0  0  0  0  0  0  0
    5.8626   -2.4850    0.0000 H   0  0  0  0  0  0  0  0  0  0  0  0
    5.2520    1.5725    0.0000 H   0  0  0  0  0  0  0  0  0  0  0  0
    4.8535    0.8823    0.0000 H   0  0  0  0  0  0  0  0  0  0  0  0
    6.5422    0.9073    0.0000 H   0  0  0  0  0  0  0  0  0  0  0  0
    6.9407    1.5976    0.0000 H   0  0  0  0  0  0  0  0  0  0  0  0
    2.3100    0.5269    0.0000 H   0  0  0  0  0  0  0  0  0  0  0  0
    1.4631    0.2999    0.0000 H   0  0  0  0  0  0  0  0  0  0  0  0
    1.6900   -0.5470    0.0000 H   0  0  0  0  0  0  0  0  0  0  0  0
    4.0420   -0.5470    0.0000 H   0  0  0  0  0  0  0  0  0  0  0  0
    4.2690    0.2999    0.0000 H   0  0  0  0  0  0  0  0  0  0  0  0
    3.4220    0.5269    0.0000 H   0  0  0  0  0  0  0  0  0  0  0  0
    8.0062    4.3929    0.0000 H   0  0  0  0  0  0  0  0  0  0  0  0
    8.3862    3.3190    0.0000 H   0  0  0  0  0  0  0  0  0  0  0  0
    5.7101    2.4899    0.0000 H   0  0  0  0  0  0  0  0  0  0  0  0
    6.8671   -1.8201    0.0000 H   0  0  0  0  0  0  0  0  0  0  0  0
    5.1350   -4.2001    0.0000 H   0  0  0  0  0  0  0  0  0  0  0  0
    2.3291   -4.2001    0.0000 H   0  0  0  0  0  0  0  0  0  0  0  0
    7.5062    5.2589    0.0000 H   0  0  0  0  0  0  0  0  0  0  0  0
    5.1350   -5.8201    0.0000 H   0  0  0  0  0  0  0  0  0  0  0  0
    2.3291   -5.8201    0.0000 H   0  0  0  0  0  0  0  0  0  0  0  0
    8.0762    5.5880    0.0000 H   0  0  0  0  0  0  0  0  0  0  0  0
   10.5062    3.5269    0.0000 H   0  0  0  0  0  0  0  0  0  0  0  0
   10.5062    4.1851    0.0000 H   0  0  0  0  0  0  0  0  0  0  0  0
    8.0762    2.1239    0.0000 H   0  0  0  0  0  0  0  0  0  0  0  0
    8.8862    6.9910    0.0000 H   0  0  0  0  0  0  0  0  0  0  0  0
   11.3162    2.1239    0.0000 H   0  0  0  0  0  0  0  0  0  0  0  0
   11.3162    5.5880    0.0000 H   0  0  0  0  0  0  0  0  0  0  0  0
    8.8862    0.7210    0.0000 H   0  0  0  0  0  0  0  0  0  0  0  0
   10.5062    6.9910    0.0000 H   0  0  0  0  0  0  0  0  0  0  0  0
   10.5062    0.7210    0.0000 H   0  0  0  0  0  0  0  0  0  0  0  0
    3.1951   -7.3201    0.0000 H   0  0  0  0  0  0  0  0  0  0  0  0
    4.2690   -7.3201    0.0000 H   0  0  0  0  0  0  0  0  0  0  0  0
    6.0062    7.8570    0.0000 H   0  0  0  0  0  0  0  0  0  0  0  0
    3.5762    6.4540    0.0000 H   0  0  0  0  0  0  0  0  0  0  0  0
    4.3862    7.8570    0.0000 H   0  0  0  0  0  0  0  0  0  0  0  0
    7.5062    6.9910    0.0000 H   0  0  0  0  0  0  0  0  0  0  0  0
  1  3  2  0  0  0  0
  1  4  2  0  0  0  0
  1  8  1  0  0  0  0
  1 21  1  0  0  0  0
  2 18  1  0  0  0  0
  2 73  1  0  0  0  0
  5 26  2  0  0  0  0
  6 38  2  0  0  0  0
  7 46  1  0  0  0  0
  7 94  1  0  0  0  0
 13  8  1  1  0  0  0
  8 15  1  0  0  0  0
  9 20  1  0  0  0  0
  9 26  1  0  0  0  0
  9 72  1  0  0  0  0
 24 10  1  1  0  0  0
 10 38  1  0  0  0  0
 10 76  1  0  0  0  0
 11 33  1  0  0  0  0
 11 89  1  0  0  0  0
 11 90  1  0  0  0  0
 12 45  1  0  0  0  0
 12 48  2  0  0  0  0
 13 14  1  0  0  0  0
 13 18  1  0  0  0  0
 13 50  1  0  0  0  0
 14 16  1  0  0  0  0
 14 51  1  0  0  0  0
 14 52  1  0  0  0  0
 15 17  1  0  0  0  0
 15 53  1  0  0  0  0
 15 54  1  0  0  0  0
 16 19  1  0  0  0  0
 16 55  1  0  0  0  0
 16 56  1  0  0  0  0
 17 22  1  0  0  0  0
 17 23  1  0  0  0  0
 17 57  1  0  0  0  0
 18 58  1  0  0  0  0
 18 59  1  0  0  0  0
 19 20  1  0  0  0  0
 19 60  1  0  0  0  0
 19 61  1  0  0  0  0
 20 62  1  0  0  0  0
 20 63  1  0  0  0  0
 21 27  2  0  0  0  0
 21 28  1  0  0  0  0
 22 64  1  0  0  0  0
 22 65  1  0  0  0  0
 22 66  1  0  0  0  0
 23 67  1  0  0  0  0
 23 68  1  0  0  0  0
 23 69  1  0  0  0  0
 24 25  1  0  0  0  0
 24 26  1  0  0  0  0
 24 70  1  0  0  0  0
 25 29  1  0  0  0  0
 25 30  1  0  0  0  0
 25 71  1  0  0  0  0
 27 31  1  0  0  0  0
 27 74  1  0  0  0  0
 28 32  2  0  0  0  0
 28 75  1  0  0  0  0
 29 34  2  0  0  0  0
 29 36  1  0  0  0  0
 30 35  2  0  0  0  0
 30 37  1  0  0  0  0
 31 33  2  0  0  0  0
 31 77  1  0  0  0  0
 32 33  1  0  0  0  0
 32 78  1  0  0  0  0
 34 39  1  0  0  0  0
 34 79  1  0  0  0  0
 35 40  1  0  0  0  0
 35 80  1  0  0  0  0
 36 41  2  0  0  0  0
 36 81  1  0  0  0  0
 37 42  2  0  0  0  0
 37 82  1  0  0  0  0
 38 45  1  0  0  0  0
 39 43  2  0  0  0  0
 39 83  1  0  0  0  0
 40 44  2  0  0  0  0
 40 84  1  0  0  0  0
 41 43  1  0  0  0  0
 41 85  1  0  0  0  0
 42 44  1  0  0  0  0
 42 86  1  0  0  0  0
 43 87  1  0  0  0  0
 44 88  1  0  0  0  0
 45 46  2  0  0  0  0
 46 47  1  0  0  0  0
 47 49  2  0  0  0  0
 47 91  1  0  0  0  0
 48 49  1  0  0  0  0
 48 92  1  0  0  0  0
 49 93  1  0  0  0  0
M  END
> <PUBCHEM_COMPOUND_CID>
514028
> <PUBCHEM_COMPOUND_CANONICALIZED>
1
> <PUBCHEM_CACTVS_COMPLEXITY>
1080
> <PUBCHEM_CACTVS_HBOND_ACCEPTOR>
9
> <PUBCHEM_CACTVS_HBOND_DONOR>
5
> <PUBCHEM_CACTVS_ROTATABLE_BOND>
17
> <PUBCHEM_CACTVS_SUBSKEYS>
AAADcfB/uABAAAAAAAAAAAAAAAAAAAAAAAA8YMEAAAAAAAAB1AAAHgQQSAAADSzh3gY+x5LIEgKoAzV3VHTCgDA3YiAI2Lm/bNgKdvbSlbOUcUhm9hHY2Qe4yMCOgAQAAAAAAAAACAAAAAAAAAAAAAAAAA==
> <PUBCHEM_IUPAC_OPENEYE_NAME>
N-[(1S)-1-[[(5S)-5-[(4-aminophenyl)sulfonyl-isobutyl-amino]-6-hydroxy-hexyl]carbamoyl]-2,2-diphenyl-ethyl]-3-hydroxy-pyridine-2-carboxamide
> <PUBCHEM_IUPAC_CAS_NAME>
N-[(2S)-1-[[(5S)-5-[(4-aminophenyl)sulfonyl-(2-methylpropyl)amino]-6-hydroxyhexyl]amino]-1-oxo-3,3-diphenylpropan-2-yl]-3-hydroxy-2-pyridinecarboxamide
> <PUBCHEM_IUPAC_NAME_MARKUP>
<I>N</I>-[(2<I>S</I>)-1-[[(5<I>S</I>)-5-[(4-aminophenyl)sulfonyl-(2-methylpropyl)amino]-6-hydroxyhexyl]amino]-1-oxo-3,3-diphenylpropan-2-yl]-3-hydroxypyridine-2-carboxamide
> <PUBCHEM_IUPAC_NAME>
N-[(2S)-1-[[(5S)-5-[(4-aminophenyl)sulfonyl-(2-methylpropyl)amino]-6-hydroxyhexyl]amino]-1-oxo-3,3-diphenylpropan-2-yl]-3-hydroxypyridine-2-carboxamide
> <PUBCHEM_IUPAC_SYSTEMATIC_NAME>
N-[(2S)-1-[[(5S)-5-[(4-aminophenyl)sulfonyl-(2-methylpropyl)amino]-6-oxidanyl-hexyl]amino]-1-oxidanylidene-3,3-diphenyl-propan-2-yl]-3-oxidanyl-pyridine-2-carboxamide
> <PUBCHEM_IUPAC_TRADITIONAL_NAME>
N-[(1S)-1-benzhydryl-2-[[(5S)-6-hydroxy-5-[isobutyl(sulfanilyl)amino]hexyl]amino]-2-keto-ethyl]-3-hydroxy-picolinamide
> <PUBCHEM_IUPAC_INCHI>
InChI=1S/C37H45N5O6S/c1-26(2)24-42(49(47,48)31-20-18-29(38)19-21-31)30(25-43)16-9-10-22-40-36(45)35(41-37(46)34-32(44)17-11-23-39-34)33(27-12-5-3-6-13-27)28-14-7-4-8-15-28/h3-8,11-15,17-21,23,26,30,33,35,43-44H,9-10,16,22,24-25,38H2,1-2H3,(H,40,45)(H,41,46)/t30-,35-/m0/s1
> <PUBCHEM_IUPAC_INCHIKEY>
NHBUGOYHTMPKCG-QGRQJHSQSA-N
> <PUBCHEM_XLOGP3_AA>
5.4
> <PUBCHEM_EXACT_MASS>
687.30905535
> <PUBCHEM_MOLECULAR_FORMULA>
C37H45N5O6S
> <PUBCHEM_MOLECULAR_WEIGHT>
687.8
> <PUBCHEM_OPENEYE_CAN_SMILES>
CC(C)CN(C(CCCCNC(=O)C(C(C1=CC=CC=C1)C2=CC=CC=C2)NC(=O)C3=C(C=CC=N3)O)CO)S(=O)(=O)C4=CC=C(C=C4)N
> <PUBCHEM_OPENEYE_ISO_SMILES>
CC(C)CN([C@@H](CCCCNC(=O)[C@H](C(C1=CC=CC=C1)C2=CC=CC=C2)NC(=O)C3=C(C=CC=N3)O)CO)S(=O)(=O)C4=CC=C(C=C4)N
> <PUBCHEM_CACTVS_TPSA>
183
> <PUBCHEM_MONOISOTOPIC_WEIGHT>
687.30905535
> <PUBCHEM_TOTAL_CHARGE>
0
> <PUBCHEM_HEAVY_ATOM_COUNT>
49
> <PUBCHEM_ATOM_DEF_STEREO_COUNT>
2
> <PUBCHEM_ATOM_UDEF_STEREO_COUNT>
0
> <PUBCHEM_BOND_DEF_STEREO_COUNT>
0
> <PUBCHEM_BOND_UDEF_STEREO_COUNT>
0
> <PUBCHEM_ISOTOPIC_ATOM_COUNT>
0
> <PUBCHEM_COMPONENT_COUNT>
1
> <PUBCHEM_CACTVS_TAUTO_COUNT>
-1
> <PUBCHEM_COORDINATE_TYPE>
1
5
255
> <PUBCHEM_BONDANNOTATIONS>
24  10  5
12  45  8
12  48  8
21  27  8
21  28  8
27  31  8
28  32  8
29  34  8
29  36  8
30  35  8
30  37  8
31  33  8
32  33  8
34  39  8
35  40  8
36  41  8
37  42  8
39  43  8
40  44  8
41  43  8
42  44  8
45  46  8
46  47  8
47  49  8
48  49  8
13  8  5
$$$$
