514178
  -OEChem-10302200282D
 64 68  0     1  0  0  0  0  0999 V2000
    4.5411    0.2042    0.0000 O   0  0  0  0  0  0  0  0  0  0  0  0
    5.8144   -1.4514    0.0000 O   0  0  0  0  0  0  0  0  0  0  0  0
    2.6443   -1.5559    0.0000 O   0  0  0  0  0  0  0  0  0  0  0  0
    5.4641    1.7920    0.0000 O   0  0  0  0  0  0  0  0  0  0  0  0
    3.7320    4.7920    0.0000 O   0  0  0  0  0  0  0  0  0  0  0  0
    3.7320    1.7920    0.0000 N   0  0  0  0  0  0  0  0  0  0  0  0
    4.5981    3.2920    0.0000 N   0  0  0  0  0  0  0  0  0  0  0  0
    4.2320   -0.7469    0.0000 C   0  0  1  0  0  0  0  0  0  0  0  0
    3.2320   -0.7469    0.0000 C   0  0  2  0  0  0  0  0  0  0  0  0
    2.9230    0.2042    0.0000 C   0  0  0  0  0  0  0  0  0  0  0  0
    3.7320    0.7920    0.0000 C   0  0  1  0  0  0  0  0  0  0  0  0
    4.8198   -1.5559    0.0000 C   0  0  0  0  0  0  0  0  0  0  0  0
    6.4021   -2.2604    0.0000 C   0  0  0  0  0  0  0  0  0  0  0  0
    6.9899   -3.0694    0.0000 C   0  0  0  0  0  0  0  0  0  0  0  0
    7.2112   -1.6726    0.0000 C   0  0  0  0  0  0  0  0  0  0  0  0
    5.5931   -2.8482    0.0000 C   0  0  0  0  0  0  0  0  0  0  0  0
    2.8660    2.2920    0.0000 C   0  0  0  0  0  0  0  0  0  0  0  0
    4.5981    2.2920    0.0000 C   0  0  0  0  0  0  0  0  0  0  0  0
    2.8660    3.2920    0.0000 C   0  0  0  0  0  0  0  0  0  0  0  0
    7.9844   -2.9649    0.0000 C   0  0  0  0  0  0  0  0  0  0  0  0
    7.1066   -0.6781    0.0000 C   0  0  0  0  0  0  0  0  0  0  0  0
    5.6976   -3.8427    0.0000 C   0  0  0  0  0  0  0  0  0  0  0  0
    6.5832   -3.9830    0.0000 C   0  0  0  0  0  0  0  0  0  0  0  0
    8.1247   -2.0793    0.0000 C   0  0  0  0  0  0  0  0  0  0  0  0
    4.6796   -2.4414    0.0000 C   0  0  0  0  0  0  0  0  0  0  0  0
    3.7320    3.7920    0.0000 C   0  0  0  0  0  0  0  0  0  0  0  0
    2.0000    3.7920    0.0000 C   0  0  0  0  0  0  0  0  0  0  0  0
    8.5722   -3.7739    0.0000 C   0  0  0  0  0  0  0  0  0  0  0  0
    7.9156   -0.0903    0.0000 C   0  0  0  0  0  0  0  0  0  0  0  0
    4.8886   -4.4305    0.0000 C   0  0  0  0  0  0  0  0  0  0  0  0
    7.1710   -4.7920    0.0000 C   0  0  0  0  0  0  0  0  0  0  0  0
    8.9337   -1.4916    0.0000 C   0  0  0  0  0  0  0  0  0  0  0  0
    3.8706   -3.0292    0.0000 C   0  0  0  0  0  0  0  0  0  0  0  0
    8.1655   -4.6874    0.0000 C   0  0  0  0  0  0  0  0  0  0  0  0
    8.8292   -0.4970    0.0000 C   0  0  0  0  0  0  0  0  0  0  0  0
    3.9751   -4.0237    0.0000 C   0  0  0  0  0  0  0  0  0  0  0  0
    4.8444   -0.6499    0.0000 H   0  0  0  0  0  0  0  0  0  0  0  0
    3.5135   -1.2993    0.0000 H   0  0  0  0  0  0  0  0  0  0  0  0
    2.6130    0.7411    0.0000 H   0  0  0  0  0  0  0  0  0  0  0  0
    2.3566   -0.0480    0.0000 H   0  0  0  0  0  0  0  0  0  0  0  0
    4.2845    1.0734    0.0000 H   0  0  0  0  0  0  0  0  0  0  0  0
    4.2626   -1.8277    0.0000 H   0  0  0  0  0  0  0  0  0  0  0  0
    4.9907   -2.1519    0.0000 H   0  0  0  0  0  0  0  0  0  0  0  0
    2.0277   -1.4911    0.0000 H   0  0  0  0  0  0  0  0  0  0  0  0
    2.3291    1.9820    0.0000 H   0  0  0  0  0  0  0  0  0  0  0  0
    5.1350    3.6020    0.0000 H   0  0  0  0  0  0  0  0  0  0  0  0
    8.2366   -2.3985    0.0000 H   0  0  0  0  0  0  0  0  0  0  0  0
    6.5402   -0.4259    0.0000 H   0  0  0  0  0  0  0  0  0  0  0  0
    6.2640   -4.0949    0.0000 H   0  0  0  0  0  0  0  0  0  0  0  0
    5.9666   -4.0478    0.0000 H   0  0  0  0  0  0  0  0  0  0  0  0
    8.1895   -2.6959    0.0000 H   0  0  0  0  0  0  0  0  0  0  0  0
    4.6148   -1.8248    0.0000 H   0  0  0  0  0  0  0  0  0  0  0  0
    2.3100    4.3289    0.0000 H   0  0  0  0  0  0  0  0  0  0  0  0
    1.4631    4.1020    0.0000 H   0  0  0  0  0  0  0  0  0  0  0  0
    1.6900    3.2550    0.0000 H   0  0  0  0  0  0  0  0  0  0  0  0
    9.1888   -3.7091    0.0000 H   0  0  0  0  0  0  0  0  0  0  0  0
    7.8508    0.5263    0.0000 H   0  0  0  0  0  0  0  0  0  0  0  0
    4.9534   -5.0471    0.0000 H   0  0  0  0  0  0  0  0  0  0  0  0
    6.9188   -5.3584    0.0000 H   0  0  0  0  0  0  0  0  0  0  0  0
    9.5001   -1.7437    0.0000 H   0  0  0  0  0  0  0  0  0  0  0  0
    3.3042   -2.7770    0.0000 H   0  0  0  0  0  0  0  0  0  0  0  0
    8.5299   -5.1890    0.0000 H   0  0  0  0  0  0  0  0  0  0  0  0
    9.3308   -0.1326    0.0000 H   0  0  0  0  0  0  0  0  0  0  0  0
    3.4735   -4.3882    0.0000 H   0  0  0  0  0  0  0  0  0  0  0  0
  1  8  1  0  0  0  0
  1 11  1  0  0  0  0
  2 12  1  0  0  0  0
  2 13  1  0  0  0  0
  9  3  1  1  0  0  0
  3 44  1  0  0  0  0
  4 18  2  0  0  0  0
  5 26  2  0  0  0  0
 11  6  1  6  0  0  0
  6 17  1  0  0  0  0
  6 18  1  0  0  0  0
  7 18  1  0  0  0  0
  7 26  1  0  0  0  0
  7 46  1  0  0  0  0
  8  9  1  0  0  0  0
  8 12  1  6  0  0  0
  8 37  1  0  0  0  0
  9 10  1  0  0  0  0
  9 38  1  0  0  0  0
 10 11  1  0  0  0  0
 10 39  1  0  0  0  0
 10 40  1  0  0  0  0
 11 41  1  0  0  0  0
 12 42  1  0  0  0  0
 12 43  1  0  0  0  0
 13 14  1  0  0  0  0
 13 15  1  0  0  0  0
 13 16  1  0  0  0  0
 14 20  2  0  0  0  0
 14 23  1  0  0  0  0
 15 21  2  0  0  0  0
 15 24  1  0  0  0  0
 16 22  2  0  0  0  0
 16 25  1  0  0  0  0
 17 19  2  0  0  0  0
 17 45  1  0  0  0  0
 19 26  1  0  0  0  0
 19 27  1  0  0  0  0
 20 28  1  0  0  0  0
 20 47  1  0  0  0  0
 21 29  1  0  0  0  0
 21 48  1  0  0  0  0
 22 30  1  0  0  0  0
 22 49  1  0  0  0  0
 23 31  2  0  0  0  0
 23 50  1  0  0  0  0
 24 32  2  0  0  0  0
 24 51  1  0  0  0  0
 25 33  2  0  0  0  0
 25 52  1  0  0  0  0
 27 53  1  0  0  0  0
 27 54  1  0  0  0  0
 27 55  1  0  0  0  0
 28 34  2  0  0  0  0
 28 56  1  0  0  0  0
 29 35  2  0  0  0  0
 29 57  1  0  0  0  0
 30 36  2  0  0  0  0
 30 58  1  0  0  0  0
 31 34  1  0  0  0  0
 31 59  1  0  0  0  0
 32 35  1  0  0  0  0
 32 60  1  0  0  0  0
 33 36  1  0  0  0  0
 33 61  1  0  0  0  0
 34 62  1  0  0  0  0
 35 63  1  0  0  0  0
 36 64  1  0  0  0  0
M  END
> <PUBCHEM_COMPOUND_CID>
514178
> <PUBCHEM_COMPOUND_CANONICALIZED>
1
> <PUBCHEM_CACTVS_COMPLEXITY>
765
> <PUBCHEM_CACTVS_HBOND_ACCEPTOR>
5
> <PUBCHEM_CACTVS_HBOND_DONOR>
2
> <PUBCHEM_CACTVS_ROTATABLE_BOND>
7
> <PUBCHEM_CACTVS_SUBSKEYS>
AAADceB7OAAAAAAAAAAAAAAAAAAAASAAAAAwYMEAAAAAAAABUAAAHgAQCAAADFThmAYzAIPABgCIAiFWUACCAAAgAAAIiAEICMiJNiKAsRiOcAAvxyMLqMew8OoOgAAAAAAAAAAAAAAAAAAAAAAAAAAAAA==
> <PUBCHEM_IUPAC_OPENEYE_NAME>
1-[(2R,4S,5R)-4-hydroxy-5-(trityloxymethyl)tetrahydrofuran-2-yl]-5-methyl-pyrimidine-2,4-dione
> <PUBCHEM_IUPAC_CAS_NAME>
1-[(2R,4S,5R)-4-hydroxy-5-[(triphenylmethyl)oxymethyl]-2-oxolanyl]-5-methylpyrimidine-2,4-dione
> <PUBCHEM_IUPAC_NAME_MARKUP>
1-[(2<I>R</I>,4<I>S</I>,5<I>R</I>)-4-hydroxy-5-(trityloxymethyl)oxolan-2-yl]-5-methylpyrimidine-2,4-dione
> <PUBCHEM_IUPAC_NAME>
1-[(2R,4S,5R)-4-hydroxy-5-(trityloxymethyl)oxolan-2-yl]-5-methylpyrimidine-2,4-dione
> <PUBCHEM_IUPAC_SYSTEMATIC_NAME>
5-methyl-1-[(2R,4S,5R)-4-oxidanyl-5-[(triphenylmethyl)oxymethyl]oxolan-2-yl]pyrimidine-2,4-dione
> <PUBCHEM_IUPAC_TRADITIONAL_NAME>
1-[(2R,4S,5R)-4-hydroxy-5-(trityloxymethyl)tetrahydrofuran-2-yl]-5-methyl-pyrimidine-2,4-quinone
> <PUBCHEM_IUPAC_INCHI>
InChI=1S/C29H28N2O5/c1-20-18-31(28(34)30-27(20)33)26-17-24(32)25(36-26)19-35-29(21-11-5-2-6-12-21,22-13-7-3-8-14-22)23-15-9-4-10-16-23/h2-16,18,24-26,32H,17,19H2,1H3,(H,30,33,34)/t24-,25+,26+/m0/s1
> <PUBCHEM_IUPAC_INCHIKEY>
FZDHVUVGQXVYOP-JIMJEQGWSA-N
> <PUBCHEM_XLOGP3>
3.5
> <PUBCHEM_EXACT_MASS>
484.19982200
> <PUBCHEM_MOLECULAR_FORMULA>
C29H28N2O5
> <PUBCHEM_MOLECULAR_WEIGHT>
484.5
> <PUBCHEM_OPENEYE_CAN_SMILES>
CC1=CN(C(=O)NC1=O)C2CC(C(O2)COC(C3=CC=CC=C3)(C4=CC=CC=C4)C5=CC=CC=C5)O
> <PUBCHEM_OPENEYE_ISO_SMILES>
CC1=CN(C(=O)NC1=O)[C@H]2C[C@@H]([C@H](O2)COC(C3=CC=CC=C3)(C4=CC=CC=C4)C5=CC=CC=C5)O
> <PUBCHEM_CACTVS_TPSA>
88.1
> <PUBCHEM_MONOISOTOPIC_WEIGHT>
484.19982200
> <PUBCHEM_TOTAL_CHARGE>
0
> <PUBCHEM_HEAVY_ATOM_COUNT>
36
> <PUBCHEM_ATOM_DEF_STEREO_COUNT>
3
> <PUBCHEM_ATOM_UDEF_STEREO_COUNT>
0
> <PUBCHEM_BOND_DEF_STEREO_COUNT>
0
> <PUBCHEM_BOND_UDEF_STEREO_COUNT>
0
> <PUBCHEM_ISOTOPIC_ATOM_COUNT>
0
> <PUBCHEM_COMPONENT_COUNT>
1
> <PUBCHEM_CACTVS_TAUTO_COUNT>
3
> <PUBCHEM_COORDINATE_TYPE>
1
5
255
> <PUBCHEM_BONDANNOTATIONS>
14  20  8
14  23  8
15  21  8
15  24  8
16  22  8
16  25  8
17  19  8
19  26  8
20  28  8
21  29  8
22  30  8
23  31  8
24  32  8
25  33  8
28  34  8
29  35  8
9  3  5
30  36  8
31  34  8
32  35  8
33  36  8
11  6  6
6  17  8
6  18  8
7  18  8
7  26  8
8  12  6
$$$$
