514181
  -OEChem-10302200282D
 96104  0     1  0  0  0  0  0999 V2000
   10.6287   -4.5284    0.0000 O   0  0  0  0  0  0  0  0  0  0  0  0
    9.5109   -5.3887    0.0000 O   0  0  0  0  0  0  0  0  0  0  0  0
    7.3374   -3.5272    0.0000 O   0  0  0  0  0  0  0  0  0  0  0  0
    8.5611   -5.9446    0.0000 O   0  0  0  0  0  0  0  0  0  0  0  0
    7.0843   -1.5953    0.0000 O   0  0  0  0  0  0  0  0  0  0  0  0
   10.0944    0.0412    0.0000 O   0  0  0  0  0  0  0  0  0  0  0  0
    6.6394   -3.1970    0.0000 O   0  0  0  0  0  0  0  0  0  0  0  0
    7.5699   -1.6978    0.0000 O   0  0  0  0  0  0  0  0  0  0  0  0
    8.2960    1.1236    0.0000 O   0  0  0  0  0  0  0  0  0  0  0  0
   12.7607   -4.2840    0.0000 O   0  0  0  0  0  0  0  0  0  0  0  0
    9.7500   -1.6722    0.0000 O   0  0  0  0  0  0  0  0  0  0  0  0
   13.5774   -2.3192    0.0000 O   0  0  0  0  0  0  0  0  0  0  0  0
   11.7335   -0.9714    0.0000 O   0  0  0  0  0  0  0  0  0  0  0  0
    4.6912    0.1577    0.0000 O   0  0  0  0  0  0  0  0  0  0  0  0
    8.9032    2.5895    0.0000 O   0  0  0  0  0  0  0  0  0  0  0  0
   11.3595   -1.9780    0.0000 O   0  0  0  0  0  0  0  0  0  0  0  0
    3.4323    1.1236    0.0000 O   0  0  0  0  0  0  0  0  0  0  0  0
    5.1680    4.4694    0.0000 O   0  0  0  0  0  0  0  0  0  0  0  0
    8.5259    5.2343    0.0000 O   0  0  0  0  0  0  0  0  0  0  0  0
    5.7272    4.6193    0.0000 O   0  0  0  0  0  0  0  0  0  0  0  0
    6.5474    5.7644    0.0000 O   0  0  0  0  0  0  0  0  0  0  0  0
    2.4367    3.6027    0.0000 O   0  0  0  0  0  0  0  0  0  0  0  0
    3.8851    5.0511    0.0000 O   0  0  0  0  0  0  0  0  0  0  0  0
   13.8204    0.1608    0.0000 O   0  0  0  0  0  0  0  0  0  0  0  0
   11.0093    2.1850    0.0000 O   0  0  0  0  0  0  0  0  0  0  0  0
   12.9992    1.9844    0.0000 O   0  0  0  0  0  0  0  0  0  0  0  0
    9.3718   -3.3410    0.0000 C   0  0  3  0  0  0  0  0  0  0  0  0
    9.5697   -4.3905    0.0000 C   0  0  3  0  0  0  0  0  0  0  0  0
    8.3006   -3.2584    0.0000 C   0  0  3  0  0  0  0  0  0  0  0  0
    8.6520   -4.9487    0.0000 C   0  0  3  0  0  0  0  0  0  0  0  0
    7.8504   -4.2336    0.0000 C   0  0  0  0  0  0  0  0  0  0  0  0
   10.3157   -2.8279    0.0000 C   0  0  0  0  0  0  0  0  0  0  0  0
   11.0888   -3.5646    0.0000 C   0  0  0  0  0  0  0  0  0  0  0  0
    7.4466   -2.6066    0.0000 C   0  0  0  0  0  0  0  0  0  0  0  0
   10.8288   -1.8840    0.0000 C   0  0  0  0  0  0  0  0  0  0  0  0
    7.3301   -0.5494    0.0000 C   0  0  1  0  0  0  0  0  0  0  0  0
   12.1720   -3.4757    0.0000 C   0  0  0  0  0  0  0  0  0  0  0  0
    8.0372    0.1577    0.0000 C   0  0  1  0  0  0  0  0  0  0  0  0
    9.0830    0.4035    0.0000 C   0  0  2  0  0  0  0  0  0  0  0  0
    6.3642   -0.8083    0.0000 C   0  0  1  0  0  0  0  0  0  0  0  0
   11.8882   -1.6414    0.0000 C   0  0  0  0  0  0  0  0  0  0  0  0
   10.7462   -0.8129    0.0000 C   0  0  0  0  0  0  0  0  0  0  0  0
   12.5892   -2.4720    0.0000 C   0  0  0  0  0  0  0  0  0  0  0  0
    8.9385   -1.0879    0.0000 C   0  0  1  0  0  0  0  0  0  0  0  0
    5.3982   -0.5494    0.0000 C   0  0  0  0  0  0  0  0  0  0  0  0
    8.0372    2.0895    0.0000 C   0  0  0  0  0  0  0  0  0  0  0  0
   10.6618   -1.2616    0.0000 C   0  0  0  0  0  0  0  0  0  0  0  0
    7.3301    2.7966    0.0000 C   0  0  0  0  0  0  0  0  0  0  0  0
    4.4323    1.1236    0.0000 C   0  0  0  0  0  0  0  0  0  0  0  0
    6.3642    3.0554    0.0000 C   0  0  0  0  0  0  0  0  0  0  0  0
    4.6912    2.0895    0.0000 C   0  0  0  0  0  0  0  0  0  0  0  0
   11.2461   -0.4501    0.0000 C   0  0  0  0  0  0  0  0  0  0  0  0
    5.3982    2.7966    0.0000 C   0  0  0  0  0  0  0  0  0  0  0  0
    8.0779    3.5217    0.0000 C   0  0  0  0  0  0  0  0  0  0  0  0
    6.0791    4.0573    0.0000 C   0  0  0  0  0  0  0  0  0  0  0  0
    3.6810    2.3436    0.0000 C   0  0  0  0  0  0  0  0  0  0  0  0
    7.8161    4.5299    0.0000 C   0  0  0  0  0  0  0  0  0  0  0  0
    5.1442    3.8068    0.0000 C   0  0  0  0  0  0  0  0  0  0  0  0
   10.8355    0.4617    0.0000 C   0  0  0  0  0  0  0  0  0  0  0  0
   12.2411   -0.5504    0.0000 C   0  0  0  0  0  0  0  0  0  0  0  0
    6.8100    4.7995    0.0000 C   0  0  0  0  0  0  0  0  0  0  0  0
    3.4036    3.3476    0.0000 C   0  0  0  0  0  0  0  0  0  0  0  0
    4.1402    4.0841    0.0000 C   0  0  0  0  0  0  0  0  0  0  0  0
   12.8254    0.2611    0.0000 C   0  0  0  0  0  0  0  0  0  0  0  0
   11.4199    1.2732    0.0000 C   0  0  0  0  0  0  0  0  0  0  0  0
   12.4148    1.1729    0.0000 C   0  0  0  0  0  0  0  0  0  0  0  0
    9.2422   -2.7347    0.0000 H   0  0  0  0  0  0  0  0  0  0  0  0
    8.0752   -5.1762    0.0000 H   0  0  0  0  0  0  0  0  0  0  0  0
    7.3158   -3.9196    0.0000 H   0  0  0  0  0  0  0  0  0  0  0  0
    7.4852   -4.7347    0.0000 H   0  0  0  0  0  0  0  0  0  0  0  0
   10.0287   -5.7298    0.0000 H   0  0  0  0  0  0  0  0  0  0  0  0
    7.1831   -4.1276    0.0000 H   0  0  0  0  0  0  0  0  0  0  0  0
    6.7291   -1.1505    0.0000 H   0  0  0  0  0  0  0  0  0  0  0  0
    7.9982   -6.2045    0.0000 H   0  0  0  0  0  0  0  0  0  0  0  0
    8.6382    0.7587    0.0000 H   0  0  0  0  0  0  0  0  0  0  0  0
    9.6424    1.0435    0.0000 H   0  0  0  0  0  0  0  0  0  0  0  0
    5.9954   -1.5741    0.0000 H   0  0  0  0  0  0  0  0  0  0  0  0
   12.0846   -1.0534    0.0000 H   0  0  0  0  0  0  0  0  0  0  0  0
    9.5038   -0.8333    0.0000 H   0  0  0  0  0  0  0  0  0  0  0  0
    4.8363   -0.8115    0.0000 H   0  0  0  0  0  0  0  0  0  0  0  0
    5.7082   -0.0125    0.0000 H   0  0  0  0  0  0  0  0  0  0  0  0
   13.3772   -4.2186    0.0000 H   0  0  0  0  0  0  0  0  0  0  0  0
   13.8017   -1.7411    0.0000 H   0  0  0  0  0  0  0  0  0  0  0  0
    8.6749    3.3543    0.0000 H   0  0  0  0  0  0  0  0  0  0  0  0
    3.2477    1.9001    0.0000 H   0  0  0  0  0  0  0  0  0  0  0  0
   10.2187    0.5239    0.0000 H   0  0  0  0  0  0  0  0  0  0  0  0
   12.4957   -1.1157    0.0000 H   0  0  0  0  0  0  0  0  0  0  0  0
    4.8995    5.0283    0.0000 H   0  0  0  0  0  0  0  0  0  0  0  0
    9.1242    5.0715    0.0000 H   0  0  0  0  0  0  0  0  0  0  0  0
    5.6803    5.2375    0.0000 H   0  0  0  0  0  0  0  0  0  0  0  0
    6.9841    6.2045    0.0000 H   0  0  0  0  0  0  0  0  0  0  0  0
    2.0000    3.1626    0.0000 H   0  0  0  0  0  0  0  0  0  0  0  0
    3.2868    5.2138    0.0000 H   0  0  0  0  0  0  0  0  0  0  0  0
   14.1827    0.6639    0.0000 H   0  0  0  0  0  0  0  0  0  0  0  0
   11.3716    2.6882    0.0000 H   0  0  0  0  0  0  0  0  0  0  0  0
   13.6161    1.9222    0.0000 H   0  0  0  0  0  0  0  0  0  0  0  0
  1 28  1  0  0  0  0
  1 33  1  0  0  0  0
  2 28  1  0  0  0  0
  2 71  1  0  0  0  0
  3 29  1  0  0  0  0
  3 72  1  0  0  0  0
  4 30  1  0  0  0  0
  4 74  1  0  0  0  0
  5 34  1  0  0  0  0
  5 36  1  0  0  0  0
  6 39  1  0  0  0  0
  6 42  1  0  0  0  0
  7 34  2  0  0  0  0
  8 40  1  0  0  0  0
  8 44  1  0  0  0  0
  9 38  1  0  0  0  0
  9 46  1  0  0  0  0
 10 37  1  0  0  0  0
 10 82  1  0  0  0  0
 44 11  1  6  0  0  0
 11 47  1  0  0  0  0
 12 43  1  0  0  0  0
 12 83  1  0  0  0  0
 13 42  2  0  0  0  0
 14 45  1  0  0  0  0
 14 49  1  0  0  0  0
 15 46  2  0  0  0  0
 16 47  2  0  0  0  0
 17 49  2  0  0  0  0
 18 55  1  0  0  0  0
 18 88  1  0  0  0  0
 19 57  1  0  0  0  0
 19 89  1  0  0  0  0
 20 58  1  0  0  0  0
 20 90  1  0  0  0  0
 21 61  1  0  0  0  0
 21 91  1  0  0  0  0
 22 62  1  0  0  0  0
 22 92  1  0  0  0  0
 23 63  1  0  0  0  0
 23 93  1  0  0  0  0
 24 64  1  0  0  0  0
 24 94  1  0  0  0  0
 25 65  1  0  0  0  0
 25 95  1  0  0  0  0
 26 66  1  0  0  0  0
 26 96  1  0  0  0  0
 27 28  1  0  0  0  0
 27 29  1  0  0  0  0
 27 32  1  0  0  0  0
 27 67  1  0  0  0  0
 28 30  1  0  0  0  0
 29 31  1  0  0  0  0
 29 34  1  0  0  0  0
 30 31  1  0  0  0  0
 30 68  1  0  0  0  0
 31 69  1  0  0  0  0
 31 70  1  0  0  0  0
 32 33  2  0  0  0  0
 32 35  1  0  0  0  0
 33 37  1  0  0  0  0
 35 41  2  0  0  0  0
 35 42  1  0  0  0  0
 36 38  1  0  0  0  0
 36 40  1  0  0  0  0
 36 73  1  1  0  0  0
 37 43  2  0  0  0  0
 38 39  1  0  0  0  0
 38 75  1  1  0  0  0
 39 44  1  0  0  0  0
 39 76  1  6  0  0  0
 40 45  1  0  0  0  0
 40 77  1  1  0  0  0
 41 43  1  0  0  0  0
 41 78  1  0  0  0  0
 44 79  1  0  0  0  0
 45 80  1  0  0  0  0
 45 81  1  0  0  0  0
 46 48  1  0  0  0  0
 47 52  1  0  0  0  0
 48 50  1  0  0  0  0
 48 54  2  0  0  0  0
 49 51  1  0  0  0  0
 50 53  1  0  0  0  0
 50 55  2  0  0  0  0
 51 53  1  0  0  0  0
 51 56  2  0  0  0  0
 52 59  2  0  0  0  0
 52 60  1  0  0  0  0
 53 58  2  0  0  0  0
 54 57  1  0  0  0  0
 54 84  1  0  0  0  0
 55 61  1  0  0  0  0
 56 62  1  0  0  0  0
 56 85  1  0  0  0  0
 57 61  2  0  0  0  0
 58 63  1  0  0  0  0
 59 65  1  0  0  0  0
 59 86  1  0  0  0  0
 60 64  2  0  0  0  0
 60 87  1  0  0  0  0
 62 63  2  0  0  0  0
 64 66  1  0  0  0  0
 65 66  2  0  0  0  0
M  END
> <PUBCHEM_COMPOUND_CID>
514181
> <PUBCHEM_COMPOUND_CANONICALIZED>
1
> <PUBCHEM_CACTVS_COMPLEXITY>
1930
> <PUBCHEM_CACTVS_HBOND_ACCEPTOR>
26
> <PUBCHEM_CACTVS_HBOND_DONOR>
14
> <PUBCHEM_CACTVS_ROTATABLE_BOND>
3
> <PUBCHEM_CACTVS_SUBSKEYS>
AAADceB8PgAAAAAAAAAAAAAAAAAAAaIAAAA0YMGCAAASAEgBVAAAGgAACAAADVSwmAMwDoAABgCIAiDSCAICCAAkIAAAiAFGiMgdNzKGNRqieSOlwBUPuYfK7PzOoAABCAAYQABAAAIQADCAAIQADCAAAA==
> <PUBCHEM_IUPAC_OPENEYE_NAME>
[(7R,8S,26R,28S,29R)-1,2,4,13,14,15,18,19,20,34,35-undecahydroxy-5,10,23,31-tetraoxo-6,9,24,27,30,39-hexaoxaoctacyclo[34.2.1.04,38.07,26.08,29.011,16.017,22.032,37]nonatriaconta-11,13,15,17,19,21,32,34,36-nonaen-28-yl] 3,4,5-trihydroxybenzoate
> <PUBCHEM_IUPAC_CAS_NAME>
3,4,5-trihydroxybenzoic acid [(7R,8S,26R,28S,29R)-1,2,4,13,14,15,18,19,20,34,35-undecahydroxy-5,10,23,31-tetraoxo-6,9,24,27,30,39-hexaoxaoctacyclo[34.2.1.04,38.07,26.08,29.011,16.017,22.032,37]nonatriaconta-11,13,15,17,19,21,32,34,36-nonaen-28-yl] ester
> <PUBCHEM_IUPAC_NAME_MARKUP>
[(7<I>R</I>,8<I>S</I>,26<I>R</I>,28<I>S</I>,29<I>R</I>)-1,2,4,13,14,15,18,19,20,34,35-undecahydroxy-5,10,23,31-tetraoxo-6,9,24,27,30,39-hexaoxaoctacyclo[34.2.1.0<SUP>4,38</SUP>.0<SUP>7,26</SUP>.0<SUP>8,29</SUP>.0<SUP>11,16</SUP>.0<SUP>17,22</SUP>.0<SUP>32,37</SUP>]nonatriaconta-11,13,15,17,19,21,32,34,36-nonaen-28-yl] 3,4,5-trihydroxybenzoate
> <PUBCHEM_IUPAC_NAME>
[(7R,8S,26R,28S,29R)-1,2,4,13,14,15,18,19,20,34,35-undecahydroxy-5,10,23,31-tetraoxo-6,9,24,27,30,39-hexaoxaoctacyclo[34.2.1.04,38.07,26.08,29.011,16.017,22.032,37]nonatriaconta-11,13,15,17,19,21,32,34,36-nonaen-28-yl] 3,4,5-trihydroxybenzoate
> <PUBCHEM_IUPAC_SYSTEMATIC_NAME>
[(7R,8S,26R,28S,29R)-1,2,4,13,14,15,18,19,20,34,35-undecakis(oxidanyl)-5,10,23,31-tetrakis(oxidanylidene)-6,9,24,27,30,39-hexaoxaoctacyclo[34.2.1.04,38.07,26.08,29.011,16.017,22.032,37]nonatriaconta-11,13,15,17,19,21,32,34,36-nonaen-28-yl] 3,4,5-tris(oxidanyl)benzoate
> <PUBCHEM_IUPAC_TRADITIONAL_NAME>
3,4,5-trihydroxybenzoic acid [(7R,8S,26R,28S,29R)-1,2,4,13,14,15,18,19,20,34,35-undecahydroxy-5,10,23,31-tetraketo-6,9,24,27,30,39-hexaoxaoctacyclo[34.2.1.04,38.07,26.08,29.011,16.017,22.032,37]nonatriaconta-11,13,15,17,19,21,32,34,36-nonaen-28-yl] ester
> <PUBCHEM_IUPAC_INCHI>
InChI=1S/C40H30O26/c41-12-1-8(2-13(42)22(12)47)33(53)65-37-31-30-28(64-38(57)39(58)6-18(46)40(59)32(39)21-11(36(56)63-31)5-16(45)25(50)29(21)66-40)17(61-37)7-60-34(54)9-3-14(43)23(48)26(51)19(9)20-10(35(55)62-30)4-15(44)24(49)27(20)52/h1-5,17-18,28,30-32,37,41-52,58-59H,6-7H2/t17-,18?,28-,30+,31-,32?,37+,39?,40?/m1/s1
> <PUBCHEM_IUPAC_INCHIKEY>
LCJOXNIMFDLZJH-KCRIIDRDSA-N
> <PUBCHEM_XLOGP3_AA>
-0.3
> <PUBCHEM_EXACT_MASS>
926.10253106
> <PUBCHEM_MOLECULAR_FORMULA>
C40H30O26
> <PUBCHEM_MOLECULAR_WEIGHT>
926.6
> <PUBCHEM_OPENEYE_CAN_SMILES>
C1C(C2(C3C1(C(=O)OC4C5COC(=O)C6=CC(=C(C(=C6C7=C(C(=C(C=C7C(=O)OC4C(C(O5)OC(=O)C8=CC(=C(C(=C8)O)O)O)OC(=O)C9=CC(=C(C(=C39)O2)O)O)O)O)O)O)O)O)O)O)O
> <PUBCHEM_OPENEYE_ISO_SMILES>
C1[C@@H]2[C@@H]3[C@@H]([C@H]([C@@H](O2)OC(=O)C4=CC(=C(C(=C4)O)O)O)OC(=O)C5=CC(=C(C6=C5C7C(CC(C7(O6)O)O)(C(=O)O3)O)O)O)OC(=O)C8=CC(=C(C(=C8C9=C(C(=C(C=C9C(=O)O1)O)O)O)O)O)O
> <PUBCHEM_CACTVS_TPSA>
433
> <PUBCHEM_MONOISOTOPIC_WEIGHT>
926.10253106
> <PUBCHEM_TOTAL_CHARGE>
0
> <PUBCHEM_HEAVY_ATOM_COUNT>
66
> <PUBCHEM_ATOM_DEF_STEREO_COUNT>
5
> <PUBCHEM_ATOM_UDEF_STEREO_COUNT>
4
> <PUBCHEM_BOND_DEF_STEREO_COUNT>
0
> <PUBCHEM_BOND_UDEF_STEREO_COUNT>
0
> <PUBCHEM_ISOTOPIC_ATOM_COUNT>
0
> <PUBCHEM_COMPONENT_COUNT>
1
> <PUBCHEM_CACTVS_TAUTO_COUNT>
-1
> <PUBCHEM_COORDINATE_TYPE>
1
5
255
> <PUBCHEM_BONDANNOTATIONS>
44  11  6
28  2  3
27  32  3
29  3  3
32  33  8
32  35  8
33  37  8
35  41  8
36  73  5
37  43  8
38  75  5
39  76  6
30  4  3
40  77  5
41  43  8
48  50  8
48  54  8
50  55  8
51  53  8
51  56  8
52  59  8
52  60  8
53  58  8
54  57  8
55  61  8
56  62  8
57  61  8
58  63  8
59  65  8
60  64  8
62  63  8
64  66  8
65  66  8
$$$$
