514197
  -OEChem-10302200282D
110113  0     1  0  0  0  0  0999 V2000
    8.8671   -0.7858    0.0000 O   0  0  0  0  0  0  0  0  0  0  0  0
    6.8671   -0.7858    0.0000 O   0  0  0  0  0  0  0  0  0  0  0  0
   10.4548    0.0232    0.0000 O   0  0  0  0  0  0  0  0  0  0  0  0
   12.2149   -1.8736    0.0000 O   0  0  0  0  0  0  0  0  0  0  0  0
    9.8671    0.9462    0.0000 O   0  0  0  0  0  0  0  0  0  0  0  0
    5.1350   -0.7858    0.0000 O   0  0  0  0  0  0  0  0  0  0  0  0
   13.2330   -0.4724    0.0000 O   0  0  0  0  0  0  0  0  0  0  0  0
   10.1458   -2.5459    0.0000 O   0  0  0  0  0  0  0  0  0  0  0  0
    5.1350   -3.7858    0.0000 O   0  0  0  0  0  0  0  0  0  0  0  0
    3.4030   -2.7858    0.0000 O   0  0  0  0  0  0  0  0  0  0  0  0
   15.6600   -2.2357    0.0000 O   0  0  0  0  0  0  0  0  0  0  0  0
   12.1104    1.2965    0.0000 O   0  0  0  0  0  0  0  0  0  0  0  0
   15.8691   -0.2467    0.0000 O   0  0  0  0  0  0  0  0  0  0  0  0
    2.5369   -1.2858    0.0000 O   0  0  0  0  0  0  0  0  0  0  0  0
   14.4601    2.9179    0.0000 O   0  0  0  0  0  0  0  0  0  0  0  0
    5.8671    0.9462    0.0000 N   0  0  0  0  0  0  0  0  0  0  0  0
    8.8671    2.6783    0.0000 N   0  0  0  0  0  0  0  0  0  0  0  0
    6.8671   -2.7858    0.0000 N   0  0  0  0  0  0  0  0  0  0  0  0
   13.8330   -3.0492    0.0000 N   0  0  0  0  0  0  0  0  0  0  0  0
   15.1646    1.3356    0.0000 N   0  0  0  0  0  0  0  0  0  0  0  0
   16.2872    3.7314    0.0000 N   0  0  0  0  0  0  0  0  0  0  0  0
   19.6278    2.3748    0.0000 N   0  0  0  0  0  0  0  0  0  0  0  0
   21.3504    2.1937    0.0000 N   0  0  0  0  0  0  0  0  0  0  0  0
   20.3323    0.7925    0.0000 N   0  0  0  0  0  0  0  0  0  0  0  0
    8.3671    0.0802    0.0000 C   0  0  1  0  0  0  0  0  0  0  0  0
    7.3671    0.0802    0.0000 C   0  0  1  0  0  0  0  0  0  0  0  0
    6.8671    0.9462    0.0000 C   0  0  2  0  0  0  0  0  0  0  0  0
    8.8671    0.9462    0.0000 C   0  0  2  0  0  0  0  0  0  0  0  0
    8.3671    1.8122    0.0000 C   0  0  1  0  0  0  0  0  0  0  0  0
    7.3671    1.8122    0.0000 C   0  0  0  0  0  0  0  0  0  0  0  0
    9.8671   -0.7858    0.0000 C   0  0  2  0  0  0  0  0  0  0  0  0
   11.4059   -1.2858    0.0000 C   0  0  1  0  0  0  0  0  0  0  0  0
   10.4548   -1.5949    0.0000 C   0  0  1  0  0  0  0  0  0  0  0  0
   11.4059   -0.2858    0.0000 C   0  0  1  0  0  0  0  0  0  0  0  0
    6.0010   -1.2858    0.0000 C   0  0  1  0  0  0  0  0  0  0  0  0
    6.0010   -2.2858    0.0000 C   0  0  1  0  0  0  0  0  0  0  0  0
    5.1350   -2.7858    0.0000 C   0  0  2  0  0  0  0  0  0  0  0  0
   13.1285   -1.4669    0.0000 C   0  0  1  0  0  0  0  0  0  0  0  0
   13.9375   -2.0547    0.0000 C   0  0  1  0  0  0  0  0  0  0  0  0
    4.2690   -2.2858    0.0000 C   0  0  1  0  0  0  0  0  0  0  0  0
    4.2690   -1.2858    0.0000 C   0  0  1  0  0  0  0  0  0  0  0  0
   14.8510   -1.6479    0.0000 C   0  0  2  0  0  0  0  0  0  0  0  0
   12.2149    0.3019    0.0000 C   0  0  0  0  0  0  0  0  0  0  0  0
   14.9556   -0.6534    0.0000 C   0  0  1  0  0  0  0  0  0  0  0  0
   14.1465   -0.0656    0.0000 C   0  0  2  0  0  0  0  0  0  0  0  0
    3.4030   -0.7858    0.0000 C   0  0  0  0  0  0  0  0  0  0  0  0
   14.2511    0.9289    0.0000 C   0  0  0  0  0  0  0  0  0  0  0  0
   15.2691    2.3302    0.0000 C   0  0  0  0  0  0  0  0  0  0  0  0
   16.1827    2.7369    0.0000 C   0  0  2  0  0  0  0  0  0  0  0  0
   16.9917    2.1491    0.0000 C   0  0  0  0  0  0  0  0  0  0  0  0
   17.9053    2.5558    0.0000 C   0  0  0  0  0  0  0  0  0  0  0  0
   18.7143    1.9681    0.0000 C   0  0  0  0  0  0  0  0  0  0  0  0
   20.4368    1.7870    0.0000 C   0  0  0  0  0  0  0  0  0  0  0  0
    8.0571   -0.4567    0.0000 H   0  0  0  0  0  0  0  0  0  0  0  0
    6.7471    0.0802    0.0000 H   0  0  0  0  0  0  0  0  0  0  0  0
    6.5571    1.4832    0.0000 H   0  0  0  0  0  0  0  0  0  0  0  0
    9.1771    0.4093    0.0000 H   0  0  0  0  0  0  0  0  0  0  0  0
    8.0571    2.3492    0.0000 H   0  0  0  0  0  0  0  0  0  0  0  0
    7.4747    2.4228    0.0000 H   0  0  0  0  0  0  0  0  0  0  0  0
    6.7844    2.0243    0.0000 H   0  0  0  0  0  0  0  0  0  0  0  0
    9.5856   -1.3383    0.0000 H   0  0  0  0  0  0  0  0  0  0  0  0
   11.3089   -1.8982    0.0000 H   0  0  0  0  0  0  0  0  0  0  0  0
   10.8933   -2.0333    0.0000 H   0  0  0  0  0  0  0  0  0  0  0  0
   11.3089    0.3265    0.0000 H   0  0  0  0  0  0  0  0  0  0  0  0
    6.0010   -0.6658    0.0000 H   0  0  0  0  0  0  0  0  0  0  0  0
    6.5380   -1.9758    0.0000 H   0  0  0  0  0  0  0  0  0  0  0  0
    5.5571    1.4832    0.0000 H   0  0  0  0  0  0  0  0  0  0  0  0
    5.5571    0.4093    0.0000 H   0  0  0  0  0  0  0  0  0  0  0  0
   12.6269   -1.1025    0.0000 H   0  0  0  0  0  0  0  0  0  0  0  0
    5.6720   -3.0958    0.0000 H   0  0  0  0  0  0  0  0  0  0  0  0
    8.5571    3.2152    0.0000 H   0  0  0  0  0  0  0  0  0  0  0  0
    9.4871    2.6783    0.0000 H   0  0  0  0  0  0  0  0  0  0  0  0
   13.3711   -2.3068    0.0000 H   0  0  0  0  0  0  0  0  0  0  0  0
    4.2690   -2.9058    0.0000 H   0  0  0  0  0  0  0  0  0  0  0  0
    4.2690   -0.6658    0.0000 H   0  0  0  0  0  0  0  0  0  0  0  0
   10.1771    1.4832    0.0000 H   0  0  0  0  0  0  0  0  0  0  0  0
   15.4174   -1.3958    0.0000 H   0  0  0  0  0  0  0  0  0  0  0  0
   12.4867   -0.2553    0.0000 H   0  0  0  0  0  0  0  0  0  0  0  0
   12.8109    0.4728    0.0000 H   0  0  0  0  0  0  0  0  0  0  0  0
   15.0204   -0.0368    0.0000 H   0  0  0  0  0  0  0  0  0  0  0  0
   13.6449    0.2988    0.0000 H   0  0  0  0  0  0  0  0  0  0  0  0
   10.5607   -3.0067    0.0000 H   0  0  0  0  0  0  0  0  0  0  0  0
    6.8671   -3.4058    0.0000 H   0  0  0  0  0  0  0  0  0  0  0  0
    7.4040   -2.4758    0.0000 H   0  0  0  0  0  0  0  0  0  0  0  0
    3.8015   -0.3109    0.0000 H   0  0  0  0  0  0  0  0  0  0  0  0
    3.0044   -0.3109    0.0000 H   0  0  0  0  0  0  0  0  0  0  0  0
   14.1011    1.5305    0.0000 H   0  0  0  0  0  0  0  0  0  0  0  0
   13.6326    0.8856    0.0000 H   0  0  0  0  0  0  0  0  0  0  0  0
   14.3345   -3.4136    0.0000 H   0  0  0  0  0  0  0  0  0  0  0  0
   13.2666   -3.3014    0.0000 H   0  0  0  0  0  0  0  0  0  0  0  0
    4.5981   -4.0958    0.0000 H   0  0  0  0  0  0  0  0  0  0  0  0
    3.4030   -3.4058    0.0000 H   0  0  0  0  0  0  0  0  0  0  0  0
   16.2264   -1.9835    0.0000 H   0  0  0  0  0  0  0  0  0  0  0  0
   12.6120    1.6609    0.0000 H   0  0  0  0  0  0  0  0  0  0  0  0
   16.3707   -0.6111    0.0000 H   0  0  0  0  0  0  0  0  0  0  0  0
   15.6662    0.9712    0.0000 H   0  0  0  0  0  0  0  0  0  0  0  0
    2.0000   -0.9758    0.0000 H   0  0  0  0  0  0  0  0  0  0  0  0
   16.7491    2.9891    0.0000 H   0  0  0  0  0  0  0  0  0  0  0  0
   16.5457    1.7184    0.0000 H   0  0  0  0  0  0  0  0  0  0  0  0
   17.3384    1.6351    0.0000 H   0  0  0  0  0  0  0  0  0  0  0  0
   18.3512    2.9865    0.0000 H   0  0  0  0  0  0  0  0  0  0  0  0
   17.5586    3.0698    0.0000 H   0  0  0  0  0  0  0  0  0  0  0  0
   16.8536    3.9836    0.0000 H   0  0  0  0  0  0  0  0  0  0  0  0
   15.7856    4.0958    0.0000 H   0  0  0  0  0  0  0  0  0  0  0  0
   18.2683    1.5374    0.0000 H   0  0  0  0  0  0  0  0  0  0  0  0
   19.0610    1.4540    0.0000 H   0  0  0  0  0  0  0  0  0  0  0  0
   21.8520    1.8293    0.0000 H   0  0  0  0  0  0  0  0  0  0  0  0
   21.4152    2.8104    0.0000 H   0  0  0  0  0  0  0  0  0  0  0  0
   20.8339    0.4281    0.0000 H   0  0  0  0  0  0  0  0  0  0  0  0
   19.7659    0.5403    0.0000 H   0  0  0  0  0  0  0  0  0  0  0  0
 25  1  1  1  0  0  0
 31  1  1  6  0  0  0
 26  2  1  6  0  0  0
 35  2  1  6  0  0  0
  3 31  1  0  0  0  0
  3 34  1  0  0  0  0
 32  4  1  1  0  0  0
 38  4  1  1  0  0  0
 28  5  1  6  0  0  0
  5 76  1  0  0  0  0
  6 35  1  0  0  0  0
  6 41  1  0  0  0  0
  7 38  1  0  0  0  0
  7 45  1  0  0  0  0
 33  8  1  1  0  0  0
  8 82  1  0  0  0  0
 37  9  1  1  0  0  0
  9 91  1  0  0  0  0
 40 10  1  6  0  0  0
 10 92  1  0  0  0  0
 42 11  1  6  0  0  0
 11 93  1  0  0  0  0
 12 43  1  0  0  0  0
 12 94  1  0  0  0  0
 44 13  1  1  0  0  0
 13 95  1  0  0  0  0
 14 46  1  0  0  0  0
 14 97  1  0  0  0  0
 15 48  2  0  0  0  0
 27 16  1  1  0  0  0
 16 67  1  0  0  0  0
 16 68  1  0  0  0  0
 29 17  1  1  0  0  0
 17 71  1  0  0  0  0
 17 72  1  0  0  0  0
 36 18  1  6  0  0  0
 18 83  1  0  0  0  0
 18 84  1  0  0  0  0
 39 19  1  1  0  0  0
 19 89  1  0  0  0  0
 19 90  1  0  0  0  0
 20 47  1  0  0  0  0
 20 48  1  0  0  0  0
 20 96  1  0  0  0  0
 49 21  1  1  0  0  0
 21103  1  0  0  0  0
 21104  1  0  0  0  0
 22 52  1  0  0  0  0
 22 53  2  0  0  0  0
 23 53  1  0  0  0  0
 23107  1  0  0  0  0
 23108  1  0  0  0  0
 24 53  1  0  0  0  0
 24109  1  0  0  0  0
 24110  1  0  0  0  0
 25 26  1  0  0  0  0
 25 28  1  0  0  0  0
 25 54  1  0  0  0  0
 26 27  1  0  0  0  0
 26 55  1  0  0  0  0
 27 30  1  0  0  0  0
 27 56  1  0  0  0  0
 28 29  1  0  0  0  0
 28 57  1  0  0  0  0
 29 30  1  0  0  0  0
 29 58  1  0  0  0  0
 30 59  1  0  0  0  0
 30 60  1  0  0  0  0
 31 33  1  0  0  0  0
 31 61  1  0  0  0  0
 32 33  1  0  0  0  0
 32 34  1  0  0  0  0
 32 62  1  0  0  0  0
 33 63  1  0  0  0  0
 34 43  1  6  0  0  0
 34 64  1  0  0  0  0
 35 36  1  0  0  0  0
 35 65  1  0  0  0  0
 36 37  1  0  0  0  0
 36 66  1  0  0  0  0
 37 40  1  0  0  0  0
 37 70  1  0  0  0  0
 38 39  1  0  0  0  0
 38 69  1  0  0  0  0
 39 42  1  0  0  0  0
 39 73  1  0  0  0  0
 40 41  1  0  0  0  0
 40 74  1  0  0  0  0
 41 46  1  1  0  0  0
 41 75  1  0  0  0  0
 42 44  1  0  0  0  0
 42 77  1  0  0  0  0
 43 78  1  0  0  0  0
 43 79  1  0  0  0  0
 44 45  1  0  0  0  0
 44 80  1  0  0  0  0
 45 47  1  1  0  0  0
 45 81  1  0  0  0  0
 46 85  1  0  0  0  0
 46 86  1  0  0  0  0
 47 87  1  0  0  0  0
 47 88  1  0  0  0  0
 48 49  1  0  0  0  0
 49 50  1  0  0  0  0
 49 98  1  0  0  0  0
 50 51  1  0  0  0  0
 50 99  1  0  0  0  0
 50100  1  0  0  0  0
 51 52  1  0  0  0  0
 51101  1  0  0  0  0
 51102  1  0  0  0  0
 52105  1  0  0  0  0
 52106  1  0  0  0  0
M  END
> <PUBCHEM_COMPOUND_CID>
514197
> <PUBCHEM_COMPOUND_CANONICALIZED>
1
> <PUBCHEM_CACTVS_COMPLEXITY>
1200
> <PUBCHEM_CACTVS_HBOND_ACCEPTOR>
21
> <PUBCHEM_CACTVS_HBOND_DONOR>
16
> <PUBCHEM_CACTVS_ROTATABLE_BOND>
15
> <PUBCHEM_CACTVS_SUBSKEYS>
AAADcfB7/AAAAAAAAAAAAAAAAAAAASAAAAA0SIAAAAAAAAAAAAAAHgAQCAAACDzxgAcBCALABgAoAAEQNAAAAAEAAAAAAIGIAAATUBIAwAA3QAAHFgCXAAH4cQ0AAAAAAAAAAAAAgAAUCACgAAAAAAAAAA==
> <PUBCHEM_IUPAC_OPENEYE_NAME>
(2S)-2-amino-N-[[(2S,3S,4R,5R,6R)-5-amino-6-[(2R,3S,4R,5S)-5-[(1R,2R,3S,5R,6S)-3,5-diamino-2-[(2S,3R,4R,5S,6R)-3-amino-4,5-dihydroxy-6-(hydroxymethyl)tetrahydropyran-2-yl]oxy-6-hydroxy-cyclohexoxy]-4-hydroxy-2-(hydroxymethyl)tetrahydrofuran-3-yl]oxy-3,4-dihydroxy-tetrahydropyran-2-yl]methyl]-5-guanidino-pentanamide
> <PUBCHEM_IUPAC_CAS_NAME>
(2S)-2-amino-N-[[(2S,3S,4R,5R,6R)-5-amino-6-[[(2R,3S,4R,5S)-5-[(1R,2R,3S,5R,6S)-3,5-diamino-2-[[(2S,3R,4R,5S,6R)-3-amino-4,5-dihydroxy-6-(hydroxymethyl)-2-oxanyl]oxy]-6-hydroxycyclohexyl]oxy-4-hydroxy-2-(hydroxymethyl)-3-oxolanyl]oxy]-3,4-dihydroxy-2-oxanyl]methyl]-5-(diaminomethylideneamino)pentanamide
> <PUBCHEM_IUPAC_NAME_MARKUP>
(2<I>S</I>)-2-amino-<I>N</I>-[[(2<I>S</I>,3<I>S</I>,4<I>R</I>,5<I>R</I>,6<I>R</I>)-5-amino-6-[(2<I>R</I>,3<I>S</I>,4<I>R</I>,5<I>S</I>)-5-[(1<I>R</I>,2<I>R</I>,3<I>S</I>,5<I>R</I>,6<I>S</I>)-3,5-diamino-2-[(2<I>S</I>,3<I>R</I>,4<I>R</I>,5<I>S</I>,6<I>R</I>)-3-amino-4,5-dihydroxy-6-(hydroxymethyl)oxan-2-yl]oxy-6-hydroxycyclohexyl]oxy-4-hydroxy-2-(hydroxymethyl)oxolan-3-yl]oxy-3,4-dihydroxyoxan-2-yl]methyl]-5-(diaminomethylideneamino)pentanamide
> <PUBCHEM_IUPAC_NAME>
(2S)-2-amino-N-[[(2S,3S,4R,5R,6R)-5-amino-6-[(2R,3S,4R,5S)-5-[(1R,2R,3S,5R,6S)-3,5-diamino-2-[(2S,3R,4R,5S,6R)-3-amino-4,5-dihydroxy-6-(hydroxymethyl)oxan-2-yl]oxy-6-hydroxycyclohexyl]oxy-4-hydroxy-2-(hydroxymethyl)oxolan-3-yl]oxy-3,4-dihydroxyoxan-2-yl]methyl]-5-(diaminomethylideneamino)pentanamide
> <PUBCHEM_IUPAC_SYSTEMATIC_NAME>
(2S)-2-azanyl-N-[[(2S,3S,4R,5R,6R)-5-azanyl-6-[(2R,3S,4R,5S)-5-[(1R,2R,3S,5R,6S)-3,5-bis(azanyl)-2-[(2S,3R,4R,5S,6R)-3-azanyl-6-(hydroxymethyl)-4,5-bis(oxidanyl)oxan-2-yl]oxy-6-oxidanyl-cyclohexyl]oxy-2-(hydroxymethyl)-4-oxidanyl-oxolan-3-yl]oxy-3,4-bis(oxidanyl)oxan-2-yl]methyl]-5-[bis(azanyl)methylideneamino]pentanamide
> <PUBCHEM_IUPAC_TRADITIONAL_NAME>
(2S)-2-amino-N-[[(2S,3S,4R,5R,6R)-5-amino-6-[(2R,3S,4R,5S)-5-[(1R,2R,3S,5R,6S)-3,5-diamino-2-[(2S,3R,4R,5S,6R)-3-amino-4,5-dihydroxy-6-methylol-tetrahydropyran-2-yl]oxy-6-hydroxy-cyclohexoxy]-4-hydroxy-2-methylol-tetrahydrofuran-3-yl]oxy-3,4-dihydroxy-tetrahydropyran-2-yl]methyl]-5-guanidino-valeramide
> <PUBCHEM_IUPAC_INCHI>
InChI=1S/C29H57N9O15/c30-8(2-1-3-37-29(35)36)25(47)38-5-11-17(42)19(44)14(33)26(48-11)52-23-13(7-40)50-28(21(23)46)53-24-16(41)9(31)4-10(32)22(24)51-27-15(34)20(45)18(43)12(6-39)49-27/h8-24,26-28,39-46H,1-7,30-34H2,(H,38,47)(H4,35,36,37)/t8-,9+,10-,11-,12+,13+,14+,15+,16-,17+,18+,19+,20+,21+,22+,23+,24+,26+,27+,28-/m0/s1
> <PUBCHEM_IUPAC_INCHIKEY>
QIYJMXBYEBNMFU-VOIUMJMNSA-N
> <PUBCHEM_XLOGP3_AA>
-10.2
> <PUBCHEM_EXACT_MASS>
771.39741215
> <PUBCHEM_MOLECULAR_FORMULA>
C29H57N9O15
> <PUBCHEM_MOLECULAR_WEIGHT>
771.8
> <PUBCHEM_OPENEYE_CAN_SMILES>
C1C(C(C(C(C1N)OC2C(C(C(C(O2)CO)O)O)N)OC3C(C(C(O3)CO)OC4C(C(C(C(O4)CNC(=O)C(CCCN=C(N)N)N)O)O)N)O)O)N
> <PUBCHEM_OPENEYE_ISO_SMILES>
C1[C@H]([C@@H]([C@H]([C@@H]([C@H]1N)O[C@@H]2[C@@H]([C@H]([C@@H]([C@H](O2)CO)O)O)N)O[C@H]3[C@@H]([C@@H]([C@H](O3)CO)O[C@@H]4[C@@H]([C@H]([C@@H]([C@@H](O4)CNC(=O)[C@H](CCCN=C(N)N)N)O)O)N)O)O)N
> <PUBCHEM_CACTVS_TPSA>
441
> <PUBCHEM_MONOISOTOPIC_WEIGHT>
771.39741215
> <PUBCHEM_TOTAL_CHARGE>
0
> <PUBCHEM_HEAVY_ATOM_COUNT>
53
> <PUBCHEM_ATOM_DEF_STEREO_COUNT>
20
> <PUBCHEM_ATOM_UDEF_STEREO_COUNT>
0
> <PUBCHEM_BOND_DEF_STEREO_COUNT>
0
> <PUBCHEM_BOND_UDEF_STEREO_COUNT>
0
> <PUBCHEM_ISOTOPIC_ATOM_COUNT>
0
> <PUBCHEM_COMPONENT_COUNT>
1
> <PUBCHEM_CACTVS_TAUTO_COUNT>
-1
> <PUBCHEM_COORDINATE_TYPE>
1
5
255
> <PUBCHEM_BONDANNOTATIONS>
25  1  5
31  1  6
40  10  6
42  11  6
44  13  5
27  16  5
29  17  5
36  18  6
39  19  5
26  2  6
35  2  6
49  21  5
34  43  6
32  4  5
38  4  5
41  46  5
45  47  5
28  5  6
33  8  5
37  9  5
$$$$
