514177
  -OEChem-10302200282D
 65 69  0     1  0  0  0  0  0999 V2000
    2.0000    3.7920    0.0000 Br  0  0  0  0  0  0  0  0  0  0  0  0
    6.2731    0.2042    0.0000 O   0  0  0  0  0  0  0  0  0  0  0  0
    7.5464   -1.4514    0.0000 O   0  0  0  0  0  0  0  0  0  0  0  0
    4.3763   -1.5559    0.0000 O   0  0  0  0  0  0  0  0  0  0  0  0
    7.1962    1.7920    0.0000 O   0  0  0  0  0  0  0  0  0  0  0  0
    5.4641    4.7920    0.0000 O   0  0  0  0  0  0  0  0  0  0  0  0
    5.4641    1.7920    0.0000 N   0  0  0  0  0  0  0  0  0  0  0  0
    6.3301    3.2920    0.0000 N   0  0  0  0  0  0  0  0  0  0  0  0
    5.9641   -0.7469    0.0000 C   0  0  1  0  0  0  0  0  0  0  0  0
    4.9641   -0.7469    0.0000 C   0  0  2  0  0  0  0  0  0  0  0  0
    4.6551    0.2042    0.0000 C   0  0  0  0  0  0  0  0  0  0  0  0
    5.4641    0.7920    0.0000 C   0  0  1  0  0  0  0  0  0  0  0  0
    6.5519   -1.5559    0.0000 C   0  0  0  0  0  0  0  0  0  0  0  0
    8.1342   -2.2604    0.0000 C   0  0  0  0  0  0  0  0  0  0  0  0
    8.7220   -3.0694    0.0000 C   0  0  0  0  0  0  0  0  0  0  0  0
    8.9432   -1.6726    0.0000 C   0  0  0  0  0  0  0  0  0  0  0  0
    7.3252   -2.8482    0.0000 C   0  0  0  0  0  0  0  0  0  0  0  0
    4.5981    2.2920    0.0000 C   0  0  0  0  0  0  0  0  0  0  0  0
    6.3301    2.2920    0.0000 C   0  0  0  0  0  0  0  0  0  0  0  0
    4.5981    3.2920    0.0000 C   0  0  0  0  0  0  0  0  0  0  0  0
    8.3152   -3.9830    0.0000 C   0  0  0  0  0  0  0  0  0  0  0  0
    8.8387   -0.6781    0.0000 C   0  0  0  0  0  0  0  0  0  0  0  0
    7.4297   -3.8427    0.0000 C   0  0  0  0  0  0  0  0  0  0  0  0
    9.7165   -2.9649    0.0000 C   0  0  0  0  0  0  0  0  0  0  0  0
    9.8568   -2.0793    0.0000 C   0  0  0  0  0  0  0  0  0  0  0  0
    6.4116   -2.4414    0.0000 C   0  0  0  0  0  0  0  0  0  0  0  0
    5.4641    3.7920    0.0000 C   0  0  0  0  0  0  0  0  0  0  0  0
    8.9030   -4.7920    0.0000 C   0  0  0  0  0  0  0  0  0  0  0  0
    9.6477   -0.0903    0.0000 C   0  0  0  0  0  0  0  0  0  0  0  0
    6.6207   -4.4305    0.0000 C   0  0  0  0  0  0  0  0  0  0  0  0
   10.3043   -3.7739    0.0000 C   0  0  0  0  0  0  0  0  0  0  0  0
   10.6658   -1.4916    0.0000 C   0  0  0  0  0  0  0  0  0  0  0  0
    5.6026   -3.0292    0.0000 C   0  0  0  0  0  0  0  0  0  0  0  0
    3.7320    3.7920    0.0000 C   0  0  0  0  0  0  0  0  0  0  0  0
    9.8976   -4.6874    0.0000 C   0  0  0  0  0  0  0  0  0  0  0  0
   10.5612   -0.4970    0.0000 C   0  0  0  0  0  0  0  0  0  0  0  0
    5.7071   -4.0237    0.0000 C   0  0  0  0  0  0  0  0  0  0  0  0
    2.8660    3.2920    0.0000 C   0  0  0  0  0  0  0  0  0  0  0  0
    6.5765   -0.6499    0.0000 H   0  0  0  0  0  0  0  0  0  0  0  0
    5.2456   -1.2993    0.0000 H   0  0  0  0  0  0  0  0  0  0  0  0
    4.3451    0.7411    0.0000 H   0  0  0  0  0  0  0  0  0  0  0  0
    4.0887   -0.0480    0.0000 H   0  0  0  0  0  0  0  0  0  0  0  0
    6.0165    1.0734    0.0000 H   0  0  0  0  0  0  0  0  0  0  0  0
    5.9946   -1.8277    0.0000 H   0  0  0  0  0  0  0  0  0  0  0  0
    6.7228   -2.1519    0.0000 H   0  0  0  0  0  0  0  0  0  0  0  0
    3.7597   -1.4911    0.0000 H   0  0  0  0  0  0  0  0  0  0  0  0
    4.0611    1.9820    0.0000 H   0  0  0  0  0  0  0  0  0  0  0  0
    6.8671    3.6020    0.0000 H   0  0  0  0  0  0  0  0  0  0  0  0
    7.6986   -4.0478    0.0000 H   0  0  0  0  0  0  0  0  0  0  0  0
    8.2723   -0.4259    0.0000 H   0  0  0  0  0  0  0  0  0  0  0  0
    7.9961   -4.0949    0.0000 H   0  0  0  0  0  0  0  0  0  0  0  0
    9.9687   -2.3985    0.0000 H   0  0  0  0  0  0  0  0  0  0  0  0
    9.9216   -2.6959    0.0000 H   0  0  0  0  0  0  0  0  0  0  0  0
    6.3468   -1.8248    0.0000 H   0  0  0  0  0  0  0  0  0  0  0  0
    8.6508   -5.3584    0.0000 H   0  0  0  0  0  0  0  0  0  0  0  0
    9.5829    0.5263    0.0000 H   0  0  0  0  0  0  0  0  0  0  0  0
    6.6855   -5.0471    0.0000 H   0  0  0  0  0  0  0  0  0  0  0  0
   10.9209   -3.7091    0.0000 H   0  0  0  0  0  0  0  0  0  0  0  0
   11.2322   -1.7437    0.0000 H   0  0  0  0  0  0  0  0  0  0  0  0
    5.0362   -2.7770    0.0000 H   0  0  0  0  0  0  0  0  0  0  0  0
    3.7320    4.4120    0.0000 H   0  0  0  0  0  0  0  0  0  0  0  0
   10.2620   -5.1890    0.0000 H   0  0  0  0  0  0  0  0  0  0  0  0
   11.0628   -0.1326    0.0000 H   0  0  0  0  0  0  0  0  0  0  0  0
    5.2056   -4.3882    0.0000 H   0  0  0  0  0  0  0  0  0  0  0  0
    2.8660    2.6720    0.0000 H   0  0  0  0  0  0  0  0  0  0  0  0
  1 38  1  0  0  0  0
  2  9  1  0  0  0  0
  2 12  1  0  0  0  0
  3 13  1  0  0  0  0
  3 14  1  0  0  0  0
 10  4  1  1  0  0  0
  4 46  1  0  0  0  0
  5 19  2  0  0  0  0
  6 27  2  0  0  0  0
 12  7  1  6  0  0  0
  7 18  1  0  0  0  0
  7 19  1  0  0  0  0
  8 19  1  0  0  0  0
  8 27  1  0  0  0  0
  8 48  1  0  0  0  0
  9 10  1  0  0  0  0
  9 13  1  6  0  0  0
  9 39  1  0  0  0  0
 10 11  1  0  0  0  0
 10 40  1  0  0  0  0
 11 12  1  0  0  0  0
 11 41  1  0  0  0  0
 11 42  1  0  0  0  0
 12 43  1  0  0  0  0
 13 44  1  0  0  0  0
 13 45  1  0  0  0  0
 14 15  1  0  0  0  0
 14 16  1  0  0  0  0
 14 17  1  0  0  0  0
 15 21  2  0  0  0  0
 15 24  1  0  0  0  0
 16 22  2  0  0  0  0
 16 25  1  0  0  0  0
 17 23  2  0  0  0  0
 17 26  1  0  0  0  0
 18 20  2  0  0  0  0
 18 47  1  0  0  0  0
 20 27  1  0  0  0  0
 20 34  1  0  0  0  0
 21 28  1  0  0  0  0
 21 49  1  0  0  0  0
 22 29  1  0  0  0  0
 22 50  1  0  0  0  0
 23 30  1  0  0  0  0
 23 51  1  0  0  0  0
 24 31  2  0  0  0  0
 24 52  1  0  0  0  0
 25 32  2  0  0  0  0
 25 53  1  0  0  0  0
 26 33  2  0  0  0  0
 26 54  1  0  0  0  0
 28 35  2  0  0  0  0
 28 55  1  0  0  0  0
 29 36  2  0  0  0  0
 29 56  1  0  0  0  0
 30 37  2  0  0  0  0
 30 57  1  0  0  0  0
 31 35  1  0  0  0  0
 31 58  1  0  0  0  0
 32 36  1  0  0  0  0
 32 59  1  0  0  0  0
 33 37  1  0  0  0  0
 33 60  1  0  0  0  0
 34 38  2  3  0  0  0
 34 61  1  0  0  0  0
 35 62  1  0  0  0  0
 36 63  1  0  0  0  0
 37 64  1  0  0  0  0
 38 65  1  0  0  0  0
M  END
> <PUBCHEM_COMPOUND_CID>
514177
> <PUBCHEM_COMPOUND_CANONICALIZED>
1
> <PUBCHEM_CACTVS_COMPLEXITY>
844
> <PUBCHEM_CACTVS_HBOND_ACCEPTOR>
5
> <PUBCHEM_CACTVS_HBOND_DONOR>
2
> <PUBCHEM_CACTVS_ROTATABLE_BOND>
8
> <PUBCHEM_CACTVS_SUBSKEYS>
AAADceB7OAAAEAAAAAAAAAAAAAAAASAAAAAwYMEAAAAAAAABUAAAHgBQCAABTFThmAYxAIPABgCIAiFWUACCAAAgAAAIiAEICMiJNiKAsRiOcAAvxyMLqMew8OoOgAAAAAAAAAAAAAAAAAAAAAAAAAAAAA==
> <PUBCHEM_IUPAC_OPENEYE_NAME>
5-(2-bromovinyl)-1-[(2R,4S,5R)-4-hydroxy-5-(trityloxymethyl)tetrahydrofuran-2-yl]pyrimidine-2,4-dione
> <PUBCHEM_IUPAC_CAS_NAME>
5-(2-bromoethenyl)-1-[(2R,4S,5R)-4-hydroxy-5-[(triphenylmethyl)oxymethyl]-2-oxolanyl]pyrimidine-2,4-dione
> <PUBCHEM_IUPAC_NAME_MARKUP>
5-(2-bromoethenyl)-1-[(2<I>R</I>,4<I>S</I>,5<I>R</I>)-4-hydroxy-5-(trityloxymethyl)oxolan-2-yl]pyrimidine-2,4-dione
> <PUBCHEM_IUPAC_NAME>
5-(2-bromoethenyl)-1-[(2R,4S,5R)-4-hydroxy-5-(trityloxymethyl)oxolan-2-yl]pyrimidine-2,4-dione
> <PUBCHEM_IUPAC_SYSTEMATIC_NAME>
5-(2-bromanylethenyl)-1-[(2R,4S,5R)-4-oxidanyl-5-[(triphenylmethyl)oxymethyl]oxolan-2-yl]pyrimidine-2,4-dione
> <PUBCHEM_IUPAC_TRADITIONAL_NAME>
5-(2-bromovinyl)-1-[(2R,4S,5R)-4-hydroxy-5-(trityloxymethyl)tetrahydrofuran-2-yl]pyrimidine-2,4-quinone
> <PUBCHEM_IUPAC_INCHI>
InChI=1S/C30H27BrN2O5/c31-17-16-21-19-33(29(36)32-28(21)35)27-18-25(34)26(38-27)20-37-30(22-10-4-1-5-11-22,23-12-6-2-7-13-23)24-14-8-3-9-15-24/h1-17,19,25-27,34H,18,20H2,(H,32,35,36)/t25-,26+,27+/m0/s1
> <PUBCHEM_IUPAC_INCHIKEY>
MYAVYWCASQUPHC-OYUWMTPXSA-N
> <PUBCHEM_XLOGP3>
4.2
> <PUBCHEM_EXACT_MASS>
574.11033
> <PUBCHEM_MOLECULAR_FORMULA>
C30H27BrN2O5
> <PUBCHEM_MOLECULAR_WEIGHT>
575.4
> <PUBCHEM_OPENEYE_CAN_SMILES>
C1C(C(OC1N2C=C(C(=O)NC2=O)C=CBr)COC(C3=CC=CC=C3)(C4=CC=CC=C4)C5=CC=CC=C5)O
> <PUBCHEM_OPENEYE_ISO_SMILES>
C1[C@@H]([C@H](O[C@H]1N2C=C(C(=O)NC2=O)C=CBr)COC(C3=CC=CC=C3)(C4=CC=CC=C4)C5=CC=CC=C5)O
> <PUBCHEM_CACTVS_TPSA>
88.1
> <PUBCHEM_MONOISOTOPIC_WEIGHT>
574.11033
> <PUBCHEM_TOTAL_CHARGE>
0
> <PUBCHEM_HEAVY_ATOM_COUNT>
38
> <PUBCHEM_ATOM_DEF_STEREO_COUNT>
3
> <PUBCHEM_ATOM_UDEF_STEREO_COUNT>
0
> <PUBCHEM_BOND_DEF_STEREO_COUNT>
0
> <PUBCHEM_BOND_UDEF_STEREO_COUNT>
1
> <PUBCHEM_ISOTOPIC_ATOM_COUNT>
0
> <PUBCHEM_COMPONENT_COUNT>
1
> <PUBCHEM_CACTVS_TAUTO_COUNT>
-1
> <PUBCHEM_COORDINATE_TYPE>
1
5
255
> <PUBCHEM_BONDANNOTATIONS>
15  21  8
15  24  8
16  22  8
16  25  8
17  23  8
17  26  8
18  20  8
20  27  8
21  28  8
22  29  8
23  30  8
24  31  8
25  32  8
26  33  8
28  35  8
29  36  8
30  37  8
31  35  8
32  36  8
33  37  8
34  38  1
10  4  5
12  7  6
7  18  8
7  19  8
8  19  8
8  27  8
9  13  6
$$$$
