514157
  -OEChem-10302200282D
 44 45  0     1  0  0  0  0  0999 V2000
    6.8671   -2.1221    0.0000 S   0  0  0  0  0  0  0  0  0  0  0  0
    5.1350    0.8779    0.0000 S   0  0  0  0  0  0  0  0  0  0  0  0
    9.9685    1.8393    0.0000 O   0  0  0  0  0  0  0  0  0  0  0  0
   11.9255    2.2518    0.0000 O   0  0  0  0  0  0  0  0  0  0  0  0
   12.5468    4.1528    0.0000 O   0  0  0  0  0  0  0  0  0  0  0  0
    6.8671   -4.1221    0.0000 O   0  0  0  0  0  0  0  0  0  0  0  0
    3.4030    1.8779    0.0000 O   0  0  0  0  0  0  0  0  0  0  0  0
    8.6793    0.6826    0.0000 N   0  0  0  0  0  0  0  0  0  0  0  0
    8.6793   -0.9269    0.0000 N   0  0  0  0  0  0  0  0  0  0  0  0
    6.8671    0.8779    0.0000 N   0  0  0  0  0  0  0  0  0  0  0  0
    6.0010   -0.6221    0.0000 N   0  0  0  0  0  0  0  0  0  0  0  0
    5.1350   -4.1221    0.0000 N   0  0  0  0  0  0  0  0  0  0  0  0
    2.5369    0.3779    0.0000 N   0  0  0  0  0  0  0  0  0  0  0  0
    7.7331    0.3779    0.0000 C   0  0  0  0  0  0  0  0  0  0  0  0
    8.9900    1.6331    0.0000 C   0  0  0  0  0  0  0  0  0  0  0  0
    7.7331   -0.6221    0.0000 C   0  0  0  0  0  0  0  0  0  0  0  0
   10.2791    2.7899    0.0000 C   0  0  0  0  0  0  0  0  0  0  0  0
   11.2576    2.9961    0.0000 C   0  0  3  0  0  0  0  0  0  0  0  0
    9.2629   -0.1221    0.0000 C   0  0  0  0  0  0  0  0  0  0  0  0
    6.8671   -1.1221    0.0000 C   0  0  0  0  0  0  0  0  0  0  0  0
   11.5683    3.9466    0.0000 C   0  0  0  0  0  0  0  0  0  0  0  0
    6.0010    0.3779    0.0000 C   0  0  0  0  0  0  0  0  0  0  0  0
    6.0010   -2.6221    0.0000 C   0  0  0  0  0  0  0  0  0  0  0  0
    4.2690    0.3779    0.0000 C   0  0  0  0  0  0  0  0  0  0  0  0
    6.0010   -3.6221    0.0000 C   0  0  0  0  0  0  0  0  0  0  0  0
    3.4030    0.8779    0.0000 C   0  0  0  0  0  0  0  0  0  0  0  0
    8.9694    2.2528    0.0000 H   0  0  0  0  0  0  0  0  0  0  0  0
    8.3762    1.7205    0.0000 H   0  0  0  0  0  0  0  0  0  0  0  0
   10.2586    3.4095    0.0000 H   0  0  0  0  0  0  0  0  0  0  0  0
    9.6653    2.8772    0.0000 H   0  0  0  0  0  0  0  0  0  0  0  0
   11.0650    2.4068    0.0000 H   0  0  0  0  0  0  0  0  0  0  0  0
    9.8829   -0.1221    0.0000 H   0  0  0  0  0  0  0  0  0  0  0  0
   11.5477    4.5662    0.0000 H   0  0  0  0  0  0  0  0  0  0  0  0
   10.9545    4.0339    0.0000 H   0  0  0  0  0  0  0  0  0  0  0  0
   12.5322    2.3796    0.0000 H   0  0  0  0  0  0  0  0  0  0  0  0
    5.7890   -2.0395    0.0000 H   0  0  0  0  0  0  0  0  0  0  0  0
    5.3905   -2.7298    0.0000 H   0  0  0  0  0  0  0  0  0  0  0  0
   12.7394    4.7421    0.0000 H   0  0  0  0  0  0  0  0  0  0  0  0
    3.8705   -0.0971    0.0000 H   0  0  0  0  0  0  0  0  0  0  0  0
    4.6675   -0.0971    0.0000 H   0  0  0  0  0  0  0  0  0  0  0  0
    5.1350   -4.7421    0.0000 H   0  0  0  0  0  0  0  0  0  0  0  0
    4.5981   -3.8121    0.0000 H   0  0  0  0  0  0  0  0  0  0  0  0
    2.0000    0.6879    0.0000 H   0  0  0  0  0  0  0  0  0  0  0  0
    2.5369   -0.2421    0.0000 H   0  0  0  0  0  0  0  0  0  0  0  0
  1 20  1  0  0  0  0
  1 23  1  0  0  0  0
  2 22  1  0  0  0  0
  2 24  1  0  0  0  0
  3 15  1  0  0  0  0
  3 17  1  0  0  0  0
  4 18  1  0  0  0  0
  4 35  1  0  0  0  0
  5 21  1  0  0  0  0
  5 38  1  0  0  0  0
  6 25  2  0  0  0  0
  7 26  2  0  0  0  0
  8 14  1  0  0  0  0
  8 15  1  0  0  0  0
  8 19  1  0  0  0  0
  9 16  1  0  0  0  0
  9 19  2  0  0  0  0
 10 14  1  0  0  0  0
 10 22  2  0  0  0  0
 11 20  2  0  0  0  0
 11 22  1  0  0  0  0
 12 25  1  0  0  0  0
 12 41  1  0  0  0  0
 12 42  1  0  0  0  0
 13 26  1  0  0  0  0
 13 43  1  0  0  0  0
 13 44  1  0  0  0  0
 14 16  2  0  0  0  0
 15 27  1  0  0  0  0
 15 28  1  0  0  0  0
 16 20  1  0  0  0  0
 17 18  1  0  0  0  0
 17 29  1  0  0  0  0
 17 30  1  0  0  0  0
 18 21  1  0  0  0  0
 18 31  1  0  0  0  0
 19 32  1  0  0  0  0
 21 33  1  0  0  0  0
 21 34  1  0  0  0  0
 23 25  1  0  0  0  0
 23 36  1  0  0  0  0
 23 37  1  0  0  0  0
 24 26  1  0  0  0  0
 24 39  1  0  0  0  0
 24 40  1  0  0  0  0
M  END
> <PUBCHEM_COMPOUND_CID>
514157
> <PUBCHEM_COMPOUND_CANONICALIZED>
1
> <PUBCHEM_CACTVS_COMPLEXITY>
490
> <PUBCHEM_CACTVS_HBOND_ACCEPTOR>
10
> <PUBCHEM_CACTVS_HBOND_DONOR>
4
> <PUBCHEM_CACTVS_ROTATABLE_BOND>
11
> <PUBCHEM_CACTVS_SUBSKEYS>
AAADceBzuABgAAAAAAAAAAAAAAAAAWAAAAAsAAAAAAAAAFgB+AAAHgQQCAAACByl1waF8b9MFgioAQdxdACA0C1RGLABUDQoVBCBWABgSEAcRAwJEAJjACAAAAAAAAAAAAAAAAAAAAAAAAAAAAAAAAAAAA==
> <PUBCHEM_IUPAC_OPENEYE_NAME>
2-[2-(2-amino-2-oxo-ethyl)sulfanyl-9-(2,3-dihydroxypropoxymethyl)purin-6-yl]sulfanylacetamide
> <PUBCHEM_IUPAC_CAS_NAME>
2-[[2-[(2-amino-2-oxoethyl)thio]-9-(2,3-dihydroxypropoxymethyl)-6-purinyl]thio]acetamide
> <PUBCHEM_IUPAC_NAME_MARKUP>
2-[2-(2-amino-2-oxoethyl)sulfanyl-9-(2,3-dihydroxypropoxymethyl)purin-6-yl]sulfanylacetamide
> <PUBCHEM_IUPAC_NAME>
2-[2-(2-amino-2-oxoethyl)sulfanyl-9-(2,3-dihydroxypropoxymethyl)purin-6-yl]sulfanylacetamide
> <PUBCHEM_IUPAC_SYSTEMATIC_NAME>
2-[2-(2-azanyl-2-oxidanylidene-ethyl)sulfanyl-9-[2,3-bis(oxidanyl)propoxymethyl]purin-6-yl]sulfanylethanamide
> <PUBCHEM_IUPAC_TRADITIONAL_NAME>
2-[[2-[(2-amino-2-keto-ethyl)thio]-9-(glyceryloxymethyl)purin-6-yl]thio]acetamide
> <PUBCHEM_IUPAC_INCHI>
InChI=1S/C13H18N6O5S2/c14-8(22)3-25-12-10-11(17-13(18-12)26-4-9(15)23)19(5-16-10)6-24-2-7(21)1-20/h5,7,20-21H,1-4,6H2,(H2,14,22)(H2,15,23)
> <PUBCHEM_IUPAC_INCHIKEY>
SWKQVEMSJFWQCS-UHFFFAOYSA-N
> <PUBCHEM_XLOGP3_AA>
-1.8
> <PUBCHEM_EXACT_MASS>
402.07801004
> <PUBCHEM_MOLECULAR_FORMULA>
C13H18N6O5S2
> <PUBCHEM_MOLECULAR_WEIGHT>
402.5
> <PUBCHEM_OPENEYE_CAN_SMILES>
C1=NC2=C(N1COCC(CO)O)N=C(N=C2SCC(=O)N)SCC(=O)N
> <PUBCHEM_OPENEYE_ISO_SMILES>
C1=NC2=C(N1COCC(CO)O)N=C(N=C2SCC(=O)N)SCC(=O)N
> <PUBCHEM_CACTVS_TPSA>
230
> <PUBCHEM_MONOISOTOPIC_WEIGHT>
402.07801004
> <PUBCHEM_TOTAL_CHARGE>
0
> <PUBCHEM_HEAVY_ATOM_COUNT>
26
> <PUBCHEM_ATOM_DEF_STEREO_COUNT>
0
> <PUBCHEM_ATOM_UDEF_STEREO_COUNT>
1
> <PUBCHEM_BOND_DEF_STEREO_COUNT>
0
> <PUBCHEM_BOND_UDEF_STEREO_COUNT>
0
> <PUBCHEM_ISOTOPIC_ATOM_COUNT>
0
> <PUBCHEM_COMPONENT_COUNT>
1
> <PUBCHEM_CACTVS_TAUTO_COUNT>
-1
> <PUBCHEM_COORDINATE_TYPE>
1
5
255
> <PUBCHEM_BONDANNOTATIONS>
10  14  8
10  22  8
11  20  8
11  22  8
14  16  8
16  20  8
18  4  3
8  14  8
8  19  8
9  16  8
9  19  8
$$$$
