514158
  -OEChem-10302200282D
 50 51  0     1  0  0  0  0  0999 V2000
    6.8671   -2.1221    0.0000 S   0  0  0  0  0  0  0  0  0  0  0  0
    5.1350    0.8779    0.0000 S   0  0  0  0  0  0  0  0  0  0  0  0
    9.9685    1.8393    0.0000 O   0  0  0  0  0  0  0  0  0  0  0  0
   11.9255    2.2518    0.0000 O   0  0  0  0  0  0  0  0  0  0  0  0
   12.5468    4.1528    0.0000 O   0  0  0  0  0  0  0  0  0  0  0  0
    6.8671   -4.1221    0.0000 O   0  0  0  0  0  0  0  0  0  0  0  0
    3.4030    1.8779    0.0000 O   0  0  0  0  0  0  0  0  0  0  0  0
    8.6793    0.6826    0.0000 N   0  0  0  0  0  0  0  0  0  0  0  0
    8.6793   -0.9269    0.0000 N   0  0  0  0  0  0  0  0  0  0  0  0
    6.8671    0.8779    0.0000 N   0  0  0  0  0  0  0  0  0  0  0  0
    6.0010   -0.6221    0.0000 N   0  0  0  0  0  0  0  0  0  0  0  0
    5.1350   -4.1221    0.0000 N   0  0  0  0  0  0  0  0  0  0  0  0
    2.5369    0.3779    0.0000 N   0  0  0  0  0  0  0  0  0  0  0  0
    7.7331    0.3779    0.0000 C   0  0  0  0  0  0  0  0  0  0  0  0
    7.7331   -0.6221    0.0000 C   0  0  0  0  0  0  0  0  0  0  0  0
    8.9900    1.6331    0.0000 C   0  0  0  0  0  0  0  0  0  0  0  0
   10.2791    2.7899    0.0000 C   0  0  0  0  0  0  0  0  0  0  0  0
    6.8671   -1.1221    0.0000 C   0  0  0  0  0  0  0  0  0  0  0  0
   11.2576    2.9961    0.0000 C   0  0  3  0  0  0  0  0  0  0  0  0
    9.2629   -0.1221    0.0000 C   0  0  0  0  0  0  0  0  0  0  0  0
    6.0010    0.3779    0.0000 C   0  0  0  0  0  0  0  0  0  0  0  0
    6.0010   -2.6221    0.0000 C   0  0  3  0  0  0  0  0  0  0  0  0
   11.5683    3.9466    0.0000 C   0  0  0  0  0  0  0  0  0  0  0  0
    4.2690    0.3779    0.0000 C   0  0  3  0  0  0  0  0  0  0  0  0
    5.1350   -2.1221    0.0000 C   0  0  0  0  0  0  0  0  0  0  0  0
    6.0010   -3.6221    0.0000 C   0  0  0  0  0  0  0  0  0  0  0  0
    4.2690   -0.6221    0.0000 C   0  0  0  0  0  0  0  0  0  0  0  0
    3.4030    0.8779    0.0000 C   0  0  0  0  0  0  0  0  0  0  0  0
    8.9694    2.2528    0.0000 H   0  0  0  0  0  0  0  0  0  0  0  0
    8.3762    1.7205    0.0000 H   0  0  0  0  0  0  0  0  0  0  0  0
   10.2586    3.4095    0.0000 H   0  0  0  0  0  0  0  0  0  0  0  0
    9.6653    2.8772    0.0000 H   0  0  0  0  0  0  0  0  0  0  0  0
   11.0650    2.4068    0.0000 H   0  0  0  0  0  0  0  0  0  0  0  0
    9.8829   -0.1221    0.0000 H   0  0  0  0  0  0  0  0  0  0  0  0
    6.0010   -2.0021    0.0000 H   0  0  0  0  0  0  0  0  0  0  0  0
   11.5477    4.5662    0.0000 H   0  0  0  0  0  0  0  0  0  0  0  0
   10.9545    4.0339    0.0000 H   0  0  0  0  0  0  0  0  0  0  0  0
    4.8059    0.0679    0.0000 H   0  0  0  0  0  0  0  0  0  0  0  0
    5.4450   -1.5852    0.0000 H   0  0  0  0  0  0  0  0  0  0  0  0
    4.5981   -1.8121    0.0000 H   0  0  0  0  0  0  0  0  0  0  0  0
    4.8250   -2.6591    0.0000 H   0  0  0  0  0  0  0  0  0  0  0  0
    3.6490   -0.6221    0.0000 H   0  0  0  0  0  0  0  0  0  0  0  0
    4.2690   -1.2421    0.0000 H   0  0  0  0  0  0  0  0  0  0  0  0
    4.8890   -0.6221    0.0000 H   0  0  0  0  0  0  0  0  0  0  0  0
   12.5322    2.3796    0.0000 H   0  0  0  0  0  0  0  0  0  0  0  0
   12.7394    4.7421    0.0000 H   0  0  0  0  0  0  0  0  0  0  0  0
    5.1350   -4.7421    0.0000 H   0  0  0  0  0  0  0  0  0  0  0  0
    4.5981   -3.8121    0.0000 H   0  0  0  0  0  0  0  0  0  0  0  0
    2.0000    0.6879    0.0000 H   0  0  0  0  0  0  0  0  0  0  0  0
    2.5369   -0.2421    0.0000 H   0  0  0  0  0  0  0  0  0  0  0  0
  1 18  1  0  0  0  0
  1 22  1  0  0  0  0
  2 21  1  0  0  0  0
  2 24  1  0  0  0  0
  3 16  1  0  0  0  0
  3 17  1  0  0  0  0
  4 19  1  0  0  0  0
  4 45  1  0  0  0  0
  5 23  1  0  0  0  0
  5 46  1  0  0  0  0
  6 26  2  0  0  0  0
  7 28  2  0  0  0  0
  8 14  1  0  0  0  0
  8 16  1  0  0  0  0
  8 20  1  0  0  0  0
  9 15  1  0  0  0  0
  9 20  2  0  0  0  0
 10 14  1  0  0  0  0
 10 21  2  0  0  0  0
 11 18  2  0  0  0  0
 11 21  1  0  0  0  0
 12 26  1  0  0  0  0
 12 47  1  0  0  0  0
 12 48  1  0  0  0  0
 13 28  1  0  0  0  0
 13 49  1  0  0  0  0
 13 50  1  0  0  0  0
 14 15  2  0  0  0  0
 15 18  1  0  0  0  0
 16 29  1  0  0  0  0
 16 30  1  0  0  0  0
 17 19  1  0  0  0  0
 17 31  1  0  0  0  0
 17 32  1  0  0  0  0
 19 23  1  0  0  0  0
 19 33  1  0  0  0  0
 20 34  1  0  0  0  0
 22 25  1  0  0  0  0
 22 26  1  0  0  0  0
 22 35  1  0  0  0  0
 23 36  1  0  0  0  0
 23 37  1  0  0  0  0
 24 27  1  0  0  0  0
 24 28  1  0  0  0  0
 24 38  1  0  0  0  0
 25 39  1  0  0  0  0
 25 40  1  0  0  0  0
 25 41  1  0  0  0  0
 27 42  1  0  0  0  0
 27 43  1  0  0  0  0
 27 44  1  0  0  0  0
M  END
> <PUBCHEM_COMPOUND_CID>
514158
> <PUBCHEM_COMPOUND_CANONICALIZED>
1
> <PUBCHEM_CACTVS_COMPLEXITY>
547
> <PUBCHEM_CACTVS_HBOND_ACCEPTOR>
10
> <PUBCHEM_CACTVS_HBOND_DONOR>
4
> <PUBCHEM_CACTVS_ROTATABLE_BOND>
11
> <PUBCHEM_CACTVS_SUBSKEYS>
AAADceBzuABgAAAAAAAAAAAAAAAAAWAAAAAsAAAAAAAAAFgB+AAAHgQQCAAACByl1waH8b9MFgioAQdxdACA0C1RGLABUDUoVBCBWABgSEAcRAwJEAJjACAAAAAAAAAAAAAAAAAAAAAAAAAAAAAAAAAAAA==
> <PUBCHEM_IUPAC_OPENEYE_NAME>
2-[2-(2-amino-1-methyl-2-oxo-ethyl)sulfanyl-9-(2,3-dihydroxypropoxymethyl)purin-6-yl]sulfanylpropanamide
> <PUBCHEM_IUPAC_CAS_NAME>
2-[[2-[(1-amino-1-oxopropan-2-yl)thio]-9-(2,3-dihydroxypropoxymethyl)-6-purinyl]thio]propanamide
> <PUBCHEM_IUPAC_NAME_MARKUP>
2-[2-(1-amino-1-oxopropan-2-yl)sulfanyl-9-(2,3-dihydroxypropoxymethyl)purin-6-yl]sulfanylpropanamide
> <PUBCHEM_IUPAC_NAME>
2-[2-(1-amino-1-oxopropan-2-yl)sulfanyl-9-(2,3-dihydroxypropoxymethyl)purin-6-yl]sulfanylpropanamide
> <PUBCHEM_IUPAC_SYSTEMATIC_NAME>
2-[2-(1-azanyl-1-oxidanylidene-propan-2-yl)sulfanyl-9-[2,3-bis(oxidanyl)propoxymethyl]purin-6-yl]sulfanylpropanamide
> <PUBCHEM_IUPAC_TRADITIONAL_NAME>
2-[[2-[(2-amino-2-keto-1-methyl-ethyl)thio]-9-(glyceryloxymethyl)purin-6-yl]thio]propionamide
> <PUBCHEM_IUPAC_INCHI>
InChI=1S/C15H22N6O5S2/c1-7(11(16)24)27-14-10-13(19-15(20-14)28-8(2)12(17)25)21(5-18-10)6-26-4-9(23)3-22/h5,7-9,22-23H,3-4,6H2,1-2H3,(H2,16,24)(H2,17,25)
> <PUBCHEM_IUPAC_INCHIKEY>
JRFCQGCPQJFHQH-UHFFFAOYSA-N
> <PUBCHEM_XLOGP3_AA>
-1
> <PUBCHEM_EXACT_MASS>
430.10931017
> <PUBCHEM_MOLECULAR_FORMULA>
C15H22N6O5S2
> <PUBCHEM_MOLECULAR_WEIGHT>
430.5
> <PUBCHEM_OPENEYE_CAN_SMILES>
CC(C(=O)N)SC1=NC(=NC2=C1N=CN2COCC(CO)O)SC(C)C(=O)N
> <PUBCHEM_OPENEYE_ISO_SMILES>
CC(C(=O)N)SC1=NC(=NC2=C1N=CN2COCC(CO)O)SC(C)C(=O)N
> <PUBCHEM_CACTVS_TPSA>
230
> <PUBCHEM_MONOISOTOPIC_WEIGHT>
430.10931017
> <PUBCHEM_TOTAL_CHARGE>
0
> <PUBCHEM_HEAVY_ATOM_COUNT>
28
> <PUBCHEM_ATOM_DEF_STEREO_COUNT>
0
> <PUBCHEM_ATOM_UDEF_STEREO_COUNT>
3
> <PUBCHEM_BOND_DEF_STEREO_COUNT>
0
> <PUBCHEM_BOND_UDEF_STEREO_COUNT>
0
> <PUBCHEM_ISOTOPIC_ATOM_COUNT>
0
> <PUBCHEM_COMPONENT_COUNT>
1
> <PUBCHEM_CACTVS_TAUTO_COUNT>
-1
> <PUBCHEM_COORDINATE_TYPE>
1
5
255
> <PUBCHEM_BONDANNOTATIONS>
10  14  8
10  21  8
11  18  8
11  21  8
14  15  8
15  18  8
22  25  3
24  27  3
19  4  3
8  14  8
8  20  8
9  15  8
9  20  8
$$$$
