514137
  -OEChem-10302200282D
 87 90  0     1  0  0  0  0  0999 V2000
    3.4051   -1.8674    0.0000 S   0  0  0  0  0  0  0  0  0  0  0  0
   13.1783    2.2014    0.0000 S   0  0  0  0  0  0  0  0  0  0  0  0
    4.2768   -1.3775    0.0000 O   0  0  0  0  0  0  0  0  0  0  0  0
    4.2607   -3.4691    0.0000 O   0  0  0  0  0  0  0  0  0  0  0  0
   12.1998    1.9952    0.0000 O   0  0  0  0  0  0  0  0  0  0  0  0
    2.5333   -2.3574    0.0000 O   0  0  0  0  0  0  0  0  0  0  0  0
    2.9151   -0.9957    0.0000 O   0  0  0  0  0  0  0  0  0  0  0  0
    3.8950   -2.7392    0.0000 O   0  0  0  0  0  0  0  0  0  0  0  0
   14.1568    2.4077    0.0000 O   0  0  0  0  0  0  0  0  0  0  0  0
   12.9721    3.1800    0.0000 O   0  0  0  0  0  0  0  0  0  0  0  0
   13.3845    1.2229    0.0000 O   0  0  0  0  0  0  0  0  0  0  0  0
    5.1209   -4.9724    0.0000 O   0  0  0  0  0  0  0  0  0  0  0  0
    9.6538   -0.4168    0.0000 C   0  0  3  0  0  0  0  0  0  0  0  0
    9.6538   -1.4168    0.0000 C   0  0  3  0  0  0  0  0  0  0  0  0
    8.7878   -1.9168    0.0000 C   0  0  3  0  0  0  0  0  0  0  0  0
    7.9217   -1.4168    0.0000 C   0  0  3  0  0  0  0  0  0  0  0  0
   10.6000   -0.1120    0.0000 C   0  0  3  0  0  0  0  0  0  0  0  0
    8.7878    0.0832    0.0000 C   0  0  0  0  0  0  0  0  0  0  0  0
    7.0117   -1.9236    0.0000 C   0  0  3  0  0  0  0  0  0  0  0  0
   10.6000   -1.7215    0.0000 C   0  0  0  0  0  0  0  0  0  0  0  0
    7.9217   -0.4168    0.0000 C   0  0  0  0  0  0  0  0  0  0  0  0
   11.1836   -0.9168    0.0000 C   0  0  0  0  0  0  0  0  0  0  0  0
    8.8038   -2.9583    0.0000 C   0  0  0  0  0  0  0  0  0  0  0  0
   10.9107    0.8385    0.0000 C   0  0  3  0  0  0  0  0  0  0  0  0
    9.6538    0.5832    0.0000 C   0  0  0  0  0  0  0  0  0  0  0  0
    7.0037   -2.9652    0.0000 C   0  0  0  0  0  0  0  0  0  0  0  0
    6.0849   -1.3595    0.0000 C   0  0  0  0  0  0  0  0  0  0  0  0
    7.9058   -3.4860    0.0000 C   0  0  0  0  0  0  0  0  0  0  0  0
    7.0194   -0.9236    0.0000 C   0  0  0  0  0  0  0  0  0  0  0  0
    6.0683   -3.5149    0.0000 C   0  0  0  0  0  0  0  0  0  0  0  0
    5.1370   -1.8875    0.0000 C   0  0  1  0  0  0  0  0  0  0  0  0
    5.1286   -2.9724    0.0000 C   0  0  1  0  0  0  0  0  0  0  0  0
   10.2428    1.5828    0.0000 C   0  0  0  0  0  0  0  0  0  0  0  0
   11.8892    1.0447    0.0000 C   0  0  0  0  0  0  0  0  0  0  0  0
   10.5535    2.5333    0.0000 C   0  0  0  0  0  0  0  0  0  0  0  0
    9.8856    3.2776    0.0000 C   0  0  0  0  0  0  0  0  0  0  0  0
    4.2568   -4.4691    0.0000 C   0  0  0  0  0  0  0  0  0  0  0  0
   10.1963    4.2281    0.0000 C   0  0  0  0  0  0  0  0  0  0  0  0
    3.3889   -4.9658    0.0000 C   0  0  0  0  0  0  0  0  0  0  0  0
    9.5284    4.9724    0.0000 C   0  0  0  0  0  0  0  0  0  0  0  0
   11.1748    4.4344    0.0000 C   0  0  0  0  0  0  0  0  0  0  0  0
    9.7194   -2.0333    0.0000 H   0  0  0  0  0  0  0  0  0  0  0  0
    9.3271   -2.2226    0.0000 H   0  0  0  0  0  0  0  0  0  0  0  0
    8.4587   -1.1068    0.0000 H   0  0  0  0  0  0  0  0  0  0  0  0
   11.2125   -0.0158    0.0000 H   0  0  0  0  0  0  0  0  0  0  0  0
    9.1863    0.5582    0.0000 H   0  0  0  0  0  0  0  0  0  0  0  0
    8.3892    0.5582    0.0000 H   0  0  0  0  0  0  0  0  0  0  0  0
   10.3490   -2.2884    0.0000 H   0  0  0  0  0  0  0  0  0  0  0  0
   11.1374   -2.0307    0.0000 H   0  0  0  0  0  0  0  0  0  0  0  0
    7.7097    0.1658    0.0000 H   0  0  0  0  0  0  0  0  0  0  0  0
    7.3111   -0.5244    0.0000 H   0  0  0  0  0  0  0  0  0  0  0  0
   11.6445   -1.3315    0.0000 H   0  0  0  0  0  0  0  0  0  0  0  0
   11.6445   -0.5020    0.0000 H   0  0  0  0  0  0  0  0  0  0  0  0
    9.0218   -3.5387    0.0000 H   0  0  0  0  0  0  0  0  0  0  0  0
    9.4130   -2.8428    0.0000 H   0  0  0  0  0  0  0  0  0  0  0  0
   10.3040    0.7106    0.0000 H   0  0  0  0  0  0  0  0  0  0  0  0
   10.2738    0.5832    0.0000 H   0  0  0  0  0  0  0  0  0  0  0  0
    9.6538    1.2032    0.0000 H   0  0  0  0  0  0  0  0  0  0  0  0
    9.0338    0.5832    0.0000 H   0  0  0  0  0  0  0  0  0  0  0  0
    6.4931   -0.8929    0.0000 H   0  0  0  0  0  0  0  0  0  0  0  0
    5.6950   -0.8775    0.0000 H   0  0  0  0  0  0  0  0  0  0  0  0
    7.9082   -4.1060    0.0000 H   0  0  0  0  0  0  0  0  0  0  0  0
    7.6394   -0.9284    0.0000 H   0  0  0  0  0  0  0  0  0  0  0  0
    7.0242   -0.3037    0.0000 H   0  0  0  0  0  0  0  0  0  0  0  0
    6.3994   -0.9189    0.0000 H   0  0  0  0  0  0  0  0  0  0  0  0
    5.6710   -3.9909    0.0000 H   0  0  0  0  0  0  0  0  0  0  0  0
    6.4692   -3.9878    0.0000 H   0  0  0  0  0  0  0  0  0  0  0  0
    5.1454   -1.2675    0.0000 H   0  0  0  0  0  0  0  0  0  0  0  0
    5.1274   -3.5924    0.0000 H   0  0  0  0  0  0  0  0  0  0  0  0
    9.6959    1.8748    0.0000 H   0  0  0  0  0  0  0  0  0  0  0  0
    9.8603    1.0949    0.0000 H   0  0  0  0  0  0  0  0  0  0  0  0
   11.9097    0.4250    0.0000 H   0  0  0  0  0  0  0  0  0  0  0  0
   12.5030    0.9574    0.0000 H   0  0  0  0  0  0  0  0  0  0  0  0
   11.1004    2.2413    0.0000 H   0  0  0  0  0  0  0  0  0  0  0  0
   10.9360    3.0212    0.0000 H   0  0  0  0  0  0  0  0  0  0  0  0
    9.2790    3.1498    0.0000 H   0  0  0  0  0  0  0  0  0  0  0  0
    3.0810   -4.4276    0.0000 H   0  0  0  0  0  0  0  0  0  0  0  0
    2.8508   -5.2737    0.0000 H   0  0  0  0  0  0  0  0  0  0  0  0
    3.6968   -5.5039    0.0000 H   0  0  0  0  0  0  0  0  0  0  0  0
    2.0000   -2.0412    0.0000 H   0  0  0  0  0  0  0  0  0  0  0  0
   14.3494    2.9970    0.0000 H   0  0  0  0  0  0  0  0  0  0  0  0
    9.9899    5.3865    0.0000 H   0  0  0  0  0  0  0  0  0  0  0  0
    9.1144    5.4339    0.0000 H   0  0  0  0  0  0  0  0  0  0  0  0
    9.0670    4.5584    0.0000 H   0  0  0  0  0  0  0  0  0  0  0  0
   11.3027    3.8277    0.0000 H   0  0  0  0  0  0  0  0  0  0  0  0
   11.7815    4.5622    0.0000 H   0  0  0  0  0  0  0  0  0  0  0  0
   11.0469    5.0410    0.0000 H   0  0  0  0  0  0  0  0  0  0  0  0
  1  3  1  0  0  0  0
  1  6  1  0  0  0  0
  1  7  2  0  0  0  0
  1  8  2  0  0  0  0
  2  5  1  0  0  0  0
  2  9  1  0  0  0  0
  2 10  2  0  0  0  0
  2 11  2  0  0  0  0
 31  3  1  1  0  0  0
 32  4  1  6  0  0  0
  4 37  1  0  0  0  0
  5 34  1  0  0  0  0
  6 80  1  0  0  0  0
  9 81  1  0  0  0  0
 12 37  2  0  0  0  0
 13 14  1  0  0  0  0
 13 17  1  0  0  0  0
 13 18  1  0  0  0  0
 13 25  1  0  0  0  0
 14 15  1  0  0  0  0
 14 20  1  0  0  0  0
 14 42  1  0  0  0  0
 15 16  1  0  0  0  0
 15 23  1  0  0  0  0
 15 43  1  0  0  0  0
 16 19  1  0  0  0  0
 16 21  1  0  0  0  0
 16 44  1  0  0  0  0
 17 22  1  0  0  0  0
 17 24  1  0  0  0  0
 17 45  1  0  0  0  0
 18 21  1  0  0  0  0
 18 46  1  0  0  0  0
 18 47  1  0  0  0  0
 19 26  1  0  0  0  0
 19 27  1  0  0  0  0
 19 29  1  0  0  0  0
 20 22  1  0  0  0  0
 20 48  1  0  0  0  0
 20 49  1  0  0  0  0
 21 50  1  0  0  0  0
 21 51  1  0  0  0  0
 22 52  1  0  0  0  0
 22 53  1  0  0  0  0
 23 28  1  0  0  0  0
 23 54  1  0  0  0  0
 23 55  1  0  0  0  0
 24 33  1  0  0  0  0
 24 34  1  0  0  0  0
 24 56  1  0  0  0  0
 25 57  1  0  0  0  0
 25 58  1  0  0  0  0
 25 59  1  0  0  0  0
 26 28  2  0  0  0  0
 26 30  1  0  0  0  0
 27 31  1  0  0  0  0
 27 60  1  0  0  0  0
 27 61  1  0  0  0  0
 28 62  1  0  0  0  0
 29 63  1  0  0  0  0
 29 64  1  0  0  0  0
 29 65  1  0  0  0  0
 30 32  1  0  0  0  0
 30 66  1  0  0  0  0
 30 67  1  0  0  0  0
 31 32  1  0  0  0  0
 31 68  1  0  0  0  0
 32 69  1  0  0  0  0
 33 35  1  0  0  0  0
 33 70  1  0  0  0  0
 33 71  1  0  0  0  0
 34 72  1  0  0  0  0
 34 73  1  0  0  0  0
 35 36  1  0  0  0  0
 35 74  1  0  0  0  0
 35 75  1  0  0  0  0
 36 38  2  0  0  0  0
 36 76  1  0  0  0  0
 37 39  1  0  0  0  0
 38 40  1  0  0  0  0
 38 41  1  0  0  0  0
 39 77  1  0  0  0  0
 39 78  1  0  0  0  0
 39 79  1  0  0  0  0
 40 82  1  0  0  0  0
 40 83  1  0  0  0  0
 40 84  1  0  0  0  0
 41 85  1  0  0  0  0
 41 86  1  0  0  0  0
 41 87  1  0  0  0  0
M  END
> <PUBCHEM_COMPOUND_CID>
514137
> <PUBCHEM_COMPOUND_CANONICALIZED>
1
> <PUBCHEM_CACTVS_COMPLEXITY>
1260
> <PUBCHEM_CACTVS_HBOND_ACCEPTOR>
10
> <PUBCHEM_CACTVS_HBOND_DONOR>
2
> <PUBCHEM_CACTVS_ROTATABLE_BOND>
11
> <PUBCHEM_CACTVS_SUBSKEYS>
AAADcfB4PABgAAAAAAAAAAAAAAAAAYAAAAAwYIAAAAAAAGCAAAAAGgAACAAADxSggAICCAAABICIAiDSCDAAAAAgAAAACAAAAAgBAAIAAQACAAAEwAAKAAOAwPAPgAAAAAAAAADAAAYAACCAAQAACAAAAA==
> <PUBCHEM_IUPAC_OPENEYE_NAME>
[(2S,3S)-10,13-dimethyl-17-[5-methyl-1-(sulfooxymethyl)hex-4-enyl]-2-sulfooxy-2,3,4,7,8,9,11,12,14,15,16,17-dodecahydro-1H-cyclopenta[a]phenanthren-3-yl] acetate
> <PUBCHEM_IUPAC_CAS_NAME>
acetic acid [(2S,3S)-10,13-dimethyl-17-(6-methyl-1-sulfooxyhept-5-en-2-yl)-2-sulfooxy-2,3,4,7,8,9,11,12,14,15,16,17-dodecahydro-1H-cyclopenta[a]phenanthren-3-yl] ester
> <PUBCHEM_IUPAC_NAME_MARKUP>
[(2<I>S</I>,3<I>S</I>)-10,13-dimethyl-17-(6-methyl-1-sulfooxyhept-5-en-2-yl)-2-sulfooxy-2,3,4,7,8,9,11,12,14,15,16,17-dodecahydro-1<I>H</I>-cyclopenta[a]phenanthren-3-yl] acetate
> <PUBCHEM_IUPAC_NAME>
[(2S,3S)-10,13-dimethyl-17-(6-methyl-1-sulfooxyhept-5-en-2-yl)-2-sulfooxy-2,3,4,7,8,9,11,12,14,15,16,17-dodecahydro-1H-cyclopenta[a]phenanthren-3-yl] acetate
> <PUBCHEM_IUPAC_SYSTEMATIC_NAME>
[(2S,3S)-10,13-dimethyl-17-(6-methyl-1-sulfooxy-hept-5-en-2-yl)-2-sulfooxy-2,3,4,7,8,9,11,12,14,15,16,17-dodecahydro-1H-cyclopenta[a]phenanthren-3-yl] ethanoate
> <PUBCHEM_IUPAC_TRADITIONAL_NAME>
acetic acid [(2S,3S)-10,13-dimethyl-17-[5-methyl-1-(sulfoxymethyl)hex-4-enyl]-2-sulfoxy-2,3,4,7,8,9,11,12,14,15,16,17-dodecahydro-1H-cyclopenta[a]phenanthren-3-yl] ester
> <PUBCHEM_IUPAC_INCHI>
InChI=1S/C29H46O10S2/c1-18(2)7-6-8-20(17-37-40(31,32)33)23-11-12-24-22-10-9-21-15-26(38-19(3)30)27(39-41(34,35)36)16-29(21,5)25(22)13-14-28(23,24)4/h7,9,20,22-27H,6,8,10-17H2,1-5H3,(H,31,32,33)(H,34,35,36)/t20?,22?,23?,24?,25?,26-,27-,28?,29?/m0/s1
> <PUBCHEM_IUPAC_INCHIKEY>
PXXZDGWQYLJZKP-SUNRXJQVSA-N
> <PUBCHEM_XLOGP3_AA>
5.5
> <PUBCHEM_EXACT_MASS>
618.25324001
> <PUBCHEM_MOLECULAR_FORMULA>
C29H46O10S2
> <PUBCHEM_MOLECULAR_WEIGHT>
618.8
> <PUBCHEM_OPENEYE_CAN_SMILES>
CC(=CCCC(COS(=O)(=O)O)C1CCC2C1(CCC3C2CC=C4C3(CC(C(C4)OC(=O)C)OS(=O)(=O)O)C)C)C
> <PUBCHEM_OPENEYE_ISO_SMILES>
CC(=CCCC(COS(=O)(=O)O)C1CCC2C1(CCC3C2CC=C4C3(C[C@@H]([C@H](C4)OC(=O)C)OS(=O)(=O)O)C)C)C
> <PUBCHEM_CACTVS_TPSA>
170
> <PUBCHEM_MONOISOTOPIC_WEIGHT>
618.25324001
> <PUBCHEM_TOTAL_CHARGE>
0
> <PUBCHEM_HEAVY_ATOM_COUNT>
41
> <PUBCHEM_ATOM_DEF_STEREO_COUNT>
2
> <PUBCHEM_ATOM_UDEF_STEREO_COUNT>
7
> <PUBCHEM_BOND_DEF_STEREO_COUNT>
0
> <PUBCHEM_BOND_UDEF_STEREO_COUNT>
0
> <PUBCHEM_ISOTOPIC_ATOM_COUNT>
0
> <PUBCHEM_COMPONENT_COUNT>
1
> <PUBCHEM_CACTVS_TAUTO_COUNT>
-1
> <PUBCHEM_COORDINATE_TYPE>
1
5
255
> <PUBCHEM_BONDANNOTATIONS>
13  25  3
14  20  3
15  23  3
16  21  3
17  22  3
19  29  3
24  33  3
31  3  5
32  4  6
$$$$
