514134
  -OEChem-10302200282D
 60 63  0     1  0  0  0  0  0999 V2000
   11.4534    2.3689    0.0000 S   0  0  0  0  0  0  0  0  0  0  0  0
    8.5179    1.7503    0.0000 O   0  0  0  0  0  0  0  0  0  0  0  0
    2.5357   -3.3016    0.0000 O   0  0  0  0  0  0  0  0  0  0  0  0
   10.4749    2.1627    0.0000 O   0  0  0  0  0  0  0  0  0  0  0  0
   12.4319    2.5752    0.0000 O   0  0  0  0  0  0  0  0  0  0  0  0
   11.2472    3.3474    0.0000 O   0  0  0  0  0  0  0  0  0  0  0  0
   11.6596    1.3904    0.0000 O   0  0  0  0  0  0  0  0  0  0  0  0
    7.9288   -0.2493    0.0000 C   0  0  3  0  0  0  0  0  0  0  0  0
    7.9288   -1.2493    0.0000 C   0  0  3  0  0  0  0  0  0  0  0  0
    7.0628   -1.7493    0.0000 C   0  0  3  0  0  0  0  0  0  0  0  0
    6.1968   -1.2493    0.0000 C   0  0  3  0  0  0  0  0  0  0  0  0
    5.2868   -1.7561    0.0000 C   0  0  3  0  0  0  0  0  0  0  0  0
    8.8750    0.0555    0.0000 C   0  0  3  0  0  0  0  0  0  0  0  0
    7.0628    0.2507    0.0000 C   0  0  0  0  0  0  0  0  0  0  0  0
    6.1968   -0.2493    0.0000 C   0  0  0  0  0  0  0  0  0  0  0  0
    8.8750   -1.5540    0.0000 C   0  0  0  0  0  0  0  0  0  0  0  0
    9.4586   -0.7493    0.0000 C   0  0  0  0  0  0  0  0  0  0  0  0
    7.0789   -2.7908    0.0000 C   0  0  0  0  0  0  0  0  0  0  0  0
    5.2787   -2.7977    0.0000 C   0  0  0  0  0  0  0  0  0  0  0  0
    7.9288    0.7507    0.0000 C   0  0  0  0  0  0  0  0  0  0  0  0
    4.3599   -1.1920    0.0000 C   0  0  0  0  0  0  0  0  0  0  0  0
    6.1808   -3.3185    0.0000 C   0  0  0  0  0  0  0  0  0  0  0  0
    5.2945   -0.7561    0.0000 C   0  0  0  0  0  0  0  0  0  0  0  0
    4.3433   -3.3474    0.0000 C   0  0  0  0  0  0  0  0  0  0  0  0
    9.1857    1.0060    0.0000 C   0  0  0  0  0  0  0  0  0  0  0  0
    3.4120   -1.7200    0.0000 C   0  0  0  0  0  0  0  0  0  0  0  0
    3.4037   -2.8050    0.0000 C   0  0  2  0  0  0  0  0  0  0  0  0
   10.1642    1.2122    0.0000 C   0  0  0  0  0  0  0  0  0  0  0  0
    7.9944   -1.8658    0.0000 H   0  0  0  0  0  0  0  0  0  0  0  0
    7.6021   -2.0551    0.0000 H   0  0  0  0  0  0  0  0  0  0  0  0
    6.7337   -0.9393    0.0000 H   0  0  0  0  0  0  0  0  0  0  0  0
    9.4875    0.1517    0.0000 H   0  0  0  0  0  0  0  0  0  0  0  0
    7.4613    0.7257    0.0000 H   0  0  0  0  0  0  0  0  0  0  0  0
    6.6643    0.7257    0.0000 H   0  0  0  0  0  0  0  0  0  0  0  0
    5.9847    0.3333    0.0000 H   0  0  0  0  0  0  0  0  0  0  0  0
    5.5862   -0.3569    0.0000 H   0  0  0  0  0  0  0  0  0  0  0  0
    8.6240   -2.1209    0.0000 H   0  0  0  0  0  0  0  0  0  0  0  0
    9.4124   -1.8632    0.0000 H   0  0  0  0  0  0  0  0  0  0  0  0
    9.9195   -1.1640    0.0000 H   0  0  0  0  0  0  0  0  0  0  0  0
    9.9195   -0.3345    0.0000 H   0  0  0  0  0  0  0  0  0  0  0  0
    7.2969   -3.3712    0.0000 H   0  0  0  0  0  0  0  0  0  0  0  0
    7.6880   -2.6753    0.0000 H   0  0  0  0  0  0  0  0  0  0  0  0
    8.5488    0.7507    0.0000 H   0  0  0  0  0  0  0  0  0  0  0  0
    7.9288    1.3707    0.0000 H   0  0  0  0  0  0  0  0  0  0  0  0
    7.3088    0.7507    0.0000 H   0  0  0  0  0  0  0  0  0  0  0  0
    4.7681   -0.7254    0.0000 H   0  0  0  0  0  0  0  0  0  0  0  0
    3.9700   -0.7100    0.0000 H   0  0  0  0  0  0  0  0  0  0  0  0
    6.1832   -3.9385    0.0000 H   0  0  0  0  0  0  0  0  0  0  0  0
    5.9145   -0.7609    0.0000 H   0  0  0  0  0  0  0  0  0  0  0  0
    5.2993   -0.1362    0.0000 H   0  0  0  0  0  0  0  0  0  0  0  0
    4.6745   -0.7514    0.0000 H   0  0  0  0  0  0  0  0  0  0  0  0
    3.9460   -3.8234    0.0000 H   0  0  0  0  0  0  0  0  0  0  0  0
    4.7443   -3.8203    0.0000 H   0  0  0  0  0  0  0  0  0  0  0  0
    3.2075   -1.1347    0.0000 H   0  0  0  0  0  0  0  0  0  0  0  0
    2.8004   -1.8214    0.0000 H   0  0  0  0  0  0  0  0  0  0  0  0
    2.8686   -2.4918    0.0000 H   0  0  0  0  0  0  0  0  0  0  0  0
   10.1848    0.5925    0.0000 H   0  0  0  0  0  0  0  0  0  0  0  0
   10.7780    1.1248    0.0000 H   0  0  0  0  0  0  0  0  0  0  0  0
    2.0000   -2.9895    0.0000 H   0  0  0  0  0  0  0  0  0  0  0  0
   12.6245    3.1645    0.0000 H   0  0  0  0  0  0  0  0  0  0  0  0
  1  4  1  0  0  0  0
  1  5  1  0  0  0  0
  1  6  2  0  0  0  0
  1  7  2  0  0  0  0
  2 25  2  0  0  0  0
 27  3  1  1  0  0  0
  3 59  1  0  0  0  0
  4 28  1  0  0  0  0
  5 60  1  0  0  0  0
  8  9  1  0  0  0  0
  8 13  1  0  0  0  0
  8 14  1  0  0  0  0
  8 20  1  0  0  0  0
  9 10  1  0  0  0  0
  9 16  1  0  0  0  0
  9 29  1  0  0  0  0
 10 11  1  0  0  0  0
 10 18  1  0  0  0  0
 10 30  1  0  0  0  0
 11 12  1  0  0  0  0
 11 15  1  0  0  0  0
 11 31  1  0  0  0  0
 12 19  1  0  0  0  0
 12 21  1  0  0  0  0
 12 23  1  0  0  0  0
 13 17  1  0  0  0  0
 13 25  1  0  0  0  0
 13 32  1  0  0  0  0
 14 15  1  0  0  0  0
 14 33  1  0  0  0  0
 14 34  1  0  0  0  0
 15 35  1  0  0  0  0
 15 36  1  0  0  0  0
 16 17  1  0  0  0  0
 16 37  1  0  0  0  0
 16 38  1  0  0  0  0
 17 39  1  0  0  0  0
 17 40  1  0  0  0  0
 18 22  1  0  0  0  0
 18 41  1  0  0  0  0
 18 42  1  0  0  0  0
 19 22  2  0  0  0  0
 19 24  1  0  0  0  0
 20 43  1  0  0  0  0
 20 44  1  0  0  0  0
 20 45  1  0  0  0  0
 21 26  1  0  0  0  0
 21 46  1  0  0  0  0
 21 47  1  0  0  0  0
 22 48  1  0  0  0  0
 23 49  1  0  0  0  0
 23 50  1  0  0  0  0
 23 51  1  0  0  0  0
 24 27  1  0  0  0  0
 24 52  1  0  0  0  0
 24 53  1  0  0  0  0
 25 28  1  0  0  0  0
 26 27  1  0  0  0  0
 26 54  1  0  0  0  0
 26 55  1  0  0  0  0
 27 56  1  0  0  0  0
 28 57  1  0  0  0  0
 28 58  1  0  0  0  0
M  END
> <PUBCHEM_COMPOUND_CID>
514134
> <PUBCHEM_COMPOUND_CANONICALIZED>
1
> <PUBCHEM_CACTVS_COMPLEXITY>
783
> <PUBCHEM_CACTVS_HBOND_ACCEPTOR>
6
> <PUBCHEM_CACTVS_HBOND_DONOR>
2
> <PUBCHEM_CACTVS_ROTATABLE_BOND>
4
> <PUBCHEM_CACTVS_SUBSKEYS>
AAADcfB4OABAAAAAAAAAAAAAAAAAAYAAAAAwYIAAAAAAAGCAAAAAGgAACAAADxSggAICAAAAAoCIAqBSADIAAAAgAAAACAFAAAgAEBIAAQAAQAAEwAAIAAOIyPCPgAAAAAAAAADAAAQAACAAAQAACAAAAA==
> <PUBCHEM_IUPAC_OPENEYE_NAME>
[2-[(3S)-3-hydroxy-10,13-dimethyl-2,3,4,7,8,9,11,12,14,15,16,17-dodecahydro-1H-cyclopenta[a]phenanthren-17-yl]-2-oxo-ethyl] hydrogen sulfate
> <PUBCHEM_IUPAC_CAS_NAME>
sulfuric acid [2-[(3S)-3-hydroxy-10,13-dimethyl-2,3,4,7,8,9,11,12,14,15,16,17-dodecahydro-1H-cyclopenta[a]phenanthren-17-yl]-2-oxoethyl] ester
> <PUBCHEM_IUPAC_NAME_MARKUP>
[2-[(3<I>S</I>)-3-hydroxy-10,13-dimethyl-2,3,4,7,8,9,11,12,14,15,16,17-dodecahydro-1<I>H</I>-cyclopenta[a]phenanthren-17-yl]-2-oxoethyl] hydrogen sulfate
> <PUBCHEM_IUPAC_NAME>
[2-[(3S)-3-hydroxy-10,13-dimethyl-2,3,4,7,8,9,11,12,14,15,16,17-dodecahydro-1H-cyclopenta[a]phenanthren-17-yl]-2-oxoethyl] hydrogen sulfate
> <PUBCHEM_IUPAC_SYSTEMATIC_NAME>
[2-[(3S)-10,13-dimethyl-3-oxidanyl-2,3,4,7,8,9,11,12,14,15,16,17-dodecahydro-1H-cyclopenta[a]phenanthren-17-yl]-2-oxidanylidene-ethyl] hydrogen sulfate
> <PUBCHEM_IUPAC_TRADITIONAL_NAME>
sulfuric acid [2-[(3S)-3-hydroxy-10,13-dimethyl-2,3,4,7,8,9,11,12,14,15,16,17-dodecahydro-1H-cyclopenta[a]phenanthren-17-yl]-2-keto-ethyl] ester
> <PUBCHEM_IUPAC_INCHI>
InChI=1S/C21H32O6S/c1-20-9-7-14(22)11-13(20)3-4-15-16-5-6-18(19(23)12-27-28(24,25)26)21(16,2)10-8-17(15)20/h3,14-18,22H,4-12H2,1-2H3,(H,24,25,26)/t14-,15?,16?,17?,18?,20?,21?/m0/s1
> <PUBCHEM_IUPAC_INCHIKEY>
YNTXPDSHGMGJJG-HFMUPVQQSA-N
> <PUBCHEM_XLOGP3>
3.2
> <PUBCHEM_EXACT_MASS>
412.19195991
> <PUBCHEM_MOLECULAR_FORMULA>
C21H32O6S
> <PUBCHEM_MOLECULAR_WEIGHT>
412.5
> <PUBCHEM_OPENEYE_CAN_SMILES>
CC12CCC3C(C1CCC2C(=O)COS(=O)(=O)O)CC=C4C3(CCC(C4)O)C
> <PUBCHEM_OPENEYE_ISO_SMILES>
CC12CCC3C(C1CCC2C(=O)COS(=O)(=O)O)CC=C4C3(CC[C@@H](C4)O)C
> <PUBCHEM_CACTVS_TPSA>
109
> <PUBCHEM_MONOISOTOPIC_WEIGHT>
412.19195991
> <PUBCHEM_TOTAL_CHARGE>
0
> <PUBCHEM_HEAVY_ATOM_COUNT>
28
> <PUBCHEM_ATOM_DEF_STEREO_COUNT>
1
> <PUBCHEM_ATOM_UDEF_STEREO_COUNT>
6
> <PUBCHEM_BOND_DEF_STEREO_COUNT>
0
> <PUBCHEM_BOND_UDEF_STEREO_COUNT>
0
> <PUBCHEM_ISOTOPIC_ATOM_COUNT>
0
> <PUBCHEM_COMPONENT_COUNT>
1
> <PUBCHEM_CACTVS_TAUTO_COUNT>
-1
> <PUBCHEM_COORDINATE_TYPE>
1
5
255
> <PUBCHEM_BONDANNOTATIONS>
10  18  3
11  15  3
12  23  3
13  25  3
27  3  5
8  20  3
9  16  3
$$$$
