514176
  -OEChem-10302200282D
100108  0     1  0  0  0  0  0999 V2000
    7.4343    0.7701    0.0000 O   0  0  0  0  0  0  0  0  0  0  0  0
    7.2007   -1.2323    0.0000 O   0  0  0  0  0  0  0  0  0  0  0  0
    9.8212   -1.0750    0.0000 O   0  0  0  0  0  0  0  0  0  0  0  0
    3.9772    0.1579    0.0000 O   0  0  0  0  0  0  0  0  0  0  0  0
    5.8707    2.0075    0.0000 O   0  0  0  0  0  0  0  0  0  0  0  0
    9.5516    2.8396    0.0000 O   0  0  0  0  0  0  0  0  0  0  0  0
    8.9317    0.5892    0.0000 O   0  0  0  0  0  0  0  0  0  0  0  0
    2.5381    3.1603    0.0000 O   0  0  0  0  0  0  0  0  0  0  0  0
   10.1009    4.0538    0.0000 O   0  0  0  0  0  0  0  0  0  0  0  0
    7.0390    5.5323    0.0000 O   0  0  0  0  0  0  0  0  0  0  0  0
    7.5771   -0.8620    0.0000 O   0  0  0  0  0  0  0  0  0  0  0  0
    9.0005    5.6848    0.0000 O   0  0  0  0  0  0  0  0  0  0  0  0
   11.2962   -0.8822    0.0000 O   0  0  0  0  0  0  0  0  0  0  0  0
   10.8061   -3.6625    0.0000 O   0  0  0  0  0  0  0  0  0  0  0  0
    7.5970   -4.9669    0.0000 O   0  0  0  0  0  0  0  0  0  0  0  0
    9.5781   -5.2411    0.0000 O   0  0  0  0  0  0  0  0  0  0  0  0
   11.5042    3.4506    0.0000 O   0  0  0  0  0  0  0  0  0  0  0  0
   12.9220    2.0280    0.0000 O   0  0  0  0  0  0  0  0  0  0  0  0
    3.5227   -0.6970    0.0000 O   0  0  0  0  0  0  0  0  0  0  0  0
    5.7491   -3.3510    0.0000 O   0  0  0  0  0  0  0  0  0  0  0  0
    3.9931   -2.7900    0.0000 O   0  0  0  0  0  0  0  0  0  0  0  0
    6.0682    1.1362    0.0000 C   0  0  3  0  0  0  0  0  0  0  0  0
    6.9343    1.6362    0.0000 C   0  0  3  0  0  0  0  0  0  0  0  0
    6.9343    2.6362    0.0000 C   0  0  2  0  0  0  0  0  0  0  0  0
    6.0682    3.1362    0.0000 C   0  0  0  0  0  0  0  0  0  0  0  0
    5.2022    1.6362    0.0000 C   0  0  0  0  0  0  0  0  0  0  0  0
    5.2022    2.6362    0.0000 C   0  0  0  0  0  0  0  0  0  0  0  0
    6.1154    0.2149    0.0000 C   0  0  0  0  0  0  0  0  0  0  0  0
    7.7556    3.0560    0.0000 C   0  0  0  0  0  0  0  0  0  0  0  0
    6.5133   -0.6172    0.0000 C   0  0  0  0  0  0  0  0  0  0  0  0
    4.3083    1.1015    0.0000 C   0  0  0  0  0  0  0  0  0  0  0  0
    7.4713   -0.3418    0.0000 C   0  0  0  0  0  0  0  0  0  0  0  0
    6.3940    1.1553    0.0000 C   0  0  0  0  0  0  0  0  0  0  0  0
    4.3083    3.1708    0.0000 C   0  0  0  0  0  0  0  0  0  0  0  0
    8.4127   -0.6695    0.0000 C   0  0  0  0  0  0  0  0  0  0  0  0
    8.9926   -1.4803    0.0000 C   0  0  2  0  0  0  0  0  0  0  0  0
    8.0718   -1.5355    0.0000 C   0  0  1  0  0  0  0  0  0  0  0  0
    8.6753    3.1274    0.0000 C   0  0  0  0  0  0  0  0  0  0  0  0
    7.2000    3.8398    0.0000 C   0  0  0  0  0  0  0  0  0  0  0  0
    7.9339    0.5230    0.0000 C   0  0  0  0  0  0  0  0  0  0  0  0
    3.4022    1.6153    0.0000 C   0  0  0  0  0  0  0  0  0  0  0  0
    3.4022    2.6570    0.0000 C   0  0  0  0  0  0  0  0  0  0  0  0
    7.3611    1.3192    0.0000 C   0  0  0  0  0  0  0  0  0  0  0  0
    8.4484   -2.4619    0.0000 C   0  0  0  0  0  0  0  0  0  0  0  0
    6.9343   -0.0959    0.0000 C   0  0  0  0  0  0  0  0  0  0  0  0
    9.1030    3.9878    0.0000 C   0  0  0  0  0  0  0  0  0  0  0  0
    7.6078    4.7098    0.0000 C   0  0  0  0  0  0  0  0  0  0  0  0
    8.5657    4.7843    0.0000 C   0  0  0  0  0  0  0  0  0  0  0  0
    6.1682   -0.7386    0.0000 C   0  0  0  0  0  0  0  0  0  0  0  0
    7.8344   -3.2512    0.0000 C   0  0  0  0  0  0  0  0  0  0  0  0
    9.4390   -2.5990    0.0000 C   0  0  0  0  0  0  0  0  0  0  0  0
   10.4302   -0.3822    0.0000 C   0  0  0  0  0  0  0  0  0  0  0  0
   10.2498    2.2368    0.0000 C   0  0  0  0  0  0  0  0  0  0  0  0
   10.7257    0.4916    0.0000 C   0  0  0  0  0  0  0  0  0  0  0  0
    9.8155   -3.5254    0.0000 C   0  0  0  0  0  0  0  0  0  0  0  0
    8.2110   -4.1776    0.0000 C   0  0  0  0  0  0  0  0  0  0  0  0
   10.6623    1.4118    0.0000 C   0  0  0  0  0  0  0  0  0  0  0  0
    6.3417   -1.7234    0.0000 C   0  0  0  0  0  0  0  0  0  0  0  0
    5.2286   -0.3965    0.0000 C   0  0  0  0  0  0  0  0  0  0  0  0
    9.2015   -4.3147    0.0000 C   0  0  0  0  0  0  0  0  0  0  0  0
   11.2378    2.4868    0.0000 C   0  0  0  0  0  0  0  0  0  0  0  0
   11.7038    0.7778    0.0000 C   0  0  0  0  0  0  0  0  0  0  0  0
   11.9572    1.7649    0.0000 C   0  0  0  0  0  0  0  0  0  0  0  0
    4.4624   -1.0391    0.0000 C   0  0  0  0  0  0  0  0  0  0  0  0
    5.5757   -2.3662    0.0000 C   0  0  0  0  0  0  0  0  0  0  0  0
    4.6360   -2.0240    0.0000 C   0  0  0  0  0  0  0  0  0  0  0  0
    5.5394    0.8125    0.0000 H   0  0  0  0  0  0  0  0  0  0  0  0
    7.5332    1.7966    0.0000 H   0  0  0  0  0  0  0  0  0  0  0  0
    6.9343    3.4862    0.0000 H   0  0  0  0  0  0  0  0  0  0  0  0
    6.4668    3.6111    0.0000 H   0  0  0  0  0  0  0  0  0  0  0  0
    5.6697    3.6111    0.0000 H   0  0  0  0  0  0  0  0  0  0  0  0
    4.3154    3.7908    0.0000 H   0  0  0  0  0  0  0  0  0  0  0  0
    9.0046   -0.4850    0.0000 H   0  0  0  0  0  0  0  0  0  0  0  0
    8.0412   -1.1659    0.0000 H   0  0  0  0  0  0  0  0  0  0  0  0
    9.4871   -2.1716    0.0000 H   0  0  0  0  0  0  0  0  0  0  0  0
    7.6912   -2.0249    0.0000 H   0  0  0  0  0  0  0  0  0  0  0  0
    6.5825    3.7846    0.0000 H   0  0  0  0  0  0  0  0  0  0  0  0
    2.8665    1.3033    0.0000 H   0  0  0  0  0  0  0  0  0  0  0  0
    7.5966    1.8927    0.0000 H   0  0  0  0  0  0  0  0  0  0  0  0
    3.3679    0.0431    0.0000 H   0  0  0  0  0  0  0  0  0  0  0  0
    6.2562    2.4931    0.0000 H   0  0  0  0  0  0  0  0  0  0  0  0
    7.2202   -3.1662    0.0000 H   0  0  0  0  0  0  0  0  0  0  0  0
    9.8196   -2.1096    0.0000 H   0  0  0  0  0  0  0  0  0  0  0  0
    9.2766    0.0740    0.0000 H   0  0  0  0  0  0  0  0  0  0  0  0
    2.0000    2.8524    0.0000 H   0  0  0  0  0  0  0  0  0  0  0  0
   10.4456    3.5384    0.0000 H   0  0  0  0  0  0  0  0  0  0  0  0
    6.4210    5.4818    0.0000 H   0  0  0  0  0  0  0  0  0  0  0  0
   11.2605    1.5749    0.0000 H   0  0  0  0  0  0  0  0  0  0  0  0
    6.9243   -1.9355    0.0000 H   0  0  0  0  0  0  0  0  0  0  0  0
    5.1210    0.2141    0.0000 H   0  0  0  0  0  0  0  0  0  0  0  0
    9.6189    5.7305    0.0000 H   0  0  0  0  0  0  0  0  0  0  0  0
   12.1495    0.3467    0.0000 H   0  0  0  0  0  0  0  0  0  0  0  0
   11.0395   -4.2368    0.0000 H   0  0  0  0  0  0  0  0  0  0  0  0
    6.9828   -4.8819    0.0000 H   0  0  0  0  0  0  0  0  0  0  0  0
    9.1974   -5.7305    0.0000 H   0  0  0  0  0  0  0  0  0  0  0  0
   12.1043    3.6064    0.0000 H   0  0  0  0  0  0  0  0  0  0  0  0
   13.3623    1.5915    0.0000 H   0  0  0  0  0  0  0  0  0  0  0  0
    3.0477   -1.0955    0.0000 H   0  0  0  0  0  0  0  0  0  0  0  0
    5.2742   -3.7494    0.0000 H   0  0  0  0  0  0  0  0  0  0  0  0
    3.3825   -2.6822    0.0000 H   0  0  0  0  0  0  0  0  0  0  0  0
  1 23  1  0  0  0  0
  1 45  1  0  0  0  0
  2 30  1  0  0  0  0
  2 37  1  0  0  0  0
  3 36  1  0  0  0  0
  3 52  1  0  0  0  0
  4 31  1  0  0  0  0
  4 80  1  0  0  0  0
  5 33  1  0  0  0  0
  5 81  1  0  0  0  0
  6 38  1  0  0  0  0
  6 53  1  0  0  0  0
  7 40  1  0  0  0  0
  7 84  1  0  0  0  0
  8 42  1  0  0  0  0
  8 85  1  0  0  0  0
  9 46  1  0  0  0  0
  9 86  1  0  0  0  0
 10 47  1  0  0  0  0
 10 87  1  0  0  0  0
 11 45  2  0  0  0  0
 12 48  1  0  0  0  0
 12 91  1  0  0  0  0
 13 52  2  0  0  0  0
 14 55  1  0  0  0  0
 14 93  1  0  0  0  0
 15 56  1  0  0  0  0
 15 94  1  0  0  0  0
 16 60  1  0  0  0  0
 16 95  1  0  0  0  0
 17 61  1  0  0  0  0
 17 96  1  0  0  0  0
 18 63  1  0  0  0  0
 18 97  1  0  0  0  0
 19 64  1  0  0  0  0
 19 98  1  0  0  0  0
 20 65  1  0  0  0  0
 20 99  1  0  0  0  0
 21 66  1  0  0  0  0
 21100  1  0  0  0  0
 22 23  1  0  0  0  0
 22 26  1  0  0  0  0
 22 28  1  0  0  0  0
 22 67  1  0  0  0  0
 23 24  1  0  0  0  0
 23 68  1  0  0  0  0
 24 25  1  0  0  0  0
 24 29  1  0  0  0  0
 24 69  1  1  0  0  0
 25 27  1  0  0  0  0
 25 70  1  0  0  0  0
 25 71  1  0  0  0  0
 26 27  2  0  0  0  0
 26 31  1  0  0  0  0
 27 34  1  0  0  0  0
 28 30  1  0  0  0  0
 28 33  2  0  0  0  0
 29 38  1  0  0  0  0
 29 39  2  0  0  0  0
 30 32  2  0  0  0  0
 31 41  2  0  0  0  0
 32 35  1  0  0  0  0
 32 40  1  0  0  0  0
 33 43  1  0  0  0  0
 34 42  2  0  0  0  0
 34 72  1  0  0  0  0
 35 36  1  0  0  0  0
 35 73  1  0  0  0  0
 35 74  1  0  0  0  0
 36 37  1  0  0  0  0
 36 75  1  6  0  0  0
 37 44  1  1  0  0  0
 37 76  1  0  0  0  0
 38 46  2  0  0  0  0
 39 47  1  0  0  0  0
 39 77  1  0  0  0  0
 40 43  2  0  0  0  0
 41 42  1  0  0  0  0
 41 78  1  0  0  0  0
 43 79  1  0  0  0  0
 44 50  2  0  0  0  0
 44 51  1  0  0  0  0
 45 49  1  0  0  0  0
 46 48  1  0  0  0  0
 47 48  2  0  0  0  0
 49 58  2  0  0  0  0
 49 59  1  0  0  0  0
 50 56  1  0  0  0  0
 50 82  1  0  0  0  0
 51 55  2  0  0  0  0
 51 83  1  0  0  0  0
 52 54  1  0  0  0  0
 53 57  2  0  0  0  0
 53 61  1  0  0  0  0
 54 57  1  0  0  0  0
 54 62  2  0  0  0  0
 55 60  1  0  0  0  0
 56 60  2  0  0  0  0
 57 88  1  0  0  0  0
 58 65  1  0  0  0  0
 58 89  1  0  0  0  0
 59 64  2  0  0  0  0
 59 90  1  0  0  0  0
 61 63  2  0  0  0  0
 62 63  1  0  0  0  0
 62 92  1  0  0  0  0
 64 66  1  0  0  0  0
 65 66  2  0  0  0  0
M  END
> <PUBCHEM_COMPOUND_CID>
514176
> <PUBCHEM_COMPOUND_CANONICALIZED>
1
> <PUBCHEM_CACTVS_COMPLEXITY>
1700
> <PUBCHEM_CACTVS_HBOND_ACCEPTOR>
21
> <PUBCHEM_CACTVS_HBOND_DONOR>
15
> <PUBCHEM_CACTVS_ROTATABLE_BOND>
4
> <PUBCHEM_CACTVS_SUBSKEYS>
AAADcfB8PgAAAAAAAAAAAAAAAAAAAAAAAAA0YMGDAAAAAADBVAAAGgAACAAADRSgmAIwDoAABgCIAiDSCAACCAAkIAAAiAEGiMgNJzKGNRqCeSOlwBULuYfK7PzOoQADCAAYQADCAAYQADCAAAAAAAAAAA==
> <PUBCHEM_IUPAC_OPENEYE_NAME>
[(9R,10R,25R)-3,5,15,16,20,21,22,29,31-nonahydroxy-12-oxo-9-(3,4,5-trihydroxyphenyl)-8,11,18-trioxaheptacyclo[23.7.1.16,10.113,17.02,7.019,24.027,32]pentatriaconta-2,4,6,13,15,17(34),19,21,23,27(32),28,30-dodecaen-33-yl] 3,4,5-trihydroxybenzoate
> <PUBCHEM_IUPAC_CAS_NAME>
3,4,5-trihydroxybenzoic acid [(9R,10R,25R)-3,5,15,16,20,21,22,29,31-nonahydroxy-12-oxo-9-(3,4,5-trihydroxyphenyl)-8,11,18-trioxaheptacyclo[23.7.1.16,10.113,17.02,7.019,24.027,32]pentatriaconta-2,4,6,13,15,17(34),19,21,23,27(32),28,30-dodecaen-33-yl] ester
> <PUBCHEM_IUPAC_NAME_MARKUP>
[(9<I>R</I>,10<I>R</I>,25<I>R</I>)-3,5,15,16,20,21,22,29,31-nonahydroxy-12-oxo-9-(3,4,5-trihydroxyphenyl)-8,11,18-trioxaheptacyclo[23.7.1.1<SUP>6,10</SUP>.1<SUP>13,17</SUP>.0<SUP>2,7</SUP>.0<SUP>19,24</SUP>.0<SUP>27,32</SUP>]pentatriaconta-2,4,6,13,15,17(34),19,21,23,27(32),28,30-dodecaen-33-yl] 3,4,5-trihydroxybenzoate
> <PUBCHEM_IUPAC_NAME>
[(9R,10R,25R)-3,5,15,16,20,21,22,29,31-nonahydroxy-12-oxo-9-(3,4,5-trihydroxyphenyl)-8,11,18-trioxaheptacyclo[23.7.1.16,10.113,17.02,7.019,24.027,32]pentatriaconta-2,4,6,13,15,17(34),19,21,23,27(32),28,30-dodecaen-33-yl] 3,4,5-trihydroxybenzoate
> <PUBCHEM_IUPAC_SYSTEMATIC_NAME>
[(9R,10R,25R)-3,5,15,16,20,21,22,29,31-nonakis(oxidanyl)-12-oxidanylidene-9-[3,4,5-tris(oxidanyl)phenyl]-8,11,18-trioxaheptacyclo[23.7.1.16,10.113,17.02,7.019,24.027,32]pentatriaconta-2,4,6,13,15,17(34),19,21,23,27(32),28,30-dodecaen-33-yl] 3,4,5-tris(oxidanyl)benzoate
> <PUBCHEM_IUPAC_TRADITIONAL_NAME>
3,4,5-trihydroxybenzoic acid [(9R,10R,25R)-3,5,15,16,20,21,22,29,31-nonahydroxy-12-keto-9-(3,4,5-trihydroxyphenyl)-8,11,18-trioxaheptacyclo[23.7.1.16,10.113,17.02,7.019,24.027,32]pentatriaconta-2,4,6,13,15,17(34),19,21,23,27(32),28,30-dodecaen-33-yl] ester
> <PUBCHEM_IUPAC_INCHI>
InChI=1S/C45H34O21/c46-17-1-13-2-18-19-10-29(55)38(59)39(60)43(19)63-30-8-16(7-28(54)37(30)58)44(61)64-31-11-20-21(47)12-23(49)33(42(20)65-40(31)14-3-24(50)35(56)25(51)4-14)34(32(13)22(48)9-17)41(18)66-45(62)15-5-26(52)36(57)27(53)6-15/h1,3-10,12,18,31,34,40-41,46-60H,2,11H2/t18-,31-,34?,40-,41?/m1/s1
> <PUBCHEM_IUPAC_INCHIKEY>
JBSXOWFVTYNENM-WCMIFDFCSA-N
> <PUBCHEM_XLOGP3_AA>
4.5
> <PUBCHEM_EXACT_MASS>
910.15925809
> <PUBCHEM_MOLECULAR_FORMULA>
C45H34O21
> <PUBCHEM_MOLECULAR_WEIGHT>
910.7
> <PUBCHEM_OPENEYE_CAN_SMILES>
C1C2C(C(C3=C1C=C(C=C3O)O)C4=C(C=C(C5=C4OC(C(C5)OC(=O)C6=CC(=C(C(=C6)OC7=C(C(=C(C=C27)O)O)O)O)O)C8=CC(=C(C(=C8)O)O)O)O)O)OC(=O)C9=CC(=C(C(=C9)O)O)O
> <PUBCHEM_OPENEYE_ISO_SMILES>
C1[C@@H]2[C@H](OC3=C1C(=CC(=C3C4C([C@H](CC5=C4C(=CC(=C5)O)O)C6=CC(=C(C(=C6OC7=CC(=CC(=C7O)O)C(=O)O2)O)O)O)OC(=O)C8=CC(=C(C(=C8)O)O)O)O)O)C9=CC(=C(C(=C9)O)O)O
> <PUBCHEM_CACTVS_TPSA>
375
> <PUBCHEM_MONOISOTOPIC_WEIGHT>
910.15925809
> <PUBCHEM_TOTAL_CHARGE>
0
> <PUBCHEM_HEAVY_ATOM_COUNT>
66
> <PUBCHEM_ATOM_DEF_STEREO_COUNT>
3
> <PUBCHEM_ATOM_UDEF_STEREO_COUNT>
2
> <PUBCHEM_BOND_DEF_STEREO_COUNT>
0
> <PUBCHEM_BOND_UDEF_STEREO_COUNT>
0
> <PUBCHEM_ISOTOPIC_ATOM_COUNT>
0
> <PUBCHEM_COMPONENT_COUNT>
1
> <PUBCHEM_CACTVS_TAUTO_COUNT>
-1
> <PUBCHEM_COORDINATE_TYPE>
1
5
255
> <PUBCHEM_BONDANNOTATIONS>
23  1  3
22  26  3
24  69  5
26  27  8
26  31  8
27  34  8
28  30  8
28  33  8
29  38  8
29  39  8
30  32  8
31  41  8
32  40  8
33  43  8
34  42  8
36  75  6
37  44  5
38  46  8
39  47  8
40  43  8
41  42  8
44  50  8
44  51  8
46  48  8
47  48  8
49  58  8
49  59  8
50  56  8
51  55  8
53  57  8
53  61  8
54  57  8
54  62  8
55  60  8
56  60  8
58  65  8
59  64  8
61  63  8
62  63  8
64  66  8
65  66  8
$$$$
