514156
  -OEChem-10302200282D
 54 55  0     1  0  0  0  0  0999 V2000
    6.8671   -1.7883    0.0000 S   0  0  0  0  0  0  0  0  0  0  0  0
    5.1350    1.2117    0.0000 S   0  0  0  0  0  0  0  0  0  0  0  0
   11.5683    4.2804    0.0000 O   0  0  0  0  0  0  0  0  0  0  0  0
    6.8671   -3.7883    0.0000 O   0  0  0  0  0  0  0  0  0  0  0  0
    3.4030    2.2117    0.0000 O   0  0  0  0  0  0  0  0  0  0  0  0
    8.6793    1.0164    0.0000 N   0  0  0  0  0  0  0  0  0  0  0  0
    8.6793   -0.5930    0.0000 N   0  0  0  0  0  0  0  0  0  0  0  0
    6.8671    1.2117    0.0000 N   0  0  0  0  0  0  0  0  0  0  0  0
    6.0010   -0.2883    0.0000 N   0  0  0  0  0  0  0  0  0  0  0  0
    5.1350   -3.7883    0.0000 N   0  0  0  0  0  0  0  0  0  0  0  0
    2.5369    0.7117    0.0000 N   0  0  0  0  0  0  0  0  0  0  0  0
    8.9900    1.9670    0.0000 C   0  0  0  0  0  0  0  0  0  0  0  0
    9.9685    2.1732    0.0000 C   0  0  0  0  0  0  0  0  0  0  0  0
    7.7331    0.7117    0.0000 C   0  0  0  0  0  0  0  0  0  0  0  0
   10.2791    3.1237    0.0000 C   0  0  0  0  0  0  0  0  0  0  0  0
    7.7331   -0.2883    0.0000 C   0  0  0  0  0  0  0  0  0  0  0  0
    9.2629    0.2117    0.0000 C   0  0  0  0  0  0  0  0  0  0  0  0
    6.8671   -0.7883    0.0000 C   0  0  0  0  0  0  0  0  0  0  0  0
    6.0010   -2.2883    0.0000 C   0  0  3  0  0  0  0  0  0  0  0  0
   11.2576    3.3299    0.0000 C   0  0  0  0  0  0  0  0  0  0  0  0
    6.0010    0.7117    0.0000 C   0  0  0  0  0  0  0  0  0  0  0  0
    4.2690    0.7117    0.0000 C   0  0  3  0  0  0  0  0  0  0  0  0
    5.1350   -1.7883    0.0000 C   0  0  0  0  0  0  0  0  0  0  0  0
    4.2690   -0.2883    0.0000 C   0  0  0  0  0  0  0  0  0  0  0  0
    6.0010   -3.2883    0.0000 C   0  0  0  0  0  0  0  0  0  0  0  0
    4.2690   -2.2883    0.0000 C   0  0  0  0  0  0  0  0  0  0  0  0
    3.4030   -0.7883    0.0000 C   0  0  0  0  0  0  0  0  0  0  0  0
    3.4030    1.2117    0.0000 C   0  0  0  0  0  0  0  0  0  0  0  0
    8.9694    2.5866    0.0000 H   0  0  0  0  0  0  0  0  0  0  0  0
    8.3762    2.0543    0.0000 H   0  0  0  0  0  0  0  0  0  0  0  0
    9.9890    1.5535    0.0000 H   0  0  0  0  0  0  0  0  0  0  0  0
   10.5823    2.0858    0.0000 H   0  0  0  0  0  0  0  0  0  0  0  0
   10.2586    3.7434    0.0000 H   0  0  0  0  0  0  0  0  0  0  0  0
    9.6653    3.2110    0.0000 H   0  0  0  0  0  0  0  0  0  0  0  0
    9.8829    0.2117    0.0000 H   0  0  0  0  0  0  0  0  0  0  0  0
    6.5380   -2.5983    0.0000 H   0  0  0  0  0  0  0  0  0  0  0  0
   11.2782    2.7103    0.0000 H   0  0  0  0  0  0  0  0  0  0  0  0
   11.8715    3.2426    0.0000 H   0  0  0  0  0  0  0  0  0  0  0  0
    4.2690    1.3317    0.0000 H   0  0  0  0  0  0  0  0  0  0  0  0
    5.5335   -1.3134    0.0000 H   0  0  0  0  0  0  0  0  0  0  0  0
    4.7365   -1.3134    0.0000 H   0  0  0  0  0  0  0  0  0  0  0  0
    4.4810   -0.8709    0.0000 H   0  0  0  0  0  0  0  0  0  0  0  0
    4.8796   -0.1806    0.0000 H   0  0  0  0  0  0  0  0  0  0  0  0
    3.9590   -1.7514    0.0000 H   0  0  0  0  0  0  0  0  0  0  0  0
    3.7320   -2.5983    0.0000 H   0  0  0  0  0  0  0  0  0  0  0  0
    4.5790   -2.8252    0.0000 H   0  0  0  0  0  0  0  0  0  0  0  0
    3.0930   -0.2514    0.0000 H   0  0  0  0  0  0  0  0  0  0  0  0
    2.8660   -1.0983    0.0000 H   0  0  0  0  0  0  0  0  0  0  0  0
    3.7130   -1.3252    0.0000 H   0  0  0  0  0  0  0  0  0  0  0  0
   12.1750    4.4083    0.0000 H   0  0  0  0  0  0  0  0  0  0  0  0
    5.1350   -4.4083    0.0000 H   0  0  0  0  0  0  0  0  0  0  0  0
    4.5981   -3.4783    0.0000 H   0  0  0  0  0  0  0  0  0  0  0  0
    2.0000    1.0217    0.0000 H   0  0  0  0  0  0  0  0  0  0  0  0
    2.5369    0.0917    0.0000 H   0  0  0  0  0  0  0  0  0  0  0  0
  1 18  1  0  0  0  0
  1 19  1  0  0  0  0
  2 21  1  0  0  0  0
  2 22  1  0  0  0  0
  3 20  1  0  0  0  0
  3 50  1  0  0  0  0
  4 25  2  0  0  0  0
  5 28  2  0  0  0  0
  6 12  1  0  0  0  0
  6 14  1  0  0  0  0
  6 17  1  0  0  0  0
  7 16  1  0  0  0  0
  7 17  2  0  0  0  0
  8 14  1  0  0  0  0
  8 21  2  0  0  0  0
  9 18  2  0  0  0  0
  9 21  1  0  0  0  0
 10 25  1  0  0  0  0
 10 51  1  0  0  0  0
 10 52  1  0  0  0  0
 11 28  1  0  0  0  0
 11 53  1  0  0  0  0
 11 54  1  0  0  0  0
 12 13  1  0  0  0  0
 12 29  1  0  0  0  0
 12 30  1  0  0  0  0
 13 15  1  0  0  0  0
 13 31  1  0  0  0  0
 13 32  1  0  0  0  0
 14 16  2  0  0  0  0
 15 20  1  0  0  0  0
 15 33  1  0  0  0  0
 15 34  1  0  0  0  0
 16 18  1  0  0  0  0
 17 35  1  0  0  0  0
 19 23  1  0  0  0  0
 19 25  1  0  0  0  0
 19 36  1  0  0  0  0
 20 37  1  0  0  0  0
 20 38  1  0  0  0  0
 22 24  1  0  0  0  0
 22 28  1  0  0  0  0
 22 39  1  0  0  0  0
 23 26  1  0  0  0  0
 23 40  1  0  0  0  0
 23 41  1  0  0  0  0
 24 27  1  0  0  0  0
 24 42  1  0  0  0  0
 24 43  1  0  0  0  0
 26 44  1  0  0  0  0
 26 45  1  0  0  0  0
 26 46  1  0  0  0  0
 27 47  1  0  0  0  0
 27 48  1  0  0  0  0
 27 49  1  0  0  0  0
M  END
> <PUBCHEM_COMPOUND_CID>
514156
> <PUBCHEM_COMPOUND_CANONICALIZED>
1
> <PUBCHEM_CACTVS_COMPLEXITY>
529
> <PUBCHEM_CACTVS_HBOND_ACCEPTOR>
8
> <PUBCHEM_CACTVS_HBOND_DONOR>
3
> <PUBCHEM_CACTVS_ROTATABLE_BOND>
12
> <PUBCHEM_CACTVS_SUBSKEYS>
AAADceB7sABgAAAAAAAAAAAAAAAAAWAAAAAsAAAAAAAAAFgB+AAAHgQQCAAACAjl1waH8b9MEgioAQdxdACA0C1RGLABUDUoVBCAWBBgyEAURAwMEALgACAgAAAAAAAAAAAAAAAAAAAAAAAAAAAAAAAAAA==
> <PUBCHEM_IUPAC_OPENEYE_NAME>
2-[2-(1-carbamoylpropylsulfanyl)-9-(4-hydroxybutyl)purin-6-yl]sulfanylbutanamide
> <PUBCHEM_IUPAC_CAS_NAME>
2-[[2-[(1-amino-1-oxobutan-2-yl)thio]-9-(4-hydroxybutyl)-6-purinyl]thio]butanamide
> <PUBCHEM_IUPAC_NAME_MARKUP>
2-[2-(1-amino-1-oxobutan-2-yl)sulfanyl-9-(4-hydroxybutyl)purin-6-yl]sulfanylbutanamide
> <PUBCHEM_IUPAC_NAME>
2-[2-(1-amino-1-oxobutan-2-yl)sulfanyl-9-(4-hydroxybutyl)purin-6-yl]sulfanylbutanamide
> <PUBCHEM_IUPAC_SYSTEMATIC_NAME>
2-[2-(1-azanyl-1-oxidanylidene-butan-2-yl)sulfanyl-9-(4-oxidanylbutyl)purin-6-yl]sulfanylbutanamide
> <PUBCHEM_IUPAC_TRADITIONAL_NAME>
2-[[2-(1-carbamoylpropylthio)-9-(4-hydroxybutyl)purin-6-yl]thio]butyramide
> <PUBCHEM_IUPAC_INCHI>
InChI=1S/C17H26N6O3S2/c1-3-10(13(18)25)27-16-12-15(23(9-20-12)7-5-6-8-24)21-17(22-16)28-11(4-2)14(19)26/h9-11,24H,3-8H2,1-2H3,(H2,18,25)(H2,19,26)
> <PUBCHEM_IUPAC_INCHIKEY>
UMANAPXRGFOEOA-UHFFFAOYSA-N
> <PUBCHEM_XLOGP3_AA>
1.5
> <PUBCHEM_EXACT_MASS>
426.15078106
> <PUBCHEM_MOLECULAR_FORMULA>
C17H26N6O3S2
> <PUBCHEM_MOLECULAR_WEIGHT>
426.6
> <PUBCHEM_OPENEYE_CAN_SMILES>
CCC(C(=O)N)SC1=NC(=NC2=C1N=CN2CCCCO)SC(CC)C(=O)N
> <PUBCHEM_OPENEYE_ISO_SMILES>
CCC(C(=O)N)SC1=NC(=NC2=C1N=CN2CCCCO)SC(CC)C(=O)N
> <PUBCHEM_CACTVS_TPSA>
201
> <PUBCHEM_MONOISOTOPIC_WEIGHT>
426.15078106
> <PUBCHEM_TOTAL_CHARGE>
0
> <PUBCHEM_HEAVY_ATOM_COUNT>
28
> <PUBCHEM_ATOM_DEF_STEREO_COUNT>
0
> <PUBCHEM_ATOM_UDEF_STEREO_COUNT>
2
> <PUBCHEM_BOND_DEF_STEREO_COUNT>
0
> <PUBCHEM_BOND_UDEF_STEREO_COUNT>
0
> <PUBCHEM_ISOTOPIC_ATOM_COUNT>
0
> <PUBCHEM_COMPONENT_COUNT>
1
> <PUBCHEM_CACTVS_TAUTO_COUNT>
-1
> <PUBCHEM_COORDINATE_TYPE>
1
5
255
> <PUBCHEM_BONDANNOTATIONS>
14  16  8
16  18  8
19  23  3
22  24  3
6  14  8
6  17  8
7  16  8
7  17  8
8  14  8
8  21  8
9  18  8
9  21  8
$$$$
