514180
  -OEChem-10302200282D
 92100  0     1  0  0  0  0  0999 V2000
    7.5699   -1.4668    0.0000 O   0  0  0  0  0  0  0  0  0  0  0  0
    7.0843   -1.3642    0.0000 O   0  0  0  0  0  0  0  0  0  0  0  0
    8.2960    1.3546    0.0000 O   0  0  0  0  0  0  0  0  0  0  0  0
   10.0944    0.2722    0.0000 O   0  0  0  0  0  0  0  0  0  0  0  0
    9.7500   -1.4412    0.0000 O   0  0  0  0  0  0  0  0  0  0  0  0
    4.6912    0.3887    0.0000 O   0  0  0  0  0  0  0  0  0  0  0  0
   10.6287   -4.2974    0.0000 O   0  0  0  0  0  0  0  0  0  0  0  0
    6.6394   -2.9659    0.0000 O   0  0  0  0  0  0  0  0  0  0  0  0
   11.7335   -0.7403    0.0000 O   0  0  0  0  0  0  0  0  0  0  0  0
    8.9032    2.8206    0.0000 O   0  0  0  0  0  0  0  0  0  0  0  0
   11.3595   -1.7470    0.0000 O   0  0  0  0  0  0  0  0  0  0  0  0
    3.4323    1.3546    0.0000 O   0  0  0  0  0  0  0  0  0  0  0  0
    9.2644   -5.9537    0.0000 O   0  0  0  0  0  0  0  0  0  0  0  0
   12.7607   -4.0530    0.0000 O   0  0  0  0  0  0  0  0  0  0  0  0
    7.1712   -5.5708    0.0000 O   0  0  0  0  0  0  0  0  0  0  0  0
   13.5774   -2.0881    0.0000 O   0  0  0  0  0  0  0  0  0  0  0  0
    5.1680    4.7004    0.0000 O   0  0  0  0  0  0  0  0  0  0  0  0
    5.7272    4.8503    0.0000 O   0  0  0  0  0  0  0  0  0  0  0  0
    8.5259    5.4653    0.0000 O   0  0  0  0  0  0  0  0  0  0  0  0
    6.5474    5.9955    0.0000 O   0  0  0  0  0  0  0  0  0  0  0  0
    3.8851    5.2821    0.0000 O   0  0  0  0  0  0  0  0  0  0  0  0
    2.4367    3.8337    0.0000 O   0  0  0  0  0  0  0  0  0  0  0  0
   13.8204    0.3918    0.0000 O   0  0  0  0  0  0  0  0  0  0  0  0
   11.0093    2.4161    0.0000 O   0  0  0  0  0  0  0  0  0  0  0  0
   12.9992    2.2154    0.0000 O   0  0  0  0  0  0  0  0  0  0  0  0
    8.0372    0.3887    0.0000 C   0  0  1  0  0  0  0  0  0  0  0  0
    7.3301   -0.3184    0.0000 C   0  0  1  0  0  0  0  0  0  0  0  0
    9.0830    0.6345    0.0000 C   0  0  2  0  0  0  0  0  0  0  0  0
    6.3642   -0.5772    0.0000 C   0  0  1  0  0  0  0  0  0  0  0  0
    8.9385   -0.8568    0.0000 C   0  0  1  0  0  0  0  0  0  0  0  0
    5.3982   -0.3184    0.0000 C   0  0  0  0  0  0  0  0  0  0  0  0
    7.4466   -2.3756    0.0000 C   0  0  0  0  0  0  0  0  0  0  0  0
   10.7462   -0.5818    0.0000 C   0  0  0  0  0  0  0  0  0  0  0  0
    8.0372    2.3206    0.0000 C   0  0  0  0  0  0  0  0  0  0  0  0
    8.3006   -3.0274    0.0000 C   0  0  0  0  0  0  0  0  0  0  0  0
    9.3718   -3.1100    0.0000 C   0  0  0  0  0  0  0  0  0  0  0  0
   10.3157   -2.5968    0.0000 C   0  0  0  0  0  0  0  0  0  0  0  0
   10.8288   -1.6530    0.0000 C   0  0  0  0  0  0  0  0  0  0  0  0
    7.3301    3.0277    0.0000 C   0  0  0  0  0  0  0  0  0  0  0  0
    9.5697   -4.1594    0.0000 C   0  0  0  0  0  0  0  0  0  0  0  0
   10.6618   -1.0306    0.0000 C   0  0  0  0  0  0  0  0  0  0  0  0
   11.0888   -3.3336    0.0000 C   0  0  0  0  0  0  0  0  0  0  0  0
    4.4323    1.3546    0.0000 C   0  0  0  0  0  0  0  0  0  0  0  0
    7.5210   -3.7846    0.0000 C   0  0  0  0  0  0  0  0  0  0  0  0
    6.3642    3.2865    0.0000 C   0  0  0  0  0  0  0  0  0  0  0  0
   11.8882   -1.4104    0.0000 C   0  0  0  0  0  0  0  0  0  0  0  0
    4.6912    2.3206    0.0000 C   0  0  0  0  0  0  0  0  0  0  0  0
    5.3982    3.0277    0.0000 C   0  0  0  0  0  0  0  0  0  0  0  0
    8.9060   -5.0201    0.0000 C   0  0  0  0  0  0  0  0  0  0  0  0
   12.1720   -3.2446    0.0000 C   0  0  0  0  0  0  0  0  0  0  0  0
    7.8369   -4.8245    0.0000 C   0  0  0  0  0  0  0  0  0  0  0  0
   12.5892   -2.2410    0.0000 C   0  0  0  0  0  0  0  0  0  0  0  0
   11.2461   -0.2191    0.0000 C   0  0  0  0  0  0  0  0  0  0  0  0
    8.0779    3.7528    0.0000 C   0  0  0  0  0  0  0  0  0  0  0  0
    6.0791    4.2883    0.0000 C   0  0  0  0  0  0  0  0  0  0  0  0
    5.1442    4.0378    0.0000 C   0  0  0  0  0  0  0  0  0  0  0  0
    3.6810    2.5746    0.0000 C   0  0  0  0  0  0  0  0  0  0  0  0
    7.8161    4.7609    0.0000 C   0  0  0  0  0  0  0  0  0  0  0  0
    6.8100    5.0305    0.0000 C   0  0  0  0  0  0  0  0  0  0  0  0
   10.8355    0.6928    0.0000 C   0  0  0  0  0  0  0  0  0  0  0  0
   12.2411   -0.3194    0.0000 C   0  0  0  0  0  0  0  0  0  0  0  0
    4.1402    4.3152    0.0000 C   0  0  0  0  0  0  0  0  0  0  0  0
    3.4036    3.5786    0.0000 C   0  0  0  0  0  0  0  0  0  0  0  0
   12.8254    0.4921    0.0000 C   0  0  0  0  0  0  0  0  0  0  0  0
   11.4199    1.5042    0.0000 C   0  0  0  0  0  0  0  0  0  0  0  0
   12.4148    1.4040    0.0000 C   0  0  0  0  0  0  0  0  0  0  0  0
    8.6382    0.9897    0.0000 H   0  0  0  0  0  0  0  0  0  0  0  0
    6.7291   -0.9194    0.0000 H   0  0  0  0  0  0  0  0  0  0  0  0
    9.6424    1.2746    0.0000 H   0  0  0  0  0  0  0  0  0  0  0  0
    5.9954   -1.3431    0.0000 H   0  0  0  0  0  0  0  0  0  0  0  0
    9.5038   -0.6022    0.0000 H   0  0  0  0  0  0  0  0  0  0  0  0
    4.8363   -0.5804    0.0000 H   0  0  0  0  0  0  0  0  0  0  0  0
    5.7082    0.2185    0.0000 H   0  0  0  0  0  0  0  0  0  0  0  0
    6.9207   -3.6297    0.0000 H   0  0  0  0  0  0  0  0  0  0  0  0
   12.0846   -0.8224    0.0000 H   0  0  0  0  0  0  0  0  0  0  0  0
    8.6749    3.5854    0.0000 H   0  0  0  0  0  0  0  0  0  0  0  0
    3.2477    2.1312    0.0000 H   0  0  0  0  0  0  0  0  0  0  0  0
   10.2187    0.7549    0.0000 H   0  0  0  0  0  0  0  0  0  0  0  0
   12.4957   -0.8847    0.0000 H   0  0  0  0  0  0  0  0  0  0  0  0
    8.8742   -6.4356    0.0000 H   0  0  0  0  0  0  0  0  0  0  0  0
   13.3772   -3.9875    0.0000 H   0  0  0  0  0  0  0  0  0  0  0  0
    6.5642   -5.4447    0.0000 H   0  0  0  0  0  0  0  0  0  0  0  0
   13.8017   -1.5101    0.0000 H   0  0  0  0  0  0  0  0  0  0  0  0
    4.8995    5.2593    0.0000 H   0  0  0  0  0  0  0  0  0  0  0  0
    5.6803    5.4685    0.0000 H   0  0  0  0  0  0  0  0  0  0  0  0
    9.1242    5.3025    0.0000 H   0  0  0  0  0  0  0  0  0  0  0  0
    6.9841    6.4356    0.0000 H   0  0  0  0  0  0  0  0  0  0  0  0
    3.2868    5.4449    0.0000 H   0  0  0  0  0  0  0  0  0  0  0  0
    2.0000    3.3936    0.0000 H   0  0  0  0  0  0  0  0  0  0  0  0
   14.1827    0.8950    0.0000 H   0  0  0  0  0  0  0  0  0  0  0  0
   11.3716    2.9192    0.0000 H   0  0  0  0  0  0  0  0  0  0  0  0
   13.6161    2.1533    0.0000 H   0  0  0  0  0  0  0  0  0  0  0  0
  1 29  1  0  0  0  0
  1 30  1  0  0  0  0
  2 27  1  0  0  0  0
  2 32  1  0  0  0  0
  3 26  1  0  0  0  0
  3 34  1  0  0  0  0
  4 28  1  0  0  0  0
  4 33  1  0  0  0  0
 30  5  1  6  0  0  0
  5 41  1  0  0  0  0
  6 31  1  0  0  0  0
  6 43  1  0  0  0  0
  7 40  1  0  0  0  0
  7 42  1  0  0  0  0
  8 32  2  0  0  0  0
  9 33  2  0  0  0  0
 10 34  2  0  0  0  0
 11 41  2  0  0  0  0
 12 43  2  0  0  0  0
 13 49  1  0  0  0  0
 13 80  1  0  0  0  0
 14 50  1  0  0  0  0
 14 81  1  0  0  0  0
 15 51  1  0  0  0  0
 15 82  1  0  0  0  0
 16 52  1  0  0  0  0
 16 83  1  0  0  0  0
 17 55  1  0  0  0  0
 17 84  1  0  0  0  0
 18 56  1  0  0  0  0
 18 85  1  0  0  0  0
 19 58  1  0  0  0  0
 19 86  1  0  0  0  0
 20 59  1  0  0  0  0
 20 87  1  0  0  0  0
 21 62  1  0  0  0  0
 21 88  1  0  0  0  0
 22 63  1  0  0  0  0
 22 89  1  0  0  0  0
 23 64  1  0  0  0  0
 23 90  1  0  0  0  0
 24 65  1  0  0  0  0
 24 91  1  0  0  0  0
 25 66  1  0  0  0  0
 25 92  1  0  0  0  0
 26 27  1  0  0  0  0
 26 28  1  0  0  0  0
 26 67  1  1  0  0  0
 27 29  1  0  0  0  0
 27 68  1  1  0  0  0
 28 30  1  0  0  0  0
 28 69  1  6  0  0  0
 29 31  1  0  0  0  0
 29 70  1  1  0  0  0
 30 71  1  0  0  0  0
 31 72  1  0  0  0  0
 31 73  1  0  0  0  0
 32 35  1  0  0  0  0
 33 38  1  0  0  0  0
 34 39  1  0  0  0  0
 35 36  1  0  0  0  0
 35 44  2  0  0  0  0
 36 37  1  0  0  0  0
 36 40  2  0  0  0  0
 37 38  1  0  0  0  0
 37 42  2  0  0  0  0
 38 46  2  0  0  0  0
 39 45  1  0  0  0  0
 39 54  2  0  0  0  0
 40 49  1  0  0  0  0
 41 53  1  0  0  0  0
 42 50  1  0  0  0  0
 43 47  1  0  0  0  0
 44 51  1  0  0  0  0
 44 74  1  0  0  0  0
 45 48  1  0  0  0  0
 45 55  2  0  0  0  0
 46 52  1  0  0  0  0
 46 75  1  0  0  0  0
 47 48  1  0  0  0  0
 47 57  2  0  0  0  0
 48 56  2  0  0  0  0
 49 51  2  0  0  0  0
 50 52  2  0  0  0  0
 53 60  2  0  0  0  0
 53 61  1  0  0  0  0
 54 58  1  0  0  0  0
 54 76  1  0  0  0  0
 55 59  1  0  0  0  0
 56 62  1  0  0  0  0
 57 63  1  0  0  0  0
 57 77  1  0  0  0  0
 58 59  2  0  0  0  0
 60 65  1  0  0  0  0
 60 78  1  0  0  0  0
 61 64  2  0  0  0  0
 61 79  1  0  0  0  0
 62 63  2  0  0  0  0
 64 66  1  0  0  0  0
 65 66  2  0  0  0  0
M  END
> <PUBCHEM_COMPOUND_CID>
514180
> <PUBCHEM_COMPOUND_CANONICALIZED>
1
> <PUBCHEM_CACTVS_COMPLEXITY>
1870
> <PUBCHEM_CACTVS_HBOND_ACCEPTOR>
25
> <PUBCHEM_CACTVS_HBOND_DONOR>
13
> <PUBCHEM_CACTVS_ROTATABLE_BOND>
3
> <PUBCHEM_CACTVS_SUBSKEYS>
AAADceB8PgAAAAAAAAAAAAAAAAAAASAAAAA0YMGDAAAAAEgB/AAAGgAACAAADBSwmAMwDsAABkCIAqDSCAICCAAkIAAAiAFGiMgdJzaGNRqieWOl4BUPuYfL7vzuoAABCAAYQABAAAIQADCAAAAAAAAAAA==
> <PUBCHEM_IUPAC_OPENEYE_NAME>
[(8R,9S,27R,29S,30R)-2,3,14,15,16,19,20,21,35,36-decahydroxy-6,11,24,32-tetraoxo-7,10,25,28,31,40-hexaoxaoctacyclo[35.2.1.05,39.08,27.09,30.012,17.018,23.033,38]tetraconta-1(39),2,4,12,14,16,18,20,22,33,35,37-dodecaen-29-yl] 3,4,5-trihydroxybenzoate
> <PUBCHEM_IUPAC_CAS_NAME>
3,4,5-trihydroxybenzoic acid [(8R,9S,27R,29S,30R)-2,3,14,15,16,19,20,21,35,36-decahydroxy-6,11,24,32-tetraoxo-7,10,25,28,31,40-hexaoxaoctacyclo[35.2.1.05,39.08,27.09,30.012,17.018,23.033,38]tetraconta-1(39),2,4,12,14,16,18,20,22,33,35,37-dodecaen-29-yl] ester
> <PUBCHEM_IUPAC_NAME_MARKUP>
[(8<I>R</I>,9<I>S</I>,27<I>R</I>,29<I>S</I>,30<I>R</I>)-2,3,14,15,16,19,20,21,35,36-decahydroxy-6,11,24,32-tetraoxo-7,10,25,28,31,40-hexaoxaoctacyclo[35.2.1.0<SUP>5,39</SUP>.0<SUP>8,27</SUP>.0<SUP>9,30</SUP>.0<SUP>12,17</SUP>.0<SUP>18,23</SUP>.0<SUP>33,38</SUP>]tetraconta-1(39),2,4,12,14,16,18,20,22,33,35,37-dodecaen-29-yl] 3,4,5-trihydroxybenzoate
> <PUBCHEM_IUPAC_NAME>
[(8R,9S,27R,29S,30R)-2,3,14,15,16,19,20,21,35,36-decahydroxy-6,11,24,32-tetraoxo-7,10,25,28,31,40-hexaoxaoctacyclo[35.2.1.05,39.08,27.09,30.012,17.018,23.033,38]tetraconta-1(39),2,4,12,14,16,18,20,22,33,35,37-dodecaen-29-yl] 3,4,5-trihydroxybenzoate
> <PUBCHEM_IUPAC_SYSTEMATIC_NAME>
[(8R,9S,27R,29S,30R)-2,3,14,15,16,19,20,21,35,36-decakis(oxidanyl)-6,11,24,32-tetrakis(oxidanylidene)-7,10,25,28,31,40-hexaoxaoctacyclo[35.2.1.05,39.08,27.09,30.012,17.018,23.033,38]tetraconta-1(39),2,4,12,14,16,18,20,22,33,35,37-dodecaen-29-yl] 3,4,5-tris(oxidanyl)benzoate
> <PUBCHEM_IUPAC_TRADITIONAL_NAME>
3,4,5-trihydroxybenzoic acid [(8R,9S,27R,29S,30R)-2,3,14,15,16,19,20,21,35,36-decahydroxy-6,11,24,32-tetraketo-7,10,25,28,31,40-hexaoxaoctacyclo[35.2.1.05,39.08,27.09,30.012,17.018,23.033,38]tetraconta-1(39),2,4,12,14,16,18,20,22,33,35,37-dodecaen-29-yl] ester
> <PUBCHEM_IUPAC_INCHI>
InChI=1S/C41H26O25/c42-13-1-8(2-14(43)24(13)48)36(55)66-41-35-34-31(63-39(58)11-5-17(46)27(51)32-22(11)23-12(40(59)65-35)6-18(47)28(52)33(23)62-32)19(61-41)7-60-37(56)9-3-15(44)25(49)29(53)20(9)21-10(38(57)64-34)4-16(45)26(50)30(21)54/h1-6,19,31,34-35,41-54H,7H2/t19-,31-,34+,35-,41+/m1/s1
> <PUBCHEM_IUPAC_INCHIKEY>
SHIKPQXKXYEXCO-RWKQGRNFSA-N
> <PUBCHEM_XLOGP3_AA>
2.9
> <PUBCHEM_EXACT_MASS>
918.07631631
> <PUBCHEM_MOLECULAR_FORMULA>
C41H26O25
> <PUBCHEM_MOLECULAR_WEIGHT>
918.6
> <PUBCHEM_OPENEYE_CAN_SMILES>
C1C2C3C(C(C(O2)OC(=O)C4=CC(=C(C(=C4)O)O)O)OC(=O)C5=CC(=C(C6=C5C7=C(O6)C(=C(C=C7C(=O)O3)O)O)O)O)OC(=O)C8=CC(=C(C(=C8C9=C(C(=C(C=C9C(=O)O1)O)O)O)O)O)O
> <PUBCHEM_OPENEYE_ISO_SMILES>
C1[C@@H]2[C@@H]3[C@@H]([C@H]([C@@H](O2)OC(=O)C4=CC(=C(C(=C4)O)O)O)OC(=O)C5=CC(=C(C6=C5C7=C(O6)C(=C(C=C7C(=O)O3)O)O)O)O)OC(=O)C8=CC(=C(C(=C8C9=C(C(=C(C=C9C(=O)O1)O)O)O)O)O)O
> <PUBCHEM_CACTVS_TPSA>
417
> <PUBCHEM_MONOISOTOPIC_WEIGHT>
918.07631631
> <PUBCHEM_TOTAL_CHARGE>
0
> <PUBCHEM_HEAVY_ATOM_COUNT>
66
> <PUBCHEM_ATOM_DEF_STEREO_COUNT>
5
> <PUBCHEM_ATOM_UDEF_STEREO_COUNT>
0
> <PUBCHEM_BOND_DEF_STEREO_COUNT>
0
> <PUBCHEM_BOND_UDEF_STEREO_COUNT>
0
> <PUBCHEM_ISOTOPIC_ATOM_COUNT>
0
> <PUBCHEM_COMPONENT_COUNT>
1
> <PUBCHEM_CACTVS_TAUTO_COUNT>
-1
> <PUBCHEM_COORDINATE_TYPE>
1
5
255
> <PUBCHEM_BONDANNOTATIONS>
26  67  5
27  68  5
28  69  6
29  70  5
35  36  8
35  44  8
36  37  8
36  40  8
37  38  8
37  42  8
38  46  8
39  45  8
39  54  8
40  49  8
42  50  8
44  51  8
45  55  8
46  52  8
47  48  8
47  57  8
48  56  8
49  51  8
30  5  6
50  52  8
53  60  8
53  61  8
54  58  8
55  59  8
56  62  8
57  63  8
58  59  8
60  65  8
61  64  8
62  63  8
64  66  8
65  66  8
7  40  8
7  42  8
$$$$
