514202
  -OEChem-10302200282D
115114  0     1  0  0  0  0  0999 V2000
    6.3301   -3.2500    0.0000 P   0  0  3  0  0  0  0  0  0  0  0  0
    8.9282   -1.7500    0.0000 O   0  0  0  0  0  0  0  0  0  0  0  0
    5.4641   -3.7500    0.0000 O   0  0  0  0  0  0  0  0  0  0  0  0
    7.1962   -2.7500    0.0000 O   0  0  0  0  0  0  0  0  0  0  0  0
   11.5263   -4.2500    0.0000 O   0  0  0  0  0  0  0  0  0  0  0  0
    5.8301   -2.3840    0.0000 O   0  0  0  0  0  0  0  0  0  0  0  0
    6.8301   -4.1160    0.0000 O   0  0  0  0  0  0  0  0  0  0  0  0
    2.8660   -3.2500    0.0000 N   0  3  0  0  0  0  0  0  0  0  0  0
   10.6603   -2.7500    0.0000 N   0  0  0  0  0  0  0  0  0  0  0  0
   18.4545   -3.2500    0.0000 C   0  0  0  0  0  0  0  0  0  0  0  0
   19.3205   -2.7500    0.0000 C   0  0  0  0  0  0  0  0  0  0  0  0
   17.5885   -2.7500    0.0000 C   0  0  0  0  0  0  0  0  0  0  0  0
   20.1865   -3.2500    0.0000 C   0  0  0  0  0  0  0  0  0  0  0  0
   16.7224   -3.2500    0.0000 C   0  0  0  0  0  0  0  0  0  0  0  0
   21.0526   -2.7500    0.0000 C   0  0  0  0  0  0  0  0  0  0  0  0
   15.8564   -2.7500    0.0000 C   0  0  0  0  0  0  0  0  0  0  0  0
   21.9186   -3.2500    0.0000 C   0  0  0  0  0  0  0  0  0  0  0  0
   14.9904   -3.2500    0.0000 C   0  0  0  0  0  0  0  0  0  0  0  0
   22.7846   -2.7500    0.0000 C   0  0  0  0  0  0  0  0  0  0  0  0
   14.1244   -2.7500    0.0000 C   0  0  0  0  0  0  0  0  0  0  0  0
   23.6506   -3.2500    0.0000 C   0  0  0  0  0  0  0  0  0  0  0  0
    3.7320   -3.7500    0.0000 C   0  0  0  0  0  0  0  0  0  0  0  0
   13.2583   -3.2500    0.0000 C   0  0  0  0  0  0  0  0  0  0  0  0
   24.5167   -2.7500    0.0000 C   0  0  0  0  0  0  0  0  0  0  0  0
    2.0000   -2.7500    0.0000 C   0  0  0  0  0  0  0  0  0  0  0  0
    2.3660   -4.1160    0.0000 C   0  0  0  0  0  0  0  0  0  0  0  0
    3.3660   -2.3840    0.0000 C   0  0  0  0  0  0  0  0  0  0  0  0
   12.3923   -2.7500    0.0000 C   0  0  0  0  0  0  0  0  0  0  0  0
    4.5981   -3.2500    0.0000 C   0  0  0  0  0  0  0  0  0  0  0  0
    8.9282   -2.7500    0.0000 C   0  0  3  0  0  0  0  0  0  0  0  0
   25.3827   -3.2500    0.0000 C   0  0  0  0  0  0  0  0  0  0  0  0
   10.6603    0.2500    0.0000 C   0  0  0  0  0  0  0  0  0  0  0  0
   10.6603    1.2500    0.0000 C   0  0  0  0  0  0  0  0  0  0  0  0
    9.7942   -3.2500    0.0000 C   0  0  0  0  0  0  0  0  0  0  0  0
    9.7942   -0.2500    0.0000 C   0  0  0  0  0  0  0  0  0  0  0  0
   11.5263    1.7500    0.0000 C   0  0  0  0  0  0  0  0  0  0  0  0
   11.5263   -3.2500    0.0000 C   0  0  0  0  0  0  0  0  0  0  0  0
    9.7942   -1.2500    0.0000 C   0  0  0  0  0  0  0  0  0  0  0  0
    8.0622   -3.2500    0.0000 C   0  0  0  0  0  0  0  0  0  0  0  0
   11.5263    2.7500    0.0000 C   0  0  0  0  0  0  0  0  0  0  0  0
   26.2487   -2.7500    0.0000 C   0  0  0  0  0  0  0  0  0  0  0  0
   12.3923    3.2500    0.0000 C   0  0  0  0  0  0  0  0  0  0  0  0
   12.3923    4.2500    0.0000 C   0  0  0  0  0  0  0  0  0  0  0  0
   18.0560   -3.7250    0.0000 H   0  0  0  0  0  0  0  0  0  0  0  0
   18.8530   -3.7250    0.0000 H   0  0  0  0  0  0  0  0  0  0  0  0
   19.7190   -2.2750    0.0000 H   0  0  0  0  0  0  0  0  0  0  0  0
   18.9220   -2.2750    0.0000 H   0  0  0  0  0  0  0  0  0  0  0  0
   17.9870   -2.2750    0.0000 H   0  0  0  0  0  0  0  0  0  0  0  0
   17.1899   -2.2750    0.0000 H   0  0  0  0  0  0  0  0  0  0  0  0
   19.7880   -3.7250    0.0000 H   0  0  0  0  0  0  0  0  0  0  0  0
   20.5851   -3.7250    0.0000 H   0  0  0  0  0  0  0  0  0  0  0  0
   16.3239   -3.7250    0.0000 H   0  0  0  0  0  0  0  0  0  0  0  0
   17.1210   -3.7250    0.0000 H   0  0  0  0  0  0  0  0  0  0  0  0
   21.4511   -2.2750    0.0000 H   0  0  0  0  0  0  0  0  0  0  0  0
   20.6540   -2.2750    0.0000 H   0  0  0  0  0  0  0  0  0  0  0  0
   16.2549   -2.2750    0.0000 H   0  0  0  0  0  0  0  0  0  0  0  0
   15.4579   -2.2750    0.0000 H   0  0  0  0  0  0  0  0  0  0  0  0
   21.5201   -3.7250    0.0000 H   0  0  0  0  0  0  0  0  0  0  0  0
   22.3171   -3.7250    0.0000 H   0  0  0  0  0  0  0  0  0  0  0  0
   14.5919   -3.7250    0.0000 H   0  0  0  0  0  0  0  0  0  0  0  0
   15.3889   -3.7250    0.0000 H   0  0  0  0  0  0  0  0  0  0  0  0
   23.1831   -2.2750    0.0000 H   0  0  0  0  0  0  0  0  0  0  0  0
   22.3861   -2.2750    0.0000 H   0  0  0  0  0  0  0  0  0  0  0  0
   14.5229   -2.2750    0.0000 H   0  0  0  0  0  0  0  0  0  0  0  0
   13.7258   -2.2750    0.0000 H   0  0  0  0  0  0  0  0  0  0  0  0
    3.3335   -4.2250    0.0000 H   0  0  0  0  0  0  0  0  0  0  0  0
    4.1306   -4.2250    0.0000 H   0  0  0  0  0  0  0  0  0  0  0  0
   23.2521   -3.7250    0.0000 H   0  0  0  0  0  0  0  0  0  0  0  0
   24.0492   -3.7250    0.0000 H   0  0  0  0  0  0  0  0  0  0  0  0
   12.8598   -3.7250    0.0000 H   0  0  0  0  0  0  0  0  0  0  0  0
   13.6569   -3.7250    0.0000 H   0  0  0  0  0  0  0  0  0  0  0  0
   24.9152   -2.2750    0.0000 H   0  0  0  0  0  0  0  0  0  0  0  0
   24.1181   -2.2750    0.0000 H   0  0  0  0  0  0  0  0  0  0  0  0
    2.3100   -2.2131    0.0000 H   0  0  0  0  0  0  0  0  0  0  0  0
    1.4631   -2.4400    0.0000 H   0  0  0  0  0  0  0  0  0  0  0  0
    1.6900   -3.2869    0.0000 H   0  0  0  0  0  0  0  0  0  0  0  0
    1.8291   -3.8060    0.0000 H   0  0  0  0  0  0  0  0  0  0  0  0
    2.0560   -4.6530    0.0000 H   0  0  0  0  0  0  0  0  0  0  0  0
    2.9030   -4.4260    0.0000 H   0  0  0  0  0  0  0  0  0  0  0  0
    3.9030   -2.6940    0.0000 H   0  0  0  0  0  0  0  0  0  0  0  0
    3.6760   -1.8470    0.0000 H   0  0  0  0  0  0  0  0  0  0  0  0
    2.8291   -2.0740    0.0000 H   0  0  0  0  0  0  0  0  0  0  0  0
   12.7908   -2.2750    0.0000 H   0  0  0  0  0  0  0  0  0  0  0  0
   11.9938   -2.2750    0.0000 H   0  0  0  0  0  0  0  0  0  0  0  0
    4.9966   -2.7750    0.0000 H   0  0  0  0  0  0  0  0  0  0  0  0
    4.1996   -2.7750    0.0000 H   0  0  0  0  0  0  0  0  0  0  0  0
    9.4651   -2.4400    0.0000 H   0  0  0  0  0  0  0  0  0  0  0  0
   24.9842   -3.7250    0.0000 H   0  0  0  0  0  0  0  0  0  0  0  0
   25.7812   -3.7250    0.0000 H   0  0  0  0  0  0  0  0  0  0  0  0
   10.8723   -0.3326    0.0000 H   0  0  0  0  0  0  0  0  0  0  0  0
   11.2708    0.3577    0.0000 H   0  0  0  0  0  0  0  0  0  0  0  0
   10.4482    1.8326    0.0000 H   0  0  0  0  0  0  0  0  0  0  0  0
   10.0497    1.1423    0.0000 H   0  0  0  0  0  0  0  0  0  0  0  0
    9.5822    0.3326    0.0000 H   0  0  0  0  0  0  0  0  0  0  0  0
    9.1836   -0.3577    0.0000 H   0  0  0  0  0  0  0  0  0  0  0  0
    9.3957   -3.7250    0.0000 H   0  0  0  0  0  0  0  0  0  0  0  0
   10.1928   -3.7250    0.0000 H   0  0  0  0  0  0  0  0  0  0  0  0
   11.7383    1.1674    0.0000 H   0  0  0  0  0  0  0  0  0  0  0  0
   12.1369    1.8577    0.0000 H   0  0  0  0  0  0  0  0  0  0  0  0
   10.0063   -1.8326    0.0000 H   0  0  0  0  0  0  0  0  0  0  0  0
   10.4048   -1.1423    0.0000 H   0  0  0  0  0  0  0  0  0  0  0  0
    7.6636   -3.7250    0.0000 H   0  0  0  0  0  0  0  0  0  0  0  0
    8.4607   -3.7250    0.0000 H   0  0  0  0  0  0  0  0  0  0  0  0
   10.6603   -2.1300    0.0000 H   0  0  0  0  0  0  0  0  0  0  0  0
   11.3142    3.3326    0.0000 H   0  0  0  0  0  0  0  0  0  0  0  0
   10.9157    2.6423    0.0000 H   0  0  0  0  0  0  0  0  0  0  0  0
   26.5587   -3.2869    0.0000 H   0  0  0  0  0  0  0  0  0  0  0  0
   26.7856   -2.4400    0.0000 H   0  0  0  0  0  0  0  0  0  0  0  0
   25.9387   -2.2131    0.0000 H   0  0  0  0  0  0  0  0  0  0  0  0
   12.6044    2.6674    0.0000 H   0  0  0  0  0  0  0  0  0  0  0  0
   13.0029    3.3577    0.0000 H   0  0  0  0  0  0  0  0  0  0  0  0
   13.0123    4.2500    0.0000 H   0  0  0  0  0  0  0  0  0  0  0  0
   12.3923    4.8700    0.0000 H   0  0  0  0  0  0  0  0  0  0  0  0
   11.7723    4.2500    0.0000 H   0  0  0  0  0  0  0  0  0  0  0  0
    6.1401   -1.8470    0.0000 H   0  0  0  0  0  0  0  0  0  0  0  0
  1  3  1  0  0  0  0
  1  4  1  0  0  0  0
  1  6  1  0  0  0  0
  1  7  2  0  0  0  0
  2 30  1  0  0  0  0
  2 38  1  0  0  0  0
  3 29  1  0  0  0  0
  4 39  1  0  0  0  0
  5 37  2  0  0  0  0
  6115  1  0  0  0  0
  8 22  1  0  0  0  0
  8 25  1  0  0  0  0
  8 26  1  0  0  0  0
  8 27  1  0  0  0  0
  9 34  1  0  0  0  0
  9 37  1  0  0  0  0
  9104  1  0  0  0  0
 10 11  1  0  0  0  0
 10 12  1  0  0  0  0
 10 44  1  0  0  0  0
 10 45  1  0  0  0  0
 11 13  1  0  0  0  0
 11 46  1  0  0  0  0
 11 47  1  0  0  0  0
 12 14  1  0  0  0  0
 12 48  1  0  0  0  0
 12 49  1  0  0  0  0
 13 15  1  0  0  0  0
 13 50  1  0  0  0  0
 13 51  1  0  0  0  0
 14 16  1  0  0  0  0
 14 52  1  0  0  0  0
 14 53  1  0  0  0  0
 15 17  1  0  0  0  0
 15 54  1  0  0  0  0
 15 55  1  0  0  0  0
 16 18  1  0  0  0  0
 16 56  1  0  0  0  0
 16 57  1  0  0  0  0
 17 19  1  0  0  0  0
 17 58  1  0  0  0  0
 17 59  1  0  0  0  0
 18 20  1  0  0  0  0
 18 60  1  0  0  0  0
 18 61  1  0  0  0  0
 19 21  1  0  0  0  0
 19 62  1  0  0  0  0
 19 63  1  0  0  0  0
 20 23  1  0  0  0  0
 20 64  1  0  0  0  0
 20 65  1  0  0  0  0
 21 24  1  0  0  0  0
 21 68  1  0  0  0  0
 21 69  1  0  0  0  0
 22 29  1  0  0  0  0
 22 66  1  0  0  0  0
 22 67  1  0  0  0  0
 23 28  1  0  0  0  0
 23 70  1  0  0  0  0
 23 71  1  0  0  0  0
 24 31  1  0  0  0  0
 24 72  1  0  0  0  0
 24 73  1  0  0  0  0
 25 74  1  0  0  0  0
 25 75  1  0  0  0  0
 25 76  1  0  0  0  0
 26 77  1  0  0  0  0
 26 78  1  0  0  0  0
 26 79  1  0  0  0  0
 27 80  1  0  0  0  0
 27 81  1  0  0  0  0
 27 82  1  0  0  0  0
 28 37  1  0  0  0  0
 28 83  1  0  0  0  0
 28 84  1  0  0  0  0
 29 85  1  0  0  0  0
 29 86  1  0  0  0  0
 30 34  1  0  0  0  0
 30 39  1  0  0  0  0
 30 87  1  0  0  0  0
 31 41  1  0  0  0  0
 31 88  1  0  0  0  0
 31 89  1  0  0  0  0
 32 33  1  0  0  0  0
 32 35  1  0  0  0  0
 32 90  1  0  0  0  0
 32 91  1  0  0  0  0
 33 36  1  0  0  0  0
 33 92  1  0  0  0  0
 33 93  1  0  0  0  0
 34 96  1  0  0  0  0
 34 97  1  0  0  0  0
 35 38  1  0  0  0  0
 35 94  1  0  0  0  0
 35 95  1  0  0  0  0
 36 40  1  0  0  0  0
 36 98  1  0  0  0  0
 36 99  1  0  0  0  0
 38100  1  0  0  0  0
 38101  1  0  0  0  0
 39102  1  0  0  0  0
 39103  1  0  0  0  0
 40 42  1  0  0  0  0
 40105  1  0  0  0  0
 40106  1  0  0  0  0
 41107  1  0  0  0  0
 41108  1  0  0  0  0
 41109  1  0  0  0  0
 42 43  1  0  0  0  0
 42110  1  0  0  0  0
 42111  1  0  0  0  0
 43112  1  0  0  0  0
 43113  1  0  0  0  0
 43114  1  0  0  0  0
M  CHG  1   8   1
M  END
> <PUBCHEM_COMPOUND_CID>
514202
> <PUBCHEM_COMPOUND_CANONICALIZED>
1
> <PUBCHEM_CACTVS_COMPLEXITY>
674
> <PUBCHEM_CACTVS_HBOND_ACCEPTOR>
6
> <PUBCHEM_CACTVS_HBOND_DONOR>
2
> <PUBCHEM_CACTVS_ROTATABLE_BOND>
33
> <PUBCHEM_CACTVS_SUBSKEYS>
AAADcfB/OAIAAAAAAAAAAAAAAAAAAAAAAAAAAAAAAAAAAAAAAAAAHgAQCCAACBThgAYCAAPABRAIQAEQEIAAAAAAAAAAAIEIAAADABIAgAAHAAAGFgCSAAGYyKCAAAAAAAAAAAAAAAAAAAAAAAAAAAAAAA==
> <PUBCHEM_IUPAC_OPENEYE_NAME>
2-[hydroxy-[3-(octadecanoylamino)-2-octoxy-propoxy]phosphoryl]oxyethyl-trimethyl-ammonium
> <PUBCHEM_IUPAC_CAS_NAME>
2-[hydroxy-[2-octoxy-3-(1-oxooctadecylamino)propoxy]phosphoryl]oxyethyl-trimethylammonium
> <PUBCHEM_IUPAC_NAME_MARKUP>
2-[hydroxy-[3-(octadecanoylamino)-2-octoxypropoxy]phosphoryl]oxyethyl-trimethylazanium
> <PUBCHEM_IUPAC_NAME>
2-[hydroxy-[3-(octadecanoylamino)-2-octoxypropoxy]phosphoryl]oxyethyl-trimethylazanium
> <PUBCHEM_IUPAC_SYSTEMATIC_NAME>
trimethyl-[2-[[3-(octadecanoylamino)-2-octoxy-propoxy]-oxidanyl-phosphoryl]oxyethyl]azanium
> <PUBCHEM_IUPAC_TRADITIONAL_NAME>
2-[hydroxy-(2-octoxy-3-stearamido-propoxy)phosphoryl]oxyethyl-trimethyl-ammonium
> <PUBCHEM_IUPAC_INCHI>
InChI=1S/C34H71N2O6P/c1-6-8-10-12-14-15-16-17-18-19-20-21-22-23-25-27-34(37)35-31-33(40-29-26-24-13-11-9-7-2)32-42-43(38,39)41-30-28-36(3,4)5/h33H,6-32H2,1-5H3,(H-,35,37,38,39)/p+1
> <PUBCHEM_IUPAC_INCHIKEY>
FDIAXXFNFXACFA-UHFFFAOYSA-O
> <PUBCHEM_XLOGP3_AA>
10.1
> <PUBCHEM_EXACT_MASS>
635.51280002
> <PUBCHEM_MOLECULAR_FORMULA>
C34H72N2O6P+
> <PUBCHEM_MOLECULAR_WEIGHT>
635.9
> <PUBCHEM_OPENEYE_CAN_SMILES>
CCCCCCCCCCCCCCCCCC(=O)NCC(COP(=O)(O)OCC[N+](C)(C)C)OCCCCCCCC
> <PUBCHEM_OPENEYE_ISO_SMILES>
CCCCCCCCCCCCCCCCCC(=O)NCC(COP(=O)(O)OCC[N+](C)(C)C)OCCCCCCCC
> <PUBCHEM_CACTVS_TPSA>
94.1
> <PUBCHEM_MONOISOTOPIC_WEIGHT>
635.51280002
> <PUBCHEM_TOTAL_CHARGE>
1
> <PUBCHEM_HEAVY_ATOM_COUNT>
43
> <PUBCHEM_ATOM_DEF_STEREO_COUNT>
0
> <PUBCHEM_ATOM_UDEF_STEREO_COUNT>
1
> <PUBCHEM_BOND_DEF_STEREO_COUNT>
0
> <PUBCHEM_BOND_UDEF_STEREO_COUNT>
0
> <PUBCHEM_ISOTOPIC_ATOM_COUNT>
0
> <PUBCHEM_COMPONENT_COUNT>
1
> <PUBCHEM_CACTVS_TAUTO_COUNT>
-1
> <PUBCHEM_COORDINATE_TYPE>
1
5
255
> <PUBCHEM_BONDANNOTATIONS>
30  34  3
$$$$
