514216
  -OEChem-10302200282D
 69 70  0     1  0  0  0  0  0999 V2000
    7.2566    0.2923    0.0000 O   0  0  0  0  0  0  0  0  0  0  0  0
    7.2101    2.9376    0.0000 O   0  0  0  0  0  0  0  0  0  0  0  0
    7.5673    1.2428    0.0000 O   0  0  0  0  0  0  0  0  0  0  0  0
    7.9244   -0.4520    0.0000 O   0  0  0  0  0  0  0  0  0  0  0  0
    9.6173   -3.6355    0.0000 O   0  0  0  0  0  0  0  0  0  0  0  0
    5.6103    0.8304    0.0000 N   0  0  0  0  0  0  0  0  0  0  0  0
    6.6353   -1.6088    0.0000 N   0  0  0  0  0  0  0  0  0  0  0  0
    4.6783   -3.6307    0.0000 N   0  0  0  0  0  0  0  0  0  0  0  0
    9.2601   -1.9406    0.0000 N   0  0  0  0  0  0  0  0  0  0  0  0
   11.5743   -3.2230    0.0000 N   0  0  0  0  0  0  0  0  0  0  0  0
    5.2531    2.5252    0.0000 C   0  0  2  0  0  0  0  0  0  0  0  0
    5.9209    1.7809    0.0000 C   0  0  1  0  0  0  0  0  0  0  0  0
    5.9674   -0.8645    0.0000 C   0  0  1  0  0  0  0  0  0  0  0  0
    4.9889   -1.0707    0.0000 C   0  0  0  0  0  0  0  0  0  0  0  0
    5.5637    3.4757    0.0000 C   0  0  0  0  0  0  0  0  0  0  0  0
    6.2781    0.0861    0.0000 C   0  0  0  0  0  0  0  0  0  0  0  0
    4.6783   -2.0212    0.0000 C   0  0  0  0  0  0  0  0  0  0  0  0
    4.2746    2.3190    0.0000 C   0  0  0  0  0  0  0  0  0  0  0  0
    3.7320   -2.3259    0.0000 C   0  0  0  0  0  0  0  0  0  0  0  0
    6.8994    1.9871    0.0000 C   0  0  0  0  0  0  0  0  0  0  0  0
    4.8959    4.2200    0.0000 C   0  0  0  0  0  0  0  0  0  0  0  0
    3.7320   -3.3259    0.0000 C   0  0  0  0  0  0  0  0  0  0  0  0
    5.2619   -2.8259    0.0000 C   0  0  0  0  0  0  0  0  0  0  0  0
   11.2171   -1.5282    0.0000 C   0  0  0  0  0  0  0  0  0  0  0  0
   10.9065   -2.4787    0.0000 C   0  0  1  0  0  0  0  0  0  0  0  0
    7.6138   -1.4026    0.0000 C   0  0  0  0  0  0  0  0  0  0  0  0
    2.8660   -1.8259    0.0000 C   0  0  0  0  0  0  0  0  0  0  0  0
    8.2816   -2.1468    0.0000 C   0  0  0  0  0  0  0  0  0  0  0  0
    2.8660   -3.8259    0.0000 C   0  0  0  0  0  0  0  0  0  0  0  0
    9.9280   -2.6849    0.0000 C   0  0  0  0  0  0  0  0  0  0  0  0
   12.1957   -1.3220    0.0000 C   0  0  0  0  0  0  0  0  0  0  0  0
   10.5493   -0.7839    0.0000 C   0  0  0  0  0  0  0  0  0  0  0  0
    2.0000   -2.3259    0.0000 C   0  0  0  0  0  0  0  0  0  0  0  0
    2.0000   -3.3259    0.0000 C   0  0  0  0  0  0  0  0  0  0  0  0
    5.0605    1.9358    0.0000 H   0  0  0  0  0  0  0  0  0  0  0  0
    6.3350    1.3194    0.0000 H   0  0  0  0  0  0  0  0  0  0  0  0
    5.7748   -1.4538    0.0000 H   0  0  0  0  0  0  0  0  0  0  0  0
    4.9684   -0.4510    0.0000 H   0  0  0  0  0  0  0  0  0  0  0  0
    4.3751   -0.9833    0.0000 H   0  0  0  0  0  0  0  0  0  0  0  0
    6.1107    3.1837    0.0000 H   0  0  0  0  0  0  0  0  0  0  0  0
    5.9463    3.9636    0.0000 H   0  0  0  0  0  0  0  0  0  0  0  0
    5.0036    0.7025    0.0000 H   0  0  0  0  0  0  0  0  0  0  0  0
    4.1467    2.9256    0.0000 H   0  0  0  0  0  0  0  0  0  0  0  0
    3.6679    2.1911    0.0000 H   0  0  0  0  0  0  0  0  0  0  0  0
    4.4024    1.7123    0.0000 H   0  0  0  0  0  0  0  0  0  0  0  0
    6.4427   -2.1981    0.0000 H   0  0  0  0  0  0  0  0  0  0  0  0
    5.3574    4.6341    0.0000 H   0  0  0  0  0  0  0  0  0  0  0  0
    4.4818    4.6815    0.0000 H   0  0  0  0  0  0  0  0  0  0  0  0
    4.4344    3.8059    0.0000 H   0  0  0  0  0  0  0  0  0  0  0  0
    5.8819   -2.8259    0.0000 H   0  0  0  0  0  0  0  0  0  0  0  0
   11.4098   -0.9389    0.0000 H   0  0  0  0  0  0  0  0  0  0  0  0
   10.7139   -3.0680    0.0000 H   0  0  0  0  0  0  0  0  0  0  0  0
    4.8709   -4.2200    0.0000 H   0  0  0  0  0  0  0  0  0  0  0  0
    2.8660   -1.2059    0.0000 H   0  0  0  0  0  0  0  0  0  0  0  0
    7.7553   -2.4745    0.0000 H   0  0  0  0  0  0  0  0  0  0  0  0
    8.5129   -2.7221    0.0000 H   0  0  0  0  0  0  0  0  0  0  0  0
    2.8660   -4.4459    0.0000 H   0  0  0  0  0  0  0  0  0  0  0  0
    9.4528   -1.3513    0.0000 H   0  0  0  0  0  0  0  0  0  0  0  0
   12.3235   -1.9286    0.0000 H   0  0  0  0  0  0  0  0  0  0  0  0
   12.8023   -1.1941    0.0000 H   0  0  0  0  0  0  0  0  0  0  0  0
   12.0678   -0.7153    0.0000 H   0  0  0  0  0  0  0  0  0  0  0  0
   11.0108   -0.3698    0.0000 H   0  0  0  0  0  0  0  0  0  0  0  0
   10.1352   -0.3224    0.0000 H   0  0  0  0  0  0  0  0  0  0  0  0
   10.0878   -1.1980    0.0000 H   0  0  0  0  0  0  0  0  0  0  0  0
    1.4631   -2.0159    0.0000 H   0  0  0  0  0  0  0  0  0  0  0  0
    1.4631   -3.6359    0.0000 H   0  0  0  0  0  0  0  0  0  0  0  0
   12.1810   -3.0952    0.0000 H   0  0  0  0  0  0  0  0  0  0  0  0
   11.3817   -3.8123    0.0000 H   0  0  0  0  0  0  0  0  0  0  0  0
    7.8168    3.0655    0.0000 H   0  0  0  0  0  0  0  0  0  0  0  0
  1 16  2  0  0  0  0
  2 20  1  0  0  0  0
  2 69  1  0  0  0  0
  3 20  2  0  0  0  0
  4 26  2  0  0  0  0
  5 30  2  0  0  0  0
 12  6  1  1  0  0  0
  6 16  1  0  0  0  0
  6 42  1  0  0  0  0
 13  7  1  1  0  0  0
  7 26  1  0  0  0  0
  7 46  1  0  0  0  0
  8 22  1  0  0  0  0
  8 23  1  0  0  0  0
  8 53  1  0  0  0  0
  9 28  1  0  0  0  0
  9 30  1  0  0  0  0
  9 58  1  0  0  0  0
 25 10  1  6  0  0  0
 10 67  1  0  0  0  0
 10 68  1  0  0  0  0
 11 12  1  0  0  0  0
 11 15  1  0  0  0  0
 11 18  1  1  0  0  0
 11 35  1  0  0  0  0
 12 20  1  0  0  0  0
 12 36  1  0  0  0  0
 13 14  1  0  0  0  0
 13 16  1  0  0  0  0
 13 37  1  0  0  0  0
 14 17  1  0  0  0  0
 14 38  1  0  0  0  0
 14 39  1  0  0  0  0
 15 21  1  0  0  0  0
 15 40  1  0  0  0  0
 15 41  1  0  0  0  0
 17 19  1  0  0  0  0
 17 23  2  0  0  0  0
 18 43  1  0  0  0  0
 18 44  1  0  0  0  0
 18 45  1  0  0  0  0
 19 22  1  0  0  0  0
 19 27  2  0  0  0  0
 21 47  1  0  0  0  0
 21 48  1  0  0  0  0
 21 49  1  0  0  0  0
 22 29  2  0  0  0  0
 23 50  1  0  0  0  0
 24 25  1  0  0  0  0
 24 31  1  0  0  0  0
 24 32  1  0  0  0  0
 24 51  1  0  0  0  0
 25 30  1  0  0  0  0
 25 52  1  0  0  0  0
 26 28  1  0  0  0  0
 27 33  1  0  0  0  0
 27 54  1  0  0  0  0
 28 55  1  0  0  0  0
 28 56  1  0  0  0  0
 29 34  1  0  0  0  0
 29 57  1  0  0  0  0
 31 59  1  0  0  0  0
 31 60  1  0  0  0  0
 31 61  1  0  0  0  0
 32 62  1  0  0  0  0
 32 63  1  0  0  0  0
 32 64  1  0  0  0  0
 33 34  2  0  0  0  0
 33 65  1  0  0  0  0
 34 66  1  0  0  0  0
M  END
> <PUBCHEM_COMPOUND_CID>
514216
> <PUBCHEM_COMPOUND_CANONICALIZED>
1
> <PUBCHEM_CACTVS_COMPLEXITY>
731
> <PUBCHEM_CACTVS_HBOND_ACCEPTOR>
6
> <PUBCHEM_CACTVS_HBOND_DONOR>
6
> <PUBCHEM_CACTVS_ROTATABLE_BOND>
12
> <PUBCHEM_CACTVS_SUBSKEYS>
AAADcfB7uAAAAAAAAAAAAAAAAAAAAWAAAAAwAAAAAAAAAFgB8AAAHgAQCAAADSjBngQ+yPLJkgCoAzX3XACCgCAxAiAI2aG4ZJgKYPLAkbGUYAhklgDYyAeYicCOgAAAAAACAAAAAAAAAAQAAAAAAAAAAA==
> <PUBCHEM_IUPAC_OPENEYE_NAME>
(2S,3S)-2-[[(2S)-2-[[2-[[(2S)-2-amino-3-methyl-butanoyl]amino]acetyl]amino]-3-(1H-indol-3-yl)propanoyl]amino]-3-methyl-pentanoic acid
> <PUBCHEM_IUPAC_CAS_NAME>
(2S,3S)-2-[[(2S)-2-[[2-[[(2S)-2-amino-3-methyl-1-oxobutyl]amino]-1-oxoethyl]amino]-3-(1H-indol-3-yl)-1-oxopropyl]amino]-3-methylpentanoic acid
> <PUBCHEM_IUPAC_NAME_MARKUP>
(2<I>S</I>,3<I>S</I>)-2-[[(2<I>S</I>)-2-[[2-[[(2<I>S</I>)-2-amino-3-methylbutanoyl]amino]acetyl]amino]-3-(1<I>H</I>-indol-3-yl)propanoyl]amino]-3-methylpentanoic acid
> <PUBCHEM_IUPAC_NAME>
(2S,3S)-2-[[(2S)-2-[[2-[[(2S)-2-amino-3-methylbutanoyl]amino]acetyl]amino]-3-(1H-indol-3-yl)propanoyl]amino]-3-methylpentanoic acid
> <PUBCHEM_IUPAC_SYSTEMATIC_NAME>
(2S,3S)-2-[[(2S)-2-[2-[[(2S)-2-azanyl-3-methyl-butanoyl]amino]ethanoylamino]-3-(1H-indol-3-yl)propanoyl]amino]-3-methyl-pentanoic acid
> <PUBCHEM_IUPAC_TRADITIONAL_NAME>
(2S,3S)-2-[[(2S)-2-[[2-[[(2S)-2-amino-3-methyl-butanoyl]amino]acetyl]amino]-3-(1H-indol-3-yl)propanoyl]amino]-3-methyl-valeric acid
> <PUBCHEM_IUPAC_INCHI>
InChI=1S/C24H35N5O5/c1-5-14(4)21(24(33)34)29-22(31)18(10-15-11-26-17-9-7-6-8-16(15)17)28-19(30)12-27-23(32)20(25)13(2)3/h6-9,11,13-14,18,20-21,26H,5,10,12,25H2,1-4H3,(H,27,32)(H,28,30)(H,29,31)(H,33,34)/t14-,18-,20-,21-/m0/s1
> <PUBCHEM_IUPAC_INCHIKEY>
TWLCSIFFNAUCGW-XNKDMPNBSA-N
> <PUBCHEM_XLOGP3>
-0.6
> <PUBCHEM_EXACT_MASS>
473.26381923
> <PUBCHEM_MOLECULAR_FORMULA>
C24H35N5O5
> <PUBCHEM_MOLECULAR_WEIGHT>
473.6
> <PUBCHEM_OPENEYE_CAN_SMILES>
CCC(C)C(C(=O)O)NC(=O)C(CC1=CNC2=CC=CC=C21)NC(=O)CNC(=O)C(C(C)C)N
> <PUBCHEM_OPENEYE_ISO_SMILES>
CC[C@H](C)[C@@H](C(=O)O)NC(=O)[C@H](CC1=CNC2=CC=CC=C21)NC(=O)CNC(=O)[C@H](C(C)C)N
> <PUBCHEM_CACTVS_TPSA>
166
> <PUBCHEM_MONOISOTOPIC_WEIGHT>
473.26381923
> <PUBCHEM_TOTAL_CHARGE>
0
> <PUBCHEM_HEAVY_ATOM_COUNT>
34
> <PUBCHEM_ATOM_DEF_STEREO_COUNT>
4
> <PUBCHEM_ATOM_UDEF_STEREO_COUNT>
0
> <PUBCHEM_BOND_DEF_STEREO_COUNT>
0
> <PUBCHEM_BOND_UDEF_STEREO_COUNT>
0
> <PUBCHEM_ISOTOPIC_ATOM_COUNT>
0
> <PUBCHEM_COMPONENT_COUNT>
1
> <PUBCHEM_CACTVS_TAUTO_COUNT>
-1
> <PUBCHEM_COORDINATE_TYPE>
1
5
255
> <PUBCHEM_BONDANNOTATIONS>
25  10  6
11  18  5
17  19  8
17  23  8
19  22  8
19  27  8
22  29  8
27  33  8
29  34  8
33  34  8
12  6  5
13  7  5
8  22  8
8  23  8
$$$$
