514224
  -OEChem-10302200282D
137142  0     1  0  0  0  0  0999 V2000
   14.3312    1.8651    0.0000 O   0  0  0  0  0  0  0  0  0  0  0  0
   11.5991    4.3651    0.0000 O   0  0  0  0  0  0  0  0  0  0  0  0
   13.8626   -5.1349    0.0000 O   0  0  0  0  0  0  0  0  0  0  0  0
   11.1305   -2.6349    0.0000 O   0  0  0  0  0  0  0  0  0  0  0  0
    8.3985   -5.1349    0.0000 O   0  0  0  0  0  0  0  0  0  0  0  0
    8.8671    1.8651    0.0000 O   0  0  0  0  0  0  0  0  0  0  0  0
   14.7286   -2.6349    0.0000 O   0  0  0  0  0  0  0  0  0  0  0  0
    6.1350    4.3651    0.0000 O   0  0  0  0  0  0  0  0  0  0  0  0
   13.8626   -1.1349    0.0000 O   0  0  0  0  0  0  0  0  0  0  0  0
   11.9965   -7.1349    0.0000 O   0  0  0  0  0  0  0  0  0  0  0  0
   10.2645   -7.1349    0.0000 O   0  0  0  0  0  0  0  0  0  0  0  0
    2.5369    3.3651    0.0000 O   0  0  0  0  0  0  0  0  0  0  0  0
    3.4030    1.8651    0.0000 O   0  0  0  0  0  0  0  0  0  0  0  0
   13.3312    3.3651    0.0000 N   0  0  0  0  0  0  0  0  0  0  0  0
   16.0632    2.8651    0.0000 N   0  0  0  0  0  0  0  0  0  0  0  0
   12.1305   -4.1349    0.0000 N   0  0  0  0  0  0  0  0  0  0  0  0
   17.6381    5.1970    0.0000 N   0  0  0  0  0  0  0  0  0  0  0  0
   10.5991    2.8651    0.0000 N   0  0  0  0  0  0  0  0  0  0  0  0
    9.3985   -3.6349    0.0000 N   0  0  0  0  0  0  0  0  0  0  0  0
    7.8671    3.3651    0.0000 N   0  0  0  0  0  0  0  0  0  0  0  0
    4.5601    1.0332    0.0000 N   0  0  0  0  0  0  0  0  0  0  0  0
    9.9733   -1.8030    0.0000 N   0  0  0  0  0  0  0  0  0  0  0  0
    6.6664   -4.1349    0.0000 N   0  0  0  0  0  0  0  0  0  0  0  0
    5.1350    2.8651    0.0000 N   0  0  0  0  0  0  0  0  0  0  0  0
   15.1972    3.3651    0.0000 C   0  0  1  0  0  0  0  0  0  0  0  0
   12.4651    2.8651    0.0000 C   0  0  1  0  0  0  0  0  0  0  0  0
   12.4651    1.8651    0.0000 C   0  0  0  0  0  0  0  0  0  0  0  0
   15.1972    4.3651    0.0000 C   0  0  0  0  0  0  0  0  0  0  0  0
   16.0632    4.8651    0.0000 C   0  0  0  0  0  0  0  0  0  0  0  0
   14.3312    2.8651    0.0000 C   0  0  0  0  0  0  0  0  0  0  0  0
   12.9965   -3.6349    0.0000 C   0  0  2  0  0  0  0  0  0  0  0  0
   16.1663    5.8538    0.0000 C   0  0  0  0  0  0  0  0  0  0  0  0
   11.5991    3.3651    0.0000 C   0  0  0  0  0  0  0  0  0  0  0  0
   13.3312    1.3651    0.0000 C   0  0  0  0  0  0  0  0  0  0  0  0
   11.5991    1.3651    0.0000 C   0  0  0  0  0  0  0  0  0  0  0  0
   13.8626   -4.1349    0.0000 C   0  0  0  0  0  0  0  0  0  0  0  0
   10.2645   -4.1349    0.0000 C   0  0  1  0  0  0  0  0  0  0  0  0
   17.1448    6.0601    0.0000 C   0  0  0  0  0  0  0  0  0  0  0  0
   16.9710    4.4600    0.0000 C   0  0  0  0  0  0  0  0  0  0  0  0
   10.2645   -5.1349    0.0000 C   0  0  0  0  0  0  0  0  0  0  0  0
   12.9965   -2.6349    0.0000 C   0  0  0  0  0  0  0  0  0  0  0  0
   11.1305   -3.6349    0.0000 C   0  0  0  0  0  0  0  0  0  0  0  0
    7.0010    2.8651    0.0000 C   0  0  1  0  0  0  0  0  0  0  0  0
    7.5324   -3.6349    0.0000 C   0  0  1  0  0  0  0  0  0  0  0  0
    7.0010    1.8651    0.0000 C   0  0  0  0  0  0  0  0  0  0  0  0
    7.5324   -2.6349    0.0000 C   0  0  0  0  0  0  0  0  0  0  0  0
   15.4984    6.5981    0.0000 C   0  0  0  0  0  0  0  0  0  0  0  0
    6.1350    1.3651    0.0000 C   0  0  0  0  0  0  0  0  0  0  0  0
    9.7331    3.3651    0.0000 C   0  0  0  0  0  0  0  0  0  0  0  0
    8.3985   -2.1349    0.0000 C   0  0  0  0  0  0  0  0  0  0  0  0
    8.3985   -4.1349    0.0000 C   0  0  0  0  0  0  0  0  0  0  0  0
   17.4554    7.0106    0.0000 C   0  0  0  0  0  0  0  0  0  0  0  0
   11.1305   -5.6349    0.0000 C   0  0  0  0  0  0  0  0  0  0  0  0
    6.0320    0.3764    0.0000 C   0  0  0  0  0  0  0  0  0  0  0  0
    8.5015   -1.1462    0.0000 C   0  0  0  0  0  0  0  0  0  0  0  0
    8.8671    2.8651    0.0000 C   0  0  0  0  0  0  0  0  0  0  0  0
   15.8091    7.5487    0.0000 C   0  0  0  0  0  0  0  0  0  0  0  0
    6.1350    3.3651    0.0000 C   0  0  0  0  0  0  0  0  0  0  0  0
    5.0534    0.1702    0.0000 C   0  0  0  0  0  0  0  0  0  0  0  0
   16.7876    7.7549    0.0000 C   0  0  0  0  0  0  0  0  0  0  0  0
    5.2272    1.7702    0.0000 C   0  0  0  0  0  0  0  0  0  0  0  0
    9.4800   -0.9399    0.0000 C   0  0  0  0  0  0  0  0  0  0  0  0
    9.3063   -2.5400    0.0000 C   0  0  0  0  0  0  0  0  0  0  0  0
   13.8626   -2.1349    0.0000 C   0  0  0  0  0  0  0  0  0  0  0  0
    6.6998   -0.3679    0.0000 C   0  0  0  0  0  0  0  0  0  0  0  0
    7.8337   -0.4019    0.0000 C   0  0  0  0  0  0  0  0  0  0  0  0
    4.7428   -0.7803    0.0000 C   0  0  0  0  0  0  0  0  0  0  0  0
   11.1305   -6.6349    0.0000 C   0  0  0  0  0  0  0  0  0  0  0  0
    9.7907    0.0106    0.0000 C   0  0  0  0  0  0  0  0  0  0  0  0
    4.2690    3.3651    0.0000 C   0  0  1  0  0  0  0  0  0  0  0  0
    6.3891   -1.3184    0.0000 C   0  0  0  0  0  0  0  0  0  0  0  0
    5.4106   -1.5246    0.0000 C   0  0  0  0  0  0  0  0  0  0  0  0
    8.1443    0.5487    0.0000 C   0  0  0  0  0  0  0  0  0  0  0  0
    9.1228    0.7549    0.0000 C   0  0  0  0  0  0  0  0  0  0  0  0
    4.2690    4.3651    0.0000 C   0  0  0  0  0  0  0  0  0  0  0  0
    3.4030    2.8651    0.0000 C   0  0  0  0  0  0  0  0  0  0  0  0
   15.1972    2.7451    0.0000 H   0  0  0  0  0  0  0  0  0  0  0  0
   13.0021    2.5551    0.0000 H   0  0  0  0  0  0  0  0  0  0  0  0
   11.9282    2.1751    0.0000 H   0  0  0  0  0  0  0  0  0  0  0  0
   14.9851    4.9477    0.0000 H   0  0  0  0  0  0  0  0  0  0  0  0
   14.5866    4.2575    0.0000 H   0  0  0  0  0  0  0  0  0  0  0  0
   13.8681    3.6751    0.0000 H   0  0  0  0  0  0  0  0  0  0  0  0
   16.6001    2.5551    0.0000 H   0  0  0  0  0  0  0  0  0  0  0  0
   12.4596   -3.3249    0.0000 H   0  0  0  0  0  0  0  0  0  0  0  0
   13.0212    0.8282    0.0000 H   0  0  0  0  0  0  0  0  0  0  0  0
   13.8681    1.0551    0.0000 H   0  0  0  0  0  0  0  0  0  0  0  0
   13.6412    1.9020    0.0000 H   0  0  0  0  0  0  0  0  0  0  0  0
   11.2891    1.9020    0.0000 H   0  0  0  0  0  0  0  0  0  0  0  0
   11.0622    1.0551    0.0000 H   0  0  0  0  0  0  0  0  0  0  0  0
   11.9091    0.8282    0.0000 H   0  0  0  0  0  0  0  0  0  0  0  0
    9.7276   -4.4449    0.0000 H   0  0  0  0  0  0  0  0  0  0  0  0
   17.0989    3.8533    0.0000 H   0  0  0  0  0  0  0  0  0  0  0  0
   12.6675   -4.4449    0.0000 H   0  0  0  0  0  0  0  0  0  0  0  0
    9.6539   -5.0272    0.0000 H   0  0  0  0  0  0  0  0  0  0  0  0
   10.0524   -5.7175    0.0000 H   0  0  0  0  0  0  0  0  0  0  0  0
   12.7845   -2.0523    0.0000 H   0  0  0  0  0  0  0  0  0  0  0  0
   12.3860   -2.7425    0.0000 H   0  0  0  0  0  0  0  0  0  0  0  0
   18.2545    5.1301    0.0000 H   0  0  0  0  0  0  0  0  0  0  0  0
    7.5380    2.5551    0.0000 H   0  0  0  0  0  0  0  0  0  0  0  0
    7.5324   -4.2549    0.0000 H   0  0  0  0  0  0  0  0  0  0  0  0
    7.2131    1.2825    0.0000 H   0  0  0  0  0  0  0  0  0  0  0  0
    7.6116    1.9728    0.0000 H   0  0  0  0  0  0  0  0  0  0  0  0
   11.1360    2.5551    0.0000 H   0  0  0  0  0  0  0  0  0  0  0  0
    7.3204   -2.0523    0.0000 H   0  0  0  0  0  0  0  0  0  0  0  0
    6.9219   -2.7425    0.0000 H   0  0  0  0  0  0  0  0  0  0  0  0
    9.9354   -3.3249    0.0000 H   0  0  0  0  0  0  0  0  0  0  0  0
   14.8917    6.4703    0.0000 H   0  0  0  0  0  0  0  0  0  0  0  0
   10.1316    3.8401    0.0000 H   0  0  0  0  0  0  0  0  0  0  0  0
    9.3346    3.8401    0.0000 H   0  0  0  0  0  0  0  0  0  0  0  0
   18.0621    7.1384    0.0000 H   0  0  0  0  0  0  0  0  0  0  0  0
   11.7411   -5.7425    0.0000 H   0  0  0  0  0  0  0  0  0  0  0  0
   11.3426   -5.0523    0.0000 H   0  0  0  0  0  0  0  0  0  0  0  0
    8.4040    3.6751    0.0000 H   0  0  0  0  0  0  0  0  0  0  0  0
   15.3950    8.0101    0.0000 H   0  0  0  0  0  0  0  0  0  0  0  0
   16.9802    8.3442    0.0000 H   0  0  0  0  0  0  0  0  0  0  0  0
    5.0994    2.3769    0.0000 H   0  0  0  0  0  0  0  0  0  0  0  0
    9.4341   -3.1467    0.0000 H   0  0  0  0  0  0  0  0  0  0  0  0
    3.9438    1.1002    0.0000 H   0  0  0  0  0  0  0  0  0  0  0  0
   10.5897   -1.8699    0.0000 H   0  0  0  0  0  0  0  0  0  0  0  0
    6.6664   -4.7549    0.0000 H   0  0  0  0  0  0  0  0  0  0  0  0
    7.2034   -3.8249    0.0000 H   0  0  0  0  0  0  0  0  0  0  0  0
    7.3065   -0.2400    0.0000 H   0  0  0  0  0  0  0  0  0  0  0  0
    7.2270   -0.5297    0.0000 H   0  0  0  0  0  0  0  0  0  0  0  0
    5.6720    2.5551    0.0000 H   0  0  0  0  0  0  0  0  0  0  0  0
    4.1361   -0.9082    0.0000 H   0  0  0  0  0  0  0  0  0  0  0  0
   10.3974    0.1384    0.0000 H   0  0  0  0  0  0  0  0  0  0  0  0
    4.8059    3.6751    0.0000 H   0  0  0  0  0  0  0  0  0  0  0  0
    6.8032   -1.7799    0.0000 H   0  0  0  0  0  0  0  0  0  0  0  0
    5.2180   -2.1140    0.0000 H   0  0  0  0  0  0  0  0  0  0  0  0
    7.7303    1.0101    0.0000 H   0  0  0  0  0  0  0  0  0  0  0  0
    9.3155    1.3442    0.0000 H   0  0  0  0  0  0  0  0  0  0  0  0
    4.8890    4.3651    0.0000 H   0  0  0  0  0  0  0  0  0  0  0  0
    4.2690    4.9851    0.0000 H   0  0  0  0  0  0  0  0  0  0  0  0
    3.6490    4.3651    0.0000 H   0  0  0  0  0  0  0  0  0  0  0  0
   15.2655   -2.3249    0.0000 H   0  0  0  0  0  0  0  0  0  0  0  0
   11.9965   -7.7549    0.0000 H   0  0  0  0  0  0  0  0  0  0  0  0
    2.0000    3.0551    0.0000 H   0  0  0  0  0  0  0  0  0  0  0  0
  1 30  2  0  0  0  0
  2 33  2  0  0  0  0
  3 36  2  0  0  0  0
  4 42  2  0  0  0  0
  5 51  2  0  0  0  0
  6 56  2  0  0  0  0
  7 64  1  0  0  0  0
  7135  1  0  0  0  0
  8 58  2  0  0  0  0
  9 64  2  0  0  0  0
 10 68  1  0  0  0  0
 10136  1  0  0  0  0
 11 68  2  0  0  0  0
 12 76  1  0  0  0  0
 12137  1  0  0  0  0
 13 76  2  0  0  0  0
 26 14  1  1  0  0  0
 14 30  1  0  0  0  0
 14 82  1  0  0  0  0
 25 15  1  6  0  0  0
 15 36  1  0  0  0  0
 15 83  1  0  0  0  0
 31 16  1  1  0  0  0
 16 42  1  0  0  0  0
 16 93  1  0  0  0  0
 17 38  1  0  0  0  0
 17 39  1  0  0  0  0
 17 98  1  0  0  0  0
 18 33  1  0  0  0  0
 18 49  1  0  0  0  0
 18103  1  0  0  0  0
 37 19  1  6  0  0  0
 19 51  1  0  0  0  0
 19106  1  0  0  0  0
 43 20  1  1  0  0  0
 20 56  1  0  0  0  0
 20113  1  0  0  0  0
 21 59  1  0  0  0  0
 21 61  1  0  0  0  0
 21118  1  0  0  0  0
 22 62  1  0  0  0  0
 22 63  1  0  0  0  0
 22119  1  0  0  0  0
 44 23  1  1  0  0  0
 23120  1  0  0  0  0
 23121  1  0  0  0  0
 24 58  1  0  0  0  0
 70 24  1  6  0  0  0
 24124  1  0  0  0  0
 25 28  1  0  0  0  0
 25 30  1  0  0  0  0
 25 77  1  0  0  0  0
 26 27  1  0  0  0  0
 26 33  1  0  0  0  0
 26 78  1  0  0  0  0
 27 34  1  0  0  0  0
 27 35  1  0  0  0  0
 27 79  1  0  0  0  0
 28 29  1  0  0  0  0
 28 80  1  0  0  0  0
 28 81  1  0  0  0  0
 29 32  1  0  0  0  0
 29 39  2  0  0  0  0
 31 36  1  0  0  0  0
 31 41  1  0  0  0  0
 31 84  1  0  0  0  0
 32 38  1  0  0  0  0
 32 47  2  0  0  0  0
 34 85  1  0  0  0  0
 34 86  1  0  0  0  0
 34 87  1  0  0  0  0
 35 88  1  0  0  0  0
 35 89  1  0  0  0  0
 35 90  1  0  0  0  0
 37 40  1  0  0  0  0
 37 42  1  0  0  0  0
 37 91  1  0  0  0  0
 38 52  2  0  0  0  0
 39 92  1  0  0  0  0
 40 53  1  0  0  0  0
 40 94  1  0  0  0  0
 40 95  1  0  0  0  0
 41 64  1  0  0  0  0
 41 96  1  0  0  0  0
 41 97  1  0  0  0  0
 43 45  1  0  0  0  0
 43 58  1  0  0  0  0
 43 99  1  0  0  0  0
 44 46  1  0  0  0  0
 44 51  1  0  0  0  0
 44100  1  0  0  0  0
 45 48  1  0  0  0  0
 45101  1  0  0  0  0
 45102  1  0  0  0  0
 46 50  1  0  0  0  0
 46104  1  0  0  0  0
 46105  1  0  0  0  0
 47 57  1  0  0  0  0
 47107  1  0  0  0  0
 48 54  1  0  0  0  0
 48 61  2  0  0  0  0
 49 56  1  0  0  0  0
 49108  1  0  0  0  0
 49109  1  0  0  0  0
 50 55  1  0  0  0  0
 50 63  2  0  0  0  0
 52 60  1  0  0  0  0
 52110  1  0  0  0  0
 53 68  1  0  0  0  0
 53111  1  0  0  0  0
 53112  1  0  0  0  0
 54 59  1  0  0  0  0
 54 65  2  0  0  0  0
 55 62  1  0  0  0  0
 55 66  2  0  0  0  0
 57 60  2  0  0  0  0
 57114  1  0  0  0  0
 59 67  2  0  0  0  0
 60115  1  0  0  0  0
 61116  1  0  0  0  0
 62 69  2  0  0  0  0
 63117  1  0  0  0  0
 65 71  1  0  0  0  0
 65122  1  0  0  0  0
 66 73  1  0  0  0  0
 66123  1  0  0  0  0
 67 72  1  0  0  0  0
 67125  1  0  0  0  0
 69 74  1  0  0  0  0
 69126  1  0  0  0  0
 70 75  1  0  0  0  0
 70 76  1  0  0  0  0
 70127  1  0  0  0  0
 71 72  2  0  0  0  0
 71128  1  0  0  0  0
 72129  1  0  0  0  0
 73 74  2  0  0  0  0
 73130  1  0  0  0  0
 74131  1  0  0  0  0
 75132  1  0  0  0  0
 75133  1  0  0  0  0
 75134  1  0  0  0  0
M  END
> <PUBCHEM_COMPOUND_CID>
514224
> <PUBCHEM_COMPOUND_CANONICALIZED>
1
> <PUBCHEM_CACTVS_COMPLEXITY>
2100
> <PUBCHEM_CACTVS_HBOND_ACCEPTOR>
14
> <PUBCHEM_CACTVS_HBOND_DONOR>
14
> <PUBCHEM_CACTVS_ROTATABLE_BOND>
27
> <PUBCHEM_CACTVS_SUBSKEYS>
AAADcfB//AAAAAAAAAAAAAAAAAAAAWLFgAAwYMAAAAAAAFgB/gAAHgAQCAAADSjBngQ+yPLJkgCoAzX3XACCgCAxAiAI2aG4ZJgKYPrAkbGUYAhmlgDYyAe/n8KOgAAAAAACAAAAAAAAAAQAAAAAAAAAAA==
> <PUBCHEM_IUPAC_OPENEYE_NAME>
(4S)-4-[[(2S)-2-amino-3-(1H-indol-3-yl)propanoyl]amino]-5-[[(1S)-2-[[(1S)-2-[[(1S)-1-[[2-[[(1S)-2-[[(1S)-1-carboxyethyl]amino]-1-(1H-indol-3-ylmethyl)-2-oxo-ethyl]amino]-2-oxo-ethyl]carbamoyl]-2-methyl-propyl]amino]-1-(1H-indol-3-ylmethyl)-2-oxo-ethyl]amino]-1-(carboxymethyl)-2-oxo-ethyl]amino]-5-oxo-pentanoic acid
> <PUBCHEM_IUPAC_CAS_NAME>
(4S)-4-[[(2S)-2-amino-3-(1H-indol-3-yl)-1-oxopropyl]amino]-5-[[(2S)-3-carboxy-1-[[(2S)-1-[[(2S)-1-[[2-[[(2S)-1-[[(1S)-1-carboxyethyl]amino]-3-(1H-indol-3-yl)-1-oxopropan-2-yl]amino]-2-oxoethyl]amino]-3-methyl-1-oxobutan-2-yl]amino]-3-(1H-indol-3-yl)-1-oxopropan-2-yl]amino]-1-oxopropan-2-yl]amino]-5-oxopentanoic acid
> <PUBCHEM_IUPAC_NAME_MARKUP>
(4<I>S</I>)-4-[[(2<I>S</I>)-2-amino-3-(1<I>H</I>-indol-3-yl)propanoyl]amino]-5-[[(2<I>S</I>)-3-carboxy-1-[[(2<I>S</I>)-1-[[(2<I>S</I>)-1-[[2-[[(2<I>S</I>)-1-[[(1<I>S</I>)-1-carboxyethyl]amino]-3-(1<I>H</I>-indol-3-yl)-1-oxopropan-2-yl]amino]-2-oxoethyl]amino]-3-methyl-1-oxobutan-2-yl]amino]-3-(1<I>H</I>-indol-3-yl)-1-oxopropan-2-yl]amino]-1-oxopropan-2-yl]amino]-5-oxopentanoic acid
> <PUBCHEM_IUPAC_NAME>
(4S)-4-[[(2S)-2-amino-3-(1H-indol-3-yl)propanoyl]amino]-5-[[(2S)-3-carboxy-1-[[(2S)-1-[[(2S)-1-[[2-[[(2S)-1-[[(1S)-1-carboxyethyl]amino]-3-(1H-indol-3-yl)-1-oxopropan-2-yl]amino]-2-oxoethyl]amino]-3-methyl-1-oxobutan-2-yl]amino]-3-(1H-indol-3-yl)-1-oxopropan-2-yl]amino]-1-oxopropan-2-yl]amino]-5-oxopentanoic acid
> <PUBCHEM_IUPAC_SYSTEMATIC_NAME>
(4S)-4-[[(2S)-2-azanyl-3-(1H-indol-3-yl)propanoyl]amino]-5-[[(2S)-1-[[(2S)-3-(1H-indol-3-yl)-1-[[(2S)-1-[[2-[[(2S)-3-(1H-indol-3-yl)-1-oxidanylidene-1-[[(2S)-1-oxidanyl-1-oxidanylidene-propan-2-yl]amino]propan-2-yl]amino]-2-oxidanylidene-ethyl]amino]-3-methyl-1-oxidanylidene-butan-2-yl]amino]-1-oxidanylidene-propan-2-yl]amino]-4-oxidanyl-1,4-bis(oxidanylidene)butan-2-yl]amino]-5-oxidanylidene-pentanoic acid
> <PUBCHEM_IUPAC_TRADITIONAL_NAME>
(4S)-4-[[(2S)-2-amino-3-(1H-indol-3-yl)propanoyl]amino]-5-[[(1S)-2-[[(1S)-2-[[(1S)-1-[[2-[[(1S)-2-[[(1S)-1-carboxyethyl]amino]-1-(1H-indol-3-ylmethyl)-2-keto-ethyl]amino]-2-keto-ethyl]carbamoyl]-2-methyl-propyl]amino]-1-(1H-indol-3-ylmethyl)-2-keto-ethyl]amino]-1-(carboxymethyl)-2-keto-ethyl]amino]-5-keto-valeric acid
> <PUBCHEM_IUPAC_INCHI>
InChI=1S/C52H61N11O13/c1-26(2)45(51(74)57-25-42(64)59-39(48(71)58-27(3)52(75)76)19-29-23-55-36-14-8-5-11-32(29)36)63-50(73)40(20-30-24-56-37-15-9-6-12-33(30)37)61-49(72)41(21-44(67)68)62-47(70)38(16-17-43(65)66)60-46(69)34(53)18-28-22-54-35-13-7-4-10-31(28)35/h4-15,22-24,26-27,34,38-41,45,54-56H,16-21,25,53H2,1-3H3,(H,57,74)(H,58,71)(H,59,64)(H,60,69)(H,61,72)(H,62,70)(H,63,73)(H,65,66)(H,67,68)(H,75,76)/t27-,34-,38-,39-,40-,41-,45-/m0/s1
> <PUBCHEM_IUPAC_INCHIKEY>
CKURFKBGLAGPKM-JXCURUGXSA-N
> <PUBCHEM_XLOGP3_AA>
-0.4
> <PUBCHEM_EXACT_MASS>
1047.44503104
> <PUBCHEM_MOLECULAR_FORMULA>
C52H61N11O13
> <PUBCHEM_MOLECULAR_WEIGHT>
1048.1
> <PUBCHEM_OPENEYE_CAN_SMILES>
CC(C)C(C(=O)NCC(=O)NC(CC1=CNC2=CC=CC=C21)C(=O)NC(C)C(=O)O)NC(=O)C(CC3=CNC4=CC=CC=C43)NC(=O)C(CC(=O)O)NC(=O)C(CCC(=O)O)NC(=O)C(CC5=CNC6=CC=CC=C65)N
> <PUBCHEM_OPENEYE_ISO_SMILES>
C[C@@H](C(=O)O)NC(=O)[C@H](CC1=CNC2=CC=CC=C21)NC(=O)CNC(=O)[C@H](C(C)C)NC(=O)[C@H](CC3=CNC4=CC=CC=C43)NC(=O)[C@H](CC(=O)O)NC(=O)[C@H](CCC(=O)O)NC(=O)[C@H](CC5=CNC6=CC=CC=C65)N
> <PUBCHEM_CACTVS_TPSA>
389
> <PUBCHEM_MONOISOTOPIC_WEIGHT>
1047.44503104
> <PUBCHEM_TOTAL_CHARGE>
0
> <PUBCHEM_HEAVY_ATOM_COUNT>
76
> <PUBCHEM_ATOM_DEF_STEREO_COUNT>
7
> <PUBCHEM_ATOM_UDEF_STEREO_COUNT>
0
> <PUBCHEM_BOND_DEF_STEREO_COUNT>
0
> <PUBCHEM_BOND_UDEF_STEREO_COUNT>
0
> <PUBCHEM_ISOTOPIC_ATOM_COUNT>
0
> <PUBCHEM_COMPONENT_COUNT>
1
> <PUBCHEM_CACTVS_TAUTO_COUNT>
-1
> <PUBCHEM_COORDINATE_TYPE>
1
5
255
> <PUBCHEM_BONDANNOTATIONS>
26  14  5
25  15  6
31  16  5
17  38  8
17  39  8
37  19  6
43  20  5
21  59  8
21  61  8
22  62  8
22  63  8
44  23  5
70  24  6
29  32  8
29  39  8
32  38  8
32  47  8
38  52  8
47  57  8
48  54  8
48  61  8
50  55  8
50  63  8
52  60  8
54  59  8
54  65  8
55  62  8
55  66  8
57  60  8
59  67  8
62  69  8
65  71  8
66  73  8
67  72  8
69  74  8
71  72  8
73  74  8
$$$$
