514237
  -OEChem-10302200282D
105108  0     1  0  0  0  0  0999 V2000
    9.6137   -5.9471    0.0000 S   0  0  0  0  0  0  0  0  0  0  0  0
    6.6137   -0.7509    0.0000 O   0  0  0  0  0  0  0  0  0  0  0  0
    7.1045    1.0810    0.0000 O   0  0  0  0  0  0  0  0  0  0  0  0
    4.1137   -3.3490    0.0000 O   0  0  0  0  0  0  0  0  0  0  0  0
    6.2385    4.5810    0.0000 O   0  0  0  0  0  0  0  0  0  0  0  0
    8.8366    4.0810    0.0000 O   0  0  0  0  0  0  0  0  0  0  0  0
    6.6137   -5.9471    0.0000 O   0  0  0  0  0  0  0  0  0  0  0  0
    9.6137   -6.9471    0.0000 O   0  0  0  0  0  0  0  0  0  0  0  0
    9.6137   -4.9471    0.0000 O   0  0  0  0  0  0  0  0  0  0  0  0
    5.1137    0.1151    0.0000 N   0  0  0  0  0  0  0  0  0  0  0  0
    6.2385    2.5810    0.0000 N   0  0  0  0  0  0  0  0  0  0  0  0
    5.6137   -2.4830    0.0000 N   0  0  0  0  0  0  0  0  0  0  0  0
    6.6137   -4.2150    0.0000 N   0  0  0  0  0  0  0  0  0  0  0  0
    7.9706    5.5810    0.0000 N   0  0  0  0  0  0  0  0  0  0  0  0
    8.6137   -5.9471    0.0000 N   0  0  0  0  0  0  0  0  0  0  0  0
    3.9735    1.5899    0.0000 C   0  0  3  0  0  0  0  0  0  0  0  0
    3.7147    0.6239    0.0000 C   0  0  3  0  0  0  0  0  0  0  0  0
    3.2369    2.5725    0.0000 C   0  0  0  0  0  0  0  0  0  0  0  0
    5.3725    1.0810    0.0000 C   0  0  1  0  0  0  0  0  0  0  0  0
    2.0000    0.9716    0.0000 C   0  0  0  0  0  0  0  0  0  0  0  0
    2.3420    0.0319    0.0000 C   0  0  0  0  0  0  0  0  0  0  0  0
    5.6137   -0.7509    0.0000 C   0  0  0  0  0  0  0  0  0  0  0  0
    6.2385    1.5810    0.0000 C   0  0  0  0  0  0  0  0  0  0  0  0
    5.1137   -1.6169    0.0000 C   0  0  2  0  0  0  0  0  0  0  0  0
    4.1137   -1.6169    0.0000 C   0  0  0  0  0  0  0  0  0  0  0  0
    7.1045    3.0810    0.0000 C   0  0  1  0  0  0  0  0  0  0  0  0
    3.1137   -1.6169    0.0000 C   0  0  0  0  0  0  0  0  0  0  0  0
    4.1137   -2.6169    0.0000 C   0  0  0  0  0  0  0  0  0  0  0  0
    4.1137   -0.6169    0.0000 C   0  0  0  0  0  0  0  0  0  0  0  0
    5.1137   -3.3490    0.0000 C   0  0  0  0  0  0  0  0  0  0  0  0
    5.6137   -4.2150    0.0000 C   0  0  2  0  0  0  0  0  0  0  0  0
    5.1137   -5.0810    0.0000 C   0  0  0  0  0  0  0  0  0  0  0  0
    7.9706    2.5810    0.0000 C   0  0  0  0  0  0  0  0  0  0  0  0
    4.1137   -5.0810    0.0000 C   0  0  0  0  0  0  0  0  0  0  0  0
    5.6137   -5.9471    0.0000 C   0  0  0  0  0  0  0  0  0  0  0  0
    7.1045    4.0810    0.0000 C   0  0  0  0  0  0  0  0  0  0  0  0
    3.6137   -5.9471    0.0000 C   0  0  0  0  0  0  0  0  0  0  0  0
    5.1137   -6.8131    0.0000 C   0  0  0  0  0  0  0  0  0  0  0  0
    4.1137   -6.8131    0.0000 C   0  0  0  0  0  0  0  0  0  0  0  0
    8.8366    3.0810    0.0000 C   0  0  0  0  0  0  0  0  0  0  0  0
    8.8366    6.0810    0.0000 C   0  0  0  0  0  0  0  0  0  0  0  0
    9.8366    6.0810    0.0000 C   0  0  0  0  0  0  0  0  0  0  0  0
    9.3366    6.9471    0.0000 C   0  0  0  0  0  0  0  0  0  0  0  0
    7.9706    4.5810    0.0000 C   0  0  0  0  0  0  0  0  0  0  0  0
    7.1137   -5.0810    0.0000 C   0  0  0  0  0  0  0  0  0  0  0  0
    9.7026    2.5810    0.0000 C   0  0  0  0  0  0  0  0  0  0  0  0
    8.1137   -5.0810    0.0000 C   0  0  2  0  0  0  0  0  0  0  0  0
    8.6137   -4.2150    0.0000 C   0  0  0  0  0  0  0  0  0  0  0  0
   10.6137   -5.9471    0.0000 C   0  0  0  0  0  0  0  0  0  0  0  0
    3.9595    0.9700    0.0000 H   0  0  0  0  0  0  0  0  0  0  0  0
    3.7328    0.0042    0.0000 H   0  0  0  0  0  0  0  0  0  0  0  0
    3.5547    3.1048    0.0000 H   0  0  0  0  0  0  0  0  0  0  0  0
    2.6238    2.6644    0.0000 H   0  0  0  0  0  0  0  0  0  0  0  0
    5.8644    0.7036    0.0000 H   0  0  0  0  0  0  0  0  0  0  0  0
    1.8057    1.5604    0.0000 H   0  0  0  0  0  0  0  0  0  0  0  0
    1.4142    0.7684    0.0000 H   0  0  0  0  0  0  0  0  0  0  0  0
    1.7636   -0.1914    0.0000 H   0  0  0  0  0  0  0  0  0  0  0  0
    2.5765   -0.5420    0.0000 H   0  0  0  0  0  0  0  0  0  0  0  0
    4.8037   -2.1539    0.0000 H   0  0  0  0  0  0  0  0  0  0  0  0
    5.7016    2.8910    0.0000 H   0  0  0  0  0  0  0  0  0  0  0  0
    6.2337   -2.4830    0.0000 H   0  0  0  0  0  0  0  0  0  0  0  0
    7.1045    2.4610    0.0000 H   0  0  0  0  0  0  0  0  0  0  0  0
    3.1137   -0.9969    0.0000 H   0  0  0  0  0  0  0  0  0  0  0  0
    2.4937   -1.6169    0.0000 H   0  0  0  0  0  0  0  0  0  0  0  0
    3.1137   -2.2369    0.0000 H   0  0  0  0  0  0  0  0  0  0  0  0
    3.4937   -2.6169    0.0000 H   0  0  0  0  0  0  0  0  0  0  0  0
    4.1137   -3.2369    0.0000 H   0  0  0  0  0  0  0  0  0  0  0  0
    4.7337   -2.6169    0.0000 H   0  0  0  0  0  0  0  0  0  0  0  0
    4.7337   -0.6169    0.0000 H   0  0  0  0  0  0  0  0  0  0  0  0
    4.1137    0.0031    0.0000 H   0  0  0  0  0  0  0  0  0  0  0  0
    3.4937   -0.6169    0.0000 H   0  0  0  0  0  0  0  0  0  0  0  0
    5.9237   -3.6781    0.0000 H   0  0  0  0  0  0  0  0  0  0  0  0
    5.7337   -5.0810    0.0000 H   0  0  0  0  0  0  0  0  0  0  0  0
    7.5720    2.1061    0.0000 H   0  0  0  0  0  0  0  0  0  0  0  0
    8.3691    2.1061    0.0000 H   0  0  0  0  0  0  0  0  0  0  0  0
    4.2213   -4.4705    0.0000 H   0  0  0  0  0  0  0  0  0  0  0  0
    3.5310   -4.8690    0.0000 H   0  0  0  0  0  0  0  0  0  0  0  0
    6.0886   -6.3456    0.0000 H   0  0  0  0  0  0  0  0  0  0  0  0
    6.0886   -5.5485    0.0000 H   0  0  0  0  0  0  0  0  0  0  0  0
    3.1387   -5.5485    0.0000 H   0  0  0  0  0  0  0  0  0  0  0  0
    3.1387   -6.3456    0.0000 H   0  0  0  0  0  0  0  0  0  0  0  0
    5.0060   -7.4237    0.0000 H   0  0  0  0  0  0  0  0  0  0  0  0
    5.6963   -7.0251    0.0000 H   0  0  0  0  0  0  0  0  0  0  0  0
    3.5310   -7.0251    0.0000 H   0  0  0  0  0  0  0  0  0  0  0  0
    4.2213   -7.4237    0.0000 H   0  0  0  0  0  0  0  0  0  0  0  0
    9.2351    3.5560    0.0000 H   0  0  0  0  0  0  0  0  0  0  0  0
    8.4381    3.5560    0.0000 H   0  0  0  0  0  0  0  0  0  0  0  0
    8.9970    5.4822    0.0000 H   0  0  0  0  0  0  0  0  0  0  0  0
    6.9237   -3.6781    0.0000 H   0  0  0  0  0  0  0  0  0  0  0  0
    9.9442    5.4705    0.0000 H   0  0  0  0  0  0  0  0  0  0  0  0
   10.4192    6.2931    0.0000 H   0  0  0  0  0  0  0  0  0  0  0  0
    9.8115    7.3456    0.0000 H   0  0  0  0  0  0  0  0  0  0  0  0
    8.8616    7.3456    0.0000 H   0  0  0  0  0  0  0  0  0  0  0  0
    7.4336    5.8910    0.0000 H   0  0  0  0  0  0  0  0  0  0  0  0
    9.3926    2.0441    0.0000 H   0  0  0  0  0  0  0  0  0  0  0  0
   10.2395    2.2710    0.0000 H   0  0  0  0  0  0  0  0  0  0  0  0
   10.0126    3.1180    0.0000 H   0  0  0  0  0  0  0  0  0  0  0  0
    8.7337   -5.0810    0.0000 H   0  0  0  0  0  0  0  0  0  0  0  0
    9.1506   -4.5250    0.0000 H   0  0  0  0  0  0  0  0  0  0  0  0
    8.9237   -3.6781    0.0000 H   0  0  0  0  0  0  0  0  0  0  0  0
    8.0767   -3.9050    0.0000 H   0  0  0  0  0  0  0  0  0  0  0  0
    8.3037   -6.4840    0.0000 H   0  0  0  0  0  0  0  0  0  0  0  0
   10.6137   -6.5671    0.0000 H   0  0  0  0  0  0  0  0  0  0  0  0
   11.2337   -5.9471    0.0000 H   0  0  0  0  0  0  0  0  0  0  0  0
   10.6137   -5.3271    0.0000 H   0  0  0  0  0  0  0  0  0  0  0  0
  1  8  2  0  0  0  0
  1  9  2  0  0  0  0
  1 15  1  0  0  0  0
  1 49  1  0  0  0  0
  2 22  2  0  0  0  0
  3 23  2  0  0  0  0
  4 30  2  0  0  0  0
  5 36  2  0  0  0  0
  6 44  2  0  0  0  0
  7 45  2  0  0  0  0
 10 17  1  0  0  0  0
 10 19  1  0  0  0  0
 10 22  1  0  0  0  0
 11 23  1  0  0  0  0
 26 11  1  6  0  0  0
 11 60  1  0  0  0  0
 24 12  1  1  0  0  0
 12 30  1  0  0  0  0
 12 61  1  0  0  0  0
 31 13  1  1  0  0  0
 13 45  1  0  0  0  0
 13 89  1  0  0  0  0
 14 41  1  0  0  0  0
 14 44  1  0  0  0  0
 14 94  1  0  0  0  0
 47 15  1  6  0  0  0
 15102  1  0  0  0  0
 16 18  1  0  0  0  0
 16 19  1  0  0  0  0
 16 20  1  0  0  0  0
 16 50  1  0  0  0  0
 17 18  1  0  0  0  0
 17 21  1  0  0  0  0
 17 51  1  0  0  0  0
 18 52  1  0  0  0  0
 18 53  1  0  0  0  0
 19 23  1  1  0  0  0
 19 54  1  0  0  0  0
 20 21  1  0  0  0  0
 20 55  1  0  0  0  0
 20 56  1  0  0  0  0
 21 57  1  0  0  0  0
 21 58  1  0  0  0  0
 22 24  1  0  0  0  0
 24 25  1  0  0  0  0
 24 59  1  0  0  0  0
 25 27  1  0  0  0  0
 25 28  1  0  0  0  0
 25 29  1  0  0  0  0
 26 33  1  0  0  0  0
 26 36  1  0  0  0  0
 26 62  1  0  0  0  0
 27 63  1  0  0  0  0
 27 64  1  0  0  0  0
 27 65  1  0  0  0  0
 28 66  1  0  0  0  0
 28 67  1  0  0  0  0
 28 68  1  0  0  0  0
 29 69  1  0  0  0  0
 29 70  1  0  0  0  0
 29 71  1  0  0  0  0
 30 31  1  0  0  0  0
 31 32  1  0  0  0  0
 31 72  1  0  0  0  0
 32 34  1  0  0  0  0
 32 35  1  0  0  0  0
 32 73  1  0  0  0  0
 33 40  1  0  0  0  0
 33 74  1  0  0  0  0
 33 75  1  0  0  0  0
 34 37  1  0  0  0  0
 34 76  1  0  0  0  0
 34 77  1  0  0  0  0
 35 38  1  0  0  0  0
 35 78  1  0  0  0  0
 35 79  1  0  0  0  0
 36 44  1  0  0  0  0
 37 39  1  0  0  0  0
 37 80  1  0  0  0  0
 37 81  1  0  0  0  0
 38 39  1  0  0  0  0
 38 82  1  0  0  0  0
 38 83  1  0  0  0  0
 39 84  1  0  0  0  0
 39 85  1  0  0  0  0
 40 46  1  0  0  0  0
 40 86  1  0  0  0  0
 40 87  1  0  0  0  0
 41 42  1  0  0  0  0
 41 43  1  0  0  0  0
 41 88  1  0  0  0  0
 42 43  1  0  0  0  0
 42 90  1  0  0  0  0
 42 91  1  0  0  0  0
 43 92  1  0  0  0  0
 43 93  1  0  0  0  0
 45 47  1  0  0  0  0
 46 95  1  0  0  0  0
 46 96  1  0  0  0  0
 46 97  1  0  0  0  0
 47 48  1  0  0  0  0
 47 98  1  0  0  0  0
 48 99  1  0  0  0  0
 48100  1  0  0  0  0
 48101  1  0  0  0  0
 49103  1  0  0  0  0
 49104  1  0  0  0  0
 49105  1  0  0  0  0
M  END
> <PUBCHEM_COMPOUND_CID>
514237
> <PUBCHEM_COMPOUND_CANONICALIZED>
1
> <PUBCHEM_CACTVS_COMPLEXITY>
1380
> <PUBCHEM_CACTVS_HBOND_ACCEPTOR>
9
> <PUBCHEM_CACTVS_HBOND_DONOR>
5
> <PUBCHEM_CACTVS_ROTATABLE_BOND>
16
> <PUBCHEM_CACTVS_SUBSKEYS>
AAADcfB/vABAAAAAAAAAAAAAGAAAAeIAAAA8QAAAAAAAAAAAAAAAHgQQQAAADyzBgASCAAPAAAIIAIEQEHAAAAAAAAAAAIGIAAAAQBoAwCAUAAAAFgCAAAEYiYCfAAAAAAAAAAAAAAAAAAAAACAAAAAAAA==
> <PUBCHEM_IUPAC_OPENEYE_NAME>
(3S)-2-[(2S)-2-[[(2S)-2-cyclohexyl-2-[[(2S)-2-(methanesulfonamido)propanoyl]amino]acetyl]amino]-3,3-dimethyl-butanoyl]-N-[(1S)-1-[2-(cyclopropylamino)-2-oxo-acetyl]butyl]-2-azabicyclo[2.2.1]heptane-3-carboxamide
> <PUBCHEM_IUPAC_CAS_NAME>
(3S)-2-[(2S)-2-[[(2S)-2-cyclohexyl-2-[[(2S)-2-(methanesulfonamido)-1-oxopropyl]amino]-1-oxoethyl]amino]-3,3-dimethyl-1-oxobutyl]-N-[(3S)-1-(cyclopropylamino)-1,2-dioxohexan-3-yl]-2-azabicyclo[2.2.1]heptane-3-carboxamide
> <PUBCHEM_IUPAC_NAME_MARKUP>
(3<I>S</I>)-2-[(2<I>S</I>)-2-[[(2<I>S</I>)-2-cyclohexyl-2-[[(2<I>S</I>)-2-(methanesulfonamido)propanoyl]amino]acetyl]amino]-3,3-dimethylbutanoyl]-<I>N</I>-[(3<I>S</I>)-1-(cyclopropylamino)-1,2-dioxohexan-3-yl]-2-azabicyclo[2.2.1]heptane-3-carboxamide
> <PUBCHEM_IUPAC_NAME>
(3S)-2-[(2S)-2-[[(2S)-2-cyclohexyl-2-[[(2S)-2-(methanesulfonamido)propanoyl]amino]acetyl]amino]-3,3-dimethylbutanoyl]-N-[(3S)-1-(cyclopropylamino)-1,2-dioxohexan-3-yl]-2-azabicyclo[2.2.1]heptane-3-carboxamide
> <PUBCHEM_IUPAC_SYSTEMATIC_NAME>
(3S)-2-[(2S)-2-[[(2S)-2-cyclohexyl-2-[[(2S)-2-(methylsulfonylamino)propanoyl]amino]ethanoyl]amino]-3,3-dimethyl-butanoyl]-N-[(3S)-1-(cyclopropylamino)-1,2-bis(oxidanylidene)hexan-3-yl]-2-azabicyclo[2.2.1]heptane-3-carboxamide
> <PUBCHEM_IUPAC_TRADITIONAL_NAME>
(3S)-2-[(2S)-2-[[(2S)-2-cyclohexyl-2-[[(2S)-2-(methanesulfonamido)propanoyl]amino]acetyl]amino]-3,3-dimethyl-butanoyl]-N-[(1S)-1-[2-(cyclopropylamino)-2-keto-acetyl]butyl]-2-azabicyclo[2.2.1]heptane-3-carboxamide
> <PUBCHEM_IUPAC_INCHI>
InChI=1S/C34H56N6O8S/c1-7-11-24(27(41)32(45)35-22-15-16-22)36-31(44)26-21-14-17-23(18-21)40(26)33(46)28(34(3,4)5)38-30(43)25(20-12-9-8-10-13-20)37-29(42)19(2)39-49(6,47)48/h19-26,28,39H,7-18H2,1-6H3,(H,35,45)(H,36,44)(H,37,42)(H,38,43)/t19-,21?,23?,24-,25-,26-,28+/m0/s1
> <PUBCHEM_IUPAC_INCHIKEY>
BIZVABILXDNWMH-TVAOEIKOSA-N
> <PUBCHEM_XLOGP3_AA>
3.5
> <PUBCHEM_EXACT_MASS>
708.38803394
> <PUBCHEM_MOLECULAR_FORMULA>
C34H56N6O8S
> <PUBCHEM_MOLECULAR_WEIGHT>
708.9
> <PUBCHEM_OPENEYE_CAN_SMILES>
CCCC(C(=O)C(=O)NC1CC1)NC(=O)C2C3CCC(C3)N2C(=O)C(C(C)(C)C)NC(=O)C(C4CCCCC4)NC(=O)C(C)NS(=O)(=O)C
> <PUBCHEM_OPENEYE_ISO_SMILES>
CCC[C@@H](C(=O)C(=O)NC1CC1)NC(=O)[C@@H]2C3CCC(C3)N2C(=O)[C@H](C(C)(C)C)NC(=O)[C@H](C4CCCCC4)NC(=O)[C@H](C)NS(=O)(=O)C
> <PUBCHEM_CACTVS_TPSA>
208
> <PUBCHEM_MONOISOTOPIC_WEIGHT>
708.38803394
> <PUBCHEM_TOTAL_CHARGE>
0
> <PUBCHEM_HEAVY_ATOM_COUNT>
49
> <PUBCHEM_ATOM_DEF_STEREO_COUNT>
5
> <PUBCHEM_ATOM_UDEF_STEREO_COUNT>
2
> <PUBCHEM_BOND_DEF_STEREO_COUNT>
0
> <PUBCHEM_BOND_UDEF_STEREO_COUNT>
0
> <PUBCHEM_ISOTOPIC_ATOM_COUNT>
0
> <PUBCHEM_COMPONENT_COUNT>
1
> <PUBCHEM_CACTVS_TAUTO_COUNT>
-1
> <PUBCHEM_COORDINATE_TYPE>
1
5
255
> <PUBCHEM_BONDANNOTATIONS>
26  11  6
24  12  5
31  13  5
47  15  6
16  20  3
17  21  3
19  23  5
$$$$
