514250
  -OEChem-10302200282D
 67 70  0     1  0  0  0  0  0999 V2000
    5.8301   -6.0904    0.0000 F   0  0  0  0  0  0  0  0  0  0  0  0
    7.1962   -5.7244    0.0000 F   0  0  0  0  0  0  0  0  0  0  0  0
    6.8301   -4.3583    0.0000 F   0  0  0  0  0  0  0  0  0  0  0  0
    5.4641   -0.7244    0.0000 O   0  0  0  0  0  0  0  0  0  0  0  0
    5.4641   -4.7244    0.0000 O   0  0  0  0  0  0  0  0  0  0  0  0
    2.8660   -0.2244    0.0000 N   0  0  0  0  0  0  0  0  0  0  0  0
    6.5981    4.5077    0.0000 N   0  0  0  0  0  0  0  0  0  0  0  0
    2.0570   -0.8121    0.0000 N   0  0  0  0  0  0  0  0  0  0  0  0
    3.3660   -1.7632    0.0000 N   0  0  0  0  0  0  0  0  0  0  0  0
    7.8005    5.5904    0.0000 N   0  0  0  0  0  0  0  0  0  0  0  0
    4.5981    2.7756    0.0000 C   0  0  1  0  0  0  0  0  0  0  0  0
    3.7320    2.2756    0.0000 C   0  0  1  0  0  0  0  0  0  0  0  0
    3.7320    1.2756    0.0000 C   0  0  2  0  0  0  0  0  0  0  0  0
    4.5981    0.7756    0.0000 C   0  0  1  0  0  0  0  0  0  0  0  0
    5.4641    2.2756    0.0000 C   0  0  0  0  0  0  0  0  0  0  0  0
    5.4641    1.2756    0.0000 C   0  0  0  0  0  0  0  0  0  0  0  0
    5.0981    3.6417    0.0000 C   0  0  0  0  0  0  0  0  0  0  0  0
    2.8660    2.7756    0.0000 C   0  0  0  0  0  0  0  0  0  0  0  0
    4.0981    3.6417    0.0000 C   0  0  0  0  0  0  0  0  0  0  0  0
    2.8660    0.7756    0.0000 C   0  0  0  0  0  0  0  0  0  0  0  0
    4.5981   -0.2244    0.0000 C   0  0  0  0  0  0  0  0  0  0  0  0
    6.0981    3.6417    0.0000 C   0  0  0  0  0  0  0  0  0  0  0  0
    2.0000    2.2756    0.0000 C   0  0  0  0  0  0  0  0  0  0  0  0
    3.6750   -0.8121    0.0000 C   0  0  0  0  0  0  0  0  0  0  0  0
    5.4641   -1.7244    0.0000 C   0  0  0  0  0  0  0  0  0  0  0  0
    6.1913    5.4212    0.0000 C   0  0  0  0  0  0  0  0  0  0  0  0
    7.5926    4.6122    0.0000 C   0  0  0  0  0  0  0  0  0  0  0  0
    2.3660   -1.7632    0.0000 C   0  0  0  0  0  0  0  0  0  0  0  0
    6.9345    6.0904    0.0000 C   0  0  0  0  0  0  0  0  0  0  0  0
    6.3301   -2.2244    0.0000 C   0  0  0  0  0  0  0  0  0  0  0  0
    4.5981   -2.2244    0.0000 C   0  0  0  0  0  0  0  0  0  0  0  0
    6.3301   -3.2244    0.0000 C   0  0  0  0  0  0  0  0  0  0  0  0
    4.5981   -3.2244    0.0000 C   0  0  0  0  0  0  0  0  0  0  0  0
    5.4641   -3.7244    0.0000 C   0  0  0  0  0  0  0  0  0  0  0  0
    6.3301   -5.2244    0.0000 C   0  0  0  0  0  0  0  0  0  0  0  0
    3.7320    2.8956    0.0000 H   0  0  0  0  0  0  0  0  0  0  0  0
    3.1951    1.5856    0.0000 H   0  0  0  0  0  0  0  0  0  0  0  0
    5.1350    0.4656    0.0000 H   0  0  0  0  0  0  0  0  0  0  0  0
    6.0747    2.1680    0.0000 H   0  0  0  0  0  0  0  0  0  0  0  0
    5.6762    2.8583    0.0000 H   0  0  0  0  0  0  0  0  0  0  0  0
    5.6762    0.6930    0.0000 H   0  0  0  0  0  0  0  0  0  0  0  0
    6.0747    1.3833    0.0000 H   0  0  0  0  0  0  0  0  0  0  0  0
    5.2057    4.2523    0.0000 H   0  0  0  0  0  0  0  0  0  0  0  0
    4.5155    3.8537    0.0000 H   0  0  0  0  0  0  0  0  0  0  0  0
    3.2646    3.2506    0.0000 H   0  0  0  0  0  0  0  0  0  0  0  0
    2.4675    3.2506    0.0000 H   0  0  0  0  0  0  0  0  0  0  0  0
    4.6350    3.9517    0.0000 H   0  0  0  0  0  0  0  0  0  0  0  0
    3.7881    4.1786    0.0000 H   0  0  0  0  0  0  0  0  0  0  0  0
    3.5611    3.3317    0.0000 H   0  0  0  0  0  0  0  0  0  0  0  0
    2.6540    1.3583    0.0000 H   0  0  0  0  0  0  0  0  0  0  0  0
    2.2554    0.6680    0.0000 H   0  0  0  0  0  0  0  0  0  0  0  0
    3.9875   -0.1167    0.0000 H   0  0  0  0  0  0  0  0  0  0  0  0
    4.3860   -0.8070    0.0000 H   0  0  0  0  0  0  0  0  0  0  0  0
    5.9904    3.0311    0.0000 H   0  0  0  0  0  0  0  0  0  0  0  0
    6.6807    3.4296    0.0000 H   0  0  0  0  0  0  0  0  0  0  0  0
    1.6900    2.8126    0.0000 H   0  0  0  0  0  0  0  0  0  0  0  0
    1.4631    1.9656    0.0000 H   0  0  0  0  0  0  0  0  0  0  0  0
    2.3100    1.7387    0.0000 H   0  0  0  0  0  0  0  0  0  0  0  0
    4.2647   -0.6205    0.0000 H   0  0  0  0  0  0  0  0  0  0  0  0
    5.5849    5.5502    0.0000 H   0  0  0  0  0  0  0  0  0  0  0  0
    8.0075    4.1515    0.0000 H   0  0  0  0  0  0  0  0  0  0  0  0
    2.0016   -2.2648    0.0000 H   0  0  0  0  0  0  0  0  0  0  0  0
    6.8697    6.7070    0.0000 H   0  0  0  0  0  0  0  0  0  0  0  0
    6.8671   -1.9144    0.0000 H   0  0  0  0  0  0  0  0  0  0  0  0
    4.0611   -1.9144    0.0000 H   0  0  0  0  0  0  0  0  0  0  0  0
    6.8671   -3.5344    0.0000 H   0  0  0  0  0  0  0  0  0  0  0  0
    4.0611   -3.5344    0.0000 H   0  0  0  0  0  0  0  0  0  0  0  0
  1 35  1  0  0  0  0
  2 35  1  0  0  0  0
  3 35  1  0  0  0  0
  4 21  1  0  0  0  0
  4 25  1  0  0  0  0
  5 34  1  0  0  0  0
  5 35  1  0  0  0  0
  6  8  1  0  0  0  0
  6 20  1  0  0  0  0
  6 24  1  0  0  0  0
  7 22  1  0  0  0  0
  7 26  1  0  0  0  0
  7 27  1  0  0  0  0
  8 28  2  0  0  0  0
  9 24  2  0  0  0  0
  9 28  1  0  0  0  0
 10 27  2  0  0  0  0
 10 29  1  0  0  0  0
 11 12  1  0  0  0  0
 11 15  1  0  0  0  0
 11 17  1  0  0  0  0
 11 19  1  1  0  0  0
 12 13  1  0  0  0  0
 12 18  1  1  0  0  0
 12 36  1  0  0  0  0
 13 14  1  0  0  0  0
 13 20  1  6  0  0  0
 13 37  1  0  0  0  0
 14 16  1  0  0  0  0
 14 21  1  1  0  0  0
 14 38  1  0  0  0  0
 15 16  1  0  0  0  0
 15 39  1  0  0  0  0
 15 40  1  0  0  0  0
 16 41  1  0  0  0  0
 16 42  1  0  0  0  0
 17 22  1  0  0  0  0
 17 43  1  0  0  0  0
 17 44  1  0  0  0  0
 18 23  1  0  0  0  0
 18 45  1  0  0  0  0
 18 46  1  0  0  0  0
 19 47  1  0  0  0  0
 19 48  1  0  0  0  0
 19 49  1  0  0  0  0
 20 50  1  0  0  0  0
 20 51  1  0  0  0  0
 21 52  1  0  0  0  0
 21 53  1  0  0  0  0
 22 54  1  0  0  0  0
 22 55  1  0  0  0  0
 23 56  1  0  0  0  0
 23 57  1  0  0  0  0
 23 58  1  0  0  0  0
 24 59  1  0  0  0  0
 25 30  2  0  0  0  0
 25 31  1  0  0  0  0
 26 29  2  0  0  0  0
 26 60  1  0  0  0  0
 27 61  1  0  0  0  0
 28 62  1  0  0  0  0
 29 63  1  0  0  0  0
 30 32  1  0  0  0  0
 30 64  1  0  0  0  0
 31 33  2  0  0  0  0
 31 65  1  0  0  0  0
 32 34  2  0  0  0  0
 32 66  1  0  0  0  0
 33 34  1  0  0  0  0
 33 67  1  0  0  0  0
M  END
> <PUBCHEM_COMPOUND_CID>
514250
> <PUBCHEM_COMPOUND_CANONICALIZED>
1
> <PUBCHEM_CACTVS_COMPLEXITY>
649
> <PUBCHEM_CACTVS_HBOND_ACCEPTOR>
8
> <PUBCHEM_CACTVS_HBOND_DONOR>
0
> <PUBCHEM_CACTVS_ROTATABLE_BOND>
10
> <PUBCHEM_CACTVS_SUBSKEYS>
AAADcfB7sYAAAAAAAAAAAAAAAAAAAWLAAAAwYAAAAAAAAAAB8AAAHwAIAAAADwThkhY/lpcMFACiADBnZAASiC8xsqAdyAAeOIiMbiKEuRqWOCCswBOIqCfwwPAPgQAAAAAAAACCAAQAACAAAAAAAAAAAA==
> <PUBCHEM_IUPAC_OPENEYE_NAME>
1-[[(1R,2R,3S,6R)-2-ethyl-3-(2-imidazol-1-ylethyl)-3-methyl-6-[[4-(trifluoromethoxy)phenoxy]methyl]cyclohexyl]methyl]-1,2,4-triazole
> <PUBCHEM_IUPAC_CAS_NAME>
1-[[(1R,2R,3S,6R)-2-ethyl-3-[2-(1-imidazolyl)ethyl]-3-methyl-6-[[4-(trifluoromethoxy)phenoxy]methyl]cyclohexyl]methyl]-1,2,4-triazole
> <PUBCHEM_IUPAC_NAME_MARKUP>
1-[[(1<I>R</I>,2<I>R</I>,3<I>S</I>,6<I>R</I>)-2-ethyl-3-(2-imidazol-1-ylethyl)-3-methyl-6-[[4-(trifluoromethoxy)phenoxy]methyl]cyclohexyl]methyl]-1,2,4-triazole
> <PUBCHEM_IUPAC_NAME>
1-[[(1R,2R,3S,6R)-2-ethyl-3-(2-imidazol-1-ylethyl)-3-methyl-6-[[4-(trifluoromethoxy)phenoxy]methyl]cyclohexyl]methyl]-1,2,4-triazole
> <PUBCHEM_IUPAC_SYSTEMATIC_NAME>
1-[[(1R,2R,3S,6R)-2-ethyl-3-(2-imidazol-1-ylethyl)-3-methyl-6-[[4-(trifluoromethyloxy)phenoxy]methyl]cyclohexyl]methyl]-1,2,4-triazole
> <PUBCHEM_IUPAC_TRADITIONAL_NAME>
1-[[(1R,2R,3S,6R)-2-ethyl-3-(2-imidazol-1-ylethyl)-3-methyl-6-[[4-(trifluoromethoxy)phenoxy]methyl]cyclohexyl]methyl]-1,2,4-triazole
> <PUBCHEM_IUPAC_INCHI>
InChI=1S/C25H32F3N5O2/c1-3-23-22(14-33-18-30-16-31-33)19(8-9-24(23,2)10-12-32-13-11-29-17-32)15-34-20-4-6-21(7-5-20)35-25(26,27)28/h4-7,11,13,16-19,22-23H,3,8-10,12,14-15H2,1-2H3/t19-,22-,23+,24-/m0/s1
> <PUBCHEM_IUPAC_INCHIKEY>
NJWUREIJLLXXSR-LSUHJGNXSA-N
> <PUBCHEM_XLOGP3_AA>
6
> <PUBCHEM_EXACT_MASS>
491.25080977
> <PUBCHEM_MOLECULAR_FORMULA>
C25H32F3N5O2
> <PUBCHEM_MOLECULAR_WEIGHT>
491.5
> <PUBCHEM_OPENEYE_CAN_SMILES>
CCC1C(C(CCC1(C)CCN2C=CN=C2)COC3=CC=C(C=C3)OC(F)(F)F)CN4C=NC=N4
> <PUBCHEM_OPENEYE_ISO_SMILES>
CC[C@@H]1[C@H]([C@@H](CC[C@@]1(C)CCN2C=CN=C2)COC3=CC=C(C=C3)OC(F)(F)F)CN4C=NC=N4
> <PUBCHEM_CACTVS_TPSA>
67
> <PUBCHEM_MONOISOTOPIC_WEIGHT>
491.25080977
> <PUBCHEM_TOTAL_CHARGE>
0
> <PUBCHEM_HEAVY_ATOM_COUNT>
35
> <PUBCHEM_ATOM_DEF_STEREO_COUNT>
4
> <PUBCHEM_ATOM_UDEF_STEREO_COUNT>
0
> <PUBCHEM_BOND_DEF_STEREO_COUNT>
0
> <PUBCHEM_BOND_UDEF_STEREO_COUNT>
0
> <PUBCHEM_ISOTOPIC_ATOM_COUNT>
0
> <PUBCHEM_COMPONENT_COUNT>
1
> <PUBCHEM_CACTVS_TAUTO_COUNT>
-1
> <PUBCHEM_COORDINATE_TYPE>
1
5
255
> <PUBCHEM_BONDANNOTATIONS>
10  27  8
10  29  8
11  19  5
12  18  5
13  20  6
14  21  5
25  30  8
25  31  8
26  29  8
30  32  8
31  33  8
32  34  8
33  34  8
6  24  8
6  8  8
7  26  8
7  27  8
8  28  8
9  24  8
9  28  8
$$$$
