514200
  -OEChem-10302200282D
 91 90  0     1  0  0  0  0  0999 V2000
    6.3301   -2.5000    0.0000 P   0  0  3  0  0  0  0  0  0  0  0  0
    5.4641   -3.0000    0.0000 O   0  0  0  0  0  0  0  0  0  0  0  0
    8.9282   -1.0000    0.0000 O   0  0  0  0  0  0  0  0  0  0  0  0
    7.1962   -2.0000    0.0000 O   0  0  0  0  0  0  0  0  0  0  0  0
    5.8301   -1.6340    0.0000 O   0  0  0  0  0  0  0  0  0  0  0  0
   11.5263   -3.5000    0.0000 O   0  0  0  0  0  0  0  0  0  0  0  0
    6.8301   -3.3660    0.0000 O   0  0  0  0  0  0  0  0  0  0  0  0
    2.8660   -2.5000    0.0000 N   0  3  0  0  0  0  0  0  0  0  0  0
   10.6603   -2.0000    0.0000 N   0  0  0  0  0  0  0  0  0  0  0  0
    3.7320   -3.0000    0.0000 C   0  0  0  0  0  0  0  0  0  0  0  0
   15.8564   -2.0000    0.0000 C   0  0  0  0  0  0  0  0  0  0  0  0
   16.7224   -2.5000    0.0000 C   0  0  0  0  0  0  0  0  0  0  0  0
   14.9904   -2.5000    0.0000 C   0  0  0  0  0  0  0  0  0  0  0  0
   17.5885   -2.0000    0.0000 C   0  0  0  0  0  0  0  0  0  0  0  0
   14.1244   -2.0000    0.0000 C   0  0  0  0  0  0  0  0  0  0  0  0
    2.0000   -2.0000    0.0000 C   0  0  0  0  0  0  0  0  0  0  0  0
    2.3660   -3.3660    0.0000 C   0  0  0  0  0  0  0  0  0  0  0  0
    3.3660   -1.6340    0.0000 C   0  0  0  0  0  0  0  0  0  0  0  0
   18.4545   -2.5000    0.0000 C   0  0  0  0  0  0  0  0  0  0  0  0
   13.2583   -2.5000    0.0000 C   0  0  0  0  0  0  0  0  0  0  0  0
    4.5981   -2.5000    0.0000 C   0  0  0  0  0  0  0  0  0  0  0  0
   19.3205   -2.0000    0.0000 C   0  0  0  0  0  0  0  0  0  0  0  0
   12.3923   -2.0000    0.0000 C   0  0  0  0  0  0  0  0  0  0  0  0
    8.9282   -2.0000    0.0000 C   0  0  3  0  0  0  0  0  0  0  0  0
    9.7942   -2.5000    0.0000 C   0  0  0  0  0  0  0  0  0  0  0  0
   20.1865   -2.5000    0.0000 C   0  0  0  0  0  0  0  0  0  0  0  0
    8.0622   -2.5000    0.0000 C   0  0  0  0  0  0  0  0  0  0  0  0
   11.5263   -2.5000    0.0000 C   0  0  0  0  0  0  0  0  0  0  0  0
    9.7942    0.5000    0.0000 C   0  0  0  0  0  0  0  0  0  0  0  0
    9.7942   -0.5000    0.0000 C   0  0  0  0  0  0  0  0  0  0  0  0
   10.6603    1.0000    0.0000 C   0  0  0  0  0  0  0  0  0  0  0  0
   10.6603    2.0000    0.0000 C   0  0  0  0  0  0  0  0  0  0  0  0
   21.0526   -2.0000    0.0000 C   0  0  0  0  0  0  0  0  0  0  0  0
   11.5263    2.5000    0.0000 C   0  0  0  0  0  0  0  0  0  0  0  0
   11.5263    3.5000    0.0000 C   0  0  0  0  0  0  0  0  0  0  0  0
    3.3335   -3.4750    0.0000 H   0  0  0  0  0  0  0  0  0  0  0  0
    4.1306   -3.4750    0.0000 H   0  0  0  0  0  0  0  0  0  0  0  0
   16.2549   -1.5250    0.0000 H   0  0  0  0  0  0  0  0  0  0  0  0
   15.4579   -1.5250    0.0000 H   0  0  0  0  0  0  0  0  0  0  0  0
   16.3239   -2.9750    0.0000 H   0  0  0  0  0  0  0  0  0  0  0  0
   17.1210   -2.9750    0.0000 H   0  0  0  0  0  0  0  0  0  0  0  0
   14.5919   -2.9750    0.0000 H   0  0  0  0  0  0  0  0  0  0  0  0
   15.3889   -2.9750    0.0000 H   0  0  0  0  0  0  0  0  0  0  0  0
   17.9870   -1.5250    0.0000 H   0  0  0  0  0  0  0  0  0  0  0  0
   17.1899   -1.5250    0.0000 H   0  0  0  0  0  0  0  0  0  0  0  0
   14.5229   -1.5250    0.0000 H   0  0  0  0  0  0  0  0  0  0  0  0
   13.7258   -1.5250    0.0000 H   0  0  0  0  0  0  0  0  0  0  0  0
    2.3100   -1.4631    0.0000 H   0  0  0  0  0  0  0  0  0  0  0  0
    1.4631   -1.6900    0.0000 H   0  0  0  0  0  0  0  0  0  0  0  0
    1.6900   -2.5369    0.0000 H   0  0  0  0  0  0  0  0  0  0  0  0
    1.8291   -3.0560    0.0000 H   0  0  0  0  0  0  0  0  0  0  0  0
    2.0560   -3.9030    0.0000 H   0  0  0  0  0  0  0  0  0  0  0  0
    2.9030   -3.6760    0.0000 H   0  0  0  0  0  0  0  0  0  0  0  0
    3.9030   -1.9440    0.0000 H   0  0  0  0  0  0  0  0  0  0  0  0
    3.6760   -1.0970    0.0000 H   0  0  0  0  0  0  0  0  0  0  0  0
    2.8291   -1.3240    0.0000 H   0  0  0  0  0  0  0  0  0  0  0  0
   18.0560   -2.9750    0.0000 H   0  0  0  0  0  0  0  0  0  0  0  0
   18.8530   -2.9750    0.0000 H   0  0  0  0  0  0  0  0  0  0  0  0
   12.8598   -2.9750    0.0000 H   0  0  0  0  0  0  0  0  0  0  0  0
   13.6569   -2.9750    0.0000 H   0  0  0  0  0  0  0  0  0  0  0  0
    4.9966   -2.0250    0.0000 H   0  0  0  0  0  0  0  0  0  0  0  0
    4.1996   -2.0250    0.0000 H   0  0  0  0  0  0  0  0  0  0  0  0
   19.7190   -1.5250    0.0000 H   0  0  0  0  0  0  0  0  0  0  0  0
   18.9220   -1.5250    0.0000 H   0  0  0  0  0  0  0  0  0  0  0  0
   12.7908   -1.5250    0.0000 H   0  0  0  0  0  0  0  0  0  0  0  0
   11.9938   -1.5250    0.0000 H   0  0  0  0  0  0  0  0  0  0  0  0
    9.4651   -1.6900    0.0000 H   0  0  0  0  0  0  0  0  0  0  0  0
    9.3957   -2.9750    0.0000 H   0  0  0  0  0  0  0  0  0  0  0  0
   10.1928   -2.9750    0.0000 H   0  0  0  0  0  0  0  0  0  0  0  0
   19.7880   -2.9750    0.0000 H   0  0  0  0  0  0  0  0  0  0  0  0
   20.5851   -2.9750    0.0000 H   0  0  0  0  0  0  0  0  0  0  0  0
    7.6636   -2.9750    0.0000 H   0  0  0  0  0  0  0  0  0  0  0  0
    8.4607   -2.9750    0.0000 H   0  0  0  0  0  0  0  0  0  0  0  0
    9.5822    1.0826    0.0000 H   0  0  0  0  0  0  0  0  0  0  0  0
    9.1836    0.3923    0.0000 H   0  0  0  0  0  0  0  0  0  0  0  0
   10.0063   -1.0826    0.0000 H   0  0  0  0  0  0  0  0  0  0  0  0
   10.4048   -0.3923    0.0000 H   0  0  0  0  0  0  0  0  0  0  0  0
   10.8723    0.4174    0.0000 H   0  0  0  0  0  0  0  0  0  0  0  0
   11.2708    1.1077    0.0000 H   0  0  0  0  0  0  0  0  0  0  0  0
   10.6603   -1.3800    0.0000 H   0  0  0  0  0  0  0  0  0  0  0  0
   10.4482    2.5826    0.0000 H   0  0  0  0  0  0  0  0  0  0  0  0
   10.0497    1.8923    0.0000 H   0  0  0  0  0  0  0  0  0  0  0  0
   21.3626   -2.5369    0.0000 H   0  0  0  0  0  0  0  0  0  0  0  0
   21.5895   -1.6900    0.0000 H   0  0  0  0  0  0  0  0  0  0  0  0
   20.7426   -1.4631    0.0000 H   0  0  0  0  0  0  0  0  0  0  0  0
   11.7383    1.9174    0.0000 H   0  0  0  0  0  0  0  0  0  0  0  0
   12.1369    2.6077    0.0000 H   0  0  0  0  0  0  0  0  0  0  0  0
   12.1463    3.5000    0.0000 H   0  0  0  0  0  0  0  0  0  0  0  0
   11.5263    4.1200    0.0000 H   0  0  0  0  0  0  0  0  0  0  0  0
   10.9063    3.5000    0.0000 H   0  0  0  0  0  0  0  0  0  0  0  0
    6.1401   -1.0970    0.0000 H   0  0  0  0  0  0  0  0  0  0  0  0
  1  2  1  0  0  0  0
  1  4  1  0  0  0  0
  1  5  1  0  0  0  0
  1  7  2  0  0  0  0
  2 21  1  0  0  0  0
  3 24  1  0  0  0  0
  3 30  1  0  0  0  0
  4 27  1  0  0  0  0
  5 91  1  0  0  0  0
  6 28  2  0  0  0  0
  8 10  1  0  0  0  0
  8 16  1  0  0  0  0
  8 17  1  0  0  0  0
  8 18  1  0  0  0  0
  9 25  1  0  0  0  0
  9 28  1  0  0  0  0
  9 80  1  0  0  0  0
 10 21  1  0  0  0  0
 10 36  1  0  0  0  0
 10 37  1  0  0  0  0
 11 12  1  0  0  0  0
 11 13  1  0  0  0  0
 11 38  1  0  0  0  0
 11 39  1  0  0  0  0
 12 14  1  0  0  0  0
 12 40  1  0  0  0  0
 12 41  1  0  0  0  0
 13 15  1  0  0  0  0
 13 42  1  0  0  0  0
 13 43  1  0  0  0  0
 14 19  1  0  0  0  0
 14 44  1  0  0  0  0
 14 45  1  0  0  0  0
 15 20  1  0  0  0  0
 15 46  1  0  0  0  0
 15 47  1  0  0  0  0
 16 48  1  0  0  0  0
 16 49  1  0  0  0  0
 16 50  1  0  0  0  0
 17 51  1  0  0  0  0
 17 52  1  0  0  0  0
 17 53  1  0  0  0  0
 18 54  1  0  0  0  0
 18 55  1  0  0  0  0
 18 56  1  0  0  0  0
 19 22  1  0  0  0  0
 19 57  1  0  0  0  0
 19 58  1  0  0  0  0
 20 23  1  0  0  0  0
 20 59  1  0  0  0  0
 20 60  1  0  0  0  0
 21 61  1  0  0  0  0
 21 62  1  0  0  0  0
 22 26  1  0  0  0  0
 22 63  1  0  0  0  0
 22 64  1  0  0  0  0
 23 28  1  0  0  0  0
 23 65  1  0  0  0  0
 23 66  1  0  0  0  0
 24 25  1  0  0  0  0
 24 27  1  0  0  0  0
 24 67  1  0  0  0  0
 25 68  1  0  0  0  0
 25 69  1  0  0  0  0
 26 33  1  0  0  0  0
 26 70  1  0  0  0  0
 26 71  1  0  0  0  0
 27 72  1  0  0  0  0
 27 73  1  0  0  0  0
 29 30  1  0  0  0  0
 29 31  1  0  0  0  0
 29 74  1  0  0  0  0
 29 75  1  0  0  0  0
 30 76  1  0  0  0  0
 30 77  1  0  0  0  0
 31 32  1  0  0  0  0
 31 78  1  0  0  0  0
 31 79  1  0  0  0  0
 32 34  1  0  0  0  0
 32 81  1  0  0  0  0
 32 82  1  0  0  0  0
 33 83  1  0  0  0  0
 33 84  1  0  0  0  0
 33 85  1  0  0  0  0
 34 35  1  0  0  0  0
 34 86  1  0  0  0  0
 34 87  1  0  0  0  0
 35 88  1  0  0  0  0
 35 89  1  0  0  0  0
 35 90  1  0  0  0  0
M  CHG  1   8   1
M  END
> <PUBCHEM_COMPOUND_CID>
514200
> <PUBCHEM_COMPOUND_CANONICALIZED>
1
> <PUBCHEM_CACTVS_COMPLEXITY>
557
> <PUBCHEM_CACTVS_HBOND_ACCEPTOR>
6
> <PUBCHEM_CACTVS_HBOND_DONOR>
2
> <PUBCHEM_CACTVS_ROTATABLE_BOND>
25
> <PUBCHEM_CACTVS_SUBSKEYS>
AAADcfB7OAIAAAAAAAAAAAAAAAAAAAAAAAAAAAAAAAAAAAAAAAAAHgAQCCAACBThgAYCAAPABRAIQAEQEIAAAAAAAAAAAIEIAAADABIAgAAHAAAGFgCSAAGYyICAAAAAAAAAAAAAAAAAAAAAAAAAAAAAAA==
> <PUBCHEM_IUPAC_OPENEYE_NAME>
2-[[3-(dodecanoylamino)-2-hexoxy-propoxy]-hydroxy-phosphoryl]oxyethyl-trimethyl-ammonium
> <PUBCHEM_IUPAC_CAS_NAME>
2-[[2-hexoxy-3-(1-oxododecylamino)propoxy]-hydroxyphosphoryl]oxyethyl-trimethylammonium
> <PUBCHEM_IUPAC_NAME_MARKUP>
2-[[3-(dodecanoylamino)-2-hexoxypropoxy]-hydroxyphosphoryl]oxyethyl-trimethylazanium
> <PUBCHEM_IUPAC_NAME>
2-[[3-(dodecanoylamino)-2-hexoxypropoxy]-hydroxyphosphoryl]oxyethyl-trimethylazanium
> <PUBCHEM_IUPAC_SYSTEMATIC_NAME>
2-[[3-(dodecanoylamino)-2-hexoxy-propoxy]-oxidanyl-phosphoryl]oxyethyl-trimethyl-azanium
> <PUBCHEM_IUPAC_TRADITIONAL_NAME>
2-[[2-hexoxy-3-(lauroylamino)propoxy]-hydroxy-phosphoryl]oxyethyl-trimethyl-ammonium
> <PUBCHEM_IUPAC_INCHI>
InChI=1S/C26H55N2O6P/c1-6-8-10-12-13-14-15-16-17-19-26(29)27-23-25(32-21-18-11-9-7-2)24-34-35(30,31)33-22-20-28(3,4)5/h25H,6-24H2,1-5H3,(H-,27,29,30,31)/p+1
> <PUBCHEM_IUPAC_INCHIKEY>
LFOWJZVRCXCWHR-UHFFFAOYSA-O
> <PUBCHEM_XLOGP3_AA>
5.8
> <PUBCHEM_EXACT_MASS>
523.38759951
> <PUBCHEM_MOLECULAR_FORMULA>
C26H56N2O6P+
> <PUBCHEM_MOLECULAR_WEIGHT>
523.7
> <PUBCHEM_OPENEYE_CAN_SMILES>
CCCCCCCCCCCC(=O)NCC(COP(=O)(O)OCC[N+](C)(C)C)OCCCCCC
> <PUBCHEM_OPENEYE_ISO_SMILES>
CCCCCCCCCCCC(=O)NCC(COP(=O)(O)OCC[N+](C)(C)C)OCCCCCC
> <PUBCHEM_CACTVS_TPSA>
94.1
> <PUBCHEM_MONOISOTOPIC_WEIGHT>
523.38759951
> <PUBCHEM_TOTAL_CHARGE>
1
> <PUBCHEM_HEAVY_ATOM_COUNT>
35
> <PUBCHEM_ATOM_DEF_STEREO_COUNT>
0
> <PUBCHEM_ATOM_UDEF_STEREO_COUNT>
1
> <PUBCHEM_BOND_DEF_STEREO_COUNT>
0
> <PUBCHEM_BOND_UDEF_STEREO_COUNT>
0
> <PUBCHEM_ISOTOPIC_ATOM_COUNT>
0
> <PUBCHEM_COMPONENT_COUNT>
1
> <PUBCHEM_CACTVS_TAUTO_COUNT>
-1
> <PUBCHEM_COORDINATE_TYPE>
1
5
255
> <PUBCHEM_BONDANNOTATIONS>
24  25  3
$$$$
