514211
  -OEChem-10302200282D
146151  0     1  0  0  0  0  0999 V2000
   14.3312    1.8651    0.0000 O   0  0  0  0  0  0  0  0  0  0  0  0
    6.1350    4.3651    0.0000 O   0  0  0  0  0  0  0  0  0  0  0  0
   11.5991    4.3651    0.0000 O   0  0  0  0  0  0  0  0  0  0  0  0
    2.5369    3.3651    0.0000 O   0  0  0  0  0  0  0  0  0  0  0  0
   13.8626   -5.1349    0.0000 O   0  0  0  0  0  0  0  0  0  0  0  0
    3.4030    1.8651    0.0000 O   0  0  0  0  0  0  0  0  0  0  0  0
    8.8671    1.8651    0.0000 O   0  0  0  0  0  0  0  0  0  0  0  0
   11.1305   -2.6349    0.0000 O   0  0  0  0  0  0  0  0  0  0  0  0
    8.3985   -5.1349    0.0000 O   0  0  0  0  0  0  0  0  0  0  0  0
   14.7286   -2.6349    0.0000 O   0  0  0  0  0  0  0  0  0  0  0  0
   13.8626   -1.1349    0.0000 O   0  0  0  0  0  0  0  0  0  0  0  0
   11.9965   -7.1349    0.0000 O   0  0  0  0  0  0  0  0  0  0  0  0
   10.2645   -7.1349    0.0000 O   0  0  0  0  0  0  0  0  0  0  0  0
   13.3312    3.3651    0.0000 N   0  0  0  0  0  0  0  0  0  0  0  0
    5.1350    2.8651    0.0000 N   0  0  0  0  0  0  0  0  0  0  0  0
   16.0632    2.8651    0.0000 N   0  0  0  0  0  0  0  0  0  0  0  0
    7.8671    3.3651    0.0000 N   0  0  0  0  0  0  0  0  0  0  0  0
   10.5991    2.8651    0.0000 N   0  0  0  0  0  0  0  0  0  0  0  0
   12.1305   -4.1349    0.0000 N   0  0  0  0  0  0  0  0  0  0  0  0
   17.6381    5.1970    0.0000 N   0  0  0  0  0  0  0  0  0  0  0  0
    9.3985   -3.6349    0.0000 N   0  0  0  0  0  0  0  0  0  0  0  0
    4.5601    1.0332    0.0000 N   0  0  0  0  0  0  0  0  0  0  0  0
    9.9733   -1.8030    0.0000 N   0  0  0  0  0  0  0  0  0  0  0  0
    6.6664   -4.1349    0.0000 N   0  0  0  0  0  0  0  0  0  0  0  0
   12.4651    2.8651    0.0000 C   0  0  1  0  0  0  0  0  0  0  0  0
    4.2690    4.3651    0.0000 C   0  0  2  0  0  0  0  0  0  0  0  0
   15.1972    3.3651    0.0000 C   0  0  1  0  0  0  0  0  0  0  0  0
   12.4651    1.8651    0.0000 C   0  0  0  0  0  0  0  0  0  0  0  0
    4.2690    3.3651    0.0000 C   0  0  1  0  0  0  0  0  0  0  0  0
   15.1972    4.3651    0.0000 C   0  0  0  0  0  0  0  0  0  0  0  0
    7.0010    2.8651    0.0000 C   0  0  1  0  0  0  0  0  0  0  0  0
    7.0010    1.8651    0.0000 C   0  0  0  0  0  0  0  0  0  0  0  0
    3.4030    4.8651    0.0000 C   0  0  0  0  0  0  0  0  0  0  0  0
   14.3312    2.8651    0.0000 C   0  0  0  0  0  0  0  0  0  0  0  0
   16.0632    4.8651    0.0000 C   0  0  0  0  0  0  0  0  0  0  0  0
    6.1350    3.3651    0.0000 C   0  0  0  0  0  0  0  0  0  0  0  0
    6.1350    1.3651    0.0000 C   0  0  0  0  0  0  0  0  0  0  0  0
   11.5991    3.3651    0.0000 C   0  0  0  0  0  0  0  0  0  0  0  0
    5.1350    4.8651    0.0000 C   0  0  0  0  0  0  0  0  0  0  0  0
   12.9965   -3.6349    0.0000 C   0  0  2  0  0  0  0  0  0  0  0  0
   16.1663    5.8538    0.0000 C   0  0  0  0  0  0  0  0  0  0  0  0
   13.3312    1.3651    0.0000 C   0  0  0  0  0  0  0  0  0  0  0  0
   11.5991    1.3651    0.0000 C   0  0  0  0  0  0  0  0  0  0  0  0
   13.8626   -4.1349    0.0000 C   0  0  0  0  0  0  0  0  0  0  0  0
   10.2645   -4.1349    0.0000 C   0  0  1  0  0  0  0  0  0  0  0  0
    6.0320    0.3764    0.0000 C   0  0  0  0  0  0  0  0  0  0  0  0
   17.1448    6.0601    0.0000 C   0  0  0  0  0  0  0  0  0  0  0  0
   16.9710    4.4600    0.0000 C   0  0  0  0  0  0  0  0  0  0  0  0
    3.4030    2.8651    0.0000 C   0  0  0  0  0  0  0  0  0  0  0  0
    3.4030    5.8651    0.0000 C   0  0  0  0  0  0  0  0  0  0  0  0
    9.7331    3.3651    0.0000 C   0  0  0  0  0  0  0  0  0  0  0  0
   12.9965   -2.6349    0.0000 C   0  0  0  0  0  0  0  0  0  0  0  0
    8.8671    2.8651    0.0000 C   0  0  0  0  0  0  0  0  0  0  0  0
    5.0534    0.1702    0.0000 C   0  0  0  0  0  0  0  0  0  0  0  0
    5.2272    1.7702    0.0000 C   0  0  0  0  0  0  0  0  0  0  0  0
   10.2645   -5.1349    0.0000 C   0  0  0  0  0  0  0  0  0  0  0  0
   11.1305   -3.6349    0.0000 C   0  0  0  0  0  0  0  0  0  0  0  0
    7.5324   -3.6349    0.0000 C   0  0  1  0  0  0  0  0  0  0  0  0
    7.5324   -2.6349    0.0000 C   0  0  0  0  0  0  0  0  0  0  0  0
   15.4984    6.5981    0.0000 C   0  0  0  0  0  0  0  0  0  0  0  0
    8.3985   -4.1349    0.0000 C   0  0  0  0  0  0  0  0  0  0  0  0
    8.3985   -2.1349    0.0000 C   0  0  0  0  0  0  0  0  0  0  0  0
   17.4554    7.0106    0.0000 C   0  0  0  0  0  0  0  0  0  0  0  0
    6.6998   -0.3679    0.0000 C   0  0  0  0  0  0  0  0  0  0  0  0
   11.1305   -5.6349    0.0000 C   0  0  0  0  0  0  0  0  0  0  0  0
    4.7428   -0.7803    0.0000 C   0  0  0  0  0  0  0  0  0  0  0  0
    8.5015   -1.1462    0.0000 C   0  0  0  0  0  0  0  0  0  0  0  0
   15.8091    7.5487    0.0000 C   0  0  0  0  0  0  0  0  0  0  0  0
   16.7876    7.7549    0.0000 C   0  0  0  0  0  0  0  0  0  0  0  0
    9.4800   -0.9399    0.0000 C   0  0  0  0  0  0  0  0  0  0  0  0
    6.3891   -1.3184    0.0000 C   0  0  0  0  0  0  0  0  0  0  0  0
    9.3063   -2.5400    0.0000 C   0  0  0  0  0  0  0  0  0  0  0  0
   13.8626   -2.1349    0.0000 C   0  0  0  0  0  0  0  0  0  0  0  0
    5.4106   -1.5246    0.0000 C   0  0  0  0  0  0  0  0  0  0  0  0
    7.8337   -0.4019    0.0000 C   0  0  0  0  0  0  0  0  0  0  0  0
   11.1305   -6.6349    0.0000 C   0  0  0  0  0  0  0  0  0  0  0  0
    9.7907    0.0106    0.0000 C   0  0  0  0  0  0  0  0  0  0  0  0
    8.1443    0.5487    0.0000 C   0  0  0  0  0  0  0  0  0  0  0  0
    9.1228    0.7549    0.0000 C   0  0  0  0  0  0  0  0  0  0  0  0
   13.0021    2.5551    0.0000 H   0  0  0  0  0  0  0  0  0  0  0  0
    4.8059    4.0551    0.0000 H   0  0  0  0  0  0  0  0  0  0  0  0
   15.1972    2.7451    0.0000 H   0  0  0  0  0  0  0  0  0  0  0  0
   11.9282    2.1751    0.0000 H   0  0  0  0  0  0  0  0  0  0  0  0
    4.2690    2.7451    0.0000 H   0  0  0  0  0  0  0  0  0  0  0  0
   14.9851    4.9477    0.0000 H   0  0  0  0  0  0  0  0  0  0  0  0
   14.5866    4.2575    0.0000 H   0  0  0  0  0  0  0  0  0  0  0  0
    7.5380    2.5551    0.0000 H   0  0  0  0  0  0  0  0  0  0  0  0
    7.2131    1.2825    0.0000 H   0  0  0  0  0  0  0  0  0  0  0  0
    7.6116    1.9728    0.0000 H   0  0  0  0  0  0  0  0  0  0  0  0
    2.7924    4.9728    0.0000 H   0  0  0  0  0  0  0  0  0  0  0  0
    3.1909    4.2825    0.0000 H   0  0  0  0  0  0  0  0  0  0  0  0
   13.8681    3.6751    0.0000 H   0  0  0  0  0  0  0  0  0  0  0  0
    5.6720    2.5551    0.0000 H   0  0  0  0  0  0  0  0  0  0  0  0
   16.6001    2.5551    0.0000 H   0  0  0  0  0  0  0  0  0  0  0  0
    5.4450    4.3282    0.0000 H   0  0  0  0  0  0  0  0  0  0  0  0
    5.6720    5.1751    0.0000 H   0  0  0  0  0  0  0  0  0  0  0  0
    4.8250    5.4021    0.0000 H   0  0  0  0  0  0  0  0  0  0  0  0
   12.4596   -3.3249    0.0000 H   0  0  0  0  0  0  0  0  0  0  0  0
   13.0212    0.8282    0.0000 H   0  0  0  0  0  0  0  0  0  0  0  0
   13.8681    1.0551    0.0000 H   0  0  0  0  0  0  0  0  0  0  0  0
   13.6412    1.9020    0.0000 H   0  0  0  0  0  0  0  0  0  0  0  0
   11.2891    1.9020    0.0000 H   0  0  0  0  0  0  0  0  0  0  0  0
   11.0622    1.0551    0.0000 H   0  0  0  0  0  0  0  0  0  0  0  0
   11.9091    0.8282    0.0000 H   0  0  0  0  0  0  0  0  0  0  0  0
    8.4040    3.6751    0.0000 H   0  0  0  0  0  0  0  0  0  0  0  0
    9.7276   -4.4449    0.0000 H   0  0  0  0  0  0  0  0  0  0  0  0
   17.0989    3.8533    0.0000 H   0  0  0  0  0  0  0  0  0  0  0  0
    4.0230    5.8651    0.0000 H   0  0  0  0  0  0  0  0  0  0  0  0
    3.4030    6.4851    0.0000 H   0  0  0  0  0  0  0  0  0  0  0  0
    2.7830    5.8651    0.0000 H   0  0  0  0  0  0  0  0  0  0  0  0
   11.1360    2.5551    0.0000 H   0  0  0  0  0  0  0  0  0  0  0  0
   10.1316    3.8401    0.0000 H   0  0  0  0  0  0  0  0  0  0  0  0
    9.3346    3.8401    0.0000 H   0  0  0  0  0  0  0  0  0  0  0  0
   12.6675   -4.4449    0.0000 H   0  0  0  0  0  0  0  0  0  0  0  0
   12.7845   -2.0523    0.0000 H   0  0  0  0  0  0  0  0  0  0  0  0
   12.3860   -2.7425    0.0000 H   0  0  0  0  0  0  0  0  0  0  0  0
   18.2545    5.1301    0.0000 H   0  0  0  0  0  0  0  0  0  0  0  0
    9.6539   -5.0272    0.0000 H   0  0  0  0  0  0  0  0  0  0  0  0
   10.0524   -5.7175    0.0000 H   0  0  0  0  0  0  0  0  0  0  0  0
    5.0994    2.3769    0.0000 H   0  0  0  0  0  0  0  0  0  0  0  0
    7.5324   -4.2549    0.0000 H   0  0  0  0  0  0  0  0  0  0  0  0
    7.3204   -2.0523    0.0000 H   0  0  0  0  0  0  0  0  0  0  0  0
    6.9219   -2.7425    0.0000 H   0  0  0  0  0  0  0  0  0  0  0  0
    9.9354   -3.3249    0.0000 H   0  0  0  0  0  0  0  0  0  0  0  0
   14.8917    6.4703    0.0000 H   0  0  0  0  0  0  0  0  0  0  0  0
    3.9438    1.1002    0.0000 H   0  0  0  0  0  0  0  0  0  0  0  0
   18.0621    7.1384    0.0000 H   0  0  0  0  0  0  0  0  0  0  0  0
    7.3065   -0.2400    0.0000 H   0  0  0  0  0  0  0  0  0  0  0  0
   11.7411   -5.7425    0.0000 H   0  0  0  0  0  0  0  0  0  0  0  0
   11.3426   -5.0523    0.0000 H   0  0  0  0  0  0  0  0  0  0  0  0
    4.1361   -0.9082    0.0000 H   0  0  0  0  0  0  0  0  0  0  0  0
   15.3950    8.0101    0.0000 H   0  0  0  0  0  0  0  0  0  0  0  0
   16.9802    8.3442    0.0000 H   0  0  0  0  0  0  0  0  0  0  0  0
    6.8032   -1.7799    0.0000 H   0  0  0  0  0  0  0  0  0  0  0  0
    9.4341   -3.1467    0.0000 H   0  0  0  0  0  0  0  0  0  0  0  0
    5.2180   -2.1140    0.0000 H   0  0  0  0  0  0  0  0  0  0  0  0
    2.0000    3.0551    0.0000 H   0  0  0  0  0  0  0  0  0  0  0  0
   10.5897   -1.8699    0.0000 H   0  0  0  0  0  0  0  0  0  0  0  0
    6.6664   -4.7549    0.0000 H   0  0  0  0  0  0  0  0  0  0  0  0
    7.2034   -3.8249    0.0000 H   0  0  0  0  0  0  0  0  0  0  0  0
    7.2270   -0.5297    0.0000 H   0  0  0  0  0  0  0  0  0  0  0  0
   10.3974    0.1384    0.0000 H   0  0  0  0  0  0  0  0  0  0  0  0
    7.7303    1.0101    0.0000 H   0  0  0  0  0  0  0  0  0  0  0  0
    9.3155    1.3442    0.0000 H   0  0  0  0  0  0  0  0  0  0  0  0
   15.2655   -2.3249    0.0000 H   0  0  0  0  0  0  0  0  0  0  0  0
   11.9965   -7.7549    0.0000 H   0  0  0  0  0  0  0  0  0  0  0  0
  1 34  2  0  0  0  0
  2 36  2  0  0  0  0
  3 38  2  0  0  0  0
  4 49  1  0  0  0  0
  4137  1  0  0  0  0
  5 44  2  0  0  0  0
  6 49  2  0  0  0  0
  7 53  2  0  0  0  0
  8 57  2  0  0  0  0
  9 61  2  0  0  0  0
 10 73  1  0  0  0  0
 10145  1  0  0  0  0
 11 73  2  0  0  0  0
 12 76  1  0  0  0  0
 12146  1  0  0  0  0
 13 76  2  0  0  0  0
 25 14  1  1  0  0  0
 14 34  1  0  0  0  0
 14 92  1  0  0  0  0
 29 15  1  6  0  0  0
 15 36  1  0  0  0  0
 15 93  1  0  0  0  0
 27 16  1  6  0  0  0
 16 44  1  0  0  0  0
 16 94  1  0  0  0  0
 31 17  1  1  0  0  0
 17 53  1  0  0  0  0
 17105  1  0  0  0  0
 18 38  1  0  0  0  0
 18 51  1  0  0  0  0
 18111  1  0  0  0  0
 40 19  1  1  0  0  0
 19 57  1  0  0  0  0
 19114  1  0  0  0  0
 20 47  1  0  0  0  0
 20 48  1  0  0  0  0
 20117  1  0  0  0  0
 45 21  1  6  0  0  0
 21 61  1  0  0  0  0
 21124  1  0  0  0  0
 22 54  1  0  0  0  0
 22 55  1  0  0  0  0
 22126  1  0  0  0  0
 23 70  1  0  0  0  0
 23 72  1  0  0  0  0
 23138  1  0  0  0  0
 58 24  1  1  0  0  0
 24139  1  0  0  0  0
 24140  1  0  0  0  0
 25 28  1  0  0  0  0
 25 38  1  0  0  0  0
 25 80  1  0  0  0  0
 26 29  1  0  0  0  0
 26 33  1  0  0  0  0
 26 39  1  6  0  0  0
 26 81  1  0  0  0  0
 27 30  1  0  0  0  0
 27 34  1  0  0  0  0
 27 82  1  0  0  0  0
 28 42  1  0  0  0  0
 28 43  1  0  0  0  0
 28 83  1  0  0  0  0
 29 49  1  0  0  0  0
 29 84  1  0  0  0  0
 30 35  1  0  0  0  0
 30 85  1  0  0  0  0
 30 86  1  0  0  0  0
 31 32  1  0  0  0  0
 31 36  1  0  0  0  0
 31 87  1  0  0  0  0
 32 37  1  0  0  0  0
 32 88  1  0  0  0  0
 32 89  1  0  0  0  0
 33 50  1  0  0  0  0
 33 90  1  0  0  0  0
 33 91  1  0  0  0  0
 35 41  1  0  0  0  0
 35 48  2  0  0  0  0
 37 46  1  0  0  0  0
 37 55  2  0  0  0  0
 39 95  1  0  0  0  0
 39 96  1  0  0  0  0
 39 97  1  0  0  0  0
 40 44  1  0  0  0  0
 40 52  1  0  0  0  0
 40 98  1  0  0  0  0
 41 47  1  0  0  0  0
 41 60  2  0  0  0  0
 42 99  1  0  0  0  0
 42100  1  0  0  0  0
 42101  1  0  0  0  0
 43102  1  0  0  0  0
 43103  1  0  0  0  0
 43104  1  0  0  0  0
 45 56  1  0  0  0  0
 45 57  1  0  0  0  0
 45106  1  0  0  0  0
 46 54  1  0  0  0  0
 46 64  2  0  0  0  0
 47 63  2  0  0  0  0
 48107  1  0  0  0  0
 50108  1  0  0  0  0
 50109  1  0  0  0  0
 50110  1  0  0  0  0
 51 53  1  0  0  0  0
 51112  1  0  0  0  0
 51113  1  0  0  0  0
 52 73  1  0  0  0  0
 52115  1  0  0  0  0
 52116  1  0  0  0  0
 54 66  2  0  0  0  0
 55120  1  0  0  0  0
 56 65  1  0  0  0  0
 56118  1  0  0  0  0
 56119  1  0  0  0  0
 58 59  1  0  0  0  0
 58 61  1  0  0  0  0
 58121  1  0  0  0  0
 59 62  1  0  0  0  0
 59122  1  0  0  0  0
 59123  1  0  0  0  0
 60 68  1  0  0  0  0
 60125  1  0  0  0  0
 62 67  1  0  0  0  0
 62 72  2  0  0  0  0
 63 69  1  0  0  0  0
 63127  1  0  0  0  0
 64 71  1  0  0  0  0
 64128  1  0  0  0  0
 65 76  1  0  0  0  0
 65129  1  0  0  0  0
 65130  1  0  0  0  0
 66 74  1  0  0  0  0
 66131  1  0  0  0  0
 67 70  1  0  0  0  0
 67 75  2  0  0  0  0
 68 69  2  0  0  0  0
 68132  1  0  0  0  0
 69133  1  0  0  0  0
 70 77  2  0  0  0  0
 71 74  2  0  0  0  0
 71134  1  0  0  0  0
 72135  1  0  0  0  0
 74136  1  0  0  0  0
 75 78  1  0  0  0  0
 75141  1  0  0  0  0
 77 79  1  0  0  0  0
 77142  1  0  0  0  0
 78 79  2  0  0  0  0
 78143  1  0  0  0  0
 79144  1  0  0  0  0
M  END
> <PUBCHEM_COMPOUND_CID>
514211
> <PUBCHEM_COMPOUND_CANONICALIZED>
1
> <PUBCHEM_CACTVS_COMPLEXITY>
2170
> <PUBCHEM_CACTVS_HBOND_ACCEPTOR>
14
> <PUBCHEM_CACTVS_HBOND_DONOR>
14
> <PUBCHEM_CACTVS_ROTATABLE_BOND>
29
> <PUBCHEM_CACTVS_SUBSKEYS>
AAADcfB//AAAAAAAAAAAAAAAAAAAAWLFgAAwYMAAAAAAAFgB/gAAHgAQCAAADSjBngQ+yPLJkgCoAzX3XACCgCAxAiAI2aG4ZJgKYPrAkbGUYAhmlgDYyAe/n8KOgAAAAAACAAAAAAAAAAQAAAAAAAAAAA==
> <PUBCHEM_IUPAC_OPENEYE_NAME>
(2S,3S)-2-[[(2S)-2-[[2-[[(2S)-2-[[(2S)-2-[[(2S)-2-[[(2S)-2-[[(2S)-2-amino-3-(1H-indol-3-yl)propanoyl]amino]-4-carboxy-butanoyl]amino]-3-carboxy-propanoyl]amino]-3-(1H-indol-3-yl)propanoyl]amino]-3-methyl-butanoyl]amino]acetyl]amino]-3-(1H-indol-3-yl)propanoyl]amino]-3-methyl-pentanoic acid
> <PUBCHEM_IUPAC_CAS_NAME>
(2S,3S)-2-[[(2S)-2-[[2-[[(2S)-2-[[(2S)-2-[[(2S)-2-[[(2S)-2-[[(2S)-2-amino-3-(1H-indol-3-yl)-1-oxopropyl]amino]-4-carboxy-1-oxobutyl]amino]-3-carboxy-1-oxopropyl]amino]-3-(1H-indol-3-yl)-1-oxopropyl]amino]-3-methyl-1-oxobutyl]amino]-1-oxoethyl]amino]-3-(1H-indol-3-yl)-1-oxopropyl]amino]-3-methylpentanoic acid
> <PUBCHEM_IUPAC_NAME_MARKUP>
(2<I>S</I>,3<I>S</I>)-2-[[(2<I>S</I>)-2-[[2-[[(2<I>S</I>)-2-[[(2<I>S</I>)-2-[[(2<I>S</I>)-2-[[(2<I>S</I>)-2-[[(2<I>S</I>)-2-amino-3-(1<I>H</I>-indol-3-yl)propanoyl]amino]-4-carboxybutanoyl]amino]-3-carboxypropanoyl]amino]-3-(1<I>H</I>-indol-3-yl)propanoyl]amino]-3-methylbutanoyl]amino]acetyl]amino]-3-(1<I>H</I>-indol-3-yl)propanoyl]amino]-3-methylpentanoic acid
> <PUBCHEM_IUPAC_NAME>
(2S,3S)-2-[[(2S)-2-[[2-[[(2S)-2-[[(2S)-2-[[(2S)-2-[[(2S)-2-[[(2S)-2-amino-3-(1H-indol-3-yl)propanoyl]amino]-4-carboxybutanoyl]amino]-3-carboxypropanoyl]amino]-3-(1H-indol-3-yl)propanoyl]amino]-3-methylbutanoyl]amino]acetyl]amino]-3-(1H-indol-3-yl)propanoyl]amino]-3-methylpentanoic acid
> <PUBCHEM_IUPAC_SYSTEMATIC_NAME>
(2S,3S)-2-[[(2S)-2-[2-[[(2S)-2-[[(2S)-2-[[(2S)-2-[[(2S)-2-[[(2S)-2-azanyl-3-(1H-indol-3-yl)propanoyl]amino]-5-oxidanyl-5-oxidanylidene-pentanoyl]amino]-4-oxidanyl-4-oxidanylidene-butanoyl]amino]-3-(1H-indol-3-yl)propanoyl]amino]-3-methyl-butanoyl]amino]ethanoylamino]-3-(1H-indol-3-yl)propanoyl]amino]-3-methyl-pentanoic acid
> <PUBCHEM_IUPAC_TRADITIONAL_NAME>
(2S,3S)-2-[[(2S)-2-[[2-[[(2S)-2-[[(2S)-2-[[(2S)-2-[[(2S)-2-[[(2S)-2-amino-3-(1H-indol-3-yl)propanoyl]amino]-4-carboxy-butanoyl]amino]-3-carboxy-propanoyl]amino]-3-(1H-indol-3-yl)propanoyl]amino]-3-methyl-butanoyl]amino]acetyl]amino]-3-(1H-indol-3-yl)propanoyl]amino]-3-methyl-valeric acid
> <PUBCHEM_IUPAC_INCHI>
InChI=1S/C55H67N11O13/c1-5-29(4)48(55(78)79)66-52(75)41(21-31-25-58-38-16-10-7-13-34(31)38)61-44(67)27-60-54(77)47(28(2)3)65-53(76)42(22-32-26-59-39-17-11-8-14-35(32)39)63-51(74)43(23-46(70)71)64-50(73)40(18-19-45(68)69)62-49(72)36(56)20-30-24-57-37-15-9-6-12-33(30)37/h6-17,24-26,28-29,36,40-43,47-48,57-59H,5,18-23,27,56H2,1-4H3,(H,60,77)(H,61,67)(H,62,72)(H,63,74)(H,64,73)(H,65,76)(H,66,75)(H,68,69)(H,70,71)(H,78,79)/t29-,36-,40-,41-,42-,43-,47-,48-/m0/s1
> <PUBCHEM_IUPAC_INCHIKEY>
KQAKBVKIXGYEFJ-AKAMIRJOSA-N
> <PUBCHEM_XLOGP3_AA>
0.9
> <PUBCHEM_EXACT_MASS>
1089.49198123
> <PUBCHEM_MOLECULAR_FORMULA>
C55H67N11O13
> <PUBCHEM_MOLECULAR_WEIGHT>
1090.2
> <PUBCHEM_OPENEYE_CAN_SMILES>
CCC(C)C(C(=O)O)NC(=O)C(CC1=CNC2=CC=CC=C21)NC(=O)CNC(=O)C(C(C)C)NC(=O)C(CC3=CNC4=CC=CC=C43)NC(=O)C(CC(=O)O)NC(=O)C(CCC(=O)O)NC(=O)C(CC5=CNC6=CC=CC=C65)N
> <PUBCHEM_OPENEYE_ISO_SMILES>
CC[C@H](C)[C@@H](C(=O)O)NC(=O)[C@H](CC1=CNC2=CC=CC=C21)NC(=O)CNC(=O)[C@H](C(C)C)NC(=O)[C@H](CC3=CNC4=CC=CC=C43)NC(=O)[C@H](CC(=O)O)NC(=O)[C@H](CCC(=O)O)NC(=O)[C@H](CC5=CNC6=CC=CC=C65)N
> <PUBCHEM_CACTVS_TPSA>
389
> <PUBCHEM_MONOISOTOPIC_WEIGHT>
1089.49198123
> <PUBCHEM_TOTAL_CHARGE>
0
> <PUBCHEM_HEAVY_ATOM_COUNT>
79
> <PUBCHEM_ATOM_DEF_STEREO_COUNT>
8
> <PUBCHEM_ATOM_UDEF_STEREO_COUNT>
0
> <PUBCHEM_BOND_DEF_STEREO_COUNT>
0
> <PUBCHEM_BOND_UDEF_STEREO_COUNT>
0
> <PUBCHEM_ISOTOPIC_ATOM_COUNT>
0
> <PUBCHEM_COMPONENT_COUNT>
1
> <PUBCHEM_CACTVS_TAUTO_COUNT>
-1
> <PUBCHEM_COORDINATE_TYPE>
1
5
255
> <PUBCHEM_BONDANNOTATIONS>
25  14  5
29  15  6
27  16  6
31  17  5
40  19  5
20  47  8
20  48  8
45  21  6
22  54  8
22  55  8
23  70  8
23  72  8
58  24  5
26  39  6
35  41  8
35  48  8
37  46  8
37  55  8
41  47  8
41  60  8
46  54  8
46  64  8
47  63  8
54  66  8
60  68  8
62  67  8
62  72  8
63  69  8
64  71  8
66  74  8
67  70  8
67  75  8
68  69  8
70  77  8
71  74  8
75  78  8
77  79  8
78  79  8
$$$$
