514249
  -OEChem-10302200282D
 66 68  0     1  0  0  0  0  0999 V2000
    6.5981    4.8660    0.0000 S   0  0  0  0  0  0  0  0  0  0  0  0
    7.1962   -5.3660    0.0000 F   0  0  0  0  0  0  0  0  0  0  0  0
    5.8301   -5.7320    0.0000 F   0  0  0  0  0  0  0  0  0  0  0  0
    6.8301   -4.0000    0.0000 F   0  0  0  0  0  0  0  0  0  0  0  0
    5.4641   -0.3660    0.0000 O   0  0  0  0  0  0  0  0  0  0  0  0
    7.4641    4.3660    0.0000 O   0  0  0  0  0  0  0  0  0  0  0  0
    5.7320    5.3660    0.0000 O   0  0  0  0  0  0  0  0  0  0  0  0
    5.4641   -4.3660    0.0000 O   0  0  0  0  0  0  0  0  0  0  0  0
    2.8660    0.1340    0.0000 N   0  0  0  0  0  0  0  0  0  0  0  0
    2.0570   -0.4538    0.0000 N   0  0  0  0  0  0  0  0  0  0  0  0
    3.3660   -1.4049    0.0000 N   0  0  0  0  0  0  0  0  0  0  0  0
    4.5981    3.1340    0.0000 C   0  0  1  0  0  0  0  0  0  0  0  0
    3.7320    2.6340    0.0000 C   0  0  1  0  0  0  0  0  0  0  0  0
    3.7320    1.6340    0.0000 C   0  0  2  0  0  0  0  0  0  0  0  0
    4.5981    1.1340    0.0000 C   0  0  1  0  0  0  0  0  0  0  0  0
    5.4641    2.6340    0.0000 C   0  0  0  0  0  0  0  0  0  0  0  0
    5.4641    1.6340    0.0000 C   0  0  0  0  0  0  0  0  0  0  0  0
    5.0981    4.0000    0.0000 C   0  0  0  0  0  0  0  0  0  0  0  0
    2.8660    3.1340    0.0000 C   0  0  0  0  0  0  0  0  0  0  0  0
    4.0981    4.0000    0.0000 C   0  0  0  0  0  0  0  0  0  0  0  0
    2.8660    1.1340    0.0000 C   0  0  0  0  0  0  0  0  0  0  0  0
    4.5981    0.1340    0.0000 C   0  0  0  0  0  0  0  0  0  0  0  0
    6.0981    4.0000    0.0000 C   0  0  0  0  0  0  0  0  0  0  0  0
    2.0000    2.6340    0.0000 C   0  0  0  0  0  0  0  0  0  0  0  0
    3.6750   -0.4538    0.0000 C   0  0  0  0  0  0  0  0  0  0  0  0
    7.0981    5.7320    0.0000 C   0  0  0  0  0  0  0  0  0  0  0  0
    5.4641   -1.3660    0.0000 C   0  0  0  0  0  0  0  0  0  0  0  0
    2.3660   -1.4049    0.0000 C   0  0  0  0  0  0  0  0  0  0  0  0
    6.3301   -1.8660    0.0000 C   0  0  0  0  0  0  0  0  0  0  0  0
    4.5981   -1.8660    0.0000 C   0  0  0  0  0  0  0  0  0  0  0  0
    6.3301   -2.8660    0.0000 C   0  0  0  0  0  0  0  0  0  0  0  0
    4.5981   -2.8660    0.0000 C   0  0  0  0  0  0  0  0  0  0  0  0
    5.4641   -3.3660    0.0000 C   0  0  0  0  0  0  0  0  0  0  0  0
    6.3301   -4.8660    0.0000 C   0  0  0  0  0  0  0  0  0  0  0  0
    3.7320    3.2540    0.0000 H   0  0  0  0  0  0  0  0  0  0  0  0
    3.7320    1.0140    0.0000 H   0  0  0  0  0  0  0  0  0  0  0  0
    5.1350    0.8240    0.0000 H   0  0  0  0  0  0  0  0  0  0  0  0
    6.0747    2.5263    0.0000 H   0  0  0  0  0  0  0  0  0  0  0  0
    5.6762    3.2166    0.0000 H   0  0  0  0  0  0  0  0  0  0  0  0
    5.6762    1.0514    0.0000 H   0  0  0  0  0  0  0  0  0  0  0  0
    6.0747    1.7416    0.0000 H   0  0  0  0  0  0  0  0  0  0  0  0
    5.2057    4.6106    0.0000 H   0  0  0  0  0  0  0  0  0  0  0  0
    4.5155    4.2120    0.0000 H   0  0  0  0  0  0  0  0  0  0  0  0
    3.2646    3.6089    0.0000 H   0  0  0  0  0  0  0  0  0  0  0  0
    2.4675    3.6089    0.0000 H   0  0  0  0  0  0  0  0  0  0  0  0
    4.6350    4.3100    0.0000 H   0  0  0  0  0  0  0  0  0  0  0  0
    3.7881    4.5369    0.0000 H   0  0  0  0  0  0  0  0  0  0  0  0
    3.5611    3.6900    0.0000 H   0  0  0  0  0  0  0  0  0  0  0  0
    2.6540    1.7166    0.0000 H   0  0  0  0  0  0  0  0  0  0  0  0
    2.2554    1.0263    0.0000 H   0  0  0  0  0  0  0  0  0  0  0  0
    3.9875    0.2416    0.0000 H   0  0  0  0  0  0  0  0  0  0  0  0
    4.3860   -0.4486    0.0000 H   0  0  0  0  0  0  0  0  0  0  0  0
    5.9904    3.3894    0.0000 H   0  0  0  0  0  0  0  0  0  0  0  0
    6.6807    3.7880    0.0000 H   0  0  0  0  0  0  0  0  0  0  0  0
    1.6900    3.1709    0.0000 H   0  0  0  0  0  0  0  0  0  0  0  0
    1.4631    2.3240    0.0000 H   0  0  0  0  0  0  0  0  0  0  0  0
    2.3100    2.0970    0.0000 H   0  0  0  0  0  0  0  0  0  0  0  0
    4.2647   -0.2622    0.0000 H   0  0  0  0  0  0  0  0  0  0  0  0
    7.6350    5.4220    0.0000 H   0  0  0  0  0  0  0  0  0  0  0  0
    7.4081    6.2690    0.0000 H   0  0  0  0  0  0  0  0  0  0  0  0
    6.5611    6.0420    0.0000 H   0  0  0  0  0  0  0  0  0  0  0  0
    2.0016   -1.9065    0.0000 H   0  0  0  0  0  0  0  0  0  0  0  0
    6.8671   -1.5560    0.0000 H   0  0  0  0  0  0  0  0  0  0  0  0
    4.0611   -1.5560    0.0000 H   0  0  0  0  0  0  0  0  0  0  0  0
    6.8671   -3.1760    0.0000 H   0  0  0  0  0  0  0  0  0  0  0  0
    4.0611   -3.1760    0.0000 H   0  0  0  0  0  0  0  0  0  0  0  0
  1  6  2  0  0  0  0
  1  7  2  0  0  0  0
  1 23  1  0  0  0  0
  1 26  1  0  0  0  0
  2 34  1  0  0  0  0
  3 34  1  0  0  0  0
  4 34  1  0  0  0  0
  5 22  1  0  0  0  0
  5 27  1  0  0  0  0
  8 33  1  0  0  0  0
  8 34  1  0  0  0  0
  9 10  1  0  0  0  0
  9 21  1  0  0  0  0
  9 25  1  0  0  0  0
 10 28  2  0  0  0  0
 11 25  2  0  0  0  0
 11 28  1  0  0  0  0
 12 13  1  0  0  0  0
 12 16  1  0  0  0  0
 12 18  1  0  0  0  0
 12 20  1  1  0  0  0
 13 14  1  0  0  0  0
 13 19  1  1  0  0  0
 13 35  1  0  0  0  0
 14 15  1  0  0  0  0
 14 21  1  6  0  0  0
 14 36  1  0  0  0  0
 15 17  1  0  0  0  0
 15 22  1  1  0  0  0
 15 37  1  0  0  0  0
 16 17  1  0  0  0  0
 16 38  1  0  0  0  0
 16 39  1  0  0  0  0
 17 40  1  0  0  0  0
 17 41  1  0  0  0  0
 18 23  1  0  0  0  0
 18 42  1  0  0  0  0
 18 43  1  0  0  0  0
 19 24  1  0  0  0  0
 19 44  1  0  0  0  0
 19 45  1  0  0  0  0
 20 46  1  0  0  0  0
 20 47  1  0  0  0  0
 20 48  1  0  0  0  0
 21 49  1  0  0  0  0
 21 50  1  0  0  0  0
 22 51  1  0  0  0  0
 22 52  1  0  0  0  0
 23 53  1  0  0  0  0
 23 54  1  0  0  0  0
 24 55  1  0  0  0  0
 24 56  1  0  0  0  0
 24 57  1  0  0  0  0
 25 58  1  0  0  0  0
 26 59  1  0  0  0  0
 26 60  1  0  0  0  0
 26 61  1  0  0  0  0
 27 29  2  0  0  0  0
 27 30  1  0  0  0  0
 28 62  1  0  0  0  0
 29 31  1  0  0  0  0
 29 63  1  0  0  0  0
 30 32  2  0  0  0  0
 30 64  1  0  0  0  0
 31 33  2  0  0  0  0
 31 65  1  0  0  0  0
 32 33  1  0  0  0  0
 32 66  1  0  0  0  0
M  END
> <PUBCHEM_COMPOUND_CID>
514249
> <PUBCHEM_COMPOUND_CANONICALIZED>
1
> <PUBCHEM_CACTVS_COMPLEXITY>
741
> <PUBCHEM_CACTVS_HBOND_ACCEPTOR>
9
> <PUBCHEM_CACTVS_HBOND_DONOR>
0
> <PUBCHEM_CACTVS_ROTATABLE_BOND>
10
> <PUBCHEM_CACTVS_SUBSKEYS>
AAADcfB7OYBAAAAAAAAAAAAAAAAAAWAAAAAwYAAAAAAAAAABwAAAHwQIAAAADwTl0Ba3FoYIFAqiACBDJHBSCAswoJAdyAAOCIiMLiKkuRqGOCCswBMIqAfwwPAPgQAAAAAAAACCAAQAACAAAAAAAAAAAA==
> <PUBCHEM_IUPAC_OPENEYE_NAME>
1-[[(1R,2R,3S,6R)-2-ethyl-3-methyl-3-(2-methylsulfonylethyl)-6-[[4-(trifluoromethoxy)phenoxy]methyl]cyclohexyl]methyl]-1,2,4-triazole
> <PUBCHEM_IUPAC_CAS_NAME>
1-[[(1R,2R,3S,6R)-2-ethyl-3-methyl-3-(2-methylsulfonylethyl)-6-[[4-(trifluoromethoxy)phenoxy]methyl]cyclohexyl]methyl]-1,2,4-triazole
> <PUBCHEM_IUPAC_NAME_MARKUP>
1-[[(1<I>R</I>,2<I>R</I>,3<I>S</I>,6<I>R</I>)-2-ethyl-3-methyl-3-(2-methylsulfonylethyl)-6-[[4-(trifluoromethoxy)phenoxy]methyl]cyclohexyl]methyl]-1,2,4-triazole
> <PUBCHEM_IUPAC_NAME>
1-[[(1R,2R,3S,6R)-2-ethyl-3-methyl-3-(2-methylsulfonylethyl)-6-[[4-(trifluoromethoxy)phenoxy]methyl]cyclohexyl]methyl]-1,2,4-triazole
> <PUBCHEM_IUPAC_SYSTEMATIC_NAME>
1-[[(1R,2R,3S,6R)-2-ethyl-3-methyl-3-(2-methylsulfonylethyl)-6-[[4-(trifluoromethyloxy)phenoxy]methyl]cyclohexyl]methyl]-1,2,4-triazole
> <PUBCHEM_IUPAC_TRADITIONAL_NAME>
1-[[(1R,2R,3S,6R)-2-ethyl-3-(2-mesylethyl)-3-methyl-6-[[4-(trifluoromethoxy)phenoxy]methyl]cyclohexyl]methyl]-1,2,4-triazole
> <PUBCHEM_IUPAC_INCHI>
InChI=1S/C23H32F3N3O4S/c1-4-21-20(13-29-16-27-15-28-29)17(9-10-22(21,2)11-12-34(3,30)31)14-32-18-5-7-19(8-6-18)33-23(24,25)26/h5-8,15-17,20-21H,4,9-14H2,1-3H3/t17-,20-,21+,22-/m0/s1
> <PUBCHEM_IUPAC_INCHIKEY>
GVMXCAKOZTYPJP-MVWVFHAYSA-N
> <PUBCHEM_XLOGP3_AA>
5.7
> <PUBCHEM_EXACT_MASS>
503.20656217
> <PUBCHEM_MOLECULAR_FORMULA>
C23H32F3N3O4S
> <PUBCHEM_MOLECULAR_WEIGHT>
503.6
> <PUBCHEM_OPENEYE_CAN_SMILES>
CCC1C(C(CCC1(C)CCS(=O)(=O)C)COC2=CC=C(C=C2)OC(F)(F)F)CN3C=NC=N3
> <PUBCHEM_OPENEYE_ISO_SMILES>
CC[C@@H]1[C@H]([C@@H](CC[C@@]1(C)CCS(=O)(=O)C)COC2=CC=C(C=C2)OC(F)(F)F)CN3C=NC=N3
> <PUBCHEM_CACTVS_TPSA>
91.7
> <PUBCHEM_MONOISOTOPIC_WEIGHT>
503.20656217
> <PUBCHEM_TOTAL_CHARGE>
0
> <PUBCHEM_HEAVY_ATOM_COUNT>
34
> <PUBCHEM_ATOM_DEF_STEREO_COUNT>
4
> <PUBCHEM_ATOM_UDEF_STEREO_COUNT>
0
> <PUBCHEM_BOND_DEF_STEREO_COUNT>
0
> <PUBCHEM_BOND_UDEF_STEREO_COUNT>
0
> <PUBCHEM_ISOTOPIC_ATOM_COUNT>
0
> <PUBCHEM_COMPONENT_COUNT>
1
> <PUBCHEM_CACTVS_TAUTO_COUNT>
-1
> <PUBCHEM_COORDINATE_TYPE>
1
5
255
> <PUBCHEM_BONDANNOTATIONS>
10  28  8
11  25  8
11  28  8
12  20  5
13  19  5
14  21  6
15  22  5
27  29  8
27  30  8
29  31  8
30  32  8
31  33  8
32  33  8
9  10  8
9  25  8
$$$$
