514227
  -OEChem-10302200282D
 79 84  0     1  0  0  0  0  0999 V2000
    4.9836   -3.4525    0.0000 Cl  0  0  0  0  0  0  0  0  0  0  0  0
    7.1133    2.9724    0.0000 O   0  0  0  0  0  0  0  0  0  0  0  0
    3.7634   -0.7119    0.0000 O   0  0  0  0  0  0  0  0  0  0  0  0
    7.6133    0.1064    0.0000 N   0  0  0  0  0  0  0  0  0  0  0  0
    5.1646   -1.7300    0.0000 N   0  0  0  0  0  0  0  0  0  0  0  0
   14.2011    4.6475    0.0000 N   0  0  0  0  0  0  0  0  0  0  0  0
   14.2011    3.0295    0.0000 N   0  0  0  0  0  0  0  0  0  0  0  0
   15.1522    4.3385    0.0000 N   0  0  0  0  0  0  0  0  0  0  0  0
   15.1522    3.3385    0.0000 N   0  0  0  0  0  0  0  0  0  0  0  0
    6.7473   -1.3936    0.0000 C   0  0  1  0  0  0  0  0  0  0  0  0
    6.6428   -2.3881    0.0000 C   0  0  2  0  0  0  0  0  0  0  0  0
    7.6133   -0.8936    0.0000 C   0  0  0  0  0  0  0  0  0  0  0  0
    7.6133    2.1064    0.0000 C   0  0  0  0  0  0  0  0  0  0  0  0
    5.8338   -0.9868    0.0000 C   0  0  0  0  0  0  0  0  0  0  0  0
    5.6646   -2.5960    0.0000 C   0  0  0  0  0  0  0  0  0  0  0  0
    6.7473    1.6064    0.0000 C   0  0  0  0  0  0  0  0  0  0  0  0
    8.4793    1.6064    0.0000 C   0  0  0  0  0  0  0  0  0  0  0  0
    6.7473    0.6064    0.0000 C   0  0  0  0  0  0  0  0  0  0  0  0
    8.4793    0.6064    0.0000 C   0  0  0  0  0  0  0  0  0  0  0  0
    8.1133    2.9724    0.0000 C   0  0  0  0  0  0  0  0  0  0  0  0
    7.3859   -3.0572    0.0000 C   0  0  0  0  0  0  0  0  0  0  0  0
    9.1133    2.9724    0.0000 C   0  0  0  0  0  0  0  0  0  0  0  0
    4.1701   -1.6254    0.0000 C   0  0  0  0  0  0  0  0  0  0  0  0
    8.3370   -2.7482    0.0000 C   0  0  0  0  0  0  0  0  0  0  0  0
    7.1780   -4.0354    0.0000 C   0  0  0  0  0  0  0  0  0  0  0  0
    9.6133    3.8385    0.0000 C   0  0  0  0  0  0  0  0  0  0  0  0
    3.5823   -2.4345    0.0000 C   0  0  0  0  0  0  0  0  0  0  0  0
    9.0801   -3.4173    0.0000 C   0  0  0  0  0  0  0  0  0  0  0  0
    7.9211   -4.7045    0.0000 C   0  0  0  0  0  0  0  0  0  0  0  0
   10.6133    3.8385    0.0000 C   0  0  0  0  0  0  0  0  0  0  0  0
    8.8722   -4.3955    0.0000 C   0  0  0  0  0  0  0  0  0  0  0  0
    3.9890   -3.3480    0.0000 C   0  0  0  0  0  0  0  0  0  0  0  0
    2.5878   -2.3299    0.0000 C   0  0  0  0  0  0  0  0  0  0  0  0
   11.1133    4.7045    0.0000 C   0  0  0  0  0  0  0  0  0  0  0  0
   11.1133    2.9724    0.0000 C   0  0  0  0  0  0  0  0  0  0  0  0
    3.4013   -4.1570    0.0000 C   0  0  0  0  0  0  0  0  0  0  0  0
    2.0000   -3.1390    0.0000 C   0  0  0  0  0  0  0  0  0  0  0  0
    2.4067   -4.0525    0.0000 C   0  0  0  0  0  0  0  0  0  0  0  0
   12.1133    4.7045    0.0000 C   0  0  0  0  0  0  0  0  0  0  0  0
   12.1133    2.9724    0.0000 C   0  0  0  0  0  0  0  0  0  0  0  0
   12.6133    3.8385    0.0000 C   0  0  0  0  0  0  0  0  0  0  0  0
   13.6133    3.8385    0.0000 C   0  0  0  0  0  0  0  0  0  0  0  0
    7.2673   -1.7312    0.0000 H   0  0  0  0  0  0  0  0  0  0  0  0
    6.4823   -2.9870    0.0000 H   0  0  0  0  0  0  0  0  0  0  0  0
    7.8254   -1.4762    0.0000 H   0  0  0  0  0  0  0  0  0  0  0  0
    8.2239   -0.7859    0.0000 H   0  0  0  0  0  0  0  0  0  0  0  0
    6.1437   -0.4499    0.0000 H   0  0  0  0  0  0  0  0  0  0  0  0
    5.3322   -0.6224    0.0000 H   0  0  0  0  0  0  0  0  0  0  0  0
    5.0982   -2.8482    0.0000 H   0  0  0  0  0  0  0  0  0  0  0  0
    5.8562   -3.1857    0.0000 H   0  0  0  0  0  0  0  0  0  0  0  0
    6.5352    2.1890    0.0000 H   0  0  0  0  0  0  0  0  0  0  0  0
    6.1367    1.4988    0.0000 H   0  0  0  0  0  0  0  0  0  0  0  0
    9.0899    1.4988    0.0000 H   0  0  0  0  0  0  0  0  0  0  0  0
    8.6914    2.1890    0.0000 H   0  0  0  0  0  0  0  0  0  0  0  0
    6.1367    0.7141    0.0000 H   0  0  0  0  0  0  0  0  0  0  0  0
    6.5352    0.0238    0.0000 H   0  0  0  0  0  0  0  0  0  0  0  0
    8.6914    0.0238    0.0000 H   0  0  0  0  0  0  0  0  0  0  0  0
    9.0899    0.7141    0.0000 H   0  0  0  0  0  0  0  0  0  0  0  0
    8.2210    3.5830    0.0000 H   0  0  0  0  0  0  0  0  0  0  0  0
    7.5307    3.1845    0.0000 H   0  0  0  0  0  0  0  0  0  0  0  0
    9.0056    2.3619    0.0000 H   0  0  0  0  0  0  0  0  0  0  0  0
    9.6959    2.7604    0.0000 H   0  0  0  0  0  0  0  0  0  0  0  0
    6.4933    2.9724    0.0000 H   0  0  0  0  0  0  0  0  0  0  0  0
    8.4659   -2.1418    0.0000 H   0  0  0  0  0  0  0  0  0  0  0  0
    6.5883   -4.2270    0.0000 H   0  0  0  0  0  0  0  0  0  0  0  0
    9.7210    4.4491    0.0000 H   0  0  0  0  0  0  0  0  0  0  0  0
    9.0307    4.0505    0.0000 H   0  0  0  0  0  0  0  0  0  0  0  0
    9.6698   -3.2258    0.0000 H   0  0  0  0  0  0  0  0  0  0  0  0
    7.7922   -5.3110    0.0000 H   0  0  0  0  0  0  0  0  0  0  0  0
    9.3330   -4.8104    0.0000 H   0  0  0  0  0  0  0  0  0  0  0  0
    2.3356   -1.7635    0.0000 H   0  0  0  0  0  0  0  0  0  0  0  0
   10.8033    5.2414    0.0000 H   0  0  0  0  0  0  0  0  0  0  0  0
   10.8033    2.4355    0.0000 H   0  0  0  0  0  0  0  0  0  0  0  0
    3.6534   -4.7234    0.0000 H   0  0  0  0  0  0  0  0  0  0  0  0
    1.3834   -3.0742    0.0000 H   0  0  0  0  0  0  0  0  0  0  0  0
    2.0423   -4.5541    0.0000 H   0  0  0  0  0  0  0  0  0  0  0  0
   12.4233    5.2414    0.0000 H   0  0  0  0  0  0  0  0  0  0  0  0
   12.4233    2.4355    0.0000 H   0  0  0  0  0  0  0  0  0  0  0  0
   15.6537    4.7029    0.0000 H   0  0  0  0  0  0  0  0  0  0  0  0
  1 32  1  0  0  0  0
  2 13  1  0  0  0  0
  2 63  1  0  0  0  0
  3 23  2  0  0  0  0
  4 12  1  0  0  0  0
  4 18  1  0  0  0  0
  4 19  1  0  0  0  0
  5 14  1  0  0  0  0
  5 15  1  0  0  0  0
  5 23  1  0  0  0  0
  6  8  1  0  0  0  0
  6 42  2  0  0  0  0
  7  9  2  0  0  0  0
  7 42  1  0  0  0  0
  8  9  1  0  0  0  0
  8 79  1  0  0  0  0
 10 11  1  0  0  0  0
 10 12  1  6  0  0  0
 10 14  1  0  0  0  0
 10 43  1  0  0  0  0
 11 15  1  0  0  0  0
 11 21  1  1  0  0  0
 11 44  1  0  0  0  0
 12 45  1  0  0  0  0
 12 46  1  0  0  0  0
 13 16  1  0  0  0  0
 13 17  1  0  0  0  0
 13 20  1  0  0  0  0
 14 47  1  0  0  0  0
 14 48  1  0  0  0  0
 15 49  1  0  0  0  0
 15 50  1  0  0  0  0
 16 18  1  0  0  0  0
 16 51  1  0  0  0  0
 16 52  1  0  0  0  0
 17 19  1  0  0  0  0
 17 53  1  0  0  0  0
 17 54  1  0  0  0  0
 18 55  1  0  0  0  0
 18 56  1  0  0  0  0
 19 57  1  0  0  0  0
 19 58  1  0  0  0  0
 20 22  1  0  0  0  0
 20 59  1  0  0  0  0
 20 60  1  0  0  0  0
 21 24  2  0  0  0  0
 21 25  1  0  0  0  0
 22 26  1  0  0  0  0
 22 61  1  0  0  0  0
 22 62  1  0  0  0  0
 23 27  1  0  0  0  0
 24 28  1  0  0  0  0
 24 64  1  0  0  0  0
 25 29  2  0  0  0  0
 25 65  1  0  0  0  0
 26 30  1  0  0  0  0
 26 66  1  0  0  0  0
 26 67  1  0  0  0  0
 27 32  1  0  0  0  0
 27 33  2  0  0  0  0
 28 31  2  0  0  0  0
 28 68  1  0  0  0  0
 29 31  1  0  0  0  0
 29 69  1  0  0  0  0
 30 34  2  0  0  0  0
 30 35  1  0  0  0  0
 31 70  1  0  0  0  0
 32 36  2  0  0  0  0
 33 37  1  0  0  0  0
 33 71  1  0  0  0  0
 34 39  1  0  0  0  0
 34 72  1  0  0  0  0
 35 40  2  0  0  0  0
 35 73  1  0  0  0  0
 36 38  1  0  0  0  0
 36 74  1  0  0  0  0
 37 38  2  0  0  0  0
 37 75  1  0  0  0  0
 38 76  1  0  0  0  0
 39 41  2  0  0  0  0
 39 77  1  0  0  0  0
 40 41  1  0  0  0  0
 40 78  1  0  0  0  0
 41 42  1  0  0  0  0
M  END
> <PUBCHEM_COMPOUND_CID>
514227
> <PUBCHEM_COMPOUND_CANONICALIZED>
1
> <PUBCHEM_CACTVS_COMPLEXITY>
858
> <PUBCHEM_CACTVS_HBOND_ACCEPTOR>
6
> <PUBCHEM_CACTVS_HBOND_DONOR>
2
> <PUBCHEM_CACTVS_ROTATABLE_BOND>
9
> <PUBCHEM_CACTVS_SUBSKEYS>
AAADcfB/sAAEAAAAAAAAAAAAAAAAAWLAAAA8YMEAAAAAAAAB1AAAHgIYCAAADUbBmyQxEIcCAgCqAiNyMACCAAIkBQAcqCEoBtgIILKB1xGEYQhmhgCIjYeYyPCOwAAAAAABAACAAAAAAAIAAAAAAAAAAA==
> <PUBCHEM_IUPAC_OPENEYE_NAME>
(2-chlorophenyl)-[(3S,4S)-3-[[4-hydroxy-4-[3-[4-(2H-tetrazol-5-yl)phenyl]propyl]-1-piperidyl]methyl]-4-phenyl-pyrrolidin-1-yl]methanone
> <PUBCHEM_IUPAC_CAS_NAME>
(2-chlorophenyl)-[(3S,4S)-3-[[4-hydroxy-4-[3-[4-(2H-tetrazol-5-yl)phenyl]propyl]-1-piperidinyl]methyl]-4-phenyl-1-pyrrolidinyl]methanone
> <PUBCHEM_IUPAC_NAME_MARKUP>
(2-chlorophenyl)-[(3<I>S</I>,4<I>S</I>)-3-[[4-hydroxy-4-[3-[4-(2<I>H</I>-tetrazol-5-yl)phenyl]propyl]piperidin-1-yl]methyl]-4-phenylpyrrolidin-1-yl]methanone
> <PUBCHEM_IUPAC_NAME>
(2-chlorophenyl)-[(3S,4S)-3-[[4-hydroxy-4-[3-[4-(2H-tetrazol-5-yl)phenyl]propyl]piperidin-1-yl]methyl]-4-phenylpyrrolidin-1-yl]methanone
> <PUBCHEM_IUPAC_SYSTEMATIC_NAME>
(2-chlorophenyl)-[(3S,4S)-3-[[4-oxidanyl-4-[3-[4-(2H-1,2,3,4-tetrazol-5-yl)phenyl]propyl]piperidin-1-yl]methyl]-4-phenyl-pyrrolidin-1-yl]methanone
> <PUBCHEM_IUPAC_TRADITIONAL_NAME>
(2-chlorophenyl)-[(3S,4S)-3-[[4-hydroxy-4-[3-[4-(2H-tetrazol-5-yl)phenyl]propyl]piperidino]methyl]-4-phenyl-pyrrolidino]methanone
> <PUBCHEM_IUPAC_INCHI>
InChI=1S/C33H37ClN6O2/c34-30-11-5-4-10-28(30)32(41)40-22-27(29(23-40)25-8-2-1-3-9-25)21-39-19-17-33(42,18-20-39)16-6-7-24-12-14-26(15-13-24)31-35-37-38-36-31/h1-5,8-15,27,29,42H,6-7,16-23H2,(H,35,36,37,38)/t27-,29+/m0/s1
> <PUBCHEM_IUPAC_INCHIKEY>
VORCKGKKHZJWKM-LMSSTIIKSA-N
> <PUBCHEM_XLOGP3_AA>
5.4
> <PUBCHEM_EXACT_MASS>
584.2666521
> <PUBCHEM_MOLECULAR_FORMULA>
C33H37ClN6O2
> <PUBCHEM_MOLECULAR_WEIGHT>
585.1
> <PUBCHEM_OPENEYE_CAN_SMILES>
C1CN(CCC1(CCCC2=CC=C(C=C2)C3=NNN=N3)O)CC4CN(CC4C5=CC=CC=C5)C(=O)C6=CC=CC=C6Cl
> <PUBCHEM_OPENEYE_ISO_SMILES>
C1CN(CCC1(CCCC2=CC=C(C=C2)C3=NNN=N3)O)C[C@H]4CN(C[C@@H]4C5=CC=CC=C5)C(=O)C6=CC=CC=C6Cl
> <PUBCHEM_CACTVS_TPSA>
98.2
> <PUBCHEM_MONOISOTOPIC_WEIGHT>
584.2666521
> <PUBCHEM_TOTAL_CHARGE>
0
> <PUBCHEM_HEAVY_ATOM_COUNT>
42
> <PUBCHEM_ATOM_DEF_STEREO_COUNT>
2
> <PUBCHEM_ATOM_UDEF_STEREO_COUNT>
0
> <PUBCHEM_BOND_DEF_STEREO_COUNT>
0
> <PUBCHEM_BOND_UDEF_STEREO_COUNT>
0
> <PUBCHEM_ISOTOPIC_ATOM_COUNT>
0
> <PUBCHEM_COMPONENT_COUNT>
1
> <PUBCHEM_CACTVS_TAUTO_COUNT>
-1
> <PUBCHEM_COORDINATE_TYPE>
1
5
255
> <PUBCHEM_BONDANNOTATIONS>
10  12  6
11  21  5
21  24  8
21  25  8
24  28  8
25  29  8
27  32  8
27  33  8
28  31  8
29  31  8
30  34  8
30  35  8
32  36  8
33  37  8
34  39  8
35  40  8
36  38  8
37  38  8
39  41  8
40  41  8
6  42  8
6  8  8
7  42  8
7  9  8
8  9  8
$$$$
