514387
  -OEChem-10302200282D
 81 87  0     1  0  0  0  0  0999 V2000
    8.8625    2.5238    0.0000 P   0  0  3  0  0  0  0  0  0  0  0  0
    8.0524    1.9374    0.0000 O   0  0  0  0  0  0  0  0  0  0  0  0
    8.2761    3.3338    0.0000 O   0  0  0  0  0  0  0  0  0  0  0  0
    9.4489    1.7138    0.0000 O   0  0  0  0  0  0  0  0  0  0  0  0
   11.6010    1.2988    0.0000 O   0  0  0  0  0  0  0  0  0  0  0  0
    9.8781    1.1208    0.0000 O   0  0  0  0  0  0  0  0  0  0  0  0
    4.2690   -4.7063    0.0000 N   0  0  0  0  0  0  0  0  0  0  0  0
    6.0812   -1.9016    0.0000 N   0  0  0  0  0  0  0  0  0  0  0  0
    6.0812   -3.5110    0.0000 N   0  0  0  0  0  0  0  0  0  0  0  0
    3.4030   -3.2063    0.0000 N   0  0  0  0  0  0  0  0  0  0  0  0
    4.2690   -1.7063    0.0000 N   0  0  0  0  0  0  0  0  0  0  0  0
    9.6725    3.1102    0.0000 N   0  0  0  0  0  0  0  0  0  0  0  0
    2.5369   -1.7063    0.0000 N   0  0  0  0  0  0  0  0  0  0  0  0
   13.5006    1.7988    0.0000 N   0  0  0  0  0  0  0  0  0  0  0  0
    3.4030   -5.2063    0.0000 C   0  0  0  0  0  0  0  0  0  0  0  0
    2.4030   -5.2063    0.0000 C   0  0  0  0  0  0  0  0  0  0  0  0
    2.9030   -6.0723    0.0000 C   0  0  0  0  0  0  0  0  0  0  0  0
    6.3919   -0.9511    0.0000 C   0  0  2  0  0  0  0  0  0  0  0  0
    7.3435   -0.6437    0.0000 C   0  0  0  0  0  0  0  0  0  0  0  0
    7.3452    0.3563    0.0000 C   0  0  1  0  0  0  0  0  0  0  0  0
    4.2690   -3.7063    0.0000 C   0  0  0  0  0  0  0  0  0  0  0  0
    5.8055   -0.1410    0.0000 C   0  0  0  0  0  0  0  0  0  0  0  0
    6.3947    0.6670    0.0000 C   0  0  0  0  0  0  0  0  0  0  0  0
    5.1350   -3.2063    0.0000 C   0  0  0  0  0  0  0  0  0  0  0  0
    8.1552    0.9427    0.0000 C   0  0  0  0  0  0  0  0  0  0  0  0
    5.1350   -2.2063    0.0000 C   0  0  0  0  0  0  0  0  0  0  0  0
    6.6648   -2.7063    0.0000 C   0  0  0  0  0  0  0  0  0  0  0  0
    3.4030   -2.2063    0.0000 C   0  0  0  0  0  0  0  0  0  0  0  0
   10.5853    2.7018    0.0000 C   0  0  1  0  0  0  0  0  0  0  0  0
   11.3954    3.2882    0.0000 C   0  0  0  0  0  0  0  0  0  0  0  0
   12.3082    2.8799    0.0000 C   0  0  0  0  0  0  0  0  0  0  0  0
   13.1695    3.3762    0.0000 C   0  0  0  0  0  0  0  0  0  0  0  0
   10.6882    1.7072    0.0000 C   0  0  0  0  0  0  0  0  0  0  0  0
   13.9104    2.7045    0.0000 C   0  0  0  0  0  0  0  0  0  0  0  0
   12.5124    1.9070    0.0000 C   0  0  0  0  0  0  0  0  0  0  0  0
    8.6844    4.2466    0.0000 C   0  0  0  0  0  0  0  0  0  0  0  0
   13.3808    4.3536    0.0000 C   0  0  0  0  0  0  0  0  0  0  0  0
   14.8625    3.0102    0.0000 C   0  0  0  0  0  0  0  0  0  0  0  0
   14.3330    4.6594    0.0000 C   0  0  0  0  0  0  0  0  0  0  0  0
   15.0738    3.9877    0.0000 C   0  0  0  0  0  0  0  0  0  0  0  0
    8.0980    5.0567    0.0000 C   0  0  0  0  0  0  0  0  0  0  0  0
    9.6791    4.3495    0.0000 C   0  0  0  0  0  0  0  0  0  0  0  0
   11.7038    0.3041    0.0000 C   0  0  0  0  0  0  0  0  0  0  0  0
    8.5063    5.9695    0.0000 C   0  0  0  0  0  0  0  0  0  0  0  0
   10.0874    5.2623    0.0000 C   0  0  0  0  0  0  0  0  0  0  0  0
    9.5010    6.0723    0.0000 C   0  0  0  0  0  0  0  0  0  0  0  0
    3.2425   -4.6074    0.0000 H   0  0  0  0  0  0  0  0  0  0  0  0
    2.2953   -4.5957    0.0000 H   0  0  0  0  0  0  0  0  0  0  0  0
    1.8204   -5.4184    0.0000 H   0  0  0  0  0  0  0  0  0  0  0  0
    2.4280   -6.4709    0.0000 H   0  0  0  0  0  0  0  0  0  0  0  0
    3.3779   -6.4709    0.0000 H   0  0  0  0  0  0  0  0  0  0  0  0
    4.8059   -5.0163    0.0000 H   0  0  0  0  0  0  0  0  0  0  0  0
    5.7794   -1.0470    0.0000 H   0  0  0  0  0  0  0  0  0  0  0  0
    7.4713   -1.2504    0.0000 H   0  0  0  0  0  0  0  0  0  0  0  0
    7.9602   -0.5799    0.0000 H   0  0  0  0  0  0  0  0  0  0  0  0
    7.2493    0.9688    0.0000 H   0  0  0  0  0  0  0  0  0  0  0  0
    5.1855   -0.1400    0.0000 H   0  0  0  0  0  0  0  0  0  0  0  0
    6.2041    1.2570    0.0000 H   0  0  0  0  0  0  0  0  0  0  0  0
    8.4261    0.3850    0.0000 H   0  0  0  0  0  0  0  0  0  0  0  0
    8.7515    1.1126    0.0000 H   0  0  0  0  0  0  0  0  0  0  0  0
    7.2848   -2.7063    0.0000 H   0  0  0  0  0  0  0  0  0  0  0  0
   10.5216    3.3186    0.0000 H   0  0  0  0  0  0  0  0  0  0  0  0
    9.6088    3.7269    0.0000 H   0  0  0  0  0  0  0  0  0  0  0  0
   11.7430    3.8016    0.0000 H   0  0  0  0  0  0  0  0  0  0  0  0
   10.9501    3.7197    0.0000 H   0  0  0  0  0  0  0  0  0  0  0  0
    2.0000   -2.0163    0.0000 H   0  0  0  0  0  0  0  0  0  0  0  0
    2.5369   -1.0863    0.0000 H   0  0  0  0  0  0  0  0  0  0  0  0
   12.0959    1.4477    0.0000 H   0  0  0  0  0  0  0  0  0  0  0  0
   13.8078    1.2603    0.0000 H   0  0  0  0  0  0  0  0  0  0  0  0
   12.9215    4.7701    0.0000 H   0  0  0  0  0  0  0  0  0  0  0  0
   15.3218    2.5938    0.0000 H   0  0  0  0  0  0  0  0  0  0  0  0
   14.4640    5.2654    0.0000 H   0  0  0  0  0  0  0  0  0  0  0  0
   15.6641    4.1772    0.0000 H   0  0  0  0  0  0  0  0  0  0  0  0
    7.4813    4.9930    0.0000 H   0  0  0  0  0  0  0  0  0  0  0  0
   10.0427    3.8472    0.0000 H   0  0  0  0  0  0  0  0  0  0  0  0
   11.0871    0.2404    0.0000 H   0  0  0  0  0  0  0  0  0  0  0  0
   11.7675   -0.3126    0.0000 H   0  0  0  0  0  0  0  0  0  0  0  0
   12.3205    0.3679    0.0000 H   0  0  0  0  0  0  0  0  0  0  0  0
    8.1428    6.4718    0.0000 H   0  0  0  0  0  0  0  0  0  0  0  0
   10.7041    5.3260    0.0000 H   0  0  0  0  0  0  0  0  0  0  0  0
    9.7542    6.6383    0.0000 H   0  0  0  0  0  0  0  0  0  0  0  0
  1  2  1  0  0  0  0
  1  3  1  0  0  0  0
  1  4  2  0  0  0  0
  1 12  1  0  0  0  0
  2 25  1  0  0  0  0
  3 36  1  0  0  0  0
  5 33  1  0  0  0  0
  5 43  1  0  0  0  0
  6 33  2  0  0  0  0
  7 15  1  0  0  0  0
  7 21  1  0  0  0  0
  7 52  1  0  0  0  0
 18  8  1  1  0  0  0
  8 26  1  0  0  0  0
  8 27  1  0  0  0  0
  9 24  1  0  0  0  0
  9 27  2  0  0  0  0
 10 21  1  0  0  0  0
 10 28  2  0  0  0  0
 11 26  2  0  0  0  0
 11 28  1  0  0  0  0
 29 12  1  1  0  0  0
 12 63  1  0  0  0  0
 13 28  1  0  0  0  0
 13 66  1  0  0  0  0
 13 67  1  0  0  0  0
 14 34  1  0  0  0  0
 14 35  1  0  0  0  0
 14 69  1  0  0  0  0
 15 16  1  0  0  0  0
 15 17  1  0  0  0  0
 15 47  1  0  0  0  0
 16 17  1  0  0  0  0
 16 48  1  0  0  0  0
 16 49  1  0  0  0  0
 17 50  1  0  0  0  0
 17 51  1  0  0  0  0
 18 19  1  0  0  0  0
 18 22  1  0  0  0  0
 18 53  1  0  0  0  0
 19 20  1  0  0  0  0
 19 54  1  0  0  0  0
 19 55  1  0  0  0  0
 20 23  1  0  0  0  0
 20 25  1  1  0  0  0
 20 56  1  0  0  0  0
 21 24  2  0  0  0  0
 22 23  2  0  0  0  0
 22 57  1  0  0  0  0
 23 58  1  0  0  0  0
 24 26  1  0  0  0  0
 25 59  1  0  0  0  0
 25 60  1  0  0  0  0
 27 61  1  0  0  0  0
 29 30  1  0  0  0  0
 29 33  1  0  0  0  0
 29 62  1  0  0  0  0
 30 31  1  0  0  0  0
 30 64  1  0  0  0  0
 30 65  1  0  0  0  0
 31 32  1  0  0  0  0
 31 35  2  0  0  0  0
 32 34  1  0  0  0  0
 32 37  2  0  0  0  0
 34 38  2  0  0  0  0
 35 68  1  0  0  0  0
 36 41  2  0  0  0  0
 36 42  1  0  0  0  0
 37 39  1  0  0  0  0
 37 70  1  0  0  0  0
 38 40  1  0  0  0  0
 38 71  1  0  0  0  0
 39 40  2  0  0  0  0
 39 72  1  0  0  0  0
 40 73  1  0  0  0  0
 41 44  1  0  0  0  0
 41 74  1  0  0  0  0
 42 45  2  0  0  0  0
 42 75  1  0  0  0  0
 43 76  1  0  0  0  0
 43 77  1  0  0  0  0
 43 78  1  0  0  0  0
 44 46  2  0  0  0  0
 44 79  1  0  0  0  0
 45 46  1  0  0  0  0
 45 80  1  0  0  0  0
 46 81  1  0  0  0  0
M  END
> <PUBCHEM_COMPOUND_CID>
514387
> <PUBCHEM_COMPOUND_CANONICALIZED>
1
> <PUBCHEM_CACTVS_COMPLEXITY>
1120
> <PUBCHEM_CACTVS_HBOND_ACCEPTOR>
11
> <PUBCHEM_CACTVS_HBOND_DONOR>
4
> <PUBCHEM_CACTVS_ROTATABLE_BOND>
14
> <PUBCHEM_CACTVS_SUBSKEYS>
AAADcfB/+AIAAAAAAAAAAAAAGAAAAWLEAAA8YIAAAAAAAFgB/gAAHgAQgCAADSzhnwY//v/NlRCoQzb3bICCgC0xMqAJ2aG+fJiKbvLA2dOVNAhs0BPIyCe42fKOgAAAAAACAAAAAAAAAAQAAAAAAAAAAA==
> <PUBCHEM_IUPAC_OPENEYE_NAME>
methyl (2S)-2-[[[(1S,4R)-4-[2-amino-6-(cyclopropylamino)purin-9-yl]cyclopent-2-en-1-yl]methoxy-phenoxy-phosphoryl]amino]-3-(1H-indol-3-yl)propanoate
> <PUBCHEM_IUPAC_CAS_NAME>
(2S)-2-[[[(1S,4R)-4-[2-amino-6-(cyclopropylamino)-9-purinyl]-1-cyclopent-2-enyl]methoxy-phenoxyphosphoryl]amino]-3-(1H-indol-3-yl)propanoic acid methyl ester
> <PUBCHEM_IUPAC_NAME_MARKUP>
methyl (2<I>S</I>)-2-[[[(1<I>S</I>,4<I>R</I>)-4-[2-amino-6-(cyclopropylamino)purin-9-yl]cyclopent-2-en-1-yl]methoxy-phenoxyphosphoryl]amino]-3-(1<I>H</I>-indol-3-yl)propanoate
> <PUBCHEM_IUPAC_NAME>
methyl (2S)-2-[[[(1S,4R)-4-[2-amino-6-(cyclopropylamino)purin-9-yl]cyclopent-2-en-1-yl]methoxy-phenoxyphosphoryl]amino]-3-(1H-indol-3-yl)propanoate
> <PUBCHEM_IUPAC_SYSTEMATIC_NAME>
methyl (2S)-2-[[[(1S,4R)-4-[2-azanyl-6-(cyclopropylamino)purin-9-yl]cyclopent-2-en-1-yl]methoxy-phenoxy-phosphoryl]amino]-3-(1H-indol-3-yl)propanoate
> <PUBCHEM_IUPAC_TRADITIONAL_NAME>
(2S)-2-[[[(1S,4R)-4-[2-amino-6-(cyclopropylamino)purin-9-yl]cyclopent-2-en-1-yl]methoxy-phenoxy-phosphoryl]amino]-3-(1H-indol-3-yl)propionic acid methyl ester
> <PUBCHEM_IUPAC_INCHI>
InChI=1S/C32H35N8O5P/c1-43-31(41)27(16-21-17-34-26-10-6-5-9-25(21)26)39-46(42,45-24-7-3-2-4-8-24)44-18-20-11-14-23(15-20)40-19-35-28-29(36-22-12-13-22)37-32(33)38-30(28)40/h2-11,14,17,19-20,22-23,27,34H,12-13,15-16,18H2,1H3,(H,39,42)(H3,33,36,37,38)/t20-,23+,27+,46?/m1/s1
> <PUBCHEM_IUPAC_INCHIKEY>
DMRHWJASMDZXPQ-DCVYKIGKSA-N
> <PUBCHEM_XLOGP3_AA>
4.4
> <PUBCHEM_EXACT_MASS>
642.24680324
> <PUBCHEM_MOLECULAR_FORMULA>
C32H35N8O5P
> <PUBCHEM_MOLECULAR_WEIGHT>
642.6
> <PUBCHEM_OPENEYE_CAN_SMILES>
COC(=O)C(CC1=CNC2=CC=CC=C21)NP(=O)(OCC3CC(C=C3)N4C=NC5=C(N=C(N=C54)N)NC6CC6)OC7=CC=CC=C7
> <PUBCHEM_OPENEYE_ISO_SMILES>
COC(=O)[C@H](CC1=CNC2=CC=CC=C21)NP(=O)(OC[C@H]3C[C@H](C=C3)N4C=NC5=C(N=C(N=C54)N)NC6CC6)OC7=CC=CC=C7
> <PUBCHEM_CACTVS_TPSA>
171
> <PUBCHEM_MONOISOTOPIC_WEIGHT>
642.24680324
> <PUBCHEM_TOTAL_CHARGE>
0
> <PUBCHEM_HEAVY_ATOM_COUNT>
46
> <PUBCHEM_ATOM_DEF_STEREO_COUNT>
3
> <PUBCHEM_ATOM_UDEF_STEREO_COUNT>
1
> <PUBCHEM_BOND_DEF_STEREO_COUNT>
0
> <PUBCHEM_BOND_UDEF_STEREO_COUNT>
0
> <PUBCHEM_ISOTOPIC_ATOM_COUNT>
0
> <PUBCHEM_COMPONENT_COUNT>
1
> <PUBCHEM_CACTVS_TAUTO_COUNT>
-1
> <PUBCHEM_COORDINATE_TYPE>
1
5
255
> <PUBCHEM_BONDANNOTATIONS>
1  12  3
10  21  8
10  28  8
11  26  8
11  28  8
29  12  5
14  34  8
14  35  8
20  25  5
21  24  8
24  26  8
31  32  8
31  35  8
32  34  8
32  37  8
34  38  8
36  41  8
36  42  8
37  39  8
38  40  8
39  40  8
41  44  8
42  45  8
44  46  8
45  46  8
18  8  5
8  26  8
8  27  8
9  24  8
9  27  8
$$$$
