514356
  -OEChem-10302200282D
 77 82  0     1  0  0  0  0  0999 V2000
    8.8625    2.5238    0.0000 P   0  0  3  0  0  0  0  0  0  0  0  0
    8.0524    1.9374    0.0000 O   0  0  0  0  0  0  0  0  0  0  0  0
    8.2761    3.3338    0.0000 O   0  0  0  0  0  0  0  0  0  0  0  0
    9.4489    1.7138    0.0000 O   0  0  0  0  0  0  0  0  0  0  0  0
   11.6010    1.2988    0.0000 O   0  0  0  0  0  0  0  0  0  0  0  0
    9.8781    1.1208    0.0000 O   0  0  0  0  0  0  0  0  0  0  0  0
    4.2690   -4.7063    0.0000 N   0  0  0  0  0  0  0  0  0  0  0  0
    6.0812   -1.9016    0.0000 N   0  0  0  0  0  0  0  0  0  0  0  0
    6.0812   -3.5110    0.0000 N   0  0  0  0  0  0  0  0  0  0  0  0
    3.4030   -3.2063    0.0000 N   0  0  0  0  0  0  0  0  0  0  0  0
    4.2690   -1.7063    0.0000 N   0  0  0  0  0  0  0  0  0  0  0  0
    9.6725    3.1102    0.0000 N   0  0  0  0  0  0  0  0  0  0  0  0
    2.5369   -1.7063    0.0000 N   0  0  0  0  0  0  0  0  0  0  0  0
    3.4030   -5.2063    0.0000 C   0  0  0  0  0  0  0  0  0  0  0  0
    2.4030   -5.2063    0.0000 C   0  0  0  0  0  0  0  0  0  0  0  0
    2.9030   -6.0723    0.0000 C   0  0  0  0  0  0  0  0  0  0  0  0
    6.3919   -0.9511    0.0000 C   0  0  2  0  0  0  0  0  0  0  0  0
    7.3435   -0.6437    0.0000 C   0  0  0  0  0  0  0  0  0  0  0  0
    7.3452    0.3563    0.0000 C   0  0  1  0  0  0  0  0  0  0  0  0
    4.2690   -3.7063    0.0000 C   0  0  0  0  0  0  0  0  0  0  0  0
    5.8055   -0.1410    0.0000 C   0  0  0  0  0  0  0  0  0  0  0  0
    6.3947    0.6670    0.0000 C   0  0  0  0  0  0  0  0  0  0  0  0
    5.1350   -3.2063    0.0000 C   0  0  0  0  0  0  0  0  0  0  0  0
    8.1552    0.9427    0.0000 C   0  0  0  0  0  0  0  0  0  0  0  0
    5.1350   -2.2063    0.0000 C   0  0  0  0  0  0  0  0  0  0  0  0
    6.6648   -2.7063    0.0000 C   0  0  0  0  0  0  0  0  0  0  0  0
    3.4030   -2.2063    0.0000 C   0  0  0  0  0  0  0  0  0  0  0  0
   10.5853    2.7018    0.0000 C   0  0  1  0  0  0  0  0  0  0  0  0
   11.3954    3.2882    0.0000 C   0  0  0  0  0  0  0  0  0  0  0  0
   10.6882    1.7072    0.0000 C   0  0  0  0  0  0  0  0  0  0  0  0
   12.3082    2.8799    0.0000 C   0  0  0  0  0  0  0  0  0  0  0  0
    8.6844    4.2466    0.0000 C   0  0  0  0  0  0  0  0  0  0  0  0
   13.1183    3.4663    0.0000 C   0  0  0  0  0  0  0  0  0  0  0  0
   12.4110    1.8852    0.0000 C   0  0  0  0  0  0  0  0  0  0  0  0
    9.6791    4.3495    0.0000 C   0  0  0  0  0  0  0  0  0  0  0  0
    8.0980    5.0567    0.0000 C   0  0  0  0  0  0  0  0  0  0  0  0
   14.0311    3.0580    0.0000 C   0  0  0  0  0  0  0  0  0  0  0  0
   13.3239    1.4769    0.0000 C   0  0  0  0  0  0  0  0  0  0  0  0
   14.1339    2.0633    0.0000 C   0  0  0  0  0  0  0  0  0  0  0  0
   10.0874    5.2623    0.0000 C   0  0  0  0  0  0  0  0  0  0  0  0
    8.5063    5.9695    0.0000 C   0  0  0  0  0  0  0  0  0  0  0  0
   11.7038    0.3041    0.0000 C   0  0  0  0  0  0  0  0  0  0  0  0
    9.5010    6.0723    0.0000 C   0  0  0  0  0  0  0  0  0  0  0  0
    3.2425   -4.6074    0.0000 H   0  0  0  0  0  0  0  0  0  0  0  0
    2.2953   -4.5957    0.0000 H   0  0  0  0  0  0  0  0  0  0  0  0
    1.8204   -5.4184    0.0000 H   0  0  0  0  0  0  0  0  0  0  0  0
    2.4280   -6.4709    0.0000 H   0  0  0  0  0  0  0  0  0  0  0  0
    3.3779   -6.4709    0.0000 H   0  0  0  0  0  0  0  0  0  0  0  0
    5.7794   -1.0470    0.0000 H   0  0  0  0  0  0  0  0  0  0  0  0
    4.8059   -5.0163    0.0000 H   0  0  0  0  0  0  0  0  0  0  0  0
    7.4713   -1.2504    0.0000 H   0  0  0  0  0  0  0  0  0  0  0  0
    7.9602   -0.5799    0.0000 H   0  0  0  0  0  0  0  0  0  0  0  0
    7.2493    0.9688    0.0000 H   0  0  0  0  0  0  0  0  0  0  0  0
    5.1855   -0.1400    0.0000 H   0  0  0  0  0  0  0  0  0  0  0  0
    6.2041    1.2570    0.0000 H   0  0  0  0  0  0  0  0  0  0  0  0
    8.4261    0.3850    0.0000 H   0  0  0  0  0  0  0  0  0  0  0  0
    8.7515    1.1126    0.0000 H   0  0  0  0  0  0  0  0  0  0  0  0
    7.2848   -2.7063    0.0000 H   0  0  0  0  0  0  0  0  0  0  0  0
    9.6088    3.7269    0.0000 H   0  0  0  0  0  0  0  0  0  0  0  0
   10.5216    3.3186    0.0000 H   0  0  0  0  0  0  0  0  0  0  0  0
    2.0000   -2.0163    0.0000 H   0  0  0  0  0  0  0  0  0  0  0  0
    2.5369   -1.0863    0.0000 H   0  0  0  0  0  0  0  0  0  0  0  0
   11.7430    3.8016    0.0000 H   0  0  0  0  0  0  0  0  0  0  0  0
   10.9501    3.7197    0.0000 H   0  0  0  0  0  0  0  0  0  0  0  0
   13.0545    4.0830    0.0000 H   0  0  0  0  0  0  0  0  0  0  0  0
   11.9088    1.5217    0.0000 H   0  0  0  0  0  0  0  0  0  0  0  0
   10.0427    3.8472    0.0000 H   0  0  0  0  0  0  0  0  0  0  0  0
    7.4813    4.9930    0.0000 H   0  0  0  0  0  0  0  0  0  0  0  0
   14.5333    3.4215    0.0000 H   0  0  0  0  0  0  0  0  0  0  0  0
   13.3876    0.8602    0.0000 H   0  0  0  0  0  0  0  0  0  0  0  0
   14.6999    1.8101    0.0000 H   0  0  0  0  0  0  0  0  0  0  0  0
   10.7041    5.3260    0.0000 H   0  0  0  0  0  0  0  0  0  0  0  0
    8.1428    6.4718    0.0000 H   0  0  0  0  0  0  0  0  0  0  0  0
   11.0871    0.2404    0.0000 H   0  0  0  0  0  0  0  0  0  0  0  0
   11.7675   -0.3126    0.0000 H   0  0  0  0  0  0  0  0  0  0  0  0
   12.3205    0.3679    0.0000 H   0  0  0  0  0  0  0  0  0  0  0  0
    9.7542    6.6383    0.0000 H   0  0  0  0  0  0  0  0  0  0  0  0
  1  2  1  0  0  0  0
  1  3  1  0  0  0  0
  1  4  2  0  0  0  0
  1 12  1  0  0  0  0
  2 24  1  0  0  0  0
  3 32  1  0  0  0  0
  5 30  1  0  0  0  0
  5 42  1  0  0  0  0
  6 30  2  0  0  0  0
  7 14  1  0  0  0  0
  7 20  1  0  0  0  0
  7 50  1  0  0  0  0
 17  8  1  1  0  0  0
  8 25  1  0  0  0  0
  8 26  1  0  0  0  0
  9 23  1  0  0  0  0
  9 26  2  0  0  0  0
 10 20  1  0  0  0  0
 10 27  2  0  0  0  0
 11 25  2  0  0  0  0
 11 27  1  0  0  0  0
 28 12  1  1  0  0  0
 12 59  1  0  0  0  0
 13 27  1  0  0  0  0
 13 61  1  0  0  0  0
 13 62  1  0  0  0  0
 14 15  1  0  0  0  0
 14 16  1  0  0  0  0
 14 44  1  0  0  0  0
 15 16  1  0  0  0  0
 15 45  1  0  0  0  0
 15 46  1  0  0  0  0
 16 47  1  0  0  0  0
 16 48  1  0  0  0  0
 17 18  1  0  0  0  0
 17 21  1  0  0  0  0
 17 49  1  0  0  0  0
 18 19  1  0  0  0  0
 18 51  1  0  0  0  0
 18 52  1  0  0  0  0
 19 22  1  0  0  0  0
 19 24  1  1  0  0  0
 19 53  1  0  0  0  0
 20 23  2  0  0  0  0
 21 22  2  0  0  0  0
 21 54  1  0  0  0  0
 22 55  1  0  0  0  0
 23 25  1  0  0  0  0
 24 56  1  0  0  0  0
 24 57  1  0  0  0  0
 26 58  1  0  0  0  0
 28 29  1  0  0  0  0
 28 30  1  0  0  0  0
 28 60  1  0  0  0  0
 29 31  1  0  0  0  0
 29 63  1  0  0  0  0
 29 64  1  0  0  0  0
 31 33  2  0  0  0  0
 31 34  1  0  0  0  0
 32 35  2  0  0  0  0
 32 36  1  0  0  0  0
 33 37  1  0  0  0  0
 33 65  1  0  0  0  0
 34 38  2  0  0  0  0
 34 66  1  0  0  0  0
 35 40  1  0  0  0  0
 35 67  1  0  0  0  0
 36 41  2  0  0  0  0
 36 68  1  0  0  0  0
 37 39  2  0  0  0  0
 37 69  1  0  0  0  0
 38 39  1  0  0  0  0
 38 70  1  0  0  0  0
 39 71  1  0  0  0  0
 40 43  2  0  0  0  0
 40 72  1  0  0  0  0
 41 43  1  0  0  0  0
 41 73  1  0  0  0  0
 42 74  1  0  0  0  0
 42 75  1  0  0  0  0
 42 76  1  0  0  0  0
 43 77  1  0  0  0  0
M  END
> <PUBCHEM_COMPOUND_CID>
514356
> <PUBCHEM_COMPOUND_CANONICALIZED>
1
> <PUBCHEM_CACTVS_COMPLEXITY>
1010
> <PUBCHEM_CACTVS_HBOND_ACCEPTOR>
11
> <PUBCHEM_CACTVS_HBOND_DONOR>
3
> <PUBCHEM_CACTVS_ROTATABLE_BOND>
14
> <PUBCHEM_CACTVS_SUBSKEYS>
AAADcfB7uAIAAAAAAAAAAAAAGAAAAWIAAAA8YIAAAAAAAFgB/AAAHgAQgCAADSzhnwY3/r/MFRCoQybzbICCgC0xMKAJ2KGuXJiKbjLA2VOVNAgs0BPIiCe4yKCOAAAAAAAAAAAAAAAAAAAAAAAAAAAAAA==
> <PUBCHEM_IUPAC_OPENEYE_NAME>
methyl (2S)-2-[[[(1S,4R)-4-[2-amino-6-(cyclopropylamino)purin-9-yl]cyclopent-2-en-1-yl]methoxy-phenoxy-phosphoryl]amino]-3-phenyl-propanoate
> <PUBCHEM_IUPAC_CAS_NAME>
(2S)-2-[[[(1S,4R)-4-[2-amino-6-(cyclopropylamino)-9-purinyl]-1-cyclopent-2-enyl]methoxy-phenoxyphosphoryl]amino]-3-phenylpropanoic acid methyl ester
> <PUBCHEM_IUPAC_NAME_MARKUP>
methyl (2<I>S</I>)-2-[[[(1<I>S</I>,4<I>R</I>)-4-[2-amino-6-(cyclopropylamino)purin-9-yl]cyclopent-2-en-1-yl]methoxy-phenoxyphosphoryl]amino]-3-phenylpropanoate
> <PUBCHEM_IUPAC_NAME>
methyl (2S)-2-[[[(1S,4R)-4-[2-amino-6-(cyclopropylamino)purin-9-yl]cyclopent-2-en-1-yl]methoxy-phenoxyphosphoryl]amino]-3-phenylpropanoate
> <PUBCHEM_IUPAC_SYSTEMATIC_NAME>
methyl (2S)-2-[[[(1S,4R)-4-[2-azanyl-6-(cyclopropylamino)purin-9-yl]cyclopent-2-en-1-yl]methoxy-phenoxy-phosphoryl]amino]-3-phenyl-propanoate
> <PUBCHEM_IUPAC_TRADITIONAL_NAME>
(2S)-2-[[[(1S,4R)-4-[2-amino-6-(cyclopropylamino)purin-9-yl]cyclopent-2-en-1-yl]methoxy-phenoxy-phosphoryl]amino]-3-phenyl-propionic acid methyl ester
> <PUBCHEM_IUPAC_INCHI>
InChI=1S/C30H34N7O5P/c1-40-29(38)25(17-20-8-4-2-5-9-20)36-43(39,42-24-10-6-3-7-11-24)41-18-21-12-15-23(16-21)37-19-32-26-27(33-22-13-14-22)34-30(31)35-28(26)37/h2-12,15,19,21-23,25H,13-14,16-18H2,1H3,(H,36,39)(H3,31,33,34,35)/t21-,23+,25+,43?/m1/s1
> <PUBCHEM_IUPAC_INCHIKEY>
YZGYIFKQGXUIHL-SUCHDMSNSA-N
> <PUBCHEM_XLOGP3_AA>
4.3
> <PUBCHEM_EXACT_MASS>
603.23590421
> <PUBCHEM_MOLECULAR_FORMULA>
C30H34N7O5P
> <PUBCHEM_MOLECULAR_WEIGHT>
603.6
> <PUBCHEM_OPENEYE_CAN_SMILES>
COC(=O)C(CC1=CC=CC=C1)NP(=O)(OCC2CC(C=C2)N3C=NC4=C(N=C(N=C43)N)NC5CC5)OC6=CC=CC=C6
> <PUBCHEM_OPENEYE_ISO_SMILES>
COC(=O)[C@H](CC1=CC=CC=C1)NP(=O)(OC[C@H]2C[C@H](C=C2)N3C=NC4=C(N=C(N=C43)N)NC5CC5)OC6=CC=CC=C6
> <PUBCHEM_CACTVS_TPSA>
156
> <PUBCHEM_MONOISOTOPIC_WEIGHT>
603.23590421
> <PUBCHEM_TOTAL_CHARGE>
0
> <PUBCHEM_HEAVY_ATOM_COUNT>
43
> <PUBCHEM_ATOM_DEF_STEREO_COUNT>
3
> <PUBCHEM_ATOM_UDEF_STEREO_COUNT>
1
> <PUBCHEM_BOND_DEF_STEREO_COUNT>
0
> <PUBCHEM_BOND_UDEF_STEREO_COUNT>
0
> <PUBCHEM_ISOTOPIC_ATOM_COUNT>
0
> <PUBCHEM_COMPONENT_COUNT>
1
> <PUBCHEM_CACTVS_TAUTO_COUNT>
-1
> <PUBCHEM_COORDINATE_TYPE>
1
5
255
> <PUBCHEM_BONDANNOTATIONS>
1  12  3
10  20  8
10  27  8
11  25  8
11  27  8
28  12  5
19  24  5
20  23  8
23  25  8
31  33  8
31  34  8
32  35  8
32  36  8
33  37  8
34  38  8
35  40  8
36  41  8
37  39  8
38  39  8
40  43  8
41  43  8
17  8  5
8  25  8
8  26  8
9  23  8
9  26  8
$$$$
