514481
  -OEChem-10302200282D
 78 82  0     1  0  0  0  0  0999 V2000
    2.0000    0.4105    0.0000 Cl  0  0  0  0  0  0  0  0  0  0  0  0
    9.5253    3.3353    0.0000 S   0  0  0  0  0  0  0  0  0  0  0  0
    5.5443   -1.3942    0.0000 S   0  0  0  0  0  0  0  0  0  0  0  0
   10.4806    0.6800    0.0000 O   0  0  0  0  0  0  0  0  0  0  0  0
    6.4763    3.0668    0.0000 O   0  0  0  0  0  0  0  0  0  0  0  0
    7.8441    0.4588    0.0000 O   0  0  0  0  0  0  0  0  0  0  0  0
   11.2886    0.0908    0.0000 O   0  0  0  0  0  0  0  0  0  0  0  0
   12.5859   -4.0706    0.0000 O   0  0  0  0  0  0  0  0  0  0  0  0
    8.8646    1.8583    0.0000 N   0  0  0  0  0  0  0  0  0  0  0  0
    6.8335    1.3720    0.0000 N   0  0  0  0  0  0  0  0  0  0  0  0
   10.2681   -1.3087    0.0000 N   0  0  0  0  0  0  0  0  0  0  0  0
    8.5310    3.4416    0.0000 C   0  0  0  0  0  0  0  0  0  0  0  0
    8.1226    2.5287    0.0000 C   0  0  1  0  0  0  0  0  0  0  0  0
    9.7315    2.3568    0.0000 C   0  0  0  0  0  0  0  0  0  0  0  0
    8.6372    4.4359    0.0000 C   0  0  0  0  0  0  0  0  0  0  0  0
    7.6181    3.8499    0.0000 C   0  0  0  0  0  0  0  0  0  0  0  0
    7.1441    2.3225    0.0000 C   0  0  0  0  0  0  0  0  0  0  0  0
    8.7584    0.8640    0.0000 C   0  0  0  0  0  0  0  0  0  0  0  0
    9.5664    0.2748    0.0000 C   0  0  2  0  0  0  0  0  0  0  0  0
    9.4601   -0.7195    0.0000 C   0  0  2  0  0  0  0  0  0  0  0  0
    8.5459   -1.1247    0.0000 C   0  0  0  0  0  0  0  0  0  0  0  0
    5.8550    1.1658    0.0000 C   0  0  0  0  0  0  0  0  0  0  0  0
    8.4396   -2.1190    0.0000 C   0  0  0  0  0  0  0  0  0  0  0  0
    5.5443    0.2153    0.0000 C   0  0  0  0  0  0  0  0  0  0  0  0
   11.1824   -0.9036    0.0000 C   0  0  0  0  0  0  0  0  0  0  0  0
    4.5981   -0.0895    0.0000 C   0  0  0  0  0  0  0  0  0  0  0  0
    9.2476   -2.7082    0.0000 C   0  0  0  0  0  0  0  0  0  0  0  0
    7.5254   -2.5242    0.0000 C   0  0  0  0  0  0  0  0  0  0  0  0
   11.9904   -1.4928    0.0000 C   0  0  0  0  0  0  0  0  0  0  0  0
    6.1279   -0.5895    0.0000 C   0  0  0  0  0  0  0  0  0  0  0  0
    4.5981   -1.0895    0.0000 C   0  0  0  0  0  0  0  0  0  0  0  0
    9.1414   -3.7026    0.0000 C   0  0  0  0  0  0  0  0  0  0  0  0
    7.4191   -3.5185    0.0000 C   0  0  0  0  0  0  0  0  0  0  0  0
    3.7320    0.4105    0.0000 C   0  0  0  0  0  0  0  0  0  0  0  0
   11.8841   -2.4871    0.0000 C   0  0  0  0  0  0  0  0  0  0  0  0
    8.2271   -4.1077    0.0000 C   0  0  0  0  0  0  0  0  0  0  0  0
   12.9046   -1.0876    0.0000 C   0  0  0  0  0  0  0  0  0  0  0  0
    3.7320   -1.5895    0.0000 C   0  0  0  0  0  0  0  0  0  0  0  0
    2.8660   -0.0895    0.0000 C   0  0  0  0  0  0  0  0  0  0  0  0
   12.6921   -3.0763    0.0000 C   0  0  0  0  0  0  0  0  0  0  0  0
    2.8660   -1.0895    0.0000 C   0  0  0  0  0  0  0  0  0  0  0  0
   10.9699   -2.8923    0.0000 C   0  0  0  0  0  0  0  0  0  0  0  0
   13.7126   -1.6768    0.0000 C   0  0  0  0  0  0  0  0  0  0  0  0
   13.6064   -2.6711    0.0000 C   0  0  0  0  0  0  0  0  0  0  0  0
    7.9611    1.9301    0.0000 H   0  0  0  0  0  0  0  0  0  0  0  0
    9.9827    1.7900    0.0000 H   0  0  0  0  0  0  0  0  0  0  0  0
   10.3215    2.5474    0.0000 H   0  0  0  0  0  0  0  0  0  0  0  0
    9.2537    4.3700    0.0000 H   0  0  0  0  0  0  0  0  0  0  0  0
    8.7031    5.0524    0.0000 H   0  0  0  0  0  0  0  0  0  0  0  0
    8.0207    4.5018    0.0000 H   0  0  0  0  0  0  0  0  0  0  0  0
    7.8713    4.4158    0.0000 H   0  0  0  0  0  0  0  0  0  0  0  0
    7.0522    4.1030    0.0000 H   0  0  0  0  0  0  0  0  0  0  0  0
    7.3650    3.2839    0.0000 H   0  0  0  0  0  0  0  0  0  0  0  0
    9.6322    0.8913    0.0000 H   0  0  0  0  0  0  0  0  0  0  0  0
   10.0270   -0.4683    0.0000 H   0  0  0  0  0  0  0  0  0  0  0  0
    7.2475    0.9105    0.0000 H   0  0  0  0  0  0  0  0  0  0  0  0
    8.3969   -0.5229    0.0000 H   0  0  0  0  0  0  0  0  0  0  0  0
    7.9273   -1.1669    0.0000 H   0  0  0  0  0  0  0  0  0  0  0  0
   10.2022   -1.9252    0.0000 H   0  0  0  0  0  0  0  0  0  0  0  0
    5.8344    1.7854    0.0000 H   0  0  0  0  0  0  0  0  0  0  0  0
    5.2411    1.2531    0.0000 H   0  0  0  0  0  0  0  0  0  0  0  0
   10.5465    1.2964    0.0000 H   0  0  0  0  0  0  0  0  0  0  0  0
    9.8145   -2.4570    0.0000 H   0  0  0  0  0  0  0  0  0  0  0  0
    7.0244   -2.1589    0.0000 H   0  0  0  0  0  0  0  0  0  0  0  0
    6.7479   -0.5895    0.0000 H   0  0  0  0  0  0  0  0  0  0  0  0
    9.6423   -4.0679    0.0000 H   0  0  0  0  0  0  0  0  0  0  0  0
    6.8523   -3.7697    0.0000 H   0  0  0  0  0  0  0  0  0  0  0  0
    3.7320    1.0305    0.0000 H   0  0  0  0  0  0  0  0  0  0  0  0
    8.1613   -4.7242    0.0000 H   0  0  0  0  0  0  0  0  0  0  0  0
   12.9705   -0.4711    0.0000 H   0  0  0  0  0  0  0  0  0  0  0  0
    3.7320   -2.2095    0.0000 H   0  0  0  0  0  0  0  0  0  0  0  0
    2.3291   -1.3995    0.0000 H   0  0  0  0  0  0  0  0  0  0  0  0
   10.7187   -2.3254    0.0000 H   0  0  0  0  0  0  0  0  0  0  0  0
   10.4030   -3.1434    0.0000 H   0  0  0  0  0  0  0  0  0  0  0  0
   11.2211   -3.4591    0.0000 H   0  0  0  0  0  0  0  0  0  0  0  0
   14.2794   -1.4256    0.0000 H   0  0  0  0  0  0  0  0  0  0  0  0
   14.1073   -3.0364    0.0000 H   0  0  0  0  0  0  0  0  0  0  0  0
   13.0868   -4.4359    0.0000 H   0  0  0  0  0  0  0  0  0  0  0  0
  1 39  1  0  0  0  0
  2 12  1  0  0  0  0
  2 14  1  0  0  0  0
  3 30  1  0  0  0  0
  3 31  1  0  0  0  0
 19  4  1  1  0  0  0
  4 62  1  0  0  0  0
  5 17  2  0  0  0  0
  6 18  2  0  0  0  0
  7 25  2  0  0  0  0
  8 40  1  0  0  0  0
  8 78  1  0  0  0  0
  9 13  1  0  0  0  0
  9 14  1  0  0  0  0
  9 18  1  0  0  0  0
 10 17  1  0  0  0  0
 10 22  1  0  0  0  0
 10 56  1  0  0  0  0
 20 11  1  1  0  0  0
 11 25  1  0  0  0  0
 11 59  1  0  0  0  0
 12 13  1  0  0  0  0
 12 15  1  0  0  0  0
 12 16  1  0  0  0  0
 13 17  1  6  0  0  0
 13 45  1  0  0  0  0
 14 46  1  0  0  0  0
 14 47  1  0  0  0  0
 15 48  1  0  0  0  0
 15 49  1  0  0  0  0
 15 50  1  0  0  0  0
 16 51  1  0  0  0  0
 16 52  1  0  0  0  0
 16 53  1  0  0  0  0
 18 19  1  0  0  0  0
 19 20  1  0  0  0  0
 19 54  1  0  0  0  0
 20 21  1  0  0  0  0
 20 55  1  0  0  0  0
 21 23  1  0  0  0  0
 21 57  1  0  0  0  0
 21 58  1  0  0  0  0
 22 24  1  0  0  0  0
 22 60  1  0  0  0  0
 22 61  1  0  0  0  0
 23 27  2  0  0  0  0
 23 28  1  0  0  0  0
 24 26  1  0  0  0  0
 24 30  2  0  0  0  0
 25 29  1  0  0  0  0
 26 31  2  0  0  0  0
 26 34  1  0  0  0  0
 27 32  1  0  0  0  0
 27 63  1  0  0  0  0
 28 33  2  0  0  0  0
 28 64  1  0  0  0  0
 29 35  2  0  0  0  0
 29 37  1  0  0  0  0
 30 65  1  0  0  0  0
 31 38  1  0  0  0  0
 32 36  2  0  0  0  0
 32 66  1  0  0  0  0
 33 36  1  0  0  0  0
 33 67  1  0  0  0  0
 34 39  2  0  0  0  0
 34 68  1  0  0  0  0
 35 40  1  0  0  0  0
 35 42  1  0  0  0  0
 36 69  1  0  0  0  0
 37 43  2  0  0  0  0
 37 70  1  0  0  0  0
 38 41  2  0  0  0  0
 38 71  1  0  0  0  0
 39 41  1  0  0  0  0
 40 44  2  0  0  0  0
 41 72  1  0  0  0  0
 42 73  1  0  0  0  0
 42 74  1  0  0  0  0
 42 75  1  0  0  0  0
 43 44  1  0  0  0  0
 43 76  1  0  0  0  0
 44 77  1  0  0  0  0
M  END
> <PUBCHEM_COMPOUND_CID>
514481
> <PUBCHEM_COMPOUND_CANONICALIZED>
1
> <PUBCHEM_CACTVS_COMPLEXITY>
1030
> <PUBCHEM_CACTVS_HBOND_ACCEPTOR>
7
> <PUBCHEM_CACTVS_HBOND_DONOR>
4
> <PUBCHEM_CACTVS_ROTATABLE_BOND>
9
> <PUBCHEM_CACTVS_SUBSKEYS>
AAADcfB/OABkAAAAAAAAAAAAAAAAAWJAAAAwYMAAAAAAAEgB9AAAHgYQCAAADD7l2CayB8PAAgiMAiFSEAKDAIBkLRBIiJnODsgKdjqj1zOUcQhk1hG4mYe6yPCOgAIBIAAcAAAABAJAADgAAAAAAAAAAA==
> <PUBCHEM_IUPAC_OPENEYE_NAME>
(4R)-N-[(5-chlorobenzothiophen-3-yl)methyl]-3-[(2S,3S)-2-hydroxy-3-[(3-hydroxy-2-methyl-benzoyl)amino]-4-phenyl-butanoyl]-5,5-dimethyl-thiazolidine-4-carboxamide
> <PUBCHEM_IUPAC_CAS_NAME>
(4R)-N-[(5-chloro-1-benzothiophen-3-yl)methyl]-3-[(2S,3S)-2-hydroxy-3-[[(3-hydroxy-2-methylphenyl)-oxomethyl]amino]-1-oxo-4-phenylbutyl]-5,5-dimethyl-4-thiazolidinecarboxamide
> <PUBCHEM_IUPAC_NAME_MARKUP>
(4<I>R</I>)-<I>N</I>-[(5-chloro-1-benzothiophen-3-yl)methyl]-3-[(2<I>S</I>,3<I>S</I>)-2-hydroxy-3-[(3-hydroxy-2-methylbenzoyl)amino]-4-phenylbutanoyl]-5,5-dimethyl-1,3-thiazolidine-4-carboxamide
> <PUBCHEM_IUPAC_NAME>
(4R)-N-[(5-chloro-1-benzothiophen-3-yl)methyl]-3-[(2S,3S)-2-hydroxy-3-[(3-hydroxy-2-methylbenzoyl)amino]-4-phenylbutanoyl]-5,5-dimethyl-1,3-thiazolidine-4-carboxamide
> <PUBCHEM_IUPAC_SYSTEMATIC_NAME>
(4R)-N-[(5-chloranyl-1-benzothiophen-3-yl)methyl]-5,5-dimethyl-3-[(2S,3S)-3-[(2-methyl-3-oxidanyl-phenyl)carbonylamino]-2-oxidanyl-4-phenyl-butanoyl]-1,3-thiazolidine-4-carboxamide
> <PUBCHEM_IUPAC_TRADITIONAL_NAME>
(4R)-N-[(5-chlorobenzothiophen-3-yl)methyl]-3-[(2S,3S)-2-hydroxy-3-[(3-hydroxy-2-methyl-benzoyl)amino]-4-phenyl-butanoyl]-5,5-dimethyl-thiazolidine-4-carboxamide
> <PUBCHEM_IUPAC_INCHI>
InChI=1S/C33H34ClN3O5S2/c1-19-23(10-7-11-26(19)38)30(40)36-25(14-20-8-5-4-6-9-20)28(39)32(42)37-18-44-33(2,3)29(37)31(41)35-16-21-17-43-27-13-12-22(34)15-24(21)27/h4-13,15,17,25,28-29,38-39H,14,16,18H2,1-3H3,(H,35,41)(H,36,40)/t25-,28-,29+/m0/s1
> <PUBCHEM_IUPAC_INCHIKEY>
YPLVLHGSAAKMGF-OWPQXHQJSA-N
> <PUBCHEM_XLOGP3_AA>
5.8
> <PUBCHEM_EXACT_MASS>
651.1628412
> <PUBCHEM_MOLECULAR_FORMULA>
C33H34ClN3O5S2
> <PUBCHEM_MOLECULAR_WEIGHT>
652.2
> <PUBCHEM_OPENEYE_CAN_SMILES>
CC1=C(C=CC=C1O)C(=O)NC(CC2=CC=CC=C2)C(C(=O)N3CSC(C3C(=O)NCC4=CSC5=C4C=C(C=C5)Cl)(C)C)O
> <PUBCHEM_OPENEYE_ISO_SMILES>
CC1=C(C=CC=C1O)C(=O)N[C@@H](CC2=CC=CC=C2)[C@@H](C(=O)N3CSC([C@H]3C(=O)NCC4=CSC5=C4C=C(C=C5)Cl)(C)C)O
> <PUBCHEM_CACTVS_TPSA>
173
> <PUBCHEM_MONOISOTOPIC_WEIGHT>
651.1628412
> <PUBCHEM_TOTAL_CHARGE>
0
> <PUBCHEM_HEAVY_ATOM_COUNT>
44
> <PUBCHEM_ATOM_DEF_STEREO_COUNT>
3
> <PUBCHEM_ATOM_UDEF_STEREO_COUNT>
0
> <PUBCHEM_BOND_DEF_STEREO_COUNT>
0
> <PUBCHEM_BOND_UDEF_STEREO_COUNT>
0
> <PUBCHEM_ISOTOPIC_ATOM_COUNT>
0
> <PUBCHEM_COMPONENT_COUNT>
1
> <PUBCHEM_CACTVS_TAUTO_COUNT>
-1
> <PUBCHEM_COORDINATE_TYPE>
1
5
255
> <PUBCHEM_BONDANNOTATIONS>
20  11  5
13  17  6
23  27  8
23  28  8
24  26  8
24  30  8
26  31  8
26  34  8
27  32  8
28  33  8
29  35  8
29  37  8
3  30  8
3  31  8
31  38  8
32  36  8
33  36  8
34  39  8
35  40  8
37  43  8
38  41  8
39  41  8
19  4  5
40  44  8
43  44  8
$$$$
