514468
  -OEChem-10302200282D
 81 85  0     1  0  0  0  0  0999 V2000
    8.8700   -3.3539    0.0000 S   0  0  0  0  0  0  0  0  0  0  0  0
    7.1370   -1.1267    0.0000 O   0  0  0  0  0  0  0  0  0  0  0  0
   11.6847   -2.1515    0.0000 O   0  0  0  0  0  0  0  0  0  0  0  0
    9.5744   -0.0975    0.0000 O   0  0  0  0  0  0  0  0  0  0  0  0
    6.1860   -0.8177    0.0000 O   0  0  0  0  0  0  0  0  0  0  0  0
    2.5896   -0.5598    0.0000 O   0  0  0  0  0  0  0  0  0  0  0  0
    9.0391   -1.7447    0.0000 N   0  0  0  0  0  0  0  0  0  0  0  0
   10.8187   -0.6515    0.0000 N   0  0  0  0  0  0  0  0  0  0  0  0
    6.7212    0.8296    0.0000 N   0  0  0  0  0  0  0  0  0  0  0  0
    9.8482   -3.1460    0.0000 C   0  0  0  0  0  0  0  0  0  0  0  0
    9.9527   -2.1515    0.0000 C   0  0  1  0  0  0  0  0  0  0  0  0
    8.3700   -2.4879    0.0000 C   0  0  0  0  0  0  0  0  0  0  0  0
   10.0561   -4.1242    0.0000 C   0  0  0  0  0  0  0  0  0  0  0  0
   10.8427   -3.2505    0.0000 C   0  0  0  0  0  0  0  0  0  0  0  0
   10.8187   -1.6515    0.0000 C   0  0  0  0  0  0  0  0  0  0  0  0
    8.8312   -0.7666    0.0000 C   0  0  0  0  0  0  0  0  0  0  0  0
    7.8802   -0.4576    0.0000 C   0  0  2  0  0  0  0  0  0  0  0  0
    7.6723    0.5206    0.0000 C   0  0  2  0  0  0  0  0  0  0  0  0
    8.4154    1.1897    0.0000 C   0  0  0  0  0  0  0  0  0  0  0  0
   11.6847   -0.1515    0.0000 C   0  0  0  0  0  0  0  0  0  0  0  0
    8.2075    2.1678    0.0000 C   0  0  0  0  0  0  0  0  0  0  0  0
   11.6847    0.8485    0.0000 C   0  0  0  0  0  0  0  0  0  0  0  0
    5.9781    0.1605    0.0000 C   0  0  0  0  0  0  0  0  0  0  0  0
   12.5508    1.3485    0.0000 C   0  0  0  0  0  0  0  0  0  0  0  0
    7.2564    2.4769    0.0000 C   0  0  0  0  0  0  0  0  0  0  0  0
    8.9506    2.8370    0.0000 C   0  0  0  0  0  0  0  0  0  0  0  0
   10.8187    1.3485    0.0000 C   0  0  0  0  0  0  0  0  0  0  0  0
    5.0270    0.4695    0.0000 C   0  0  0  0  0  0  0  0  0  0  0  0
   12.5508    2.3485    0.0000 C   0  0  0  0  0  0  0  0  0  0  0  0
    7.0485    3.4550    0.0000 C   0  0  0  0  0  0  0  0  0  0  0  0
    8.7427    3.8151    0.0000 C   0  0  0  0  0  0  0  0  0  0  0  0
   13.4447    0.8139    0.0000 C   0  0  0  0  0  0  0  0  0  0  0  0
   10.8187    2.3485    0.0000 C   0  0  0  0  0  0  0  0  0  0  0  0
    4.2839   -0.1997    0.0000 C   0  0  0  0  0  0  0  0  0  0  0  0
   11.6847    2.8485    0.0000 C   0  0  0  0  0  0  0  0  0  0  0  0
    7.7917    4.1242    0.0000 C   0  0  0  0  0  0  0  0  0  0  0  0
    4.8191    1.4476    0.0000 C   0  0  0  0  0  0  0  0  0  0  0  0
   13.4447    2.8832    0.0000 C   0  0  0  0  0  0  0  0  0  0  0  0
   14.3508    1.3277    0.0000 C   0  0  0  0  0  0  0  0  0  0  0  0
    3.3328    0.1094    0.0000 C   0  0  0  0  0  0  0  0  0  0  0  0
   14.3508    2.3693    0.0000 C   0  0  0  0  0  0  0  0  0  0  0  0
    4.4918   -1.1778    0.0000 C   0  0  0  0  0  0  0  0  0  0  0  0
    3.8680    1.7566    0.0000 C   0  0  0  0  0  0  0  0  0  0  0  0
    3.1249    1.0875    0.0000 C   0  0  0  0  0  0  0  0  0  0  0  0
    9.9202   -1.5323    0.0000 H   0  0  0  0  0  0  0  0  0  0  0  0
    7.9552   -2.0271    0.0000 H   0  0  0  0  0  0  0  0  0  0  0  0
    7.8684   -2.8523    0.0000 H   0  0  0  0  0  0  0  0  0  0  0  0
    9.4496   -4.2530    0.0000 H   0  0  0  0  0  0  0  0  0  0  0  0
   10.1850   -4.7306    0.0000 H   0  0  0  0  0  0  0  0  0  0  0  0
   10.6625   -3.9952    0.0000 H   0  0  0  0  0  0  0  0  0  0  0  0
   10.7779   -3.8671    0.0000 H   0  0  0  0  0  0  0  0  0  0  0  0
   11.4593   -3.3153    0.0000 H   0  0  0  0  0  0  0  0  0  0  0  0
   10.9075   -2.6339    0.0000 H   0  0  0  0  0  0  0  0  0  0  0  0
    8.0091   -1.0640    0.0000 H   0  0  0  0  0  0  0  0  0  0  0  0
    7.5434    1.1270    0.0000 H   0  0  0  0  0  0  0  0  0  0  0  0
   10.2818   -0.3415    0.0000 H   0  0  0  0  0  0  0  0  0  0  0  0
    8.7440    0.6639    0.0000 H   0  0  0  0  0  0  0  0  0  0  0  0
    8.9903    1.4220    0.0000 H   0  0  0  0  0  0  0  0  0  0  0  0
    6.5923    1.4360    0.0000 H   0  0  0  0  0  0  0  0  0  0  0  0
   11.8968   -0.7341    0.0000 H   0  0  0  0  0  0  0  0  0  0  0  0
   12.2953   -0.0438    0.0000 H   0  0  0  0  0  0  0  0  0  0  0  0
    7.2659   -1.7332    0.0000 H   0  0  0  0  0  0  0  0  0  0  0  0
    6.7957    2.0620    0.0000 H   0  0  0  0  0  0  0  0  0  0  0  0
    9.5403    2.6454    0.0000 H   0  0  0  0  0  0  0  0  0  0  0  0
   10.2818    1.0385    0.0000 H   0  0  0  0  0  0  0  0  0  0  0  0
    6.4589    3.6466    0.0000 H   0  0  0  0  0  0  0  0  0  0  0  0
    9.2035    4.2300    0.0000 H   0  0  0  0  0  0  0  0  0  0  0  0
   13.4375    0.1939    0.0000 H   0  0  0  0  0  0  0  0  0  0  0  0
   10.2818    2.6585    0.0000 H   0  0  0  0  0  0  0  0  0  0  0  0
   11.6847    3.4685    0.0000 H   0  0  0  0  0  0  0  0  0  0  0  0
    7.6628    4.7306    0.0000 H   0  0  0  0  0  0  0  0  0  0  0  0
    5.2798    1.8625    0.0000 H   0  0  0  0  0  0  0  0  0  0  0  0
   13.4375    3.5031    0.0000 H   0  0  0  0  0  0  0  0  0  0  0  0
   14.8865    1.0156    0.0000 H   0  0  0  0  0  0  0  0  0  0  0  0
   14.8865    2.6814    0.0000 H   0  0  0  0  0  0  0  0  0  0  0  0
    3.8853   -1.3067    0.0000 H   0  0  0  0  0  0  0  0  0  0  0  0
    4.6207   -1.7842    0.0000 H   0  0  0  0  0  0  0  0  0  0  0  0
    5.0982   -1.0489    0.0000 H   0  0  0  0  0  0  0  0  0  0  0  0
    3.7391    2.3631    0.0000 H   0  0  0  0  0  0  0  0  0  0  0  0
    2.5352    1.2791    0.0000 H   0  0  0  0  0  0  0  0  0  0  0  0
    2.0000   -0.3682    0.0000 H   0  0  0  0  0  0  0  0  0  0  0  0
  1 10  1  0  0  0  0
  1 12  1  0  0  0  0
 17  2  1  1  0  0  0
  2 62  1  0  0  0  0
  3 15  2  0  0  0  0
  4 16  2  0  0  0  0
  5 23  2  0  0  0  0
  6 40  1  0  0  0  0
  6 81  1  0  0  0  0
  7 11  1  0  0  0  0
  7 12  1  0  0  0  0
  7 16  1  0  0  0  0
  8 15  1  0  0  0  0
  8 20  1  0  0  0  0
  8 56  1  0  0  0  0
 18  9  1  1  0  0  0
  9 23  1  0  0  0  0
  9 59  1  0  0  0  0
 10 11  1  0  0  0  0
 10 13  1  0  0  0  0
 10 14  1  0  0  0  0
 11 15  1  6  0  0  0
 11 45  1  0  0  0  0
 12 46  1  0  0  0  0
 12 47  1  0  0  0  0
 13 48  1  0  0  0  0
 13 49  1  0  0  0  0
 13 50  1  0  0  0  0
 14 51  1  0  0  0  0
 14 52  1  0  0  0  0
 14 53  1  0  0  0  0
 16 17  1  0  0  0  0
 17 18  1  0  0  0  0
 17 54  1  0  0  0  0
 18 19  1  0  0  0  0
 18 55  1  0  0  0  0
 19 21  1  0  0  0  0
 19 57  1  0  0  0  0
 19 58  1  0  0  0  0
 20 22  1  0  0  0  0
 20 60  1  0  0  0  0
 20 61  1  0  0  0  0
 21 25  2  0  0  0  0
 21 26  1  0  0  0  0
 22 24  1  0  0  0  0
 22 27  2  0  0  0  0
 23 28  1  0  0  0  0
 24 29  1  0  0  0  0
 24 32  2  0  0  0  0
 25 30  1  0  0  0  0
 25 63  1  0  0  0  0
 26 31  2  0  0  0  0
 26 64  1  0  0  0  0
 27 33  1  0  0  0  0
 27 65  1  0  0  0  0
 28 34  2  0  0  0  0
 28 37  1  0  0  0  0
 29 35  1  0  0  0  0
 29 38  2  0  0  0  0
 30 36  2  0  0  0  0
 30 66  1  0  0  0  0
 31 36  1  0  0  0  0
 31 67  1  0  0  0  0
 32 39  1  0  0  0  0
 32 68  1  0  0  0  0
 33 35  2  0  0  0  0
 33 69  1  0  0  0  0
 34 40  1  0  0  0  0
 34 42  1  0  0  0  0
 35 70  1  0  0  0  0
 36 71  1  0  0  0  0
 37 43  2  0  0  0  0
 37 72  1  0  0  0  0
 38 41  1  0  0  0  0
 38 73  1  0  0  0  0
 39 41  2  0  0  0  0
 39 74  1  0  0  0  0
 40 44  2  0  0  0  0
 41 75  1  0  0  0  0
 42 76  1  0  0  0  0
 42 77  1  0  0  0  0
 42 78  1  0  0  0  0
 43 44  1  0  0  0  0
 43 79  1  0  0  0  0
 44 80  1  0  0  0  0
M  END
> <PUBCHEM_COMPOUND_CID>
514468
> <PUBCHEM_COMPOUND_CANONICALIZED>
1
> <PUBCHEM_CACTVS_COMPLEXITY>
1000
> <PUBCHEM_CACTVS_HBOND_ACCEPTOR>
6
> <PUBCHEM_CACTVS_HBOND_DONOR>
4
> <PUBCHEM_CACTVS_ROTATABLE_BOND>
9
> <PUBCHEM_CACTVS_SUBSKEYS>
AAADcfB/OABAAAAAAAAAAAAAAAAAAWAAAAAwYMGAAAAAAADBVAAAHgQQCAAADDzh2AayBsPAAgiIAiFSEAKCAABkIBAIiIHODMgKdjqi1TOUcQhk1hGYmYe6yPCOgAADAAAYAAAAAAYAADAAAAAAAAAAAA==
> <PUBCHEM_IUPAC_OPENEYE_NAME>
(4R)-3-[(2S,3S)-2-hydroxy-3-[(3-hydroxy-2-methyl-benzoyl)amino]-4-phenyl-butanoyl]-5,5-dimethyl-N-(1-naphthylmethyl)thiazolidine-4-carboxamide
> <PUBCHEM_IUPAC_CAS_NAME>
(4R)-3-[(2S,3S)-2-hydroxy-3-[[(3-hydroxy-2-methylphenyl)-oxomethyl]amino]-1-oxo-4-phenylbutyl]-5,5-dimethyl-N-(1-naphthalenylmethyl)-4-thiazolidinecarboxamide
> <PUBCHEM_IUPAC_NAME_MARKUP>
(4<I>R</I>)-3-[(2<I>S</I>,3<I>S</I>)-2-hydroxy-3-[(3-hydroxy-2-methylbenzoyl)amino]-4-phenylbutanoyl]-5,5-dimethyl-<I>N</I>-(naphthalen-1-ylmethyl)-1,3-thiazolidine-4-carboxamide
> <PUBCHEM_IUPAC_NAME>
(4R)-3-[(2S,3S)-2-hydroxy-3-[(3-hydroxy-2-methylbenzoyl)amino]-4-phenylbutanoyl]-5,5-dimethyl-N-(naphthalen-1-ylmethyl)-1,3-thiazolidine-4-carboxamide
> <PUBCHEM_IUPAC_SYSTEMATIC_NAME>
(4R)-5,5-dimethyl-3-[(2S,3S)-3-[(2-methyl-3-oxidanyl-phenyl)carbonylamino]-2-oxidanyl-4-phenyl-butanoyl]-N-(naphthalen-1-ylmethyl)-1,3-thiazolidine-4-carboxamide
> <PUBCHEM_IUPAC_TRADITIONAL_NAME>
(4R)-3-[(2S,3S)-2-hydroxy-3-[(3-hydroxy-2-methyl-benzoyl)amino]-4-phenyl-butanoyl]-5,5-dimethyl-N-(1-naphthylmethyl)thiazolidine-4-carboxamide
> <PUBCHEM_IUPAC_INCHI>
InChI=1S/C35H37N3O5S/c1-22-26(17-10-18-29(22)39)32(41)37-28(19-23-11-5-4-6-12-23)30(40)34(43)38-21-44-35(2,3)31(38)33(42)36-20-25-15-9-14-24-13-7-8-16-27(24)25/h4-18,28,30-31,39-40H,19-21H2,1-3H3,(H,36,42)(H,37,41)/t28-,30-,31+/m0/s1
> <PUBCHEM_IUPAC_INCHIKEY>
ZECJIAQPJIMDDR-LHGWWSMPSA-N
> <PUBCHEM_XLOGP3_AA>
5.4
> <PUBCHEM_EXACT_MASS>
611.24539246
> <PUBCHEM_MOLECULAR_FORMULA>
C35H37N3O5S
> <PUBCHEM_MOLECULAR_WEIGHT>
611.8
> <PUBCHEM_OPENEYE_CAN_SMILES>
CC1=C(C=CC=C1O)C(=O)NC(CC2=CC=CC=C2)C(C(=O)N3CSC(C3C(=O)NCC4=CC=CC5=CC=CC=C54)(C)C)O
> <PUBCHEM_OPENEYE_ISO_SMILES>
CC1=C(C=CC=C1O)C(=O)N[C@@H](CC2=CC=CC=C2)[C@@H](C(=O)N3CSC([C@H]3C(=O)NCC4=CC=CC5=CC=CC=C54)(C)C)O
> <PUBCHEM_CACTVS_TPSA>
144
> <PUBCHEM_MONOISOTOPIC_WEIGHT>
611.24539246
> <PUBCHEM_TOTAL_CHARGE>
0
> <PUBCHEM_HEAVY_ATOM_COUNT>
44
> <PUBCHEM_ATOM_DEF_STEREO_COUNT>
3
> <PUBCHEM_ATOM_UDEF_STEREO_COUNT>
0
> <PUBCHEM_BOND_DEF_STEREO_COUNT>
0
> <PUBCHEM_BOND_UDEF_STEREO_COUNT>
0
> <PUBCHEM_ISOTOPIC_ATOM_COUNT>
0
> <PUBCHEM_COMPONENT_COUNT>
1
> <PUBCHEM_CACTVS_TAUTO_COUNT>
-1
> <PUBCHEM_COORDINATE_TYPE>
1
5
255
> <PUBCHEM_BONDANNOTATIONS>
11  15  6
17  2  5
21  25  8
21  26  8
22  24  8
22  27  8
24  29  8
24  32  8
25  30  8
26  31  8
27  33  8
28  34  8
28  37  8
29  35  8
29  38  8
30  36  8
31  36  8
32  39  8
33  35  8
34  40  8
37  43  8
38  41  8
39  41  8
40  44  8
43  44  8
18  9  5
$$$$
