514423
  -OEChem-10302200282D
 76 79  0     1  0  0  0  0  0999 V2000
   10.3312   -0.9050    0.0000 S   0  0  0  0  0  0  0  0  0  0  0  0
    7.7331    0.5950    0.0000 O   0  0  0  0  0  0  0  0  0  0  0  0
    9.8312   -1.7710    0.0000 O   0  0  0  0  0  0  0  0  0  0  0  0
   10.8312   -0.0390    0.0000 O   0  0  0  0  0  0  0  0  0  0  0  0
   13.8755   -1.1003    0.0000 O   0  0  0  0  0  0  0  0  0  0  0  0
    6.8671    1.0950    0.0000 O   0  0  0  0  0  0  0  0  0  0  0  0
    4.2690    3.5950    0.0000 O   0  0  0  0  0  0  0  0  0  0  0  0
    9.4651   -0.4050    0.0000 N   0  0  3  0  0  0  0  0  0  0  0  0
    6.0010   -0.4050    0.0000 N   0  0  0  0  0  0  0  0  0  0  0  0
   13.8755   -2.7097    0.0000 N   0  0  0  0  0  0  0  0  0  0  0  0
   15.4591   -1.9050    0.0000 N   0  0  0  0  0  0  0  0  0  0  0  0
    2.5369    2.5950    0.0000 N   0  0  0  0  0  0  0  0  0  0  0  0
    7.7331   -0.4050    0.0000 C   0  0  1  0  0  0  0  0  0  0  0  0
    6.8671   -0.9050    0.0000 C   0  0  2  0  0  0  0  0  0  0  0  0
    8.5991   -0.9050    0.0000 C   0  0  0  0  0  0  0  0  0  0  0  0
    9.4651    0.5950    0.0000 C   0  0  0  0  0  0  0  0  0  0  0  0
   10.3312    1.0950    0.0000 C   0  0  0  0  0  0  0  0  0  0  0  0
    6.8671   -1.9050    0.0000 C   0  0  0  0  0  0  0  0  0  0  0  0
   11.1972   -1.4050    0.0000 C   0  0  0  0  0  0  0  0  0  0  0  0
    6.0010   -2.4050    0.0000 C   0  0  0  0  0  0  0  0  0  0  0  0
   10.3312    2.0950    0.0000 C   0  0  0  0  0  0  0  0  0  0  0  0
   11.1972    0.5950    0.0000 C   0  0  0  0  0  0  0  0  0  0  0  0
    6.0010    0.5950    0.0000 C   0  0  0  0  0  0  0  0  0  0  0  0
   12.0632   -0.9050    0.0000 C   0  0  0  0  0  0  0  0  0  0  0  0
   11.1972   -2.4050    0.0000 C   0  0  0  0  0  0  0  0  0  0  0  0
    6.0010   -3.4050    0.0000 C   0  0  0  0  0  0  0  0  0  0  0  0
    5.1350   -1.9050    0.0000 C   0  0  0  0  0  0  0  0  0  0  0  0
    5.1350    1.0950    0.0000 C   0  0  0  0  0  0  0  0  0  0  0  0
   12.9292   -1.4050    0.0000 C   0  0  0  0  0  0  0  0  0  0  0  0
   12.0632   -2.9050    0.0000 C   0  0  0  0  0  0  0  0  0  0  0  0
   12.9292   -2.4050    0.0000 C   0  0  0  0  0  0  0  0  0  0  0  0
    5.1350   -3.9050    0.0000 C   0  0  0  0  0  0  0  0  0  0  0  0
    4.2690   -2.4050    0.0000 C   0  0  0  0  0  0  0  0  0  0  0  0
    5.1350    2.0950    0.0000 C   0  0  0  0  0  0  0  0  0  0  0  0
    4.2690   -3.4050    0.0000 C   0  0  0  0  0  0  0  0  0  0  0  0
    4.2690    0.5950    0.0000 C   0  0  0  0  0  0  0  0  0  0  0  0
    4.2690    2.5950    0.0000 C   0  0  0  0  0  0  0  0  0  0  0  0
    6.0010    2.5950    0.0000 C   0  0  0  0  0  0  0  0  0  0  0  0
    3.4030    1.0950    0.0000 C   0  0  0  0  0  0  0  0  0  0  0  0
   14.4591   -1.9050    0.0000 C   0  0  0  0  0  0  0  0  0  0  0  0
    3.4030    2.0950    0.0000 C   0  0  0  0  0  0  0  0  0  0  0  0
    8.2700   -0.0950    0.0000 H   0  0  0  0  0  0  0  0  0  0  0  0
    6.3301   -1.2150    0.0000 H   0  0  0  0  0  0  0  0  0  0  0  0
    8.2006   -1.3800    0.0000 H   0  0  0  0  0  0  0  0  0  0  0  0
    8.9976   -1.3800    0.0000 H   0  0  0  0  0  0  0  0  0  0  0  0
    9.2531    1.1776    0.0000 H   0  0  0  0  0  0  0  0  0  0  0  0
    8.8546    0.4873    0.0000 H   0  0  0  0  0  0  0  0  0  0  0  0
   10.8681    1.4050    0.0000 H   0  0  0  0  0  0  0  0  0  0  0  0
    7.0791   -2.4876    0.0000 H   0  0  0  0  0  0  0  0  0  0  0  0
    7.4776   -1.7973    0.0000 H   0  0  0  0  0  0  0  0  0  0  0  0
    5.4641   -0.7150    0.0000 H   0  0  0  0  0  0  0  0  0  0  0  0
   10.9512    2.0950    0.0000 H   0  0  0  0  0  0  0  0  0  0  0  0
   10.3312    2.7150    0.0000 H   0  0  0  0  0  0  0  0  0  0  0  0
    9.7112    2.0950    0.0000 H   0  0  0  0  0  0  0  0  0  0  0  0
   10.8872    0.0581    0.0000 H   0  0  0  0  0  0  0  0  0  0  0  0
   11.7341    0.2850    0.0000 H   0  0  0  0  0  0  0  0  0  0  0  0
   11.5072    1.1319    0.0000 H   0  0  0  0  0  0  0  0  0  0  0  0
    8.2700    0.9050    0.0000 H   0  0  0  0  0  0  0  0  0  0  0  0
   12.0632   -0.2850    0.0000 H   0  0  0  0  0  0  0  0  0  0  0  0
   10.6603   -2.7150    0.0000 H   0  0  0  0  0  0  0  0  0  0  0  0
    6.5380   -3.7150    0.0000 H   0  0  0  0  0  0  0  0  0  0  0  0
    5.1350   -1.2850    0.0000 H   0  0  0  0  0  0  0  0  0  0  0  0
   12.0632   -3.5250    0.0000 H   0  0  0  0  0  0  0  0  0  0  0  0
    5.1350   -4.5250    0.0000 H   0  0  0  0  0  0  0  0  0  0  0  0
    3.7320   -2.0950    0.0000 H   0  0  0  0  0  0  0  0  0  0  0  0
    3.7320   -3.7150    0.0000 H   0  0  0  0  0  0  0  0  0  0  0  0
    4.2690   -0.0250    0.0000 H   0  0  0  0  0  0  0  0  0  0  0  0
    6.3110    2.0581    0.0000 H   0  0  0  0  0  0  0  0  0  0  0  0
    6.5380    2.9050    0.0000 H   0  0  0  0  0  0  0  0  0  0  0  0
    5.6910    3.1319    0.0000 H   0  0  0  0  0  0  0  0  0  0  0  0
    2.8660    0.7850    0.0000 H   0  0  0  0  0  0  0  0  0  0  0  0
   15.7691   -2.4419    0.0000 H   0  0  0  0  0  0  0  0  0  0  0  0
   15.7691   -1.3681    0.0000 H   0  0  0  0  0  0  0  0  0  0  0  0
    2.0000    2.2850    0.0000 H   0  0  0  0  0  0  0  0  0  0  0  0
    2.5369    3.2150    0.0000 H   0  0  0  0  0  0  0  0  0  0  0  0
    4.8059    3.9050    0.0000 H   0  0  0  0  0  0  0  0  0  0  0  0
  1  3  2  0  0  0  0
  1  4  2  0  0  0  0
  1  8  1  0  0  0  0
  1 19  1  0  0  0  0
 13  2  1  6  0  0  0
  2 58  1  0  0  0  0
  5 29  1  0  0  0  0
  5 40  1  0  0  0  0
  6 23  2  0  0  0  0
  7 37  1  0  0  0  0
  7 76  1  0  0  0  0
  8 15  1  0  0  0  0
  8 16  1  0  0  0  0
 14  9  1  6  0  0  0
  9 23  1  0  0  0  0
  9 51  1  0  0  0  0
 10 31  1  0  0  0  0
 10 40  2  0  0  0  0
 11 40  1  0  0  0  0
 11 72  1  0  0  0  0
 11 73  1  0  0  0  0
 12 41  1  0  0  0  0
 12 74  1  0  0  0  0
 12 75  1  0  0  0  0
 13 14  1  0  0  0  0
 13 15  1  0  0  0  0
 13 42  1  0  0  0  0
 14 18  1  0  0  0  0
 14 43  1  0  0  0  0
 15 44  1  0  0  0  0
 15 45  1  0  0  0  0
 16 17  1  0  0  0  0
 16 46  1  0  0  0  0
 16 47  1  0  0  0  0
 17 21  1  0  0  0  0
 17 22  1  0  0  0  0
 17 48  1  0  0  0  0
 18 20  1  0  0  0  0
 18 49  1  0  0  0  0
 18 50  1  0  0  0  0
 19 24  2  0  0  0  0
 19 25  1  0  0  0  0
 20 26  2  0  0  0  0
 20 27  1  0  0  0  0
 21 52  1  0  0  0  0
 21 53  1  0  0  0  0
 21 54  1  0  0  0  0
 22 55  1  0  0  0  0
 22 56  1  0  0  0  0
 22 57  1  0  0  0  0
 23 28  1  0  0  0  0
 24 29  1  0  0  0  0
 24 59  1  0  0  0  0
 25 30  2  0  0  0  0
 25 60  1  0  0  0  0
 26 32  1  0  0  0  0
 26 61  1  0  0  0  0
 27 33  2  0  0  0  0
 27 62  1  0  0  0  0
 28 34  2  0  0  0  0
 28 36  1  0  0  0  0
 29 31  2  0  0  0  0
 30 31  1  0  0  0  0
 30 63  1  0  0  0  0
 32 35  2  0  0  0  0
 32 64  1  0  0  0  0
 33 35  1  0  0  0  0
 33 65  1  0  0  0  0
 34 37  1  0  0  0  0
 34 38  1  0  0  0  0
 35 66  1  0  0  0  0
 36 39  2  0  0  0  0
 36 67  1  0  0  0  0
 37 41  2  0  0  0  0
 38 68  1  0  0  0  0
 38 69  1  0  0  0  0
 38 70  1  0  0  0  0
 39 41  1  0  0  0  0
 39 71  1  0  0  0  0
M  END
> <PUBCHEM_COMPOUND_CID>
514423
> <PUBCHEM_COMPOUND_CANONICALIZED>
1
> <PUBCHEM_CACTVS_COMPLEXITY>
958
> <PUBCHEM_CACTVS_HBOND_ACCEPTOR>
10
> <PUBCHEM_CACTVS_HBOND_DONOR>
5
> <PUBCHEM_CACTVS_ROTATABLE_BOND>
11
> <PUBCHEM_CACTVS_SUBSKEYS>
AAADcfB7uABAAAAAAAAAAAAAAAAAAWAAAAAwYMAAAAAAAFgB9AAAHgQQSAAADTzh3gYz17LIFkKoA6VydHTCiDkvYiAImLm/bNmONrLW9buNcShk1hPY+ae6ybCeiAQBRAAYEAAQCAKIADAgAAAAAAAAAA==
> <PUBCHEM_IUPAC_OPENEYE_NAME>
4-amino-N-[(1S,2R)-3-[(2-amino-1,3-benzoxazol-6-yl)sulfonyl-isobutyl-amino]-1-benzyl-2-hydroxy-propyl]-3-hydroxy-2-methyl-benzamide
> <PUBCHEM_IUPAC_CAS_NAME>
4-amino-N-[(2S,3R)-4-[(2-amino-1,3-benzoxazol-6-yl)sulfonyl-(2-methylpropyl)amino]-3-hydroxy-1-phenylbutan-2-yl]-3-hydroxy-2-methylbenzamide
> <PUBCHEM_IUPAC_NAME_MARKUP>
4-amino-<I>N</I>-[(2<I>S</I>,3<I>R</I>)-4-[(2-amino-1,3-benzoxazol-6-yl)sulfonyl-(2-methylpropyl)amino]-3-hydroxy-1-phenylbutan-2-yl]-3-hydroxy-2-methylbenzamide
> <PUBCHEM_IUPAC_NAME>
4-amino-N-[(2S,3R)-4-[(2-amino-1,3-benzoxazol-6-yl)sulfonyl-(2-methylpropyl)amino]-3-hydroxy-1-phenylbutan-2-yl]-3-hydroxy-2-methylbenzamide
> <PUBCHEM_IUPAC_SYSTEMATIC_NAME>
4-azanyl-N-[(2S,3R)-4-[(2-azanyl-1,3-benzoxazol-6-yl)sulfonyl-(2-methylpropyl)amino]-3-oxidanyl-1-phenyl-butan-2-yl]-2-methyl-3-oxidanyl-benzamide
> <PUBCHEM_IUPAC_TRADITIONAL_NAME>
4-amino-N-[(1S,2R)-3-[(2-amino-1,3-benzoxazol-6-yl)sulfonyl-isobutyl-amino]-1-benzyl-2-hydroxy-propyl]-3-hydroxy-2-methyl-benzamide
> <PUBCHEM_IUPAC_INCHI>
InChI=1S/C29H35N5O6S/c1-17(2)15-34(41(38,39)20-9-12-23-26(14-20)40-29(31)33-23)16-25(35)24(13-19-7-5-4-6-8-19)32-28(37)21-10-11-22(30)27(36)18(21)3/h4-12,14,17,24-25,35-36H,13,15-16,30H2,1-3H3,(H2,31,33)(H,32,37)/t24-,25+/m0/s1
> <PUBCHEM_IUPAC_INCHIKEY>
LARLIENLZVUFQC-LOSJGSFVSA-N
> <PUBCHEM_XLOGP3_AA>
3.6
> <PUBCHEM_EXACT_MASS>
581.23080503
> <PUBCHEM_MOLECULAR_FORMULA>
C29H35N5O6S
> <PUBCHEM_MOLECULAR_WEIGHT>
581.7
> <PUBCHEM_OPENEYE_CAN_SMILES>
CC1=C(C=CC(=C1O)N)C(=O)NC(CC2=CC=CC=C2)C(CN(CC(C)C)S(=O)(=O)C3=CC4=C(C=C3)N=C(O4)N)O
> <PUBCHEM_OPENEYE_ISO_SMILES>
CC1=C(C=CC(=C1O)N)C(=O)N[C@@H](CC2=CC=CC=C2)[C@@H](CN(CC(C)C)S(=O)(=O)C3=CC4=C(C=C3)N=C(O4)N)O
> <PUBCHEM_CACTVS_TPSA>
193
> <PUBCHEM_MONOISOTOPIC_WEIGHT>
581.23080503
> <PUBCHEM_TOTAL_CHARGE>
0
> <PUBCHEM_HEAVY_ATOM_COUNT>
41
> <PUBCHEM_ATOM_DEF_STEREO_COUNT>
2
> <PUBCHEM_ATOM_UDEF_STEREO_COUNT>
0
> <PUBCHEM_BOND_DEF_STEREO_COUNT>
0
> <PUBCHEM_BOND_UDEF_STEREO_COUNT>
0
> <PUBCHEM_ISOTOPIC_ATOM_COUNT>
0
> <PUBCHEM_COMPONENT_COUNT>
1
> <PUBCHEM_CACTVS_TAUTO_COUNT>
-1
> <PUBCHEM_COORDINATE_TYPE>
1
5
255
> <PUBCHEM_BONDANNOTATIONS>
10  31  8
10  40  8
19  24  8
19  25  8
13  2  6
20  26  8
20  27  8
24  29  8
25  30  8
26  32  8
27  33  8
28  34  8
28  36  8
29  31  8
30  31  8
32  35  8
33  35  8
34  37  8
36  39  8
37  41  8
39  41  8
5  29  8
5  40  8
14  9  6
$$$$
