514420
  -OEChem-10302200282D
 77 81  0     1  0  0  0  0  0999 V2000
    9.3056   -1.5605    0.0000 S   0  0  0  0  0  0  0  0  0  0  0  0
    4.1095    0.4395    0.0000 O   0  0  0  0  0  0  0  0  0  0  0  0
    2.0000    2.9755    0.0000 O   0  0  0  0  0  0  0  0  0  0  0  0
    2.8020    4.5605    0.0000 O   0  0  0  0  0  0  0  0  0  0  0  0
    6.7075   -0.0605    0.0000 O   0  0  0  0  0  0  0  0  0  0  0  0
    5.8415    0.4395    0.0000 O   0  0  0  0  0  0  0  0  0  0  0  0
    8.8056   -2.4266    0.0000 O   0  0  0  0  0  0  0  0  0  0  0  0
    9.8056   -0.6945    0.0000 O   0  0  0  0  0  0  0  0  0  0  0  0
   12.8499   -1.7558    0.0000 O   0  0  0  0  0  0  0  0  0  0  0  0
    3.6095    2.9783    0.0000 N   0  0  0  0  0  0  0  0  0  0  0  0
    4.9755   -1.0605    0.0000 N   0  0  0  0  0  0  0  0  0  0  0  0
    8.4396   -1.0605    0.0000 N   0  0  3  0  0  0  0  0  0  0  0  0
   12.8499   -3.3653    0.0000 N   0  0  0  0  0  0  0  0  0  0  0  0
   14.4335   -2.5605    0.0000 N   0  0  0  0  0  0  0  0  0  0  0  0
    3.3004    2.0273    0.0000 C   0  0  3  0  0  0  0  0  0  0  0  0
    4.1095    1.4395    0.0000 C   0  0  3  0  0  0  0  0  0  0  0  0
    4.9185    2.0273    0.0000 C   0  0  0  0  0  0  0  0  0  0  0  0
    4.6095    2.9783    0.0000 C   0  0  0  0  0  0  0  0  0  0  0  0
    2.3064    2.0298    0.0000 C   0  0  0  0  0  0  0  0  0  0  0  0
    2.8037    3.5605    0.0000 C   0  0  0  0  0  0  0  0  0  0  0  0
    5.8415   -1.5605    0.0000 C   0  0  2  0  0  0  0  0  0  0  0  0
    6.7075   -1.0605    0.0000 C   0  0  1  0  0  0  0  0  0  0  0  0
    4.9755   -0.0605    0.0000 C   0  0  0  0  0  0  0  0  0  0  0  0
    7.5736   -1.5605    0.0000 C   0  0  0  0  0  0  0  0  0  0  0  0
    5.8415   -2.5605    0.0000 C   0  0  0  0  0  0  0  0  0  0  0  0
    8.4396   -0.0605    0.0000 C   0  0  0  0  0  0  0  0  0  0  0  0
    9.3056    0.4395    0.0000 C   0  0  0  0  0  0  0  0  0  0  0  0
    4.9755   -3.0605    0.0000 C   0  0  0  0  0  0  0  0  0  0  0  0
   10.1716   -2.0605    0.0000 C   0  0  0  0  0  0  0  0  0  0  0  0
    9.3056    1.4395    0.0000 C   0  0  0  0  0  0  0  0  0  0  0  0
   10.1716   -0.0605    0.0000 C   0  0  0  0  0  0  0  0  0  0  0  0
    4.9755   -4.0605    0.0000 C   0  0  0  0  0  0  0  0  0  0  0  0
    4.1095   -2.5605    0.0000 C   0  0  0  0  0  0  0  0  0  0  0  0
   11.0377   -1.5605    0.0000 C   0  0  0  0  0  0  0  0  0  0  0  0
   10.1716   -3.0605    0.0000 C   0  0  0  0  0  0  0  0  0  0  0  0
   11.9037   -2.0605    0.0000 C   0  0  0  0  0  0  0  0  0  0  0  0
    4.1095   -4.5605    0.0000 C   0  0  0  0  0  0  0  0  0  0  0  0
    3.2434   -3.0605    0.0000 C   0  0  0  0  0  0  0  0  0  0  0  0
   11.0377   -3.5605    0.0000 C   0  0  0  0  0  0  0  0  0  0  0  0
   11.9037   -3.0605    0.0000 C   0  0  0  0  0  0  0  0  0  0  0  0
    3.2434   -4.0605    0.0000 C   0  0  0  0  0  0  0  0  0  0  0  0
   13.4335   -2.5605    0.0000 C   0  0  0  0  0  0  0  0  0  0  0  0
    3.1081    1.4378    0.0000 H   0  0  0  0  0  0  0  0  0  0  0  0
    3.5570    1.1580    0.0000 H   0  0  0  0  0  0  0  0  0  0  0  0
    5.2285    1.4903    0.0000 H   0  0  0  0  0  0  0  0  0  0  0  0
    5.4849    2.2794    0.0000 H   0  0  0  0  0  0  0  0  0  0  0  0
    5.2159    3.1072    0.0000 H   0  0  0  0  0  0  0  0  0  0  0  0
    4.5446    3.5949    0.0000 H   0  0  0  0  0  0  0  0  0  0  0  0
    1.6997    1.9018    0.0000 H   0  0  0  0  0  0  0  0  0  0  0  0
    2.3699    1.4131    0.0000 H   0  0  0  0  0  0  0  0  0  0  0  0
    5.8415   -0.9405    0.0000 H   0  0  0  0  0  0  0  0  0  0  0  0
    7.2445   -0.7505    0.0000 H   0  0  0  0  0  0  0  0  0  0  0  0
    7.1750   -2.0355    0.0000 H   0  0  0  0  0  0  0  0  0  0  0  0
    7.9721   -2.0355    0.0000 H   0  0  0  0  0  0  0  0  0  0  0  0
    4.4386   -1.3705    0.0000 H   0  0  0  0  0  0  0  0  0  0  0  0
    6.0536   -3.1431    0.0000 H   0  0  0  0  0  0  0  0  0  0  0  0
    6.4521   -2.4529    0.0000 H   0  0  0  0  0  0  0  0  0  0  0  0
    8.2275    0.5221    0.0000 H   0  0  0  0  0  0  0  0  0  0  0  0
    7.8290   -0.1682    0.0000 H   0  0  0  0  0  0  0  0  0  0  0  0
    8.7687    0.7495    0.0000 H   0  0  0  0  0  0  0  0  0  0  0  0
    7.2445    0.2495    0.0000 H   0  0  0  0  0  0  0  0  0  0  0  0
    9.9256    1.4395    0.0000 H   0  0  0  0  0  0  0  0  0  0  0  0
    9.3056    2.0595    0.0000 H   0  0  0  0  0  0  0  0  0  0  0  0
    8.6856    1.4395    0.0000 H   0  0  0  0  0  0  0  0  0  0  0  0
    9.8616   -0.5975    0.0000 H   0  0  0  0  0  0  0  0  0  0  0  0
   10.7086   -0.3705    0.0000 H   0  0  0  0  0  0  0  0  0  0  0  0
   10.4816    0.4764    0.0000 H   0  0  0  0  0  0  0  0  0  0  0  0
    5.5124   -4.3705    0.0000 H   0  0  0  0  0  0  0  0  0  0  0  0
    4.1095   -1.9405    0.0000 H   0  0  0  0  0  0  0  0  0  0  0  0
   11.0377   -0.9405    0.0000 H   0  0  0  0  0  0  0  0  0  0  0  0
    9.6347   -3.3705    0.0000 H   0  0  0  0  0  0  0  0  0  0  0  0
    4.1095   -5.1805    0.0000 H   0  0  0  0  0  0  0  0  0  0  0  0
    2.7065   -2.7505    0.0000 H   0  0  0  0  0  0  0  0  0  0  0  0
   11.0377   -4.1805    0.0000 H   0  0  0  0  0  0  0  0  0  0  0  0
    2.7065   -4.3705    0.0000 H   0  0  0  0  0  0  0  0  0  0  0  0
   14.7435   -3.0975    0.0000 H   0  0  0  0  0  0  0  0  0  0  0  0
   14.7435   -2.0236    0.0000 H   0  0  0  0  0  0  0  0  0  0  0  0
  1  7  2  0  0  0  0
  1  8  2  0  0  0  0
  1 12  1  0  0  0  0
  1 29  1  0  0  0  0
  2 16  1  0  0  0  0
  2 23  1  0  0  0  0
  3 19  1  0  0  0  0
  3 20  1  0  0  0  0
  4 20  2  0  0  0  0
 22  5  1  6  0  0  0
  5 61  1  0  0  0  0
  6 23  2  0  0  0  0
  9 36  1  0  0  0  0
  9 42  1  0  0  0  0
 10 15  1  0  0  0  0
 10 18  1  0  0  0  0
 10 20  1  0  0  0  0
 21 11  1  6  0  0  0
 11 23  1  0  0  0  0
 11 55  1  0  0  0  0
 12 24  1  0  0  0  0
 12 26  1  0  0  0  0
 13 40  1  0  0  0  0
 13 42  2  0  0  0  0
 14 42  1  0  0  0  0
 14 76  1  0  0  0  0
 14 77  1  0  0  0  0
 15 16  1  0  0  0  0
 15 19  1  0  0  0  0
 15 43  1  0  0  0  0
 16 17  1  0  0  0  0
 16 44  1  0  0  0  0
 17 18  1  0  0  0  0
 17 45  1  0  0  0  0
 17 46  1  0  0  0  0
 18 47  1  0  0  0  0
 18 48  1  0  0  0  0
 19 49  1  0  0  0  0
 19 50  1  0  0  0  0
 21 22  1  0  0  0  0
 21 25  1  0  0  0  0
 21 51  1  0  0  0  0
 22 24  1  0  0  0  0
 22 52  1  0  0  0  0
 24 53  1  0  0  0  0
 24 54  1  0  0  0  0
 25 28  1  0  0  0  0
 25 56  1  0  0  0  0
 25 57  1  0  0  0  0
 26 27  1  0  0  0  0
 26 58  1  0  0  0  0
 26 59  1  0  0  0  0
 27 30  1  0  0  0  0
 27 31  1  0  0  0  0
 27 60  1  0  0  0  0
 28 32  2  0  0  0  0
 28 33  1  0  0  0  0
 29 34  2  0  0  0  0
 29 35  1  0  0  0  0
 30 62  1  0  0  0  0
 30 63  1  0  0  0  0
 30 64  1  0  0  0  0
 31 65  1  0  0  0  0
 31 66  1  0  0  0  0
 31 67  1  0  0  0  0
 32 37  1  0  0  0  0
 32 68  1  0  0  0  0
 33 38  2  0  0  0  0
 33 69  1  0  0  0  0
 34 36  1  0  0  0  0
 34 70  1  0  0  0  0
 35 39  2  0  0  0  0
 35 71  1  0  0  0  0
 36 40  2  0  0  0  0
 37 41  2  0  0  0  0
 37 72  1  0  0  0  0
 38 41  1  0  0  0  0
 38 73  1  0  0  0  0
 39 40  1  0  0  0  0
 39 74  1  0  0  0  0
 41 75  1  0  0  0  0
M  END
> <PUBCHEM_COMPOUND_CID>
514420
> <PUBCHEM_COMPOUND_CANONICALIZED>
1
> <PUBCHEM_CACTVS_COMPLEXITY>
1050
> <PUBCHEM_CACTVS_HBOND_ACCEPTOR>
11
> <PUBCHEM_CACTVS_HBOND_DONOR>
3
> <PUBCHEM_CACTVS_ROTATABLE_BOND>
12
> <PUBCHEM_CACTVS_SUBSKEYS>
AAADcfB7vABAAAAAAAAAAAAAAAAAAWLFgAAwYAAAAAAWAFgB9AAAHgQQSAAADTzh3gYz37PIFkKoA6RyfHTCiDkvYiAImLm/bNmONrLE9buNcShn1hPY6aeY2KIOAAQABAAAEAAACAAIAAAgAAAAAAAAAA==
> <PUBCHEM_IUPAC_OPENEYE_NAME>
(3-oxo-5,6,7,7a-tetrahydro-1H-pyrrolo[1,2-c]oxazol-7-yl) N-[(1S,2R)-3-[(2-amino-1,3-benzoxazol-6-yl)sulfonyl-isobutyl-amino]-1-benzyl-2-hydroxy-propyl]carbamate
> <PUBCHEM_IUPAC_CAS_NAME>
N-[(2S,3R)-4-[(2-amino-1,3-benzoxazol-6-yl)sulfonyl-(2-methylpropyl)amino]-3-hydroxy-1-phenylbutan-2-yl]carbamic acid (3-oxo-5,6,7,7a-tetrahydro-1H-pyrrolo[1,2-c]oxazol-7-yl) ester
> <PUBCHEM_IUPAC_NAME_MARKUP>
(3-oxo-5,6,7,7<I>a</I>-tetrahydro-1<I>H</I>-pyrrolo[1,2-c][1,3]oxazol-7-yl) <I>N</I>-[(2<I>S</I>,3<I>R</I>)-4-[(2-amino-1,3-benzoxazol-6-yl)sulfonyl-(2-methylpropyl)amino]-3-hydroxy-1-phenylbutan-2-yl]carbamate
> <PUBCHEM_IUPAC_NAME>
(3-oxo-5,6,7,7a-tetrahydro-1H-pyrrolo[1,2-c][1,3]oxazol-7-yl) N-[(2S,3R)-4-[(2-amino-1,3-benzoxazol-6-yl)sulfonyl-(2-methylpropyl)amino]-3-hydroxy-1-phenylbutan-2-yl]carbamate
> <PUBCHEM_IUPAC_SYSTEMATIC_NAME>
(3-oxidanylidene-5,6,7,7a-tetrahydro-1H-pyrrolo[1,2-c][1,3]oxazol-7-yl) N-[(2S,3R)-4-[(2-azanyl-1,3-benzoxazol-6-yl)sulfonyl-(2-methylpropyl)amino]-3-oxidanyl-1-phenyl-butan-2-yl]carbamate
> <PUBCHEM_IUPAC_TRADITIONAL_NAME>
N-[(1S,2R)-3-[(2-amino-1,3-benzoxazol-6-yl)sulfonyl-isobutyl-amino]-1-benzyl-2-hydroxy-propyl]carbamic acid (3-keto-5,6,7,7a-tetrahydro-1H-pyrrolo[1,2-c]oxazol-7-yl) ester
> <PUBCHEM_IUPAC_INCHI>
InChI=1S/C28H35N5O8S/c1-17(2)14-32(42(37,38)19-8-9-20-25(13-19)40-26(29)30-20)15-23(34)21(12-18-6-4-3-5-7-18)31-27(35)41-24-10-11-33-22(24)16-39-28(33)36/h3-9,13,17,21-24,34H,10-12,14-16H2,1-2H3,(H2,29,30)(H,31,35)/t21-,22?,23+,24?/m0/s1
> <PUBCHEM_IUPAC_INCHIKEY>
LTVSETGGVDDWSW-RFQWIFLJSA-N
> <PUBCHEM_XLOGP3_AA>
3
> <PUBCHEM_EXACT_MASS>
601.22063427
> <PUBCHEM_MOLECULAR_FORMULA>
C28H35N5O8S
> <PUBCHEM_MOLECULAR_WEIGHT>
601.7
> <PUBCHEM_OPENEYE_CAN_SMILES>
CC(C)CN(CC(C(CC1=CC=CC=C1)NC(=O)OC2CCN3C2COC3=O)O)S(=O)(=O)C4=CC5=C(C=C4)N=C(O5)N
> <PUBCHEM_OPENEYE_ISO_SMILES>
CC(C)CN(C[C@H]([C@H](CC1=CC=CC=C1)NC(=O)OC2CCN3C2COC3=O)O)S(=O)(=O)C4=CC5=C(C=C4)N=C(O5)N
> <PUBCHEM_CACTVS_TPSA>
186
> <PUBCHEM_MONOISOTOPIC_WEIGHT>
601.22063427
> <PUBCHEM_TOTAL_CHARGE>
0
> <PUBCHEM_HEAVY_ATOM_COUNT>
42
> <PUBCHEM_ATOM_DEF_STEREO_COUNT>
2
> <PUBCHEM_ATOM_UDEF_STEREO_COUNT>
2
> <PUBCHEM_BOND_DEF_STEREO_COUNT>
0
> <PUBCHEM_BOND_UDEF_STEREO_COUNT>
0
> <PUBCHEM_ISOTOPIC_ATOM_COUNT>
0
> <PUBCHEM_COMPONENT_COUNT>
1
> <PUBCHEM_CACTVS_TAUTO_COUNT>
-1
> <PUBCHEM_COORDINATE_TYPE>
1
5
255
> <PUBCHEM_BONDANNOTATIONS>
21  11  6
13  40  8
13  42  8
15  19  3
16  2  3
28  32  8
28  33  8
29  34  8
29  35  8
32  37  8
33  38  8
34  36  8
35  39  8
36  40  8
37  41  8
38  41  8
39  40  8
22  5  6
9  36  8
9  42  8
$$$$
