514412
  -OEChem-10302200282D
 73 77  0     1  0  0  0  0  0999 V2000
    8.7788   -0.7974    0.0000 S   0  0  0  0  0  0  0  0  0  0  0  0
    2.3987    3.3939    0.0000 S   0  0  0  0  0  0  0  0  0  0  0  0
    6.1808    0.7026    0.0000 O   0  0  0  0  0  0  0  0  0  0  0  0
    8.2788   -1.6635    0.0000 O   0  0  0  0  0  0  0  0  0  0  0  0
    9.2788    0.0686    0.0000 O   0  0  0  0  0  0  0  0  0  0  0  0
    5.3147    1.2026    0.0000 O   0  0  0  0  0  0  0  0  0  0  0  0
   12.3231   -0.9927    0.0000 O   0  0  0  0  0  0  0  0  0  0  0  0
    7.9128   -0.2974    0.0000 N   0  0  3  0  0  0  0  0  0  0  0  0
    4.4487   -0.2974    0.0000 N   0  0  0  0  0  0  0  0  0  0  0  0
    3.4782    2.1971    0.0000 N   0  0  0  0  0  0  0  0  0  0  0  0
    2.0000    1.5390    0.0000 N   0  0  0  0  0  0  0  0  0  0  0  0
   12.3231   -2.6022    0.0000 N   0  0  0  0  0  0  0  0  0  0  0  0
   13.9067   -1.7974    0.0000 N   0  0  0  0  0  0  0  0  0  0  0  0
    6.1808   -0.2974    0.0000 C   0  0  1  0  0  0  0  0  0  0  0  0
    5.3147   -0.7974    0.0000 C   0  0  2  0  0  0  0  0  0  0  0  0
    7.0468   -0.7974    0.0000 C   0  0  0  0  0  0  0  0  0  0  0  0
    7.9128    0.7026    0.0000 C   0  0  0  0  0  0  0  0  0  0  0  0
    8.7788    1.2026    0.0000 C   0  0  0  0  0  0  0  0  0  0  0  0
    5.3147   -1.7974    0.0000 C   0  0  0  0  0  0  0  0  0  0  0  0
    4.4487   -2.2974    0.0000 C   0  0  0  0  0  0  0  0  0  0  0  0
    9.6448   -1.2974    0.0000 C   0  0  0  0  0  0  0  0  0  0  0  0
    8.7788    2.2026    0.0000 C   0  0  0  0  0  0  0  0  0  0  0  0
    9.6448    0.7026    0.0000 C   0  0  0  0  0  0  0  0  0  0  0  0
    4.4487    0.7026    0.0000 C   0  0  0  0  0  0  0  0  0  0  0  0
   10.5109   -0.7974    0.0000 C   0  0  0  0  0  0  0  0  0  0  0  0
    3.5827    1.2026    0.0000 C   0  0  0  0  0  0  0  0  0  0  0  0
    9.6448   -2.2974    0.0000 C   0  0  0  0  0  0  0  0  0  0  0  0
    4.4487   -3.2974    0.0000 C   0  0  0  0  0  0  0  0  0  0  0  0
    3.5827   -1.7974    0.0000 C   0  0  0  0  0  0  0  0  0  0  0  0
   11.3769   -1.2974    0.0000 C   0  0  0  0  0  0  0  0  0  0  0  0
    2.6691    0.7958    0.0000 C   0  0  0  0  0  0  0  0  0  0  0  0
   10.5109   -2.7974    0.0000 C   0  0  0  0  0  0  0  0  0  0  0  0
   11.3769   -2.2974    0.0000 C   0  0  0  0  0  0  0  0  0  0  0  0
    3.5827   -3.7974    0.0000 C   0  0  0  0  0  0  0  0  0  0  0  0
    2.7166   -2.2974    0.0000 C   0  0  0  0  0  0  0  0  0  0  0  0
    2.5000    2.4050    0.0000 C   0  0  0  0  0  0  0  0  0  0  0  0
    2.7166   -3.2974    0.0000 C   0  0  0  0  0  0  0  0  0  0  0  0
    3.9730    3.0593    0.0000 C   0  0  0  0  0  0  0  0  0  0  0  0
    2.4612   -0.1823    0.0000 C   0  0  0  0  0  0  0  0  0  0  0  0
   12.9067   -1.7974    0.0000 C   0  0  0  0  0  0  0  0  0  0  0  0
    3.3071    3.7974    0.0000 C   0  0  0  0  0  0  0  0  0  0  0  0
    6.7177    0.0126    0.0000 H   0  0  0  0  0  0  0  0  0  0  0  0
    5.3147   -0.1774    0.0000 H   0  0  0  0  0  0  0  0  0  0  0  0
    6.6482   -1.2724    0.0000 H   0  0  0  0  0  0  0  0  0  0  0  0
    7.4453   -1.2724    0.0000 H   0  0  0  0  0  0  0  0  0  0  0  0
    7.7008    1.2852    0.0000 H   0  0  0  0  0  0  0  0  0  0  0  0
    7.3022    0.5949    0.0000 H   0  0  0  0  0  0  0  0  0  0  0  0
    9.3158    1.5126    0.0000 H   0  0  0  0  0  0  0  0  0  0  0  0
    5.5268   -2.3801    0.0000 H   0  0  0  0  0  0  0  0  0  0  0  0
    5.9253   -1.6898    0.0000 H   0  0  0  0  0  0  0  0  0  0  0  0
    3.9118   -0.6074    0.0000 H   0  0  0  0  0  0  0  0  0  0  0  0
    9.3988    2.2026    0.0000 H   0  0  0  0  0  0  0  0  0  0  0  0
    8.7788    2.8226    0.0000 H   0  0  0  0  0  0  0  0  0  0  0  0
    8.1588    2.2026    0.0000 H   0  0  0  0  0  0  0  0  0  0  0  0
    9.3348    0.1656    0.0000 H   0  0  0  0  0  0  0  0  0  0  0  0
   10.1818    0.3926    0.0000 H   0  0  0  0  0  0  0  0  0  0  0  0
    9.9548    1.2395    0.0000 H   0  0  0  0  0  0  0  0  0  0  0  0
    6.7177    1.0126    0.0000 H   0  0  0  0  0  0  0  0  0  0  0  0
   10.5109   -0.1774    0.0000 H   0  0  0  0  0  0  0  0  0  0  0  0
    9.1079   -2.6074    0.0000 H   0  0  0  0  0  0  0  0  0  0  0  0
    4.9856   -3.6074    0.0000 H   0  0  0  0  0  0  0  0  0  0  0  0
    3.5827   -1.1774    0.0000 H   0  0  0  0  0  0  0  0  0  0  0  0
   10.5109   -3.4174    0.0000 H   0  0  0  0  0  0  0  0  0  0  0  0
    3.5827   -4.4174    0.0000 H   0  0  0  0  0  0  0  0  0  0  0  0
    2.1797   -1.9874    0.0000 H   0  0  0  0  0  0  0  0  0  0  0  0
    2.1797   -3.6074    0.0000 H   0  0  0  0  0  0  0  0  0  0  0  0
    4.5894    3.1251    0.0000 H   0  0  0  0  0  0  0  0  0  0  0  0
    1.8548   -0.0534    0.0000 H   0  0  0  0  0  0  0  0  0  0  0  0
    2.3323   -0.7888    0.0000 H   0  0  0  0  0  0  0  0  0  0  0  0
    3.0677   -0.3112    0.0000 H   0  0  0  0  0  0  0  0  0  0  0  0
    3.4360    4.4039    0.0000 H   0  0  0  0  0  0  0  0  0  0  0  0
   14.2167   -2.3344    0.0000 H   0  0  0  0  0  0  0  0  0  0  0  0
   14.2167   -1.2605    0.0000 H   0  0  0  0  0  0  0  0  0  0  0  0
  1  4  2  0  0  0  0
  1  5  2  0  0  0  0
  1  8  1  0  0  0  0
  1 21  1  0  0  0  0
  2 36  1  0  0  0  0
  2 41  1  0  0  0  0
 14  3  1  6  0  0  0
  3 58  1  0  0  0  0
  6 24  2  0  0  0  0
  7 30  1  0  0  0  0
  7 40  1  0  0  0  0
  8 16  1  0  0  0  0
  8 17  1  0  0  0  0
 15  9  1  6  0  0  0
  9 24  1  0  0  0  0
  9 51  1  0  0  0  0
 10 26  1  0  0  0  0
 10 36  1  0  0  0  0
 10 38  1  0  0  0  0
 11 31  1  0  0  0  0
 11 36  2  0  0  0  0
 12 33  1  0  0  0  0
 12 40  2  0  0  0  0
 13 40  1  0  0  0  0
 13 72  1  0  0  0  0
 13 73  1  0  0  0  0
 14 15  1  0  0  0  0
 14 16  1  0  0  0  0
 14 42  1  0  0  0  0
 15 19  1  0  0  0  0
 15 43  1  0  0  0  0
 16 44  1  0  0  0  0
 16 45  1  0  0  0  0
 17 18  1  0  0  0  0
 17 46  1  0  0  0  0
 17 47  1  0  0  0  0
 18 22  1  0  0  0  0
 18 23  1  0  0  0  0
 18 48  1  0  0  0  0
 19 20  1  0  0  0  0
 19 49  1  0  0  0  0
 19 50  1  0  0  0  0
 20 28  2  0  0  0  0
 20 29  1  0  0  0  0
 21 25  2  0  0  0  0
 21 27  1  0  0  0  0
 22 52  1  0  0  0  0
 22 53  1  0  0  0  0
 22 54  1  0  0  0  0
 23 55  1  0  0  0  0
 23 56  1  0  0  0  0
 23 57  1  0  0  0  0
 24 26  1  0  0  0  0
 25 30  1  0  0  0  0
 25 59  1  0  0  0  0
 26 31  2  0  0  0  0
 27 32  2  0  0  0  0
 27 60  1  0  0  0  0
 28 34  1  0  0  0  0
 28 61  1  0  0  0  0
 29 35  2  0  0  0  0
 29 62  1  0  0  0  0
 30 33  2  0  0  0  0
 31 39  1  0  0  0  0
 32 33  1  0  0  0  0
 32 63  1  0  0  0  0
 34 37  2  0  0  0  0
 34 64  1  0  0  0  0
 35 37  1  0  0  0  0
 35 65  1  0  0  0  0
 37 66  1  0  0  0  0
 38 41  2  0  0  0  0
 38 67  1  0  0  0  0
 39 68  1  0  0  0  0
 39 69  1  0  0  0  0
 39 70  1  0  0  0  0
 41 71  1  0  0  0  0
M  END
> <PUBCHEM_COMPOUND_CID>
514412
> <PUBCHEM_COMPOUND_CANONICALIZED>
1
> <PUBCHEM_CACTVS_COMPLEXITY>
993
> <PUBCHEM_CACTVS_HBOND_ACCEPTOR>
10
> <PUBCHEM_CACTVS_HBOND_DONOR>
3
> <PUBCHEM_CACTVS_ROTATABLE_BOND>
11
> <PUBCHEM_CACTVS_SUBSKEYS>
AAADcfB7uABgAAAAAAAAAAAAAAAAAWLFgAAwYAAAAAAWAFgB/gAAHgQQSAAADTzl3ga/17fMHkqsA7V3dHTC+L1/erhJ2L2/fNmOfvrE/budcahs1hPY6eeYyKAOAAQABAAAEAAACAAIAAAgAAAAAAAAAA==
> <PUBCHEM_IUPAC_OPENEYE_NAME>
N-[(1S,2R)-3-[(2-amino-1,3-benzoxazol-6-yl)sulfonyl-isobutyl-amino]-1-benzyl-2-hydroxy-propyl]-6-methyl-imidazo[2,1-b]thiazole-5-carboxamide
> <PUBCHEM_IUPAC_CAS_NAME>
N-[(2S,3R)-4-[(2-amino-1,3-benzoxazol-6-yl)sulfonyl-(2-methylpropyl)amino]-3-hydroxy-1-phenylbutan-2-yl]-6-methyl-5-imidazo[2,1-b]thiazolecarboxamide
> <PUBCHEM_IUPAC_NAME_MARKUP>
<I>N</I>-[(2<I>S</I>,3<I>R</I>)-4-[(2-amino-1,3-benzoxazol-6-yl)sulfonyl-(2-methylpropyl)amino]-3-hydroxy-1-phenylbutan-2-yl]-6-methylimidazo[2,1-b][1,3]thiazole-5-carboxamide
> <PUBCHEM_IUPAC_NAME>
N-[(2S,3R)-4-[(2-amino-1,3-benzoxazol-6-yl)sulfonyl-(2-methylpropyl)amino]-3-hydroxy-1-phenylbutan-2-yl]-6-methylimidazo[2,1-b][1,3]thiazole-5-carboxamide
> <PUBCHEM_IUPAC_SYSTEMATIC_NAME>
N-[(2S,3R)-4-[(2-azanyl-1,3-benzoxazol-6-yl)sulfonyl-(2-methylpropyl)amino]-3-oxidanyl-1-phenyl-butan-2-yl]-6-methyl-imidazo[2,1-b][1,3]thiazole-5-carboxamide
> <PUBCHEM_IUPAC_TRADITIONAL_NAME>
N-[(1S,2R)-3-[(2-amino-1,3-benzoxazol-6-yl)sulfonyl-isobutyl-amino]-1-benzyl-2-hydroxy-propyl]-6-methyl-imidazo[2,1-b]thiazole-5-carboxamide
> <PUBCHEM_IUPAC_INCHI>
InChI=1S/C28H32N6O5S2/c1-17(2)15-33(41(37,38)20-9-10-21-24(14-20)39-27(29)32-21)16-23(35)22(13-19-7-5-4-6-8-19)31-26(36)25-18(3)30-28-34(25)11-12-40-28/h4-12,14,17,22-23,35H,13,15-16H2,1-3H3,(H2,29,32)(H,31,36)/t22-,23+/m0/s1
> <PUBCHEM_IUPAC_INCHIKEY>
QAMFRKJKKXZPEX-XZOQPEGZSA-N
> <PUBCHEM_XLOGP3_AA>
4.9
> <PUBCHEM_EXACT_MASS>
596.18756049
> <PUBCHEM_MOLECULAR_FORMULA>
C28H32N6O5S2
> <PUBCHEM_MOLECULAR_WEIGHT>
596.7
> <PUBCHEM_OPENEYE_CAN_SMILES>
CC1=C(N2C=CSC2=N1)C(=O)NC(CC3=CC=CC=C3)C(CN(CC(C)C)S(=O)(=O)C4=CC5=C(C=C4)N=C(O5)N)O
> <PUBCHEM_OPENEYE_ISO_SMILES>
CC1=C(N2C=CSC2=N1)C(=O)N[C@@H](CC3=CC=CC=C3)[C@@H](CN(CC(C)C)S(=O)(=O)C4=CC5=C(C=C4)N=C(O5)N)O
> <PUBCHEM_CACTVS_TPSA>
193
> <PUBCHEM_MONOISOTOPIC_WEIGHT>
596.18756049
> <PUBCHEM_TOTAL_CHARGE>
0
> <PUBCHEM_HEAVY_ATOM_COUNT>
41
> <PUBCHEM_ATOM_DEF_STEREO_COUNT>
2
> <PUBCHEM_ATOM_UDEF_STEREO_COUNT>
0
> <PUBCHEM_BOND_DEF_STEREO_COUNT>
0
> <PUBCHEM_BOND_UDEF_STEREO_COUNT>
0
> <PUBCHEM_ISOTOPIC_ATOM_COUNT>
0
> <PUBCHEM_COMPONENT_COUNT>
1
> <PUBCHEM_CACTVS_TAUTO_COUNT>
-1
> <PUBCHEM_COORDINATE_TYPE>
1
5
255
> <PUBCHEM_BONDANNOTATIONS>
10  26  8
10  36  8
10  38  8
11  31  8
11  36  8
12  33  8
12  40  8
2  36  8
2  41  8
20  28  8
20  29  8
21  25  8
21  27  8
25  30  8
26  31  8
27  32  8
28  34  8
29  35  8
14  3  6
30  33  8
32  33  8
34  37  8
35  37  8
38  41  8
7  30  8
7  40  8
15  9  6
$$$$
