514471
  -OEChem-10302200282D
 78 82  0     1  0  0  0  0  0999 V2000
    2.8493    2.8030    0.0000 S   0  0  0  0  0  0  0  0  0  0  0  0
    3.9116    0.1886    0.0000 O   0  0  0  0  0  0  0  0  0  0  0  0
    5.2980    4.6394    0.0000 O   0  0  0  0  0  0  0  0  0  0  0  0
    6.0216    1.7848    0.0000 O   0  0  0  0  0  0  0  0  0  0  0  0
    3.7037   -0.7895    0.0000 O   0  0  0  0  0  0  0  0  0  0  0  0
   10.5743    3.4442    0.0000 O   0  0  0  0  0  0  0  0  0  0  0  0
   10.5743    1.8347    0.0000 O   0  0  0  0  0  0  0  0  0  0  0  0
    2.1289   -4.0330    0.0000 O   0  0  0  0  0  0  0  0  0  0  0  0
    4.3274    2.1449    0.0000 N   0  0  0  0  0  0  0  0  0  0  0  0
    6.1640    3.1394    0.0000 N   0  0  0  0  0  0  0  0  0  0  0  0
    5.3979   -1.1496    0.0000 N   0  0  0  0  0  0  0  0  0  0  0  0
    3.5184    3.5462    0.0000 C   0  0  0  0  0  0  0  0  0  0  0  0
    4.4320    3.1394    0.0000 C   0  0  1  0  0  0  0  0  0  0  0  0
    3.3493    1.9370    0.0000 C   0  0  0  0  0  0  0  0  0  0  0  0
    2.7753    4.2153    0.0000 C   0  0  0  0  0  0  0  0  0  0  0  0
    3.9252    4.4597    0.0000 C   0  0  0  0  0  0  0  0  0  0  0  0
    5.2980    3.6394    0.0000 C   0  0  0  0  0  0  0  0  0  0  0  0
    5.0706    1.4758    0.0000 C   0  0  0  0  0  0  0  0  0  0  0  0
    4.8627    0.4976    0.0000 C   0  0  2  0  0  0  0  0  0  0  0  0
    5.6058   -0.1715    0.0000 C   0  0  2  0  0  0  0  0  0  0  0  0
    6.5569    0.1375    0.0000 C   0  0  0  0  0  0  0  0  0  0  0  0
    7.0300    3.6394    0.0000 C   0  0  0  0  0  0  0  0  0  0  0  0
    7.3000   -0.5316    0.0000 C   0  0  0  0  0  0  0  0  0  0  0  0
    7.8961    3.1394    0.0000 C   0  0  0  0  0  0  0  0  0  0  0  0
    4.4468   -1.4587    0.0000 C   0  0  0  0  0  0  0  0  0  0  0  0
    8.2511   -0.2226    0.0000 C   0  0  0  0  0  0  0  0  0  0  0  0
    7.0921   -1.5098    0.0000 C   0  0  0  0  0  0  0  0  0  0  0  0
    4.2389   -2.4368    0.0000 C   0  0  0  0  0  0  0  0  0  0  0  0
    8.7621    3.6394    0.0000 C   0  0  0  0  0  0  0  0  0  0  0  0
    7.8961    2.1394    0.0000 C   0  0  0  0  0  0  0  0  0  0  0  0
    8.9942   -0.8917    0.0000 C   0  0  0  0  0  0  0  0  0  0  0  0
    7.8352   -2.1789    0.0000 C   0  0  0  0  0  0  0  0  0  0  0  0
    9.6281    3.1394    0.0000 C   0  0  0  0  0  0  0  0  0  0  0  0
    3.2879   -2.7458    0.0000 C   0  0  0  0  0  0  0  0  0  0  0  0
    8.7621    1.6394    0.0000 C   0  0  0  0  0  0  0  0  0  0  0  0
    9.6281    2.1394    0.0000 C   0  0  0  0  0  0  0  0  0  0  0  0
    8.7863   -1.8699    0.0000 C   0  0  0  0  0  0  0  0  0  0  0  0
    4.9821   -3.1059    0.0000 C   0  0  0  0  0  0  0  0  0  0  0  0
    3.0800   -3.7240    0.0000 C   0  0  0  0  0  0  0  0  0  0  0  0
    2.5447   -2.0767    0.0000 C   0  0  0  0  0  0  0  0  0  0  0  0
    4.7742   -4.0841    0.0000 C   0  0  0  0  0  0  0  0  0  0  0  0
   11.1579    2.6394    0.0000 C   0  0  0  0  0  0  0  0  0  0  0  0
    3.8231   -4.3931    0.0000 C   0  0  0  0  0  0  0  0  0  0  0  0
    4.9519    2.8018    0.0000 H   0  0  0  0  0  0  0  0  0  0  0  0
    2.7829    1.6848    0.0000 H   0  0  0  0  0  0  0  0  0  0  0  0
    3.5409    1.3474    0.0000 H   0  0  0  0  0  0  0  0  0  0  0  0
    3.1901    4.6760    0.0000 H   0  0  0  0  0  0  0  0  0  0  0  0
    2.3145    4.6302    0.0000 H   0  0  0  0  0  0  0  0  0  0  0  0
    2.3604    3.7546    0.0000 H   0  0  0  0  0  0  0  0  0  0  0  0
    4.4916    4.2075    0.0000 H   0  0  0  0  0  0  0  0  0  0  0  0
    4.1773    5.0261    0.0000 H   0  0  0  0  0  0  0  0  0  0  0  0
    3.3588    4.7119    0.0000 H   0  0  0  0  0  0  0  0  0  0  0  0
    4.4019    0.9125    0.0000 H   0  0  0  0  0  0  0  0  0  0  0  0
    5.0162   -0.3631    0.0000 H   0  0  0  0  0  0  0  0  0  0  0  0
    6.1640    2.5194    0.0000 H   0  0  0  0  0  0  0  0  0  0  0  0
    7.0454    0.5192    0.0000 H   0  0  0  0  0  0  0  0  0  0  0  0
    6.2658    0.6850    0.0000 H   0  0  0  0  0  0  0  0  0  0  0  0
    5.8586   -1.5645    0.0000 H   0  0  0  0  0  0  0  0  0  0  0  0
    7.4286    4.1144    0.0000 H   0  0  0  0  0  0  0  0  0  0  0  0
    6.6315    4.1144    0.0000 H   0  0  0  0  0  0  0  0  0  0  0  0
    3.4509    0.6035    0.0000 H   0  0  0  0  0  0  0  0  0  0  0  0
    8.3800    0.3839    0.0000 H   0  0  0  0  0  0  0  0  0  0  0  0
    6.5024   -1.7013    0.0000 H   0  0  0  0  0  0  0  0  0  0  0  0
    8.7621    4.2594    0.0000 H   0  0  0  0  0  0  0  0  0  0  0  0
    7.3591    1.8294    0.0000 H   0  0  0  0  0  0  0  0  0  0  0  0
    9.5839   -0.7001    0.0000 H   0  0  0  0  0  0  0  0  0  0  0  0
    7.7063   -2.7853    0.0000 H   0  0  0  0  0  0  0  0  0  0  0  0
    8.7621    1.0194    0.0000 H   0  0  0  0  0  0  0  0  0  0  0  0
    9.2470   -2.2847    0.0000 H   0  0  0  0  0  0  0  0  0  0  0  0
    5.5717   -2.9144    0.0000 H   0  0  0  0  0  0  0  0  0  0  0  0
    2.9596   -1.6159    0.0000 H   0  0  0  0  0  0  0  0  0  0  0  0
    2.0840   -1.6618    0.0000 H   0  0  0  0  0  0  0  0  0  0  0  0
    2.1299   -2.5374    0.0000 H   0  0  0  0  0  0  0  0  0  0  0  0
    5.2349   -4.4989    0.0000 H   0  0  0  0  0  0  0  0  0  0  0  0
   11.6188    2.2247    0.0000 H   0  0  0  0  0  0  0  0  0  0  0  0
   11.6188    3.0542    0.0000 H   0  0  0  0  0  0  0  0  0  0  0  0
    3.6942   -4.9996    0.0000 H   0  0  0  0  0  0  0  0  0  0  0  0
    2.0000   -4.6394    0.0000 H   0  0  0  0  0  0  0  0  0  0  0  0
  1 12  1  0  0  0  0
  1 14  1  0  0  0  0
 19  2  1  6  0  0  0
  2 61  1  0  0  0  0
  3 17  2  0  0  0  0
  4 18  2  0  0  0  0
  5 25  2  0  0  0  0
  6 33  1  0  0  0  0
  6 42  1  0  0  0  0
  7 36  1  0  0  0  0
  7 42  1  0  0  0  0
  8 39  1  0  0  0  0
  8 78  1  0  0  0  0
  9 13  1  0  0  0  0
  9 14  1  0  0  0  0
  9 18  1  0  0  0  0
 10 17  1  0  0  0  0
 10 22  1  0  0  0  0
 10 55  1  0  0  0  0
 20 11  1  6  0  0  0
 11 25  1  0  0  0  0
 11 58  1  0  0  0  0
 12 13  1  0  0  0  0
 12 15  1  0  0  0  0
 12 16  1  0  0  0  0
 13 17  1  1  0  0  0
 13 44  1  0  0  0  0
 14 45  1  0  0  0  0
 14 46  1  0  0  0  0
 15 47  1  0  0  0  0
 15 48  1  0  0  0  0
 15 49  1  0  0  0  0
 16 50  1  0  0  0  0
 16 51  1  0  0  0  0
 16 52  1  0  0  0  0
 18 19  1  0  0  0  0
 19 20  1  0  0  0  0
 19 53  1  0  0  0  0
 20 21  1  0  0  0  0
 20 54  1  0  0  0  0
 21 23  1  0  0  0  0
 21 56  1  0  0  0  0
 21 57  1  0  0  0  0
 22 24  1  0  0  0  0
 22 59  1  0  0  0  0
 22 60  1  0  0  0  0
 23 26  2  0  0  0  0
 23 27  1  0  0  0  0
 24 29  2  0  0  0  0
 24 30  1  0  0  0  0
 25 28  1  0  0  0  0
 26 31  1  0  0  0  0
 26 62  1  0  0  0  0
 27 32  2  0  0  0  0
 27 63  1  0  0  0  0
 28 34  2  0  0  0  0
 28 38  1  0  0  0  0
 29 33  1  0  0  0  0
 29 64  1  0  0  0  0
 30 35  2  0  0  0  0
 30 65  1  0  0  0  0
 31 37  2  0  0  0  0
 31 66  1  0  0  0  0
 32 37  1  0  0  0  0
 32 67  1  0  0  0  0
 33 36  2  0  0  0  0
 34 39  1  0  0  0  0
 34 40  1  0  0  0  0
 35 36  1  0  0  0  0
 35 68  1  0  0  0  0
 37 69  1  0  0  0  0
 38 41  2  0  0  0  0
 38 70  1  0  0  0  0
 39 43  2  0  0  0  0
 40 71  1  0  0  0  0
 40 72  1  0  0  0  0
 40 73  1  0  0  0  0
 41 43  1  0  0  0  0
 41 74  1  0  0  0  0
 42 75  1  0  0  0  0
 42 76  1  0  0  0  0
 43 77  1  0  0  0  0
M  END
> <PUBCHEM_COMPOUND_CID>
514471
> <PUBCHEM_COMPOUND_CANONICALIZED>
1
> <PUBCHEM_CACTVS_COMPLEXITY>
992
> <PUBCHEM_CACTVS_HBOND_ACCEPTOR>
8
> <PUBCHEM_CACTVS_HBOND_DONOR>
4
> <PUBCHEM_CACTVS_ROTATABLE_BOND>
9
> <PUBCHEM_CACTVS_SUBSKEYS>
AAADcfB/OABAAAAAAAAAAAAAAAAAAWJAAAAwYMAAAAAAAEgBUAAAHgQQCAAADDzh2AeyDoPABgiIAiFSEAKCCABkIBAIiIHOjMgfdjqm9Tu0cSpk1hGeuYe62LKOoAABAAAYQABAAAIAADCAAAAAAAAAAA==
> <PUBCHEM_IUPAC_OPENEYE_NAME>
(4R)-N-(1,3-benzodioxol-5-ylmethyl)-3-[(2S,3S)-2-hydroxy-3-[(3-hydroxy-2-methyl-benzoyl)amino]-4-phenyl-butanoyl]-5,5-dimethyl-thiazolidine-4-carboxamide
> <PUBCHEM_IUPAC_CAS_NAME>
(4R)-N-(1,3-benzodioxol-5-ylmethyl)-3-[(2S,3S)-2-hydroxy-3-[[(3-hydroxy-2-methylphenyl)-oxomethyl]amino]-1-oxo-4-phenylbutyl]-5,5-dimethyl-4-thiazolidinecarboxamide
> <PUBCHEM_IUPAC_NAME_MARKUP>
(4<I>R</I>)-<I>N</I>-(1,3-benzodioxol-5-ylmethyl)-3-[(2<I>S</I>,3<I>S</I>)-2-hydroxy-3-[(3-hydroxy-2-methylbenzoyl)amino]-4-phenylbutanoyl]-5,5-dimethyl-1,3-thiazolidine-4-carboxamide
> <PUBCHEM_IUPAC_NAME>
(4R)-N-(1,3-benzodioxol-5-ylmethyl)-3-[(2S,3S)-2-hydroxy-3-[(3-hydroxy-2-methylbenzoyl)amino]-4-phenylbutanoyl]-5,5-dimethyl-1,3-thiazolidine-4-carboxamide
> <PUBCHEM_IUPAC_SYSTEMATIC_NAME>
(4R)-N-(1,3-benzodioxol-5-ylmethyl)-5,5-dimethyl-3-[(2S,3S)-3-[(2-methyl-3-oxidanyl-phenyl)carbonylamino]-2-oxidanyl-4-phenyl-butanoyl]-1,3-thiazolidine-4-carboxamide
> <PUBCHEM_IUPAC_TRADITIONAL_NAME>
(4R)-3-[(2S,3S)-2-hydroxy-3-[(3-hydroxy-2-methyl-benzoyl)amino]-4-phenyl-butanoyl]-5,5-dimethyl-N-piperonyl-thiazolidine-4-carboxamide
> <PUBCHEM_IUPAC_INCHI>
InChI=1S/C32H35N3O7S/c1-19-22(10-7-11-24(19)36)29(38)34-23(14-20-8-5-4-6-9-20)27(37)31(40)35-17-43-32(2,3)28(35)30(39)33-16-21-12-13-25-26(15-21)42-18-41-25/h4-13,15,23,27-28,36-37H,14,16-18H2,1-3H3,(H,33,39)(H,34,38)/t23-,27-,28+/m0/s1
> <PUBCHEM_IUPAC_INCHIKEY>
KRKNFBZVXLXQHO-MXSCXNJPSA-N
> <PUBCHEM_XLOGP3_AA>
3.9
> <PUBCHEM_EXACT_MASS>
605.21957164
> <PUBCHEM_MOLECULAR_FORMULA>
C32H35N3O7S
> <PUBCHEM_MOLECULAR_WEIGHT>
605.7
> <PUBCHEM_OPENEYE_CAN_SMILES>
CC1=C(C=CC=C1O)C(=O)NC(CC2=CC=CC=C2)C(C(=O)N3CSC(C3C(=O)NCC4=CC5=C(C=C4)OCO5)(C)C)O
> <PUBCHEM_OPENEYE_ISO_SMILES>
CC1=C(C=CC=C1O)C(=O)N[C@@H](CC2=CC=CC=C2)[C@@H](C(=O)N3CSC([C@H]3C(=O)NCC4=CC5=C(C=C4)OCO5)(C)C)O
> <PUBCHEM_CACTVS_TPSA>
163
> <PUBCHEM_MONOISOTOPIC_WEIGHT>
605.21957164
> <PUBCHEM_TOTAL_CHARGE>
0
> <PUBCHEM_HEAVY_ATOM_COUNT>
43
> <PUBCHEM_ATOM_DEF_STEREO_COUNT>
3
> <PUBCHEM_ATOM_UDEF_STEREO_COUNT>
0
> <PUBCHEM_BOND_DEF_STEREO_COUNT>
0
> <PUBCHEM_BOND_UDEF_STEREO_COUNT>
0
> <PUBCHEM_ISOTOPIC_ATOM_COUNT>
0
> <PUBCHEM_COMPONENT_COUNT>
1
> <PUBCHEM_CACTVS_TAUTO_COUNT>
-1
> <PUBCHEM_COORDINATE_TYPE>
1
5
255
> <PUBCHEM_BONDANNOTATIONS>
20  11  6
13  17  5
19  2  6
23  26  8
23  27  8
24  29  8
24  30  8
26  31  8
27  32  8
28  34  8
28  38  8
29  33  8
30  35  8
31  37  8
32  37  8
33  36  8
34  39  8
35  36  8
38  41  8
39  43  8
41  43  8
$$$$
