514404
  -OEChem-10302200282D
 79 83  0     1  0  0  0  0  0999 V2000
    9.6472   -1.1392    0.0000 S   0  0  0  0  0  0  0  0  0  0  0  0
    4.9511    3.3906    0.0000 O   0  0  0  0  0  0  0  0  0  0  0  0
    3.2892    4.1392    0.0000 O   0  0  0  0  0  0  0  0  0  0  0  0
    4.4511    0.8608    0.0000 O   0  0  0  0  0  0  0  0  0  0  0  0
    7.0492    0.3608    0.0000 O   0  0  0  0  0  0  0  0  0  0  0  0
    6.1831    0.8608    0.0000 O   0  0  0  0  0  0  0  0  0  0  0  0
    9.1472   -2.0052    0.0000 O   0  0  0  0  0  0  0  0  0  0  0  0
   10.1472   -0.2732    0.0000 O   0  0  0  0  0  0  0  0  0  0  0  0
   13.1915   -1.3345    0.0000 O   0  0  0  0  0  0  0  0  0  0  0  0
    2.6678    2.2382    0.0000 N   0  0  0  0  0  0  0  0  0  0  0  0
    8.7812   -0.6392    0.0000 N   0  0  3  0  0  0  0  0  0  0  0  0
    5.3171   -0.6392    0.0000 N   0  0  0  0  0  0  0  0  0  0  0  0
   13.1915   -2.9440    0.0000 N   0  0  0  0  0  0  0  0  0  0  0  0
   14.7751   -2.1392    0.0000 N   0  0  0  0  0  0  0  0  0  0  0  0
    3.6464    2.4444    0.0000 C   0  0  3  0  0  0  0  0  0  0  0  0
    4.4511    1.8608    0.0000 C   0  0  3  0  0  0  0  0  0  0  0  0
    3.9570    3.3949    0.0000 C   0  0  3  0  0  0  0  0  0  0  0  0
    5.2558    2.4444    0.0000 C   0  0  0  0  0  0  0  0  0  0  0  0
    2.0000    2.9825    0.0000 C   0  0  0  0  0  0  0  0  0  0  0  0
    2.3107    3.9330    0.0000 C   0  0  0  0  0  0  0  0  0  0  0  0
    6.1831   -1.1392    0.0000 C   0  0  2  0  0  0  0  0  0  0  0  0
    7.0492   -0.6392    0.0000 C   0  0  1  0  0  0  0  0  0  0  0  0
    7.9152   -1.1392    0.0000 C   0  0  0  0  0  0  0  0  0  0  0  0
    6.1831   -2.1392    0.0000 C   0  0  0  0  0  0  0  0  0  0  0  0
    8.7812    0.3608    0.0000 C   0  0  0  0  0  0  0  0  0  0  0  0
    5.3171    0.3608    0.0000 C   0  0  0  0  0  0  0  0  0  0  0  0
    9.6472    0.8608    0.0000 C   0  0  0  0  0  0  0  0  0  0  0  0
    5.3171   -2.6392    0.0000 C   0  0  0  0  0  0  0  0  0  0  0  0
   10.5133   -1.6392    0.0000 C   0  0  0  0  0  0  0  0  0  0  0  0
    9.6472    1.8608    0.0000 C   0  0  0  0  0  0  0  0  0  0  0  0
   10.5133    0.3608    0.0000 C   0  0  0  0  0  0  0  0  0  0  0  0
    4.4511   -2.1392    0.0000 C   0  0  0  0  0  0  0  0  0  0  0  0
    5.3171   -3.6392    0.0000 C   0  0  0  0  0  0  0  0  0  0  0  0
   11.3793   -1.1392    0.0000 C   0  0  0  0  0  0  0  0  0  0  0  0
   10.5133   -2.6392    0.0000 C   0  0  0  0  0  0  0  0  0  0  0  0
   12.2453   -1.6392    0.0000 C   0  0  0  0  0  0  0  0  0  0  0  0
   11.3793   -3.1392    0.0000 C   0  0  0  0  0  0  0  0  0  0  0  0
    3.5851   -2.6392    0.0000 C   0  0  0  0  0  0  0  0  0  0  0  0
    4.4511   -4.1392    0.0000 C   0  0  0  0  0  0  0  0  0  0  0  0
   12.2453   -2.6392    0.0000 C   0  0  0  0  0  0  0  0  0  0  0  0
    3.5851   -3.6392    0.0000 C   0  0  0  0  0  0  0  0  0  0  0  0
   13.7751   -2.1392    0.0000 C   0  0  0  0  0  0  0  0  0  0  0  0
    3.5172    1.8380    0.0000 H   0  0  0  0  0  0  0  0  0  0  0  0
    5.0034    1.5791    0.0000 H   0  0  0  0  0  0  0  0  0  0  0  0
    4.2109    3.9606    0.0000 H   0  0  0  0  0  0  0  0  0  0  0  0
    5.5650    1.9070    0.0000 H   0  0  0  0  0  0  0  0  0  0  0  0
    5.8227    2.6954    0.0000 H   0  0  0  0  0  0  0  0  0  0  0  0
    2.4752    1.6488    0.0000 H   0  0  0  0  0  0  0  0  0  0  0  0
    1.4531    3.2745    0.0000 H   0  0  0  0  0  0  0  0  0  0  0  0
    1.6174    2.4946    0.0000 H   0  0  0  0  0  0  0  0  0  0  0  0
    2.2901    4.5527    0.0000 H   0  0  0  0  0  0  0  0  0  0  0  0
    1.6968    4.0204    0.0000 H   0  0  0  0  0  0  0  0  0  0  0  0
    5.6462   -1.4492    0.0000 H   0  0  0  0  0  0  0  0  0  0  0  0
    7.5861   -0.3292    0.0000 H   0  0  0  0  0  0  0  0  0  0  0  0
    7.5167   -1.6142    0.0000 H   0  0  0  0  0  0  0  0  0  0  0  0
    8.3137   -1.6142    0.0000 H   0  0  0  0  0  0  0  0  0  0  0  0
    6.3952   -2.7218    0.0000 H   0  0  0  0  0  0  0  0  0  0  0  0
    6.7937   -2.0316    0.0000 H   0  0  0  0  0  0  0  0  0  0  0  0
    8.5692    0.9434    0.0000 H   0  0  0  0  0  0  0  0  0  0  0  0
    8.1706    0.2531    0.0000 H   0  0  0  0  0  0  0  0  0  0  0  0
    4.7802   -0.9492    0.0000 H   0  0  0  0  0  0  0  0  0  0  0  0
    9.1103    1.1708    0.0000 H   0  0  0  0  0  0  0  0  0  0  0  0
    7.5861    0.6708    0.0000 H   0  0  0  0  0  0  0  0  0  0  0  0
   10.2672    1.8608    0.0000 H   0  0  0  0  0  0  0  0  0  0  0  0
    9.6472    2.4808    0.0000 H   0  0  0  0  0  0  0  0  0  0  0  0
    9.0272    1.8608    0.0000 H   0  0  0  0  0  0  0  0  0  0  0  0
   10.2033   -0.1762    0.0000 H   0  0  0  0  0  0  0  0  0  0  0  0
   11.0502    0.0508    0.0000 H   0  0  0  0  0  0  0  0  0  0  0  0
   10.8233    0.8977    0.0000 H   0  0  0  0  0  0  0  0  0  0  0  0
    4.4511   -1.5192    0.0000 H   0  0  0  0  0  0  0  0  0  0  0  0
    5.8540   -3.9492    0.0000 H   0  0  0  0  0  0  0  0  0  0  0  0
   11.3793   -0.5192    0.0000 H   0  0  0  0  0  0  0  0  0  0  0  0
    9.9763   -2.9492    0.0000 H   0  0  0  0  0  0  0  0  0  0  0  0
   11.3793   -3.7592    0.0000 H   0  0  0  0  0  0  0  0  0  0  0  0
    3.0481   -2.3292    0.0000 H   0  0  0  0  0  0  0  0  0  0  0  0
    4.4511   -4.7592    0.0000 H   0  0  0  0  0  0  0  0  0  0  0  0
    3.0481   -3.9492    0.0000 H   0  0  0  0  0  0  0  0  0  0  0  0
   15.0851   -2.6761    0.0000 H   0  0  0  0  0  0  0  0  0  0  0  0
   15.0851   -1.6023    0.0000 H   0  0  0  0  0  0  0  0  0  0  0  0
  1  7  2  0  0  0  0
  1  8  2  0  0  0  0
  1 11  1  0  0  0  0
  1 29  1  0  0  0  0
  2 17  1  0  0  0  0
  2 18  1  0  0  0  0
  3 17  1  0  0  0  0
  3 20  1  0  0  0  0
  4 16  1  0  0  0  0
  4 26  1  0  0  0  0
 22  5  1  6  0  0  0
  5 63  1  0  0  0  0
  6 26  2  0  0  0  0
  9 36  1  0  0  0  0
  9 42  1  0  0  0  0
 10 15  1  0  0  0  0
 10 19  1  0  0  0  0
 10 48  1  0  0  0  0
 11 23  1  0  0  0  0
 11 25  1  0  0  0  0
 21 12  1  6  0  0  0
 12 26  1  0  0  0  0
 12 61  1  0  0  0  0
 13 40  1  0  0  0  0
 13 42  2  0  0  0  0
 14 42  1  0  0  0  0
 14 78  1  0  0  0  0
 14 79  1  0  0  0  0
 15 16  1  0  0  0  0
 15 17  1  0  0  0  0
 15 43  1  0  0  0  0
 16 18  1  0  0  0  0
 16 44  1  0  0  0  0
 17 45  1  0  0  0  0
 18 46  1  0  0  0  0
 18 47  1  0  0  0  0
 19 20  1  0  0  0  0
 19 49  1  0  0  0  0
 19 50  1  0  0  0  0
 20 51  1  0  0  0  0
 20 52  1  0  0  0  0
 21 22  1  0  0  0  0
 21 24  1  0  0  0  0
 21 53  1  0  0  0  0
 22 23  1  0  0  0  0
 22 54  1  0  0  0  0
 23 55  1  0  0  0  0
 23 56  1  0  0  0  0
 24 28  1  0  0  0  0
 24 57  1  0  0  0  0
 24 58  1  0  0  0  0
 25 27  1  0  0  0  0
 25 59  1  0  0  0  0
 25 60  1  0  0  0  0
 27 30  1  0  0  0  0
 27 31  1  0  0  0  0
 27 62  1  0  0  0  0
 28 32  2  0  0  0  0
 28 33  1  0  0  0  0
 29 34  2  0  0  0  0
 29 35  1  0  0  0  0
 30 64  1  0  0  0  0
 30 65  1  0  0  0  0
 30 66  1  0  0  0  0
 31 67  1  0  0  0  0
 31 68  1  0  0  0  0
 31 69  1  0  0  0  0
 32 38  1  0  0  0  0
 32 70  1  0  0  0  0
 33 39  2  0  0  0  0
 33 71  1  0  0  0  0
 34 36  1  0  0  0  0
 34 72  1  0  0  0  0
 35 37  2  0  0  0  0
 35 73  1  0  0  0  0
 36 40  2  0  0  0  0
 37 40  1  0  0  0  0
 37 74  1  0  0  0  0
 38 41  2  0  0  0  0
 38 75  1  0  0  0  0
 39 41  1  0  0  0  0
 39 76  1  0  0  0  0
 41 77  1  0  0  0  0
M  END
> <PUBCHEM_COMPOUND_CID>
514404
> <PUBCHEM_COMPOUND_CANONICALIZED>
1
> <PUBCHEM_CACTVS_COMPLEXITY>
993
> <PUBCHEM_CACTVS_HBOND_ACCEPTOR>
12
> <PUBCHEM_CACTVS_HBOND_DONOR>
4
> <PUBCHEM_CACTVS_ROTATABLE_BOND>
12
> <PUBCHEM_CACTVS_SUBSKEYS>
AAADcfB7vABAAAAAAAAAAAAAAAAAAWJAAAA8YIAAAAAAAFgB9AAAHgQQSAAADTzx3gcz37LIFkKoA6RyfHTCiDkvYiAImLm/bNmfNrLE9buvcShn1hPe6afYyKAOAAQABAAAEAAACAAIAAAgAAAAAAAAAA==
> <PUBCHEM_IUPAC_OPENEYE_NAME>
2,3,4a,6,7,7a-hexahydro-1H-furo[2,3-b][1,4]oxazin-7-yl N-[(1S,2R)-3-[(2-amino-1,3-benzoxazol-6-yl)sulfonyl-isobutyl-amino]-1-benzyl-2-hydroxy-propyl]carbamate
> <PUBCHEM_IUPAC_CAS_NAME>
N-[(2S,3R)-4-[(2-amino-1,3-benzoxazol-6-yl)sulfonyl-(2-methylpropyl)amino]-3-hydroxy-1-phenylbutan-2-yl]carbamic acid 2,3,4a,6,7,7a-hexahydro-1H-furo[2,3-b][1,4]oxazin-7-yl ester
> <PUBCHEM_IUPAC_NAME_MARKUP>
2,3,4<I>a</I>,6,7,7<I>a</I>-hexahydro-1<I>H</I>-furo[2,3-b][1,4]oxazin-7-yl <I>N</I>-[(2<I>S</I>,3<I>R</I>)-4-[(2-amino-1,3-benzoxazol-6-yl)sulfonyl-(2-methylpropyl)amino]-3-hydroxy-1-phenylbutan-2-yl]carbamate
> <PUBCHEM_IUPAC_NAME>
2,3,4a,6,7,7a-hexahydro-1H-furo[2,3-b][1,4]oxazin-7-yl N-[(2S,3R)-4-[(2-amino-1,3-benzoxazol-6-yl)sulfonyl-(2-methylpropyl)amino]-3-hydroxy-1-phenylbutan-2-yl]carbamate
> <PUBCHEM_IUPAC_SYSTEMATIC_NAME>
2,3,4a,6,7,7a-hexahydro-1H-furo[2,3-b][1,4]oxazin-7-yl N-[(2S,3R)-4-[(2-azanyl-1,3-benzoxazol-6-yl)sulfonyl-(2-methylpropyl)amino]-3-oxidanyl-1-phenyl-butan-2-yl]carbamate
> <PUBCHEM_IUPAC_TRADITIONAL_NAME>
N-[(1S,2R)-3-[(2-amino-1,3-benzoxazol-6-yl)sulfonyl-isobutyl-amino]-1-benzyl-2-hydroxy-propyl]carbamic acid 2,3,4a,6,7,7a-hexahydro-1H-furo[2,3-b][1,4]oxazin-7-yl ester
> <PUBCHEM_IUPAC_INCHI>
InChI=1S/C28H37N5O8S/c1-17(2)14-33(42(36,37)19-8-9-20-23(13-19)40-27(29)31-20)15-22(34)21(12-18-6-4-3-5-7-18)32-28(35)41-24-16-39-26-25(24)30-10-11-38-26/h3-9,13,17,21-22,24-26,30,34H,10-12,14-16H2,1-2H3,(H2,29,31)(H,32,35)/t21-,22+,24?,25?,26?/m0/s1
> <PUBCHEM_IUPAC_INCHIKEY>
PSMSOTCVRMZYCZ-FUFRTGBNSA-N
> <PUBCHEM_XLOGP3_AA>
2.1
> <PUBCHEM_EXACT_MASS>
603.23628433
> <PUBCHEM_MOLECULAR_FORMULA>
C28H37N5O8S
> <PUBCHEM_MOLECULAR_WEIGHT>
603.7
> <PUBCHEM_OPENEYE_CAN_SMILES>
CC(C)CN(CC(C(CC1=CC=CC=C1)NC(=O)OC2COC3C2NCCO3)O)S(=O)(=O)C4=CC5=C(C=C4)N=C(O5)N
> <PUBCHEM_OPENEYE_ISO_SMILES>
CC(C)CN(C[C@H]([C@H](CC1=CC=CC=C1)NC(=O)OC2COC3C2NCCO3)O)S(=O)(=O)C4=CC5=C(C=C4)N=C(O5)N
> <PUBCHEM_CACTVS_TPSA>
187
> <PUBCHEM_MONOISOTOPIC_WEIGHT>
603.23628433
> <PUBCHEM_TOTAL_CHARGE>
0
> <PUBCHEM_HEAVY_ATOM_COUNT>
42
> <PUBCHEM_ATOM_DEF_STEREO_COUNT>
2
> <PUBCHEM_ATOM_UDEF_STEREO_COUNT>
3
> <PUBCHEM_BOND_DEF_STEREO_COUNT>
0
> <PUBCHEM_BOND_UDEF_STEREO_COUNT>
0
> <PUBCHEM_ISOTOPIC_ATOM_COUNT>
0
> <PUBCHEM_COMPONENT_COUNT>
1
> <PUBCHEM_CACTVS_TAUTO_COUNT>
-1
> <PUBCHEM_COORDINATE_TYPE>
1
5
255
> <PUBCHEM_BONDANNOTATIONS>
15  10  3
21  12  6
13  40  8
13  42  8
17  2  3
28  32  8
28  33  8
29  34  8
29  35  8
32  38  8
33  39  8
34  36  8
35  37  8
36  40  8
37  40  8
38  41  8
39  41  8
16  4  3
22  5  6
9  36  8
9  42  8
$$$$
