514582
  -OEChem-10302200282D
 84 87  0     1  0  0  0  0  0999 V2000
    8.1449   -1.4670    0.0000 S   0  0  0  0  0  0  0  0  0  0  0  0
    7.0826    1.1474    0.0000 O   0  0  0  0  0  0  0  0  0  0  0  0
    4.8302   -1.8034    0.0000 O   0  0  0  0  0  0  0  0  0  0  0  0
    4.9726   -0.4488    0.0000 O   0  0  0  0  0  0  0  0  0  0  0  0
    7.2905    2.1255    0.0000 O   0  0  0  0  0  0  0  0  0  0  0  0
    4.8302   -7.8034    0.0000 O   0  0  0  0  0  0  0  0  0  0  0  0
    8.5380    7.9944    0.0000 O   0  0  0  0  0  0  0  0  0  0  0  0
    6.6668   -0.8089    0.0000 N   0  0  0  0  0  0  0  0  0  0  0  0
    5.6962   -3.3034    0.0000 N   0  0  0  0  0  0  0  0  0  0  0  0
    5.5963    2.4856    0.0000 N   0  0  0  0  0  0  0  0  0  0  0  0
    6.7553    3.7728    0.0000 N   0  0  0  0  0  0  0  0  0  0  0  0
    7.4758   -2.2102    0.0000 C   0  0  0  0  0  0  0  0  0  0  0  0
    6.5622   -1.8034    0.0000 C   0  0  1  0  0  0  0  0  0  0  0  0
    7.6449   -0.6010    0.0000 C   0  0  0  0  0  0  0  0  0  0  0  0
    8.2189   -2.8793    0.0000 C   0  0  0  0  0  0  0  0  0  0  0  0
    7.0691   -3.1237    0.0000 C   0  0  0  0  0  0  0  0  0  0  0  0
    5.6962   -2.3034    0.0000 C   0  0  0  0  0  0  0  0  0  0  0  0
    5.9236   -0.1398    0.0000 C   0  0  0  0  0  0  0  0  0  0  0  0
    6.1316    0.8384    0.0000 C   0  0  2  0  0  0  0  0  0  0  0  0
    5.3884    1.5075    0.0000 C   0  0  2  0  0  0  0  0  0  0  0  0
    4.4374    1.1985    0.0000 C   0  0  0  0  0  0  0  0  0  0  0  0
    4.8302   -3.8034    0.0000 C   0  0  0  0  0  0  0  0  0  0  0  0
    3.6942    1.8676    0.0000 C   0  0  0  0  0  0  0  0  0  0  0  0
    4.8302   -4.8034    0.0000 C   0  0  0  0  0  0  0  0  0  0  0  0
    6.5474    2.7947    0.0000 C   0  0  0  0  0  0  0  0  0  0  0  0
    2.7431    1.5586    0.0000 C   0  0  0  0  0  0  0  0  0  0  0  0
    3.9021    2.8458    0.0000 C   0  0  0  0  0  0  0  0  0  0  0  0
    5.6962   -5.3034    0.0000 C   0  0  0  0  0  0  0  0  0  0  0  0
    3.9642   -5.3034    0.0000 C   0  0  0  0  0  0  0  0  0  0  0  0
    2.0000    2.2277    0.0000 C   0  0  0  0  0  0  0  0  0  0  0  0
    3.1590    3.5149    0.0000 C   0  0  0  0  0  0  0  0  0  0  0  0
    2.2079    3.2059    0.0000 C   0  0  0  0  0  0  0  0  0  0  0  0
    7.7063    4.0818    0.0000 C   0  0  0  0  0  0  0  0  0  0  0  0
    5.6962   -6.3034    0.0000 C   0  0  0  0  0  0  0  0  0  0  0  0
    3.9642   -6.3034    0.0000 C   0  0  0  0  0  0  0  0  0  0  0  0
    4.8302   -6.8034    0.0000 C   0  0  0  0  0  0  0  0  0  0  0  0
    7.9142    5.0600    0.0000 C   0  0  0  0  0  0  0  0  0  0  0  0
    8.8653    5.3690    0.0000 C   0  0  0  0  0  0  0  0  0  0  0  0
    7.1711    5.7291    0.0000 C   0  0  0  0  0  0  0  0  0  0  0  0
    9.0732    6.3471    0.0000 C   0  0  0  0  0  0  0  0  0  0  0  0
    7.3790    6.7072    0.0000 C   0  0  0  0  0  0  0  0  0  0  0  0
    8.3301    7.0163    0.0000 C   0  0  0  0  0  0  0  0  0  0  0  0
    3.9642   -8.3034    0.0000 C   0  0  0  0  0  0  0  0  0  0  0  0
    9.4890    8.3034    0.0000 C   0  0  0  0  0  0  0  0  0  0  0  0
    6.0423   -1.4658    0.0000 H   0  0  0  0  0  0  0  0  0  0  0  0
    8.2113   -0.3488    0.0000 H   0  0  0  0  0  0  0  0  0  0  0  0
    7.4533   -0.0113    0.0000 H   0  0  0  0  0  0  0  0  0  0  0  0
    7.8041   -3.3400    0.0000 H   0  0  0  0  0  0  0  0  0  0  0  0
    8.6797   -3.2942    0.0000 H   0  0  0  0  0  0  0  0  0  0  0  0
    8.6338   -2.4186    0.0000 H   0  0  0  0  0  0  0  0  0  0  0  0
    6.5027   -2.8715    0.0000 H   0  0  0  0  0  0  0  0  0  0  0  0
    6.8169   -3.6901    0.0000 H   0  0  0  0  0  0  0  0  0  0  0  0
    7.6355   -3.3759    0.0000 H   0  0  0  0  0  0  0  0  0  0  0  0
    6.2604    1.4448    0.0000 H   0  0  0  0  0  0  0  0  0  0  0  0
    4.9276    1.9224    0.0000 H   0  0  0  0  0  0  0  0  0  0  0  0
    6.2332   -3.6134    0.0000 H   0  0  0  0  0  0  0  0  0  0  0  0
    3.9488    0.8168    0.0000 H   0  0  0  0  0  0  0  0  0  0  0  0
    4.7284    0.6511    0.0000 H   0  0  0  0  0  0  0  0  0  0  0  0
    5.1356    2.9005    0.0000 H   0  0  0  0  0  0  0  0  0  0  0  0
    4.6182   -3.2208    0.0000 H   0  0  0  0  0  0  0  0  0  0  0  0
    4.2196   -3.9111    0.0000 H   0  0  0  0  0  0  0  0  0  0  0  0
    7.5434    0.7325    0.0000 H   0  0  0  0  0  0  0  0  0  0  0  0
    2.6142    0.9521    0.0000 H   0  0  0  0  0  0  0  0  0  0  0  0
    4.4918    3.0374    0.0000 H   0  0  0  0  0  0  0  0  0  0  0  0
    6.2945    4.1877    0.0000 H   0  0  0  0  0  0  0  0  0  0  0  0
    6.2332   -4.9934    0.0000 H   0  0  0  0  0  0  0  0  0  0  0  0
    3.4272   -4.9934    0.0000 H   0  0  0  0  0  0  0  0  0  0  0  0
    1.4103    2.0361    0.0000 H   0  0  0  0  0  0  0  0  0  0  0  0
    3.2879    4.1213    0.0000 H   0  0  0  0  0  0  0  0  0  0  0  0
    1.7472    3.6207    0.0000 H   0  0  0  0  0  0  0  0  0  0  0  0
    7.7926    3.4679    0.0000 H   0  0  0  0  0  0  0  0  0  0  0  0
    8.3260    4.0602    0.0000 H   0  0  0  0  0  0  0  0  0  0  0  0
    6.2332   -6.6134    0.0000 H   0  0  0  0  0  0  0  0  0  0  0  0
    3.4272   -6.6134    0.0000 H   0  0  0  0  0  0  0  0  0  0  0  0
    9.3261    4.9541    0.0000 H   0  0  0  0  0  0  0  0  0  0  0  0
    6.5814    5.5375    0.0000 H   0  0  0  0  0  0  0  0  0  0  0  0
    9.6629    6.5387    0.0000 H   0  0  0  0  0  0  0  0  0  0  0  0
    6.9183    7.1221    0.0000 H   0  0  0  0  0  0  0  0  0  0  0  0
    3.6542   -7.7665    0.0000 H   0  0  0  0  0  0  0  0  0  0  0  0
    3.4272   -8.6134    0.0000 H   0  0  0  0  0  0  0  0  0  0  0  0
    4.2742   -8.8404    0.0000 H   0  0  0  0  0  0  0  0  0  0  0  0
    9.6806    7.7138    0.0000 H   0  0  0  0  0  0  0  0  0  0  0  0
   10.0787    8.4950    0.0000 H   0  0  0  0  0  0  0  0  0  0  0  0
    9.2974    8.8931    0.0000 H   0  0  0  0  0  0  0  0  0  0  0  0
  1 12  1  0  0  0  0
  1 14  1  0  0  0  0
 19  2  1  6  0  0  0
  2 62  1  0  0  0  0
  3 17  2  0  0  0  0
  4 18  2  0  0  0  0
  5 25  2  0  0  0  0
  6 36  1  0  0  0  0
  6 43  1  0  0  0  0
  7 42  1  0  0  0  0
  7 44  1  0  0  0  0
  8 13  1  0  0  0  0
  8 14  1  0  0  0  0
  8 18  1  0  0  0  0
  9 17  1  0  0  0  0
  9 22  1  0  0  0  0
  9 56  1  0  0  0  0
 20 10  1  6  0  0  0
 10 25  1  0  0  0  0
 10 59  1  0  0  0  0
 11 25  1  0  0  0  0
 11 33  1  0  0  0  0
 11 65  1  0  0  0  0
 12 13  1  0  0  0  0
 12 15  1  0  0  0  0
 12 16  1  0  0  0  0
 13 17  1  1  0  0  0
 13 45  1  0  0  0  0
 14 46  1  0  0  0  0
 14 47  1  0  0  0  0
 15 48  1  0  0  0  0
 15 49  1  0  0  0  0
 15 50  1  0  0  0  0
 16 51  1  0  0  0  0
 16 52  1  0  0  0  0
 16 53  1  0  0  0  0
 18 19  1  0  0  0  0
 19 20  1  0  0  0  0
 19 54  1  0  0  0  0
 20 21  1  0  0  0  0
 20 55  1  0  0  0  0
 21 23  1  0  0  0  0
 21 57  1  0  0  0  0
 21 58  1  0  0  0  0
 22 24  1  0  0  0  0
 22 60  1  0  0  0  0
 22 61  1  0  0  0  0
 23 26  2  0  0  0  0
 23 27  1  0  0  0  0
 24 28  2  0  0  0  0
 24 29  1  0  0  0  0
 26 30  1  0  0  0  0
 26 63  1  0  0  0  0
 27 31  2  0  0  0  0
 27 64  1  0  0  0  0
 28 34  1  0  0  0  0
 28 66  1  0  0  0  0
 29 35  2  0  0  0  0
 29 67  1  0  0  0  0
 30 32  2  0  0  0  0
 30 68  1  0  0  0  0
 31 32  1  0  0  0  0
 31 69  1  0  0  0  0
 32 70  1  0  0  0  0
 33 37  1  0  0  0  0
 33 71  1  0  0  0  0
 33 72  1  0  0  0  0
 34 36  2  0  0  0  0
 34 73  1  0  0  0  0
 35 36  1  0  0  0  0
 35 74  1  0  0  0  0
 37 38  2  0  0  0  0
 37 39  1  0  0  0  0
 38 40  1  0  0  0  0
 38 75  1  0  0  0  0
 39 41  2  0  0  0  0
 39 76  1  0  0  0  0
 40 42  2  0  0  0  0
 40 77  1  0  0  0  0
 41 42  1  0  0  0  0
 41 78  1  0  0  0  0
 43 79  1  0  0  0  0
 43 80  1  0  0  0  0
 43 81  1  0  0  0  0
 44 82  1  0  0  0  0
 44 83  1  0  0  0  0
 44 84  1  0  0  0  0
M  END
> <PUBCHEM_COMPOUND_CID>
514582
> <PUBCHEM_COMPOUND_CANONICALIZED>
1
> <PUBCHEM_CACTVS_COMPLEXITY>
931
> <PUBCHEM_CACTVS_HBOND_ACCEPTOR>
7
> <PUBCHEM_CACTVS_HBOND_DONOR>
4
> <PUBCHEM_CACTVS_ROTATABLE_BOND>
12
> <PUBCHEM_CACTVS_SUBSKEYS>
AAADcfB/uABAAAAAAAAAAAAAAAAAAWAAAAAwYMAAAAAAAAABUAAAHgQQCAAADDzh2AazBoPABgiIAiFSEAKCCABgIBAIiIHODIiOdjqk8TuUcChs1hOYqAeY2KKOIAAAAAAAAABAAAAAAAAAAAAAAAAAAA==
> <PUBCHEM_IUPAC_OPENEYE_NAME>
(4R)-3-[(2S,3S)-2-hydroxy-3-[(4-methoxyphenyl)methylcarbamoylamino]-4-phenyl-butanoyl]-N-[(4-methoxyphenyl)methyl]-5,5-dimethyl-thiazolidine-4-carboxamide
> <PUBCHEM_IUPAC_CAS_NAME>
(4R)-3-[(2S,3S)-2-hydroxy-3-[[[(4-methoxyphenyl)methylamino]-oxomethyl]amino]-1-oxo-4-phenylbutyl]-N-[(4-methoxyphenyl)methyl]-5,5-dimethyl-4-thiazolidinecarboxamide
> <PUBCHEM_IUPAC_NAME_MARKUP>
(4<I>R</I>)-3-[(2<I>S</I>,3<I>S</I>)-2-hydroxy-3-[(4-methoxyphenyl)methylcarbamoylamino]-4-phenylbutanoyl]-<I>N</I>-[(4-methoxyphenyl)methyl]-5,5-dimethyl-1,3-thiazolidine-4-carboxamide
> <PUBCHEM_IUPAC_NAME>
(4R)-3-[(2S,3S)-2-hydroxy-3-[(4-methoxyphenyl)methylcarbamoylamino]-4-phenylbutanoyl]-N-[(4-methoxyphenyl)methyl]-5,5-dimethyl-1,3-thiazolidine-4-carboxamide
> <PUBCHEM_IUPAC_SYSTEMATIC_NAME>
(4R)-N-[(4-methoxyphenyl)methyl]-3-[(2S,3S)-3-[(4-methoxyphenyl)methylcarbamoylamino]-2-oxidanyl-4-phenyl-butanoyl]-5,5-dimethyl-1,3-thiazolidine-4-carboxamide
> <PUBCHEM_IUPAC_TRADITIONAL_NAME>
(4R)-3-[(2S,3S)-2-hydroxy-3-(p-anisylcarbamoylamino)-4-phenyl-butanoyl]-5,5-dimethyl-N-p-anisyl-thiazolidine-4-carboxamide
> <PUBCHEM_IUPAC_INCHI>
InChI=1S/C33H40N4O6S/c1-33(2)29(30(39)34-19-23-10-14-25(42-3)15-11-23)37(21-44-33)31(40)28(38)27(18-22-8-6-5-7-9-22)36-32(41)35-20-24-12-16-26(43-4)17-13-24/h5-17,27-29,38H,18-21H2,1-4H3,(H,34,39)(H2,35,36,41)/t27-,28-,29+/m0/s1
> <PUBCHEM_IUPAC_INCHIKEY>
WQEMLDKTRBDENE-YTCPBCGMSA-N
> <PUBCHEM_XLOGP3_AA>
3.7
> <PUBCHEM_EXACT_MASS>
620.26685618
> <PUBCHEM_MOLECULAR_FORMULA>
C33H40N4O6S
> <PUBCHEM_MOLECULAR_WEIGHT>
620.8
> <PUBCHEM_OPENEYE_CAN_SMILES>
CC1(C(N(CS1)C(=O)C(C(CC2=CC=CC=C2)NC(=O)NCC3=CC=C(C=C3)OC)O)C(=O)NCC4=CC=C(C=C4)OC)C
> <PUBCHEM_OPENEYE_ISO_SMILES>
CC1([C@H](N(CS1)C(=O)[C@H]([C@H](CC2=CC=CC=C2)NC(=O)NCC3=CC=C(C=C3)OC)O)C(=O)NCC4=CC=C(C=C4)OC)C
> <PUBCHEM_CACTVS_TPSA>
155
> <PUBCHEM_MONOISOTOPIC_WEIGHT>
620.26685618
> <PUBCHEM_TOTAL_CHARGE>
0
> <PUBCHEM_HEAVY_ATOM_COUNT>
44
> <PUBCHEM_ATOM_DEF_STEREO_COUNT>
3
> <PUBCHEM_ATOM_UDEF_STEREO_COUNT>
0
> <PUBCHEM_BOND_DEF_STEREO_COUNT>
0
> <PUBCHEM_BOND_UDEF_STEREO_COUNT>
0
> <PUBCHEM_ISOTOPIC_ATOM_COUNT>
0
> <PUBCHEM_COMPONENT_COUNT>
1
> <PUBCHEM_CACTVS_TAUTO_COUNT>
-1
> <PUBCHEM_COORDINATE_TYPE>
1
5
255
> <PUBCHEM_BONDANNOTATIONS>
20  10  6
13  17  5
19  2  6
23  26  8
23  27  8
24  28  8
24  29  8
26  30  8
27  31  8
28  34  8
29  35  8
30  32  8
31  32  8
34  36  8
35  36  8
37  38  8
37  39  8
38  40  8
39  41  8
40  42  8
41  42  8
$$$$
