514553
  -OEChem-10302200282D
 80 84  0     1  0  0  0  0  0999 V2000
    3.2601   -1.0349    0.0000 S   0  0  0  0  0  0  0  0  0  0  0  0
    2.8940    2.0040    0.0000 O   0  0  0  0  0  0  0  0  0  0  0  0
    6.0554   -1.4221    0.0000 O   0  0  0  0  0  0  0  0  0  0  0  0
    5.7281    1.2034    0.0000 O   0  0  0  0  0  0  0  0  0  0  0  0
    8.4927   -2.4513    0.0000 O   0  0  0  0  0  0  0  0  0  0  0  0
    7.4758   -4.8307    0.0000 O   0  0  0  0  0  0  0  0  0  0  0  0
    6.7985   -2.0912    0.0000 O   0  0  0  0  0  0  0  0  0  0  0  0
    4.5691   -0.0838    0.0000 N   0  0  0  0  0  0  0  0  0  0  0  0
    4.6261    2.0040    0.0000 N   0  0  0  0  0  0  0  0  0  0  0  0
    7.9575   -0.8040    0.0000 N   0  0  0  0  0  0  0  0  0  0  0  0
    3.7601    0.5040    0.0000 C   0  0  1  0  0  0  0  0  0  0  0  0
    2.9511   -0.0838    0.0000 C   0  0  0  0  0  0  0  0  0  0  0  0
    4.2601   -1.0349    0.0000 C   0  0  0  0  0  0  0  0  0  0  0  0
    4.6261    3.0040    0.0000 C   0  0  1  0  0  0  0  0  0  0  0  0
    3.7601    1.5040    0.0000 C   0  0  0  0  0  0  0  0  0  0  0  0
    2.0000   -0.3928    0.0000 C   0  0  0  0  0  0  0  0  0  0  0  0
    2.3633    0.7252    0.0000 C   0  0  0  0  0  0  0  0  0  0  0  0
    3.7601    3.5040    0.0000 C   0  0  0  0  0  0  0  0  0  0  0  0
    5.5202    0.2252    0.0000 C   0  0  0  0  0  0  0  0  0  0  0  0
    5.4921    3.5040    0.0000 C   0  0  0  0  0  0  0  0  0  0  0  0
    3.7601    4.5040    0.0000 C   0  0  0  0  0  0  0  0  0  0  0  0
    6.2633   -0.4439    0.0000 C   0  0  2  0  0  0  0  0  0  0  0  0
    4.6261    5.0040    0.0000 C   0  0  0  0  0  0  0  0  0  0  0  0
    5.4921    4.5040    0.0000 C   0  0  0  0  0  0  0  0  0  0  0  0
    7.2144   -0.1349    0.0000 C   0  0  2  0  0  0  0  0  0  0  0  0
    6.3861    2.9693    0.0000 C   0  0  0  0  0  0  0  0  0  0  0  0
    7.4223    0.8432    0.0000 C   0  0  0  0  0  0  0  0  0  0  0  0
    6.3861    5.0386    0.0000 C   0  0  0  0  0  0  0  0  0  0  0  0
    7.2921    3.4832    0.0000 C   0  0  0  0  0  0  0  0  0  0  0  0
    7.2921    4.5248    0.0000 C   0  0  0  0  0  0  0  0  0  0  0  0
    8.3733    1.1523    0.0000 C   0  0  0  0  0  0  0  0  0  0  0  0
    8.2848   -3.4295    0.0000 C   0  0  1  0  0  0  0  0  0  0  0  0
    7.7496   -1.7822    0.0000 C   0  0  0  0  0  0  0  0  0  0  0  0
    8.9540   -4.1726    0.0000 C   0  0  0  0  0  0  0  0  0  0  0  0
    7.3713   -3.8362    0.0000 C   0  0  0  0  0  0  0  0  0  0  0  0
    8.4540   -5.0386    0.0000 C   0  0  0  0  0  0  0  0  0  0  0  0
    8.5812    2.1304    0.0000 C   0  0  0  0  0  0  0  0  0  0  0  0
    9.1165    0.4831    0.0000 C   0  0  0  0  0  0  0  0  0  0  0  0
    9.5323    2.4394    0.0000 C   0  0  0  0  0  0  0  0  0  0  0  0
   10.0675    0.7921    0.0000 C   0  0  0  0  0  0  0  0  0  0  0  0
   10.2754    1.7703    0.0000 C   0  0  0  0  0  0  0  0  0  0  0  0
    4.3125    0.7854    0.0000 H   0  0  0  0  0  0  0  0  0  0  0  0
    4.1953   -1.6515    0.0000 H   0  0  0  0  0  0  0  0  0  0  0  0
    4.8665   -1.1638    0.0000 H   0  0  0  0  0  0  0  0  0  0  0  0
    5.1630    2.6940    0.0000 H   0  0  0  0  0  0  0  0  0  0  0  0
    1.8084    0.1968    0.0000 H   0  0  0  0  0  0  0  0  0  0  0  0
    1.4103   -0.5844    0.0000 H   0  0  0  0  0  0  0  0  0  0  0  0
    2.1916   -0.9825    0.0000 H   0  0  0  0  0  0  0  0  0  0  0  0
    2.8649    1.0896    0.0000 H   0  0  0  0  0  0  0  0  0  0  0  0
    1.9988    1.2268    0.0000 H   0  0  0  0  0  0  0  0  0  0  0  0
    1.8617    0.3608    0.0000 H   0  0  0  0  0  0  0  0  0  0  0  0
    3.1495    3.6116    0.0000 H   0  0  0  0  0  0  0  0  0  0  0  0
    3.5480    2.9214    0.0000 H   0  0  0  0  0  0  0  0  0  0  0  0
    5.1630    1.6940    0.0000 H   0  0  0  0  0  0  0  0  0  0  0  0
    3.5480    5.0866    0.0000 H   0  0  0  0  0  0  0  0  0  0  0  0
    3.1495    4.3963    0.0000 H   0  0  0  0  0  0  0  0  0  0  0  0
    5.6736   -0.6355    0.0000 H   0  0  0  0  0  0  0  0  0  0  0  0
    5.0246    5.4789    0.0000 H   0  0  0  0  0  0  0  0  0  0  0  0
    4.2276    5.4789    0.0000 H   0  0  0  0  0  0  0  0  0  0  0  0
    7.0854   -0.7414    0.0000 H   0  0  0  0  0  0  0  0  0  0  0  0
    7.3360    1.4572    0.0000 H   0  0  0  0  0  0  0  0  0  0  0  0
    6.8026    0.8649    0.0000 H   0  0  0  0  0  0  0  0  0  0  0  0
    6.3789    2.3494    0.0000 H   0  0  0  0  0  0  0  0  0  0  0  0
    6.3789    5.6586    0.0000 H   0  0  0  0  0  0  0  0  0  0  0  0
    8.5472   -0.6124    0.0000 H   0  0  0  0  0  0  0  0  0  0  0  0
    7.8279    3.1711    0.0000 H   0  0  0  0  0  0  0  0  0  0  0  0
    5.4657   -1.6137    0.0000 H   0  0  0  0  0  0  0  0  0  0  0  0
    7.8279    4.8369    0.0000 H   0  0  0  0  0  0  0  0  0  0  0  0
    8.8837   -3.2690    0.0000 H   0  0  0  0  0  0  0  0  0  0  0  0
    9.4555   -4.5370    0.0000 H   0  0  0  0  0  0  0  0  0  0  0  0
    9.3688   -3.7119    0.0000 H   0  0  0  0  0  0  0  0  0  0  0  0
    7.1797   -3.2466    0.0000 H   0  0  0  0  0  0  0  0  0  0  0  0
    6.7648   -3.9651    0.0000 H   0  0  0  0  0  0  0  0  0  0  0  0
    8.2624   -5.6283    0.0000 H   0  0  0  0  0  0  0  0  0  0  0  0
    9.0203   -5.2908    0.0000 H   0  0  0  0  0  0  0  0  0  0  0  0
    8.1205    2.5453    0.0000 H   0  0  0  0  0  0  0  0  0  0  0  0
    8.9876   -0.1233    0.0000 H   0  0  0  0  0  0  0  0  0  0  0  0
    9.6612    3.0459    0.0000 H   0  0  0  0  0  0  0  0  0  0  0  0
   10.5283    0.3773    0.0000 H   0  0  0  0  0  0  0  0  0  0  0  0
   10.8651    1.9619    0.0000 H   0  0  0  0  0  0  0  0  0  0  0  0
  1 12  1  0  0  0  0
  1 13  1  0  0  0  0
  2 15  2  0  0  0  0
 22  3  1  6  0  0  0
  3 67  1  0  0  0  0
  4 19  2  0  0  0  0
 32  5  1  1  0  0  0
  5 33  1  0  0  0  0
  6 35  1  0  0  0  0
  6 36  1  0  0  0  0
  7 33  2  0  0  0  0
  8 11  1  0  0  0  0
  8 13  1  0  0  0  0
  8 19  1  0  0  0  0
 14  9  1  1  0  0  0
  9 15  1  0  0  0  0
  9 54  1  0  0  0  0
 25 10  1  6  0  0  0
 10 33  1  0  0  0  0
 10 65  1  0  0  0  0
 11 12  1  0  0  0  0
 11 15  1  1  0  0  0
 11 42  1  0  0  0  0
 12 16  1  0  0  0  0
 12 17  1  0  0  0  0
 13 43  1  0  0  0  0
 13 44  1  0  0  0  0
 14 18  1  0  0  0  0
 14 20  1  0  0  0  0
 14 45  1  0  0  0  0
 16 46  1  0  0  0  0
 16 47  1  0  0  0  0
 16 48  1  0  0  0  0
 17 49  1  0  0  0  0
 17 50  1  0  0  0  0
 17 51  1  0  0  0  0
 18 21  1  0  0  0  0
 18 52  1  0  0  0  0
 18 53  1  0  0  0  0
 19 22  1  0  0  0  0
 20 24  1  0  0  0  0
 20 26  2  0  0  0  0
 21 23  1  0  0  0  0
 21 55  1  0  0  0  0
 21 56  1  0  0  0  0
 22 25  1  0  0  0  0
 22 57  1  0  0  0  0
 23 24  1  0  0  0  0
 23 58  1  0  0  0  0
 23 59  1  0  0  0  0
 24 28  2  0  0  0  0
 25 27  1  0  0  0  0
 25 60  1  0  0  0  0
 26 29  1  0  0  0  0
 26 63  1  0  0  0  0
 27 31  1  0  0  0  0
 27 61  1  0  0  0  0
 27 62  1  0  0  0  0
 28 30  1  0  0  0  0
 28 64  1  0  0  0  0
 29 30  2  0  0  0  0
 29 66  1  0  0  0  0
 30 68  1  0  0  0  0
 31 37  2  0  0  0  0
 31 38  1  0  0  0  0
 32 34  1  0  0  0  0
 32 35  1  0  0  0  0
 32 69  1  0  0  0  0
 34 36  1  0  0  0  0
 34 70  1  0  0  0  0
 34 71  1  0  0  0  0
 35 72  1  0  0  0  0
 35 73  1  0  0  0  0
 36 74  1  0  0  0  0
 36 75  1  0  0  0  0
 37 39  1  0  0  0  0
 37 76  1  0  0  0  0
 38 40  2  0  0  0  0
 38 77  1  0  0  0  0
 39 41  2  0  0  0  0
 39 78  1  0  0  0  0
 40 41  1  0  0  0  0
 40 79  1  0  0  0  0
 41 80  1  0  0  0  0
M  END
> <PUBCHEM_COMPOUND_CID>
514553
> <PUBCHEM_COMPOUND_CANONICALIZED>
1
> <PUBCHEM_CACTVS_COMPLEXITY>
928
> <PUBCHEM_CACTVS_HBOND_ACCEPTOR>
7
> <PUBCHEM_CACTVS_HBOND_DONOR>
3
> <PUBCHEM_CACTVS_ROTATABLE_BOND>
9
> <PUBCHEM_CACTVS_SUBSKEYS>
AAADcfB7OABAAAAAAAAAAAAAAAAAAWJAAAAwYMAAAAAAAADBQAAAHgQQCAAADDzh2AayCIPABgiIAiFSGAKCAABgABAIiIHIBIkLcDqg0TGeYAhllgCaiAeYyKCOgAAAAAAQAAAAAACAACQAAAAAAAAAAA==
> <PUBCHEM_IUPAC_OPENEYE_NAME>
[(3S)-tetrahydrofuran-3-yl] N-[(1S,2S)-1-benzyl-3-[(4R)-5,5-dimethyl-4-[[(1S)-tetralin-1-yl]carbamoyl]thiazolidin-3-yl]-2-hydroxy-3-oxo-propyl]carbamate
> <PUBCHEM_IUPAC_CAS_NAME>
N-[(2S,3S)-4-[(4R)-5,5-dimethyl-4-[oxo-[[(1S)-1,2,3,4-tetrahydronaphthalen-1-yl]amino]methyl]-3-thiazolidinyl]-3-hydroxy-4-oxo-1-phenylbutan-2-yl]carbamic acid [(3S)-3-oxolanyl] ester
> <PUBCHEM_IUPAC_NAME_MARKUP>
[(3<I>S</I>)-oxolan-3-yl] <I>N</I>-[(2<I>S</I>,3<I>S</I>)-4-[(4<I>R</I>)-5,5-dimethyl-4-[[(1<I>S</I>)-1,2,3,4-tetrahydronaphthalen-1-yl]carbamoyl]-1,3-thiazolidin-3-yl]-3-hydroxy-4-oxo-1-phenylbutan-2-yl]carbamate
> <PUBCHEM_IUPAC_NAME>
[(3S)-oxolan-3-yl] N-[(2S,3S)-4-[(4R)-5,5-dimethyl-4-[[(1S)-1,2,3,4-tetrahydronaphthalen-1-yl]carbamoyl]-1,3-thiazolidin-3-yl]-3-hydroxy-4-oxo-1-phenylbutan-2-yl]carbamate
> <PUBCHEM_IUPAC_SYSTEMATIC_NAME>
[(3S)-oxolan-3-yl] N-[(2S,3S)-4-[(4R)-5,5-dimethyl-4-[[(1S)-1,2,3,4-tetrahydronaphthalen-1-yl]carbamoyl]-1,3-thiazolidin-3-yl]-3-oxidanyl-4-oxidanylidene-1-phenyl-butan-2-yl]carbamate
> <PUBCHEM_IUPAC_TRADITIONAL_NAME>
N-[(1S,2S)-1-benzyl-3-[(4R)-5,5-dimethyl-4-[[(1S)-tetralin-1-yl]carbamoyl]thiazolidin-3-yl]-2-hydroxy-3-keto-propyl]carbamic acid [(3S)-tetrahydrofuran-3-yl] ester
> <PUBCHEM_IUPAC_INCHI>
InChI=1S/C31H39N3O6S/c1-31(2)27(28(36)32-24-14-8-12-21-11-6-7-13-23(21)24)34(19-41-31)29(37)26(35)25(17-20-9-4-3-5-10-20)33-30(38)40-22-15-16-39-18-22/h3-7,9-11,13,22,24-27,35H,8,12,14-19H2,1-2H3,(H,32,36)(H,33,38)/t22-,24-,25-,26-,27+/m0/s1
> <PUBCHEM_IUPAC_INCHIKEY>
GEAQSERSMBCANE-NPHOHLEASA-N
> <PUBCHEM_XLOGP3_AA>
3.7
> <PUBCHEM_EXACT_MASS>
581.25595715
> <PUBCHEM_MOLECULAR_FORMULA>
C31H39N3O6S
> <PUBCHEM_MOLECULAR_WEIGHT>
581.7
> <PUBCHEM_OPENEYE_CAN_SMILES>
CC1(C(N(CS1)C(=O)C(C(CC2=CC=CC=C2)NC(=O)OC3CCOC3)O)C(=O)NC4CCCC5=CC=CC=C45)C
> <PUBCHEM_OPENEYE_ISO_SMILES>
CC1([C@H](N(CS1)C(=O)[C@H]([C@H](CC2=CC=CC=C2)NC(=O)O[C@H]3CCOC3)O)C(=O)N[C@H]4CCCC5=CC=CC=C45)C
> <PUBCHEM_CACTVS_TPSA>
143
> <PUBCHEM_MONOISOTOPIC_WEIGHT>
581.25595715
> <PUBCHEM_TOTAL_CHARGE>
0
> <PUBCHEM_HEAVY_ATOM_COUNT>
41
> <PUBCHEM_ATOM_DEF_STEREO_COUNT>
5
> <PUBCHEM_ATOM_UDEF_STEREO_COUNT>
0
> <PUBCHEM_BOND_DEF_STEREO_COUNT>
0
> <PUBCHEM_BOND_UDEF_STEREO_COUNT>
0
> <PUBCHEM_ISOTOPIC_ATOM_COUNT>
0
> <PUBCHEM_COMPONENT_COUNT>
1
> <PUBCHEM_CACTVS_TAUTO_COUNT>
-1
> <PUBCHEM_COORDINATE_TYPE>
1
5
255
> <PUBCHEM_BONDANNOTATIONS>
25  10  6
11  15  5
20  24  8
20  26  8
24  28  8
26  29  8
28  30  8
29  30  8
22  3  6
31  37  8
31  38  8
37  39  8
38  40  8
39  41  8
40  41  8
32  5  5
14  9  5
$$$$
