514561
  -OEChem-10302200282D
 78 82  0     1  0  0  0  0  0999 V2000
    4.3567    2.3995    0.0000 S   0  0  0  0  0  0  0  0  0  0  0  0
    5.0611   -0.8570    0.0000 O   0  0  0  0  0  0  0  0  0  0  0  0
    7.1714    2.1970    0.0000 O   0  0  0  0  0  0  0  0  0  0  0  0
    6.3054   -0.3030    0.0000 O   0  0  0  0  0  0  0  0  0  0  0  0
    9.7695   -0.3030    0.0000 O   0  0  0  0  0  0  0  0  0  0  0  0
    5.4394    1.1970    0.0000 N   0  0  0  0  0  0  0  0  0  0  0  0
    3.3669   -0.4969    0.0000 N   0  0  0  0  0  0  0  0  0  0  0  0
    8.0375   -0.3030    0.0000 N   0  0  0  0  0  0  0  0  0  0  0  0
   10.7157   -3.6077    0.0000 N   0  0  0  0  0  0  0  0  0  0  0  0
    3.8567    1.5334    0.0000 C   0  0  0  0  0  0  0  0  0  0  0  0
    4.5258    0.7903    0.0000 C   0  0  1  0  0  0  0  0  0  0  0  0
    5.3349    2.1916    0.0000 C   0  0  0  0  0  0  0  0  0  0  0  0
    2.9907    2.0334    0.0000 C   0  0  0  0  0  0  0  0  0  0  0  0
    3.1136    0.8643    0.0000 C   0  0  0  0  0  0  0  0  0  0  0  0
    4.3179   -0.1879    0.0000 C   0  0  0  0  0  0  0  0  0  0  0  0
    6.3054    0.6970    0.0000 C   0  0  0  0  0  0  0  0  0  0  0  0
    7.1714    1.1970    0.0000 C   0  0  2  0  0  0  0  0  0  0  0  0
    3.1590   -1.4750    0.0000 C   0  0  1  0  0  0  0  0  0  0  0  0
    8.0375    0.6970    0.0000 C   0  0  2  0  0  0  0  0  0  0  0  0
    2.2079   -1.7840    0.0000 C   0  0  0  0  0  0  0  0  0  0  0  0
    2.0000   -2.7622    0.0000 C   0  0  0  0  0  0  0  0  0  0  0  0
    8.9035    1.1970    0.0000 C   0  0  0  0  0  0  0  0  0  0  0  0
    3.9021   -2.1441    0.0000 C   0  0  0  0  0  0  0  0  0  0  0  0
    2.7431   -3.4313    0.0000 C   0  0  0  0  0  0  0  0  0  0  0  0
    3.6942   -3.1223    0.0000 C   0  0  0  0  0  0  0  0  0  0  0  0
    8.9035    2.1970    0.0000 C   0  0  0  0  0  0  0  0  0  0  0  0
    8.9035   -0.8030    0.0000 C   0  0  0  0  0  0  0  0  0  0  0  0
    9.7695   -2.3030    0.0000 C   0  0  0  0  0  0  0  0  0  0  0  0
    8.9035   -1.8030    0.0000 C   0  0  0  0  0  0  0  0  0  0  0  0
   10.7157   -1.9982    0.0000 C   0  0  0  0  0  0  0  0  0  0  0  0
    9.7695   -3.3030    0.0000 C   0  0  0  0  0  0  0  0  0  0  0  0
   11.2993   -2.8030    0.0000 C   0  0  0  0  0  0  0  0  0  0  0  0
    8.0375    2.6970    0.0000 C   0  0  0  0  0  0  0  0  0  0  0  0
    9.7695    2.6970    0.0000 C   0  0  0  0  0  0  0  0  0  0  0  0
    8.0375   -2.3030    0.0000 C   0  0  0  0  0  0  0  0  0  0  0  0
    8.9035   -3.8030    0.0000 C   0  0  0  0  0  0  0  0  0  0  0  0
    8.0375   -3.3030    0.0000 C   0  0  0  0  0  0  0  0  0  0  0  0
    8.0375    3.6970    0.0000 C   0  0  0  0  0  0  0  0  0  0  0  0
    9.7695    3.6970    0.0000 C   0  0  0  0  0  0  0  0  0  0  0  0
    8.9035    4.1970    0.0000 C   0  0  0  0  0  0  0  0  0  0  0  0
    5.0077    0.4001    0.0000 H   0  0  0  0  0  0  0  0  0  0  0  0
    5.9549    2.1916    0.0000 H   0  0  0  0  0  0  0  0  0  0  0  0
    5.3997    2.8082    0.0000 H   0  0  0  0  0  0  0  0  0  0  0  0
    3.3007    2.5704    0.0000 H   0  0  0  0  0  0  0  0  0  0  0  0
    2.4538    2.3434    0.0000 H   0  0  0  0  0  0  0  0  0  0  0  0
    2.6807    1.4965    0.0000 H   0  0  0  0  0  0  0  0  0  0  0  0
    2.6987    1.3250    0.0000 H   0  0  0  0  0  0  0  0  0  0  0  0
    2.6528    0.4494    0.0000 H   0  0  0  0  0  0  0  0  0  0  0  0
    3.5284    0.4036    0.0000 H   0  0  0  0  0  0  0  0  0  0  0  0
    7.7084    1.5070    0.0000 H   0  0  0  0  0  0  0  0  0  0  0  0
    2.6982   -1.0602    0.0000 H   0  0  0  0  0  0  0  0  0  0  0  0
    8.5744    0.3870    0.0000 H   0  0  0  0  0  0  0  0  0  0  0  0
    2.9061   -0.0820    0.0000 H   0  0  0  0  0  0  0  0  0  0  0  0
    2.1216   -1.1701    0.0000 H   0  0  0  0  0  0  0  0  0  0  0  0
    1.5883   -1.7624    0.0000 H   0  0  0  0  0  0  0  0  0  0  0  0
    1.4252   -2.5299    0.0000 H   0  0  0  0  0  0  0  0  0  0  0  0
    1.6714   -3.2880    0.0000 H   0  0  0  0  0  0  0  0  0  0  0  0
    9.1156    0.6144    0.0000 H   0  0  0  0  0  0  0  0  0  0  0  0
    9.5141    1.3047    0.0000 H   0  0  0  0  0  0  0  0  0  0  0  0
    4.4918   -1.9526    0.0000 H   0  0  0  0  0  0  0  0  0  0  0  0
    2.2546   -3.8130    0.0000 H   0  0  0  0  0  0  0  0  0  0  0  0
    3.0342   -3.9787    0.0000 H   0  0  0  0  0  0  0  0  0  0  0  0
    7.5005   -0.6130    0.0000 H   0  0  0  0  0  0  0  0  0  0  0  0
    4.1550   -3.5372    0.0000 H   0  0  0  0  0  0  0  0  0  0  0  0
    6.6345    2.5070    0.0000 H   0  0  0  0  0  0  0  0  0  0  0  0
   11.2531   -1.6890    0.0000 H   0  0  0  0  0  0  0  0  0  0  0  0
   10.4647   -1.4313    0.0000 H   0  0  0  0  0  0  0  0  0  0  0  0
   11.7602   -3.2177    0.0000 H   0  0  0  0  0  0  0  0  0  0  0  0
   11.7602   -2.3882    0.0000 H   0  0  0  0  0  0  0  0  0  0  0  0
   10.9084   -4.1970    0.0000 H   0  0  0  0  0  0  0  0  0  0  0  0
    7.5005    2.3870    0.0000 H   0  0  0  0  0  0  0  0  0  0  0  0
   10.3065    2.3870    0.0000 H   0  0  0  0  0  0  0  0  0  0  0  0
    7.5005   -1.9930    0.0000 H   0  0  0  0  0  0  0  0  0  0  0  0
    8.9035   -4.4230    0.0000 H   0  0  0  0  0  0  0  0  0  0  0  0
    7.5005   -3.6130    0.0000 H   0  0  0  0  0  0  0  0  0  0  0  0
    7.5005    4.0070    0.0000 H   0  0  0  0  0  0  0  0  0  0  0  0
   10.3065    4.0070    0.0000 H   0  0  0  0  0  0  0  0  0  0  0  0
    8.9035    4.8170    0.0000 H   0  0  0  0  0  0  0  0  0  0  0  0
  1 10  1  0  0  0  0
  1 12  1  0  0  0  0
  2 15  2  0  0  0  0
 17  3  1  1  0  0  0
  3 65  1  0  0  0  0
  4 16  2  0  0  0  0
  5 27  2  0  0  0  0
  6 11  1  0  0  0  0
  6 12  1  0  0  0  0
  6 16  1  0  0  0  0
  7 15  1  0  0  0  0
 18  7  1  6  0  0  0
  7 53  1  0  0  0  0
 19  8  1  6  0  0  0
  8 27  1  0  0  0  0
  8 63  1  0  0  0  0
  9 31  1  0  0  0  0
  9 32  1  0  0  0  0
  9 70  1  0  0  0  0
 10 11  1  0  0  0  0
 10 13  1  0  0  0  0
 10 14  1  0  0  0  0
 11 15  1  6  0  0  0
 11 41  1  0  0  0  0
 12 42  1  0  0  0  0
 12 43  1  0  0  0  0
 13 44  1  0  0  0  0
 13 45  1  0  0  0  0
 13 46  1  0  0  0  0
 14 47  1  0  0  0  0
 14 48  1  0  0  0  0
 14 49  1  0  0  0  0
 16 17  1  0  0  0  0
 17 19  1  0  0  0  0
 17 50  1  0  0  0  0
 18 20  1  0  0  0  0
 18 23  1  0  0  0  0
 18 51  1  0  0  0  0
 19 22  1  0  0  0  0
 19 52  1  0  0  0  0
 20 21  1  0  0  0  0
 20 54  1  0  0  0  0
 20 55  1  0  0  0  0
 21 24  1  0  0  0  0
 21 56  1  0  0  0  0
 21 57  1  0  0  0  0
 22 26  1  0  0  0  0
 22 58  1  0  0  0  0
 22 59  1  0  0  0  0
 23 25  2  0  0  0  0
 23 60  1  0  0  0  0
 24 25  1  0  0  0  0
 24 61  1  0  0  0  0
 24 62  1  0  0  0  0
 25 64  1  0  0  0  0
 26 33  2  0  0  0  0
 26 34  1  0  0  0  0
 27 29  1  0  0  0  0
 28 29  2  0  0  0  0
 28 30  1  0  0  0  0
 28 31  1  0  0  0  0
 29 35  1  0  0  0  0
 30 32  1  0  0  0  0
 30 66  1  0  0  0  0
 30 67  1  0  0  0  0
 31 36  2  0  0  0  0
 32 68  1  0  0  0  0
 32 69  1  0  0  0  0
 33 38  1  0  0  0  0
 33 71  1  0  0  0  0
 34 39  2  0  0  0  0
 34 72  1  0  0  0  0
 35 37  2  0  0  0  0
 35 73  1  0  0  0  0
 36 37  1  0  0  0  0
 36 74  1  0  0  0  0
 37 75  1  0  0  0  0
 38 40  2  0  0  0  0
 38 76  1  0  0  0  0
 39 40  1  0  0  0  0
 39 77  1  0  0  0  0
 40 78  1  0  0  0  0
M  END
> <PUBCHEM_COMPOUND_CID>
514561
> <PUBCHEM_COMPOUND_CANONICALIZED>
1
> <PUBCHEM_CACTVS_COMPLEXITY>
952
> <PUBCHEM_CACTVS_HBOND_ACCEPTOR>
6
> <PUBCHEM_CACTVS_HBOND_DONOR>
4
> <PUBCHEM_CACTVS_ROTATABLE_BOND>
8
> <PUBCHEM_CACTVS_SUBSKEYS>
AAADcfB7uABAAAAAAAAAAAAAAAAAAWLAAAAwYIAAAAAAAFgBQAAAHgQQCAAADDzh2AaywIPAAgiIAiVSUAKCAABlAhAIiIHIZMgKcDrg1bGUYQhklgDYyYecyaCOgAAAQAASAAAAAACAACQAAAAAAAAAAA==
> <PUBCHEM_IUPAC_OPENEYE_NAME>
(4R)-N-[(1S)-cyclohex-2-en-1-yl]-3-[(2S,3S)-2-hydroxy-3-(indoline-4-carbonylamino)-4-phenyl-butanoyl]-5,5-dimethyl-thiazolidine-4-carboxamide
> <PUBCHEM_IUPAC_CAS_NAME>
(4R)-N-[(1S)-1-cyclohex-2-enyl]-3-[(2S,3S)-3-[[2,3-dihydro-1H-indol-4-yl(oxo)methyl]amino]-2-hydroxy-1-oxo-4-phenylbutyl]-5,5-dimethyl-4-thiazolidinecarboxamide
> <PUBCHEM_IUPAC_NAME_MARKUP>
(4<I>R</I>)-<I>N</I>-[(1<I>S</I>)-cyclohex-2-en-1-yl]-3-[(2<I>S</I>,3<I>S</I>)-3-(2,3-dihydro-1<I>H</I>-indole-4-carbonylamino)-2-hydroxy-4-phenylbutanoyl]-5,5-dimethyl-1,3-thiazolidine-4-carboxamide
> <PUBCHEM_IUPAC_NAME>
(4R)-N-[(1S)-cyclohex-2-en-1-yl]-3-[(2S,3S)-3-(2,3-dihydro-1H-indole-4-carbonylamino)-2-hydroxy-4-phenylbutanoyl]-5,5-dimethyl-1,3-thiazolidine-4-carboxamide
> <PUBCHEM_IUPAC_SYSTEMATIC_NAME>
(4R)-N-[(1S)-cyclohex-2-en-1-yl]-3-[(2S,3S)-3-(2,3-dihydro-1H-indol-4-ylcarbonylamino)-2-oxidanyl-4-phenyl-butanoyl]-5,5-dimethyl-1,3-thiazolidine-4-carboxamide
> <PUBCHEM_IUPAC_TRADITIONAL_NAME>
(4R)-N-[(1S)-cyclohex-2-en-1-yl]-3-[(2S,3S)-2-hydroxy-3-(indoline-4-carbonylamino)-4-phenyl-butanoyl]-5,5-dimethyl-thiazolidine-4-carboxamide
> <PUBCHEM_IUPAC_INCHI>
InChI=1S/C31H38N4O4S/c1-31(2)27(29(38)33-21-12-7-4-8-13-21)35(19-40-31)30(39)26(36)25(18-20-10-5-3-6-11-20)34-28(37)23-14-9-15-24-22(23)16-17-32-24/h3,5-7,9-12,14-15,21,25-27,32,36H,4,8,13,16-19H2,1-2H3,(H,33,38)(H,34,37)/t21-,25+,26+,27-/m1/s1
> <PUBCHEM_IUPAC_INCHIKEY>
YXLROKZYLOYZNS-NVSKSXHLSA-N
> <PUBCHEM_XLOGP3_AA>
4.1
> <PUBCHEM_EXACT_MASS>
562.26137688
> <PUBCHEM_MOLECULAR_FORMULA>
C31H38N4O4S
> <PUBCHEM_MOLECULAR_WEIGHT>
562.7
> <PUBCHEM_OPENEYE_CAN_SMILES>
CC1(C(N(CS1)C(=O)C(C(CC2=CC=CC=C2)NC(=O)C3=C4CCNC4=CC=C3)O)C(=O)NC5CCCC=C5)C
> <PUBCHEM_OPENEYE_ISO_SMILES>
CC1([C@H](N(CS1)C(=O)[C@H]([C@H](CC2=CC=CC=C2)NC(=O)C3=C4CCNC4=CC=C3)O)C(=O)N[C@H]5CCCC=C5)C
> <PUBCHEM_CACTVS_TPSA>
136
> <PUBCHEM_MONOISOTOPIC_WEIGHT>
562.26137688
> <PUBCHEM_TOTAL_CHARGE>
0
> <PUBCHEM_HEAVY_ATOM_COUNT>
40
> <PUBCHEM_ATOM_DEF_STEREO_COUNT>
4
> <PUBCHEM_ATOM_UDEF_STEREO_COUNT>
0
> <PUBCHEM_BOND_DEF_STEREO_COUNT>
0
> <PUBCHEM_BOND_UDEF_STEREO_COUNT>
0
> <PUBCHEM_ISOTOPIC_ATOM_COUNT>
0
> <PUBCHEM_COMPONENT_COUNT>
1
> <PUBCHEM_CACTVS_TAUTO_COUNT>
-1
> <PUBCHEM_COORDINATE_TYPE>
1
5
255
> <PUBCHEM_BONDANNOTATIONS>
11  15  6
26  33  8
26  34  8
28  29  8
28  31  8
29  35  8
17  3  5
31  36  8
33  38  8
34  39  8
35  37  8
36  37  8
38  40  8
39  40  8
18  7  6
19  8  6
$$$$
