514554
  -OEChem-10302200282D
 69 72  0     1  0  0  0  0  0999 V2000
    5.6895    2.3995    0.0000 S   0  0  0  0  0  0  0  0  0  0  0  0
    8.5042    2.1970    0.0000 O   0  0  0  0  0  0  0  0  0  0  0  0
    7.6382   -0.3030    0.0000 O   0  0  0  0  0  0  0  0  0  0  0  0
    6.3939   -0.8570    0.0000 O   0  0  0  0  0  0  0  0  0  0  0  0
   11.1023   -0.3030    0.0000 O   0  0  0  0  0  0  0  0  0  0  0  0
    6.7722    1.1970    0.0000 N   0  0  0  0  0  0  0  0  0  0  0  0
    9.3703   -0.3030    0.0000 N   0  0  0  0  0  0  0  0  0  0  0  0
    4.6997   -0.4969    0.0000 N   0  0  0  0  0  0  0  0  0  0  0  0
   12.0485   -3.6077    0.0000 N   0  0  0  0  0  0  0  0  0  0  0  0
    5.1895    1.5334    0.0000 C   0  0  0  0  0  0  0  0  0  0  0  0
    5.8586    0.7903    0.0000 C   0  0  1  0  0  0  0  0  0  0  0  0
    6.6677    2.1916    0.0000 C   0  0  0  0  0  0  0  0  0  0  0  0
    4.3235    2.0334    0.0000 C   0  0  0  0  0  0  0  0  0  0  0  0
    4.4464    0.8643    0.0000 C   0  0  0  0  0  0  0  0  0  0  0  0
    7.6382    0.6970    0.0000 C   0  0  0  0  0  0  0  0  0  0  0  0
    8.5042    1.1970    0.0000 C   0  0  2  0  0  0  0  0  0  0  0  0
    5.6507   -0.1879    0.0000 C   0  0  0  0  0  0  0  0  0  0  0  0
    9.3703    0.6970    0.0000 C   0  0  2  0  0  0  0  0  0  0  0  0
   10.2363    1.1970    0.0000 C   0  0  0  0  0  0  0  0  0  0  0  0
   10.2363    2.1970    0.0000 C   0  0  0  0  0  0  0  0  0  0  0  0
   11.1023   -2.3030    0.0000 C   0  0  0  0  0  0  0  0  0  0  0  0
   10.2363   -0.8030    0.0000 C   0  0  0  0  0  0  0  0  0  0  0  0
   10.2363   -1.8030    0.0000 C   0  0  0  0  0  0  0  0  0  0  0  0
   12.0485   -1.9982    0.0000 C   0  0  0  0  0  0  0  0  0  0  0  0
   11.1023   -3.3030    0.0000 C   0  0  0  0  0  0  0  0  0  0  0  0
    4.4918   -1.4750    0.0000 C   0  0  0  0  0  0  0  0  0  0  0  0
   12.6321   -2.8030    0.0000 C   0  0  0  0  0  0  0  0  0  0  0  0
    9.3703   -2.3030    0.0000 C   0  0  0  0  0  0  0  0  0  0  0  0
    9.3703    2.6970    0.0000 C   0  0  0  0  0  0  0  0  0  0  0  0
   11.1023    2.6970    0.0000 C   0  0  0  0  0  0  0  0  0  0  0  0
   10.2363   -3.8030    0.0000 C   0  0  0  0  0  0  0  0  0  0  0  0
    9.3703   -3.3030    0.0000 C   0  0  0  0  0  0  0  0  0  0  0  0
    9.3703    3.6970    0.0000 C   0  0  0  0  0  0  0  0  0  0  0  0
   11.1023    3.6970    0.0000 C   0  0  0  0  0  0  0  0  0  0  0  0
    3.5407   -1.7840    0.0000 C   0  0  0  0  0  0  0  0  0  0  0  0
   10.2363    4.1970    0.0000 C   0  0  0  0  0  0  0  0  0  0  0  0
    2.5896   -2.0931    0.0000 C   0  0  0  0  0  0  0  0  0  0  0  0
    6.3405    0.4001    0.0000 H   0  0  0  0  0  0  0  0  0  0  0  0
    7.2877    2.1916    0.0000 H   0  0  0  0  0  0  0  0  0  0  0  0
    6.7325    2.8082    0.0000 H   0  0  0  0  0  0  0  0  0  0  0  0
    4.6335    2.5704    0.0000 H   0  0  0  0  0  0  0  0  0  0  0  0
    3.7866    2.3434    0.0000 H   0  0  0  0  0  0  0  0  0  0  0  0
    4.0135    1.4965    0.0000 H   0  0  0  0  0  0  0  0  0  0  0  0
    4.0315    1.3250    0.0000 H   0  0  0  0  0  0  0  0  0  0  0  0
    3.9856    0.4494    0.0000 H   0  0  0  0  0  0  0  0  0  0  0  0
    4.8612    0.4036    0.0000 H   0  0  0  0  0  0  0  0  0  0  0  0
    7.9673    1.5070    0.0000 H   0  0  0  0  0  0  0  0  0  0  0  0
    9.9072    0.3870    0.0000 H   0  0  0  0  0  0  0  0  0  0  0  0
   10.4483    0.6144    0.0000 H   0  0  0  0  0  0  0  0  0  0  0  0
   10.8469    1.3047    0.0000 H   0  0  0  0  0  0  0  0  0  0  0  0
    8.8333   -0.6130    0.0000 H   0  0  0  0  0  0  0  0  0  0  0  0
    4.2389   -0.0820    0.0000 H   0  0  0  0  0  0  0  0  0  0  0  0
    7.9673    2.5070    0.0000 H   0  0  0  0  0  0  0  0  0  0  0  0
   12.5859   -1.6890    0.0000 H   0  0  0  0  0  0  0  0  0  0  0  0
   11.7975   -1.4313    0.0000 H   0  0  0  0  0  0  0  0  0  0  0  0
   13.0930   -3.2177    0.0000 H   0  0  0  0  0  0  0  0  0  0  0  0
   13.0930   -2.3882    0.0000 H   0  0  0  0  0  0  0  0  0  0  0  0
    4.5781   -2.0890    0.0000 H   0  0  0  0  0  0  0  0  0  0  0  0
    5.1114   -1.4967    0.0000 H   0  0  0  0  0  0  0  0  0  0  0  0
   12.2412   -4.1970    0.0000 H   0  0  0  0  0  0  0  0  0  0  0  0
    8.8333   -1.9930    0.0000 H   0  0  0  0  0  0  0  0  0  0  0  0
    8.8333    2.3870    0.0000 H   0  0  0  0  0  0  0  0  0  0  0  0
   11.6393    2.3870    0.0000 H   0  0  0  0  0  0  0  0  0  0  0  0
   10.2363   -4.4230    0.0000 H   0  0  0  0  0  0  0  0  0  0  0  0
    8.8333   -3.6130    0.0000 H   0  0  0  0  0  0  0  0  0  0  0  0
    8.8333    4.0070    0.0000 H   0  0  0  0  0  0  0  0  0  0  0  0
   11.6393    4.0070    0.0000 H   0  0  0  0  0  0  0  0  0  0  0  0
   10.2363    4.8170    0.0000 H   0  0  0  0  0  0  0  0  0  0  0  0
    2.0000   -2.2846    0.0000 H   0  0  0  0  0  0  0  0  0  0  0  0
  1 10  1  0  0  0  0
  1 12  1  0  0  0  0
 16  2  1  1  0  0  0
  2 53  1  0  0  0  0
  3 15  2  0  0  0  0
  4 17  2  0  0  0  0
  5 22  2  0  0  0  0
  6 11  1  0  0  0  0
  6 12  1  0  0  0  0
  6 15  1  0  0  0  0
 18  7  1  6  0  0  0
  7 22  1  0  0  0  0
  7 51  1  0  0  0  0
  8 17  1  0  0  0  0
  8 26  1  0  0  0  0
  8 52  1  0  0  0  0
  9 25  1  0  0  0  0
  9 27  1  0  0  0  0
  9 60  1  0  0  0  0
 10 11  1  0  0  0  0
 10 13  1  0  0  0  0
 10 14  1  0  0  0  0
 11 17  1  6  0  0  0
 11 38  1  0  0  0  0
 12 39  1  0  0  0  0
 12 40  1  0  0  0  0
 13 41  1  0  0  0  0
 13 42  1  0  0  0  0
 13 43  1  0  0  0  0
 14 44  1  0  0  0  0
 14 45  1  0  0  0  0
 14 46  1  0  0  0  0
 15 16  1  0  0  0  0
 16 18  1  0  0  0  0
 16 47  1  0  0  0  0
 18 19  1  0  0  0  0
 18 48  1  0  0  0  0
 19 20  1  0  0  0  0
 19 49  1  0  0  0  0
 19 50  1  0  0  0  0
 20 29  2  0  0  0  0
 20 30  1  0  0  0  0
 21 23  2  0  0  0  0
 21 24  1  0  0  0  0
 21 25  1  0  0  0  0
 22 23  1  0  0  0  0
 23 28  1  0  0  0  0
 24 27  1  0  0  0  0
 24 54  1  0  0  0  0
 24 55  1  0  0  0  0
 25 31  2  0  0  0  0
 26 35  1  0  0  0  0
 26 58  1  0  0  0  0
 26 59  1  0  0  0  0
 27 56  1  0  0  0  0
 27 57  1  0  0  0  0
 28 32  2  0  0  0  0
 28 61  1  0  0  0  0
 29 33  1  0  0  0  0
 29 62  1  0  0  0  0
 30 34  2  0  0  0  0
 30 63  1  0  0  0  0
 31 32  1  0  0  0  0
 31 64  1  0  0  0  0
 32 65  1  0  0  0  0
 33 36  2  0  0  0  0
 33 66  1  0  0  0  0
 34 36  1  0  0  0  0
 34 67  1  0  0  0  0
 35 37  3  0  0  0  0
 36 68  1  0  0  0  0
 37 69  1  0  0  0  0
M  END
> <PUBCHEM_COMPOUND_CID>
514554
> <PUBCHEM_COMPOUND_CANONICALIZED>
1
> <PUBCHEM_CACTVS_COMPLEXITY>
896
> <PUBCHEM_CACTVS_HBOND_ACCEPTOR>
6
> <PUBCHEM_CACTVS_HBOND_DONOR>
4
> <PUBCHEM_CACTVS_ROTATABLE_BOND>
8
> <PUBCHEM_CACTVS_SUBSKEYS>
AAADcfB7uABAAAAAAAAAAAAAAAAAAWLAAAAwYAAAAAAAAFgBQAAAHgQQCAAADDzh2AaywIPAAgjIGiVSUAKCAABlAhAIiIHIZMgKcDrg1bGUYQhklgDYyYecyaCOgAAAQAASAAAAAACAACQAAAAAAAAAAA==
> <PUBCHEM_IUPAC_OPENEYE_NAME>
(4R)-3-[(2S,3S)-2-hydroxy-3-(indoline-4-carbonylamino)-4-phenyl-butanoyl]-5,5-dimethyl-N-prop-2-ynyl-thiazolidine-4-carboxamide
> <PUBCHEM_IUPAC_CAS_NAME>
(4R)-3-[(2S,3S)-3-[[2,3-dihydro-1H-indol-4-yl(oxo)methyl]amino]-2-hydroxy-1-oxo-4-phenylbutyl]-5,5-dimethyl-N-prop-2-ynyl-4-thiazolidinecarboxamide
> <PUBCHEM_IUPAC_NAME_MARKUP>
(4<I>R</I>)-3-[(2<I>S</I>,3<I>S</I>)-3-(2,3-dihydro-1<I>H</I>-indole-4-carbonylamino)-2-hydroxy-4-phenylbutanoyl]-5,5-dimethyl-<I>N</I>-prop-2-ynyl-1,3-thiazolidine-4-carboxamide
> <PUBCHEM_IUPAC_NAME>
(4R)-3-[(2S,3S)-3-(2,3-dihydro-1H-indole-4-carbonylamino)-2-hydroxy-4-phenylbutanoyl]-5,5-dimethyl-N-prop-2-ynyl-1,3-thiazolidine-4-carboxamide
> <PUBCHEM_IUPAC_SYSTEMATIC_NAME>
(4R)-3-[(2S,3S)-3-(2,3-dihydro-1H-indol-4-ylcarbonylamino)-2-oxidanyl-4-phenyl-butanoyl]-5,5-dimethyl-N-prop-2-ynyl-1,3-thiazolidine-4-carboxamide
> <PUBCHEM_IUPAC_TRADITIONAL_NAME>
(4R)-3-[(2S,3S)-2-hydroxy-3-(indoline-4-carbonylamino)-4-phenyl-butanoyl]-5,5-dimethyl-N-propargyl-thiazolidine-4-carboxamide
> <PUBCHEM_IUPAC_INCHI>
InChI=1S/C28H32N4O4S/c1-4-14-30-26(35)24-28(2,3)37-17-32(24)27(36)23(33)22(16-18-9-6-5-7-10-18)31-25(34)20-11-8-12-21-19(20)13-15-29-21/h1,5-12,22-24,29,33H,13-17H2,2-3H3,(H,30,35)(H,31,34)/t22-,23-,24+/m0/s1
> <PUBCHEM_IUPAC_INCHIKEY>
OPIHLOHLVGOKKC-KMDXXIMOSA-N
> <PUBCHEM_XLOGP3_AA>
2.8
> <PUBCHEM_EXACT_MASS>
520.21442669
> <PUBCHEM_MOLECULAR_FORMULA>
C28H32N4O4S
> <PUBCHEM_MOLECULAR_WEIGHT>
520.6
> <PUBCHEM_OPENEYE_CAN_SMILES>
CC1(C(N(CS1)C(=O)C(C(CC2=CC=CC=C2)NC(=O)C3=C4CCNC4=CC=C3)O)C(=O)NCC#C)C
> <PUBCHEM_OPENEYE_ISO_SMILES>
CC1([C@H](N(CS1)C(=O)[C@H]([C@H](CC2=CC=CC=C2)NC(=O)C3=C4CCNC4=CC=C3)O)C(=O)NCC#C)C
> <PUBCHEM_CACTVS_TPSA>
136
> <PUBCHEM_MONOISOTOPIC_WEIGHT>
520.21442669
> <PUBCHEM_TOTAL_CHARGE>
0
> <PUBCHEM_HEAVY_ATOM_COUNT>
37
> <PUBCHEM_ATOM_DEF_STEREO_COUNT>
3
> <PUBCHEM_ATOM_UDEF_STEREO_COUNT>
0
> <PUBCHEM_BOND_DEF_STEREO_COUNT>
0
> <PUBCHEM_BOND_UDEF_STEREO_COUNT>
0
> <PUBCHEM_ISOTOPIC_ATOM_COUNT>
0
> <PUBCHEM_COMPONENT_COUNT>
1
> <PUBCHEM_CACTVS_TAUTO_COUNT>
-1
> <PUBCHEM_COORDINATE_TYPE>
1
5
255
> <PUBCHEM_BONDANNOTATIONS>
11  17  6
16  2  5
20  29  8
20  30  8
21  23  8
21  25  8
23  28  8
25  31  8
28  32  8
29  33  8
30  34  8
31  32  8
33  36  8
34  36  8
18  7  6
$$$$
