514550
  -OEChem-10302200282D
 86 90  0     1  0  0  0  0  0999 V2000
    9.4621    0.6812    0.0000 S   0  0  0  0  0  0  0  0  0  0  0  0
    9.8281   -2.3576    0.0000 O   0  0  0  0  0  0  0  0  0  0  0  0
    6.6668    1.0684    0.0000 O   0  0  0  0  0  0  0  0  0  0  0  0
    6.9941   -1.5570    0.0000 O   0  0  0  0  0  0  0  0  0  0  0  0
    8.0961   -5.3576    0.0000 O   0  0  0  0  0  0  0  0  0  0  0  0
    5.9236    1.7376    0.0000 O   0  0  0  0  0  0  0  0  0  0  0  0
    4.4374    3.0758    0.0000 O   0  0  0  0  0  0  0  0  0  0  0  0
    8.1531   -0.2698    0.0000 N   0  0  0  0  0  0  0  0  0  0  0  0
    8.0961   -2.3576    0.0000 N   0  0  0  0  0  0  0  0  0  0  0  0
    4.7647    0.4504    0.0000 N   0  0  0  0  0  0  0  0  0  0  0  0
    9.7711   -0.2698    0.0000 C   0  0  0  0  0  0  0  0  0  0  0  0
    8.9621   -0.8576    0.0000 C   0  0  1  0  0  0  0  0  0  0  0  0
    8.4621    0.6812    0.0000 C   0  0  0  0  0  0  0  0  0  0  0  0
   10.7222    0.0392    0.0000 C   0  0  0  0  0  0  0  0  0  0  0  0
   10.3589   -1.0788    0.0000 C   0  0  0  0  0  0  0  0  0  0  0  0
    8.9621   -1.8576    0.0000 C   0  0  0  0  0  0  0  0  0  0  0  0
    7.2020   -0.5788    0.0000 C   0  0  0  0  0  0  0  0  0  0  0  0
    6.4589    0.0903    0.0000 C   0  0  2  0  0  0  0  0  0  0  0  0
    8.0961   -3.3576    0.0000 C   0  0  1  0  0  0  0  0  0  0  0  0
    5.5078   -0.2187    0.0000 C   0  0  2  0  0  0  0  0  0  0  0  0
    8.9621   -3.8576    0.0000 C   0  0  0  0  0  0  0  0  0  0  0  0
    7.2300   -3.8576    0.0000 C   0  0  0  0  0  0  0  0  0  0  0  0
    5.2999   -1.1969    0.0000 C   0  0  0  0  0  0  0  0  0  0  0  0
    8.9621   -4.8576    0.0000 C   0  0  0  0  0  0  0  0  0  0  0  0
    7.2300   -4.8576    0.0000 C   0  0  0  0  0  0  0  0  0  0  0  0
    6.3361   -3.3229    0.0000 C   0  0  0  0  0  0  0  0  0  0  0  0
    4.3488   -1.5059    0.0000 C   0  0  0  0  0  0  0  0  0  0  0  0
    6.3361   -5.3922    0.0000 C   0  0  0  0  0  0  0  0  0  0  0  0
    4.9726    1.4286    0.0000 C   0  0  0  0  0  0  0  0  0  0  0  0
    5.4300   -3.8368    0.0000 C   0  0  0  0  0  0  0  0  0  0  0  0
    5.4300   -4.8784    0.0000 C   0  0  0  0  0  0  0  0  0  0  0  0
    4.1409   -2.4840    0.0000 C   0  0  0  0  0  0  0  0  0  0  0  0
    3.6057   -0.8367    0.0000 C   0  0  0  0  0  0  0  0  0  0  0  0
    4.2294    2.0977    0.0000 C   0  0  0  0  0  0  0  0  0  0  0  0
    3.1899   -2.7930    0.0000 C   0  0  0  0  0  0  0  0  0  0  0  0
    2.6546   -1.1458    0.0000 C   0  0  0  0  0  0  0  0  0  0  0  0
    2.4467   -2.1239    0.0000 C   0  0  0  0  0  0  0  0  0  0  0  0
    3.6942    3.7450    0.0000 C   0  0  0  0  0  0  0  0  0  0  0  0
    2.7431    3.4360    0.0000 C   0  0  0  0  0  0  0  0  0  0  0  0
    3.9021    4.7231    0.0000 C   0  0  0  0  0  0  0  0  0  0  0  0
    2.0000    4.1051    0.0000 C   0  0  0  0  0  0  0  0  0  0  0  0
    3.1590    5.3922    0.0000 C   0  0  0  0  0  0  0  0  0  0  0  0
    2.5352    2.4578    0.0000 C   0  0  0  0  0  0  0  0  0  0  0  0
    4.8532    5.0321    0.0000 C   0  0  0  0  0  0  0  0  0  0  0  0
    2.2079    5.0832    0.0000 C   0  0  0  0  0  0  0  0  0  0  0  0
    8.4097   -1.1391    0.0000 H   0  0  0  0  0  0  0  0  0  0  0  0
    8.5269    1.2978    0.0000 H   0  0  0  0  0  0  0  0  0  0  0  0
    7.8556    0.8102    0.0000 H   0  0  0  0  0  0  0  0  0  0  0  0
   10.9138   -0.5504    0.0000 H   0  0  0  0  0  0  0  0  0  0  0  0
   11.3118    0.2308    0.0000 H   0  0  0  0  0  0  0  0  0  0  0  0
   10.5306    0.6289    0.0000 H   0  0  0  0  0  0  0  0  0  0  0  0
    9.8573   -1.4432    0.0000 H   0  0  0  0  0  0  0  0  0  0  0  0
   10.7233   -1.5804    0.0000 H   0  0  0  0  0  0  0  0  0  0  0  0
   10.8605   -0.7144    0.0000 H   0  0  0  0  0  0  0  0  0  0  0  0
    7.0485    0.2819    0.0000 H   0  0  0  0  0  0  0  0  0  0  0  0
    7.5591   -3.0476    0.0000 H   0  0  0  0  0  0  0  0  0  0  0  0
    7.5591   -2.0476    0.0000 H   0  0  0  0  0  0  0  0  0  0  0  0
    5.6367    0.3877    0.0000 H   0  0  0  0  0  0  0  0  0  0  0  0
    9.5727   -3.9652    0.0000 H   0  0  0  0  0  0  0  0  0  0  0  0
    9.1741   -3.2750    0.0000 H   0  0  0  0  0  0  0  0  0  0  0  0
    5.3862   -1.8108    0.0000 H   0  0  0  0  0  0  0  0  0  0  0  0
    5.9195   -1.2185    0.0000 H   0  0  0  0  0  0  0  0  0  0  0  0
    9.1741   -5.4402    0.0000 H   0  0  0  0  0  0  0  0  0  0  0  0
    9.5727   -4.7499    0.0000 H   0  0  0  0  0  0  0  0  0  0  0  0
    4.1750    0.2588    0.0000 H   0  0  0  0  0  0  0  0  0  0  0  0
    7.2564    1.2600    0.0000 H   0  0  0  0  0  0  0  0  0  0  0  0
    6.3433   -2.7030    0.0000 H   0  0  0  0  0  0  0  0  0  0  0  0
    6.3433   -6.0122    0.0000 H   0  0  0  0  0  0  0  0  0  0  0  0
    4.8943   -3.5247    0.0000 H   0  0  0  0  0  0  0  0  0  0  0  0
    4.8943   -5.1905    0.0000 H   0  0  0  0  0  0  0  0  0  0  0  0
    4.6017   -2.8989    0.0000 H   0  0  0  0  0  0  0  0  0  0  0  0
    3.7346   -0.2303    0.0000 H   0  0  0  0  0  0  0  0  0  0  0  0
    3.6546    2.3300    0.0000 H   0  0  0  0  0  0  0  0  0  0  0  0
    3.9009    1.5719    0.0000 H   0  0  0  0  0  0  0  0  0  0  0  0
    3.0610   -3.3995    0.0000 H   0  0  0  0  0  0  0  0  0  0  0  0
    2.1939   -0.7309    0.0000 H   0  0  0  0  0  0  0  0  0  0  0  0
    1.8571   -2.3155    0.0000 H   0  0  0  0  0  0  0  0  0  0  0  0
    1.4103    3.9135    0.0000 H   0  0  0  0  0  0  0  0  0  0  0  0
    3.2879    5.9987    0.0000 H   0  0  0  0  0  0  0  0  0  0  0  0
    1.9288    2.5867    0.0000 H   0  0  0  0  0  0  0  0  0  0  0  0
    2.4063    1.8514    0.0000 H   0  0  0  0  0  0  0  0  0  0  0  0
    3.1417    2.3289    0.0000 H   0  0  0  0  0  0  0  0  0  0  0  0
    5.0448    4.4425    0.0000 H   0  0  0  0  0  0  0  0  0  0  0  0
    5.4428    5.2237    0.0000 H   0  0  0  0  0  0  0  0  0  0  0  0
    4.6616    5.6218    0.0000 H   0  0  0  0  0  0  0  0  0  0  0  0
    1.7472    5.4981    0.0000 H   0  0  0  0  0  0  0  0  0  0  0  0
  1 11  1  0  0  0  0
  1 13  1  0  0  0  0
  2 16  2  0  0  0  0
 18  3  1  6  0  0  0
  3 66  1  0  0  0  0
  4 17  2  0  0  0  0
  5 24  1  0  0  0  0
  5 25  1  0  0  0  0
  6 29  2  0  0  0  0
  7 34  1  0  0  0  0
  7 38  1  0  0  0  0
  8 12  1  0  0  0  0
  8 13  1  0  0  0  0
  8 17  1  0  0  0  0
  9 16  1  0  0  0  0
 19  9  1  1  0  0  0
  9 57  1  0  0  0  0
 20 10  1  6  0  0  0
 10 29  1  0  0  0  0
 10 65  1  0  0  0  0
 11 12  1  0  0  0  0
 11 14  1  0  0  0  0
 11 15  1  0  0  0  0
 12 16  1  1  0  0  0
 12 46  1  0  0  0  0
 13 47  1  0  0  0  0
 13 48  1  0  0  0  0
 14 49  1  0  0  0  0
 14 50  1  0  0  0  0
 14 51  1  0  0  0  0
 15 52  1  0  0  0  0
 15 53  1  0  0  0  0
 15 54  1  0  0  0  0
 17 18  1  0  0  0  0
 18 20  1  0  0  0  0
 18 55  1  0  0  0  0
 19 21  1  0  0  0  0
 19 22  1  0  0  0  0
 19 56  1  0  0  0  0
 20 23  1  0  0  0  0
 20 58  1  0  0  0  0
 21 24  1  0  0  0  0
 21 59  1  0  0  0  0
 21 60  1  0  0  0  0
 22 25  1  0  0  0  0
 22 26  2  0  0  0  0
 23 27  1  0  0  0  0
 23 61  1  0  0  0  0
 23 62  1  0  0  0  0
 24 63  1  0  0  0  0
 24 64  1  0  0  0  0
 25 28  2  0  0  0  0
 26 30  1  0  0  0  0
 26 67  1  0  0  0  0
 27 32  2  0  0  0  0
 27 33  1  0  0  0  0
 28 31  1  0  0  0  0
 28 68  1  0  0  0  0
 29 34  1  0  0  0  0
 30 31  2  0  0  0  0
 30 69  1  0  0  0  0
 31 70  1  0  0  0  0
 32 35  1  0  0  0  0
 32 71  1  0  0  0  0
 33 36  2  0  0  0  0
 33 72  1  0  0  0  0
 34 73  1  0  0  0  0
 34 74  1  0  0  0  0
 35 37  2  0  0  0  0
 35 75  1  0  0  0  0
 36 37  1  0  0  0  0
 36 76  1  0  0  0  0
 37 77  1  0  0  0  0
 38 39  2  0  0  0  0
 38 40  1  0  0  0  0
 39 41  1  0  0  0  0
 39 43  1  0  0  0  0
 40 42  2  0  0  0  0
 40 44  1  0  0  0  0
 41 45  2  0  0  0  0
 41 78  1  0  0  0  0
 42 45  1  0  0  0  0
 42 79  1  0  0  0  0
 43 80  1  0  0  0  0
 43 81  1  0  0  0  0
 43 82  1  0  0  0  0
 44 83  1  0  0  0  0
 44 84  1  0  0  0  0
 44 85  1  0  0  0  0
 45 86  1  0  0  0  0
M  END
> <PUBCHEM_COMPOUND_CID>
514550
> <PUBCHEM_COMPOUND_CANONICALIZED>
1
> <PUBCHEM_CACTVS_COMPLEXITY>
1010
> <PUBCHEM_CACTVS_HBOND_ACCEPTOR>
7
> <PUBCHEM_CACTVS_HBOND_DONOR>
3
> <PUBCHEM_CACTVS_ROTATABLE_BOND>
10
> <PUBCHEM_CACTVS_SUBSKEYS>
AAADcfB/OABAAAAAAAAAAAAAAAAAAWAAAAA0YMEAAAAAAACRUAAAHgQQCAAADDzh2AayBoPABgiIAiFSEAKCCABgIBAIiIHODIgOdjqk8T+XeCjm1hGYqAeYyOCOAAACAAAIAAAAAAQAABAAAAAAAAAAAA==
> <PUBCHEM_IUPAC_OPENEYE_NAME>
(4R)-N-[(4S)-chroman-4-yl]-3-[(2S,3S)-3-[[2-(2,6-dimethylphenoxy)acetyl]amino]-2-hydroxy-4-phenyl-butanoyl]-5,5-dimethyl-thiazolidine-4-carboxamide
> <PUBCHEM_IUPAC_CAS_NAME>
(4R)-N-[(4S)-3,4-dihydro-2H-1-benzopyran-4-yl]-3-[(2S,3S)-3-[[2-(2,6-dimethylphenoxy)-1-oxoethyl]amino]-2-hydroxy-1-oxo-4-phenylbutyl]-5,5-dimethyl-4-thiazolidinecarboxamide
> <PUBCHEM_IUPAC_NAME_MARKUP>
(4<I>R</I>)-<I>N</I>-[(4<I>S</I>)-3,4-dihydro-2<I>H</I>-chromen-4-yl]-3-[(2<I>S</I>,3<I>S</I>)-3-[[2-(2,6-dimethylphenoxy)acetyl]amino]-2-hydroxy-4-phenylbutanoyl]-5,5-dimethyl-1,3-thiazolidine-4-carboxamide
> <PUBCHEM_IUPAC_NAME>
(4R)-N-[(4S)-3,4-dihydro-2H-chromen-4-yl]-3-[(2S,3S)-3-[[2-(2,6-dimethylphenoxy)acetyl]amino]-2-hydroxy-4-phenylbutanoyl]-5,5-dimethyl-1,3-thiazolidine-4-carboxamide
> <PUBCHEM_IUPAC_SYSTEMATIC_NAME>
(4R)-N-[(4S)-3,4-dihydro-2H-chromen-4-yl]-3-[(2S,3S)-3-[2-(2,6-dimethylphenoxy)ethanoylamino]-2-oxidanyl-4-phenyl-butanoyl]-5,5-dimethyl-1,3-thiazolidine-4-carboxamide
> <PUBCHEM_IUPAC_TRADITIONAL_NAME>
(4R)-N-[(4S)-chroman-4-yl]-3-[(2S,3S)-3-[[2-(2,6-dimethylphenoxy)acetyl]amino]-2-hydroxy-4-phenyl-butanoyl]-5,5-dimethyl-thiazolidine-4-carboxamide
> <PUBCHEM_IUPAC_INCHI>
InChI=1S/C35H41N3O6S/c1-22-11-10-12-23(2)31(22)44-20-29(39)36-27(19-24-13-6-5-7-14-24)30(40)34(42)38-21-45-35(3,4)32(38)33(41)37-26-17-18-43-28-16-9-8-15-25(26)28/h5-16,26-27,30,32,40H,17-21H2,1-4H3,(H,36,39)(H,37,41)/t26-,27-,30-,32+/m0/s1
> <PUBCHEM_IUPAC_INCHIKEY>
HZYRHPQSNBRSLS-LAGBJPIOSA-N
> <PUBCHEM_XLOGP3_AA>
5
> <PUBCHEM_EXACT_MASS>
631.27160721
> <PUBCHEM_MOLECULAR_FORMULA>
C35H41N3O6S
> <PUBCHEM_MOLECULAR_WEIGHT>
631.8
> <PUBCHEM_OPENEYE_CAN_SMILES>
CC1=C(C(=CC=C1)C)OCC(=O)NC(CC2=CC=CC=C2)C(C(=O)N3CSC(C3C(=O)NC4CCOC5=CC=CC=C45)(C)C)O
> <PUBCHEM_OPENEYE_ISO_SMILES>
CC1=C(C(=CC=C1)C)OCC(=O)N[C@@H](CC2=CC=CC=C2)[C@@H](C(=O)N3CSC([C@H]3C(=O)N[C@H]4CCOC5=CC=CC=C45)(C)C)O
> <PUBCHEM_CACTVS_TPSA>
143
> <PUBCHEM_MONOISOTOPIC_WEIGHT>
631.27160721
> <PUBCHEM_TOTAL_CHARGE>
0
> <PUBCHEM_HEAVY_ATOM_COUNT>
45
> <PUBCHEM_ATOM_DEF_STEREO_COUNT>
4
> <PUBCHEM_ATOM_UDEF_STEREO_COUNT>
0
> <PUBCHEM_BOND_DEF_STEREO_COUNT>
0
> <PUBCHEM_BOND_UDEF_STEREO_COUNT>
0
> <PUBCHEM_ISOTOPIC_ATOM_COUNT>
0
> <PUBCHEM_COMPONENT_COUNT>
1
> <PUBCHEM_CACTVS_TAUTO_COUNT>
-1
> <PUBCHEM_COORDINATE_TYPE>
1
5
255
> <PUBCHEM_BONDANNOTATIONS>
20  10  6
12  16  5
22  25  8
22  26  8
25  28  8
26  30  8
27  32  8
27  33  8
28  31  8
18  3  6
30  31  8
32  35  8
33  36  8
35  37  8
36  37  8
38  39  8
38  40  8
39  41  8
40  42  8
41  45  8
42  45  8
19  9  5
$$$$
