514586
  -OEChem-10302200282D
 71 74  0     1  0  0  0  0  0999 V2000
    8.3916    3.0612    0.0000 S   0  0  0  0  0  0  0  0  0  0  0  0
    9.6237    0.5224    0.0000 O   0  0  0  0  0  0  0  0  0  0  0  0
    7.0256    0.0224    0.0000 O   0  0  0  0  0  0  0  0  0  0  0  0
    5.9236    0.8230    0.0000 O   0  0  0  0  0  0  0  0  0  0  0  0
   10.4897    0.0224    0.0000 O   0  0  0  0  0  0  0  0  0  0  0  0
    7.8916    1.5224    0.0000 N   0  0  0  0  0  0  0  0  0  0  0  0
    5.3884    2.4702    0.0000 N   0  0  0  0  0  0  0  0  0  0  0  0
    9.6237   -1.4776    0.0000 N   0  0  0  0  0  0  0  0  0  0  0  0
   12.2693   -1.0709    0.0000 N   0  0  0  0  0  0  0  0  0  0  0  0
    2.2079    4.1686    0.0000 N   0  0  0  0  0  0  0  0  0  0  0  0
    7.3916    3.0612    0.0000 C   0  0  0  0  0  0  0  0  0  0  0  0
    7.0826    2.1101    0.0000 C   0  0  1  0  0  0  0  0  0  0  0  0
    8.7006    2.1101    0.0000 C   0  0  0  0  0  0  0  0  0  0  0  0
    7.3916    4.0612    0.0000 C   0  0  0  0  0  0  0  0  0  0  0  0
    6.4406    3.3702    0.0000 C   0  0  0  0  0  0  0  0  0  0  0  0
    7.8916    0.5224    0.0000 C   0  0  0  0  0  0  0  0  0  0  0  0
    6.1316    1.8011    0.0000 C   0  0  0  0  0  0  0  0  0  0  0  0
    8.7576    0.0224    0.0000 C   0  0  2  0  0  0  0  0  0  0  0  0
    8.7576   -0.9776    0.0000 C   0  0  2  0  0  0  0  0  0  0  0  0
    7.8916   -1.4776    0.0000 C   0  0  0  0  0  0  0  0  0  0  0  0
    4.4374    2.1612    0.0000 C   0  0  0  0  0  0  0  0  0  0  0  0
    7.8916   -2.4776    0.0000 C   0  0  0  0  0  0  0  0  0  0  0  0
   10.4897   -0.9776    0.0000 C   0  0  0  0  0  0  0  0  0  0  0  0
    3.6942    2.8304    0.0000 C   0  0  0  0  0  0  0  0  0  0  0  0
    8.7576   -2.9776    0.0000 C   0  0  0  0  0  0  0  0  0  0  0  0
    7.0256   -2.9776    0.0000 C   0  0  0  0  0  0  0  0  0  0  0  0
   11.3557   -1.4776    0.0000 C   0  0  0  0  0  0  0  0  0  0  0  0
    8.7576   -3.9776    0.0000 C   0  0  0  0  0  0  0  0  0  0  0  0
    7.0256   -3.9776    0.0000 C   0  0  0  0  0  0  0  0  0  0  0  0
    3.9021    3.8085    0.0000 C   0  0  0  0  0  0  0  0  0  0  0  0
    2.7431    2.5214    0.0000 C   0  0  0  0  0  0  0  0  0  0  0  0
   11.4603   -2.4722    0.0000 C   0  0  0  0  0  0  0  0  0  0  0  0
    7.8916   -4.4776    0.0000 C   0  0  0  0  0  0  0  0  0  0  0  0
   12.9384   -1.8140    0.0000 C   0  0  0  0  0  0  0  0  0  0  0  0
   12.4384   -2.6801    0.0000 C   0  0  0  0  0  0  0  0  0  0  0  0
   12.4772   -0.0928    0.0000 C   0  0  0  0  0  0  0  0  0  0  0  0
    3.1590    4.4776    0.0000 C   0  0  0  0  0  0  0  0  0  0  0  0
    2.0000    3.1905    0.0000 C   0  0  0  0  0  0  0  0  0  0  0  0
    6.9856    1.4978    0.0000 H   0  0  0  0  0  0  0  0  0  0  0  0
    9.0106    1.5732    0.0000 H   0  0  0  0  0  0  0  0  0  0  0  0
    9.2670    2.3623    0.0000 H   0  0  0  0  0  0  0  0  0  0  0  0
    8.0116    4.0612    0.0000 H   0  0  0  0  0  0  0  0  0  0  0  0
    7.3916    4.6812    0.0000 H   0  0  0  0  0  0  0  0  0  0  0  0
    6.7716    4.0612    0.0000 H   0  0  0  0  0  0  0  0  0  0  0  0
    6.6322    3.9599    0.0000 H   0  0  0  0  0  0  0  0  0  0  0  0
    5.8509    3.5618    0.0000 H   0  0  0  0  0  0  0  0  0  0  0  0
    6.2490    2.7806    0.0000 H   0  0  0  0  0  0  0  0  0  0  0  0
    8.7576    0.6424    0.0000 H   0  0  0  0  0  0  0  0  0  0  0  0
    9.2946   -0.6676    0.0000 H   0  0  0  0  0  0  0  0  0  0  0  0
    7.6796   -0.8950    0.0000 H   0  0  0  0  0  0  0  0  0  0  0  0
    7.2810   -1.5853    0.0000 H   0  0  0  0  0  0  0  0  0  0  0  0
    5.5173    3.0767    0.0000 H   0  0  0  0  0  0  0  0  0  0  0  0
    9.6237   -2.0976    0.0000 H   0  0  0  0  0  0  0  0  0  0  0  0
    3.9488    1.7795    0.0000 H   0  0  0  0  0  0  0  0  0  0  0  0
    4.7284    1.6138    0.0000 H   0  0  0  0  0  0  0  0  0  0  0  0
    9.6237    1.1424    0.0000 H   0  0  0  0  0  0  0  0  0  0  0  0
    9.2946   -2.6676    0.0000 H   0  0  0  0  0  0  0  0  0  0  0  0
    6.4887   -2.6676    0.0000 H   0  0  0  0  0  0  0  0  0  0  0  0
    9.2946   -4.2876    0.0000 H   0  0  0  0  0  0  0  0  0  0  0  0
    6.4887   -4.2876    0.0000 H   0  0  0  0  0  0  0  0  0  0  0  0
    4.4918    4.0001    0.0000 H   0  0  0  0  0  0  0  0  0  0  0  0
    2.6142    1.9149    0.0000 H   0  0  0  0  0  0  0  0  0  0  0  0
   10.9995   -2.8870    0.0000 H   0  0  0  0  0  0  0  0  0  0  0  0
    7.8916   -5.0976    0.0000 H   0  0  0  0  0  0  0  0  0  0  0  0
   13.5550   -1.7492    0.0000 H   0  0  0  0  0  0  0  0  0  0  0  0
   12.6906   -3.2465    0.0000 H   0  0  0  0  0  0  0  0  0  0  0  0
   13.0836   -0.2217    0.0000 H   0  0  0  0  0  0  0  0  0  0  0  0
   12.6061    0.5137    0.0000 H   0  0  0  0  0  0  0  0  0  0  0  0
   11.8707    0.0361    0.0000 H   0  0  0  0  0  0  0  0  0  0  0  0
    3.2879    5.0841    0.0000 H   0  0  0  0  0  0  0  0  0  0  0  0
    1.4103    2.9989    0.0000 H   0  0  0  0  0  0  0  0  0  0  0  0
  1 11  1  0  0  0  0
  1 13  1  0  0  0  0
 18  2  1  1  0  0  0
  2 56  1  0  0  0  0
  3 16  2  0  0  0  0
  4 17  2  0  0  0  0
  5 23  2  0  0  0  0
  6 12  1  0  0  0  0
  6 13  1  0  0  0  0
  6 16  1  0  0  0  0
  7 17  1  0  0  0  0
  7 21  1  0  0  0  0
  7 52  1  0  0  0  0
 19  8  1  1  0  0  0
  8 23  1  0  0  0  0
  8 53  1  0  0  0  0
  9 27  1  0  0  0  0
  9 34  1  0  0  0  0
  9 36  1  0  0  0  0
 10 37  2  0  0  0  0
 10 38  1  0  0  0  0
 11 12  1  0  0  0  0
 11 14  1  0  0  0  0
 11 15  1  0  0  0  0
 12 17  1  6  0  0  0
 12 39  1  0  0  0  0
 13 40  1  0  0  0  0
 13 41  1  0  0  0  0
 14 42  1  0  0  0  0
 14 43  1  0  0  0  0
 14 44  1  0  0  0  0
 15 45  1  0  0  0  0
 15 46  1  0  0  0  0
 15 47  1  0  0  0  0
 16 18  1  0  0  0  0
 18 19  1  0  0  0  0
 18 48  1  0  0  0  0
 19 20  1  0  0  0  0
 19 49  1  0  0  0  0
 20 22  1  0  0  0  0
 20 50  1  0  0  0  0
 20 51  1  0  0  0  0
 21 24  1  0  0  0  0
 21 54  1  0  0  0  0
 21 55  1  0  0  0  0
 22 25  2  0  0  0  0
 22 26  1  0  0  0  0
 23 27  1  0  0  0  0
 24 30  2  0  0  0  0
 24 31  1  0  0  0  0
 25 28  1  0  0  0  0
 25 57  1  0  0  0  0
 26 29  2  0  0  0  0
 26 58  1  0  0  0  0
 27 32  2  0  0  0  0
 28 33  2  0  0  0  0
 28 59  1  0  0  0  0
 29 33  1  0  0  0  0
 29 60  1  0  0  0  0
 30 37  1  0  0  0  0
 30 61  1  0  0  0  0
 31 38  2  0  0  0  0
 31 62  1  0  0  0  0
 32 35  1  0  0  0  0
 32 63  1  0  0  0  0
 33 64  1  0  0  0  0
 34 35  2  0  0  0  0
 34 65  1  0  0  0  0
 35 66  1  0  0  0  0
 36 67  1  0  0  0  0
 36 68  1  0  0  0  0
 36 69  1  0  0  0  0
 37 70  1  0  0  0  0
 38 71  1  0  0  0  0
M  END
> <PUBCHEM_COMPOUND_CID>
514586
> <PUBCHEM_COMPOUND_CANONICALIZED>
1
> <PUBCHEM_CACTVS_COMPLEXITY>
830
> <PUBCHEM_CACTVS_HBOND_ACCEPTOR>
6
> <PUBCHEM_CACTVS_HBOND_DONOR>
3
> <PUBCHEM_CACTVS_ROTATABLE_BOND>
9
> <PUBCHEM_CACTVS_SUBSKEYS>
AAADcfB7uABAAAAAAAAAAAAAAAAAAWLAAAA8QAAAAAAAAAAB8AAAHgQQCAAADDzh3ga+gJPMEgioAzV3VAKCgCB3AjAI2KH4ZNgKcPrg1bGUYQhklgDYyYeYyaCOAAAAAAAAAAAAAAAAAAAAAAAAAAAAAA==
> <PUBCHEM_IUPAC_OPENEYE_NAME>
(4R)-3-[(2S,3S)-2-hydroxy-3-[(1-methylpyrrole-2-carbonyl)amino]-4-phenyl-butanoyl]-5,5-dimethyl-N-(4-pyridylmethyl)thiazolidine-4-carboxamide
> <PUBCHEM_IUPAC_CAS_NAME>
(4R)-3-[(2S,3S)-2-hydroxy-3-[[(1-methyl-2-pyrrolyl)-oxomethyl]amino]-1-oxo-4-phenylbutyl]-5,5-dimethyl-N-(pyridin-4-ylmethyl)-4-thiazolidinecarboxamide
> <PUBCHEM_IUPAC_NAME_MARKUP>
(4<I>R</I>)-3-[(2<I>S</I>,3<I>S</I>)-2-hydroxy-3-[(1-methylpyrrole-2-carbonyl)amino]-4-phenylbutanoyl]-5,5-dimethyl-<I>N</I>-(pyridin-4-ylmethyl)-1,3-thiazolidine-4-carboxamide
> <PUBCHEM_IUPAC_NAME>
(4R)-3-[(2S,3S)-2-hydroxy-3-[(1-methylpyrrole-2-carbonyl)amino]-4-phenylbutanoyl]-5,5-dimethyl-N-(pyridin-4-ylmethyl)-1,3-thiazolidine-4-carboxamide
> <PUBCHEM_IUPAC_SYSTEMATIC_NAME>
(4R)-5,5-dimethyl-3-[(2S,3S)-3-[(1-methylpyrrol-2-yl)carbonylamino]-2-oxidanyl-4-phenyl-butanoyl]-N-(pyridin-4-ylmethyl)-1,3-thiazolidine-4-carboxamide
> <PUBCHEM_IUPAC_TRADITIONAL_NAME>
(4R)-3-[(2S,3S)-2-hydroxy-3-[(1-methylpyrrole-2-carbonyl)amino]-4-phenyl-butanoyl]-5,5-dimethyl-N-(4-pyridylmethyl)thiazolidine-4-carboxamide
> <PUBCHEM_IUPAC_INCHI>
InChI=1S/C28H33N5O4S/c1-28(2)24(26(36)30-17-20-11-13-29-14-12-20)33(18-38-28)27(37)23(34)21(16-19-8-5-4-6-9-19)31-25(35)22-10-7-15-32(22)3/h4-15,21,23-24,34H,16-18H2,1-3H3,(H,30,36)(H,31,35)/t21-,23-,24+/m0/s1
> <PUBCHEM_IUPAC_INCHIKEY>
MWVPKVGULHTNFP-OEMFJLHTSA-N
> <PUBCHEM_XLOGP3_AA>
2.1
> <PUBCHEM_EXACT_MASS>
535.22532572
> <PUBCHEM_MOLECULAR_FORMULA>
C28H33N5O4S
> <PUBCHEM_MOLECULAR_WEIGHT>
535.7
> <PUBCHEM_OPENEYE_CAN_SMILES>
CC1(C(N(CS1)C(=O)C(C(CC2=CC=CC=C2)NC(=O)C3=CC=CN3C)O)C(=O)NCC4=CC=NC=C4)C
> <PUBCHEM_OPENEYE_ISO_SMILES>
CC1([C@H](N(CS1)C(=O)[C@H]([C@H](CC2=CC=CC=C2)NC(=O)C3=CC=CN3C)O)C(=O)NCC4=CC=NC=C4)C
> <PUBCHEM_CACTVS_TPSA>
142
> <PUBCHEM_MONOISOTOPIC_WEIGHT>
535.22532572
> <PUBCHEM_TOTAL_CHARGE>
0
> <PUBCHEM_HEAVY_ATOM_COUNT>
38
> <PUBCHEM_ATOM_DEF_STEREO_COUNT>
3
> <PUBCHEM_ATOM_UDEF_STEREO_COUNT>
0
> <PUBCHEM_BOND_DEF_STEREO_COUNT>
0
> <PUBCHEM_BOND_UDEF_STEREO_COUNT>
0
> <PUBCHEM_ISOTOPIC_ATOM_COUNT>
0
> <PUBCHEM_COMPONENT_COUNT>
1
> <PUBCHEM_CACTVS_TAUTO_COUNT>
-1
> <PUBCHEM_COORDINATE_TYPE>
1
5
255
> <PUBCHEM_BONDANNOTATIONS>
10  37  8
10  38  8
12  17  6
18  2  5
22  25  8
22  26  8
24  30  8
24  31  8
25  28  8
26  29  8
27  32  8
28  33  8
29  33  8
30  37  8
31  38  8
32  35  8
34  35  8
19  8  5
9  27  8
9  34  8
$$$$
