514572
  -OEChem-10302200282D
 82 85  0     1  0  0  0  0  0999 V2000
    4.2067    2.8234    0.0000 S   0  0  0  0  0  0  0  0  0  0  0  0
   10.1195    5.6598    0.0000 F   0  0  0  0  0  0  0  0  0  0  0  0
   11.1195    4.6598    0.0000 F   0  0  0  0  0  0  0  0  0  0  0  0
    9.1195    4.6598    0.0000 F   0  0  0  0  0  0  0  0  0  0  0  0
    2.0740   -4.0866    0.0000 F   0  0  0  0  0  0  0  0  0  0  0  0
    2.0000   -2.6743    0.0000 F   0  0  0  0  0  0  0  0  0  0  0  0
    3.4123   -2.6003    0.0000 F   0  0  0  0  0  0  0  0  0  0  0  0
    5.2690    0.2090    0.0000 O   0  0  0  0  0  0  0  0  0  0  0  0
    6.6554    4.6598    0.0000 O   0  0  0  0  0  0  0  0  0  0  0  0
    7.3790    1.8052    0.0000 O   0  0  0  0  0  0  0  0  0  0  0  0
    5.0611   -0.7691    0.0000 O   0  0  0  0  0  0  0  0  0  0  0  0
    5.6848    2.1653    0.0000 N   0  0  0  0  0  0  0  0  0  0  0  0
    7.5214    3.1598    0.0000 N   0  0  0  0  0  0  0  0  0  0  0  0
    6.7553   -1.1292    0.0000 N   0  0  0  0  0  0  0  0  0  0  0  0
    5.5963   -2.4164    0.0000 N   0  0  0  0  0  0  0  0  0  0  0  0
    4.8758    3.5666    0.0000 C   0  0  0  0  0  0  0  0  0  0  0  0
    5.7893    3.1598    0.0000 C   0  0  1  0  0  0  0  0  0  0  0  0
    4.7067    1.9574    0.0000 C   0  0  0  0  0  0  0  0  0  0  0  0
    4.1326    4.2357    0.0000 C   0  0  0  0  0  0  0  0  0  0  0  0
    5.2825    4.4801    0.0000 C   0  0  0  0  0  0  0  0  0  0  0  0
    6.6554    3.6598    0.0000 C   0  0  0  0  0  0  0  0  0  0  0  0
    6.4280    1.4962    0.0000 C   0  0  0  0  0  0  0  0  0  0  0  0
    6.2200    0.5181    0.0000 C   0  0  2  0  0  0  0  0  0  0  0  0
    6.9632   -0.1511    0.0000 C   0  0  2  0  0  0  0  0  0  0  0  0
    7.9142    0.1579    0.0000 C   0  0  0  0  0  0  0  0  0  0  0  0
    8.3874    3.6598    0.0000 C   0  0  0  0  0  0  0  0  0  0  0  0
    8.6574   -0.5112    0.0000 C   0  0  0  0  0  0  0  0  0  0  0  0
    9.2535    3.1598    0.0000 C   0  0  0  0  0  0  0  0  0  0  0  0
    5.8042   -1.4382    0.0000 C   0  0  0  0  0  0  0  0  0  0  0  0
    9.6084   -0.2022    0.0000 C   0  0  0  0  0  0  0  0  0  0  0  0
    8.4495   -1.4893    0.0000 C   0  0  0  0  0  0  0  0  0  0  0  0
   10.1195    3.6598    0.0000 C   0  0  0  0  0  0  0  0  0  0  0  0
    9.2535    2.1598    0.0000 C   0  0  0  0  0  0  0  0  0  0  0  0
   10.3516   -0.8713    0.0000 C   0  0  0  0  0  0  0  0  0  0  0  0
    9.1926   -2.1585    0.0000 C   0  0  0  0  0  0  0  0  0  0  0  0
    4.6453   -2.7254    0.0000 C   0  0  0  0  0  0  0  0  0  0  0  0
   10.9855    3.1598    0.0000 C   0  0  0  0  0  0  0  0  0  0  0  0
   10.1437   -1.8494    0.0000 C   0  0  0  0  0  0  0  0  0  0  0  0
   10.1195    4.6598    0.0000 C   0  0  0  0  0  0  0  0  0  0  0  0
   10.1195    1.6598    0.0000 C   0  0  0  0  0  0  0  0  0  0  0  0
   10.9855    2.1598    0.0000 C   0  0  0  0  0  0  0  0  0  0  0  0
    4.4374   -3.7036    0.0000 C   0  0  0  0  0  0  0  0  0  0  0  0
    3.4863   -4.0126    0.0000 C   0  0  0  0  0  0  0  0  0  0  0  0
    5.1805   -4.3727    0.0000 C   0  0  0  0  0  0  0  0  0  0  0  0
    3.2784   -4.9907    0.0000 C   0  0  0  0  0  0  0  0  0  0  0  0
    2.7431   -3.3434    0.0000 C   0  0  0  0  0  0  0  0  0  0  0  0
    4.9726   -5.3508    0.0000 C   0  0  0  0  0  0  0  0  0  0  0  0
    4.0215   -5.6598    0.0000 C   0  0  0  0  0  0  0  0  0  0  0  0
    6.3093    2.8222    0.0000 H   0  0  0  0  0  0  0  0  0  0  0  0
    4.1403    1.7052    0.0000 H   0  0  0  0  0  0  0  0  0  0  0  0
    4.8983    1.3678    0.0000 H   0  0  0  0  0  0  0  0  0  0  0  0
    4.5475    4.6965    0.0000 H   0  0  0  0  0  0  0  0  0  0  0  0
    3.6719    4.6506    0.0000 H   0  0  0  0  0  0  0  0  0  0  0  0
    3.7178    3.7750    0.0000 H   0  0  0  0  0  0  0  0  0  0  0  0
    5.8489    4.2280    0.0000 H   0  0  0  0  0  0  0  0  0  0  0  0
    5.5347    5.0465    0.0000 H   0  0  0  0  0  0  0  0  0  0  0  0
    4.7161    4.7323    0.0000 H   0  0  0  0  0  0  0  0  0  0  0  0
    5.7593    0.9329    0.0000 H   0  0  0  0  0  0  0  0  0  0  0  0
    7.4239   -0.5659    0.0000 H   0  0  0  0  0  0  0  0  0  0  0  0
    7.5214    2.5398    0.0000 H   0  0  0  0  0  0  0  0  0  0  0  0
    8.4028    0.5396    0.0000 H   0  0  0  0  0  0  0  0  0  0  0  0
    7.6232    0.7054    0.0000 H   0  0  0  0  0  0  0  0  0  0  0  0
    7.2160   -1.5441    0.0000 H   0  0  0  0  0  0  0  0  0  0  0  0
    8.7860    4.1348    0.0000 H   0  0  0  0  0  0  0  0  0  0  0  0
    7.9889    4.1348    0.0000 H   0  0  0  0  0  0  0  0  0  0  0  0
    4.8082    0.6239    0.0000 H   0  0  0  0  0  0  0  0  0  0  0  0
    9.7374    0.4043    0.0000 H   0  0  0  0  0  0  0  0  0  0  0  0
    7.8598   -1.6809    0.0000 H   0  0  0  0  0  0  0  0  0  0  0  0
    8.7165    1.8498    0.0000 H   0  0  0  0  0  0  0  0  0  0  0  0
    6.0571   -2.8312    0.0000 H   0  0  0  0  0  0  0  0  0  0  0  0
   10.9413   -0.6797    0.0000 H   0  0  0  0  0  0  0  0  0  0  0  0
    9.0637   -2.7649    0.0000 H   0  0  0  0  0  0  0  0  0  0  0  0
    4.5590   -2.1114    0.0000 H   0  0  0  0  0  0  0  0  0  0  0  0
    4.0256   -2.7038    0.0000 H   0  0  0  0  0  0  0  0  0  0  0  0
   11.5224    3.4698    0.0000 H   0  0  0  0  0  0  0  0  0  0  0  0
   10.6044   -2.2643    0.0000 H   0  0  0  0  0  0  0  0  0  0  0  0
   10.1195    1.0398    0.0000 H   0  0  0  0  0  0  0  0  0  0  0  0
   11.5224    1.8498    0.0000 H   0  0  0  0  0  0  0  0  0  0  0  0
    5.7702   -4.1811    0.0000 H   0  0  0  0  0  0  0  0  0  0  0  0
    2.6887   -5.1823    0.0000 H   0  0  0  0  0  0  0  0  0  0  0  0
    5.4333   -5.7657    0.0000 H   0  0  0  0  0  0  0  0  0  0  0  0
    3.8926   -6.2663    0.0000 H   0  0  0  0  0  0  0  0  0  0  0  0
  1 16  1  0  0  0  0
  1 18  1  0  0  0  0
  2 39  1  0  0  0  0
  3 39  1  0  0  0  0
  4 39  1  0  0  0  0
  5 46  1  0  0  0  0
  6 46  1  0  0  0  0
  7 46  1  0  0  0  0
 23  8  1  6  0  0  0
  8 66  1  0  0  0  0
  9 21  2  0  0  0  0
 10 22  2  0  0  0  0
 11 29  2  0  0  0  0
 12 17  1  0  0  0  0
 12 18  1  0  0  0  0
 12 22  1  0  0  0  0
 13 21  1  0  0  0  0
 13 26  1  0  0  0  0
 13 60  1  0  0  0  0
 24 14  1  6  0  0  0
 14 29  1  0  0  0  0
 14 63  1  0  0  0  0
 15 29  1  0  0  0  0
 15 36  1  0  0  0  0
 15 70  1  0  0  0  0
 16 17  1  0  0  0  0
 16 19  1  0  0  0  0
 16 20  1  0  0  0  0
 17 21  1  1  0  0  0
 17 49  1  0  0  0  0
 18 50  1  0  0  0  0
 18 51  1  0  0  0  0
 19 52  1  0  0  0  0
 19 53  1  0  0  0  0
 19 54  1  0  0  0  0
 20 55  1  0  0  0  0
 20 56  1  0  0  0  0
 20 57  1  0  0  0  0
 22 23  1  0  0  0  0
 23 24  1  0  0  0  0
 23 58  1  0  0  0  0
 24 25  1  0  0  0  0
 24 59  1  0  0  0  0
 25 27  1  0  0  0  0
 25 61  1  0  0  0  0
 25 62  1  0  0  0  0
 26 28  1  0  0  0  0
 26 64  1  0  0  0  0
 26 65  1  0  0  0  0
 27 30  2  0  0  0  0
 27 31  1  0  0  0  0
 28 32  1  0  0  0  0
 28 33  2  0  0  0  0
 30 34  1  0  0  0  0
 30 67  1  0  0  0  0
 31 35  2  0  0  0  0
 31 68  1  0  0  0  0
 32 37  2  0  0  0  0
 32 39  1  0  0  0  0
 33 40  1  0  0  0  0
 33 69  1  0  0  0  0
 34 38  2  0  0  0  0
 34 71  1  0  0  0  0
 35 38  1  0  0  0  0
 35 72  1  0  0  0  0
 36 42  1  0  0  0  0
 36 73  1  0  0  0  0
 36 74  1  0  0  0  0
 37 41  1  0  0  0  0
 37 75  1  0  0  0  0
 38 76  1  0  0  0  0
 40 41  2  0  0  0  0
 40 77  1  0  0  0  0
 41 78  1  0  0  0  0
 42 43  1  0  0  0  0
 42 44  2  0  0  0  0
 43 45  2  0  0  0  0
 43 46  1  0  0  0  0
 44 47  1  0  0  0  0
 44 79  1  0  0  0  0
 45 48  1  0  0  0  0
 45 80  1  0  0  0  0
 47 48  2  0  0  0  0
 47 81  1  0  0  0  0
 48 82  1  0  0  0  0
M  END
> <PUBCHEM_COMPOUND_CID>
514572
> <PUBCHEM_COMPOUND_CANONICALIZED>
1
> <PUBCHEM_CACTVS_COMPLEXITY>
1100
> <PUBCHEM_CACTVS_HBOND_ACCEPTOR>
11
> <PUBCHEM_CACTVS_HBOND_DONOR>
4
> <PUBCHEM_CACTVS_ROTATABLE_BOND>
10
> <PUBCHEM_CACTVS_SUBSKEYS>
AAADcfB/ucBAAAAAAAAAAAAAAAAAAWAAAAAwYMAAAAAAAAABUAAAHwQQCAAADDzh2BazAIPAAgiIAiFSEAKCAABgABAIiIHIBIiKcDqg0TGUYAhslgKYiAeYyKCOgAAAAAAQAAAAAAAAACAAAAAAAAAAAA==
> <PUBCHEM_IUPAC_OPENEYE_NAME>
(4R)-3-[(2S,3S)-2-hydroxy-4-phenyl-3-[[2-(trifluoromethyl)phenyl]methylcarbamoylamino]butanoyl]-5,5-dimethyl-N-[[2-(trifluoromethyl)phenyl]methyl]thiazolidine-4-carboxamide
> <PUBCHEM_IUPAC_CAS_NAME>
(4R)-3-[(2S,3S)-2-hydroxy-1-oxo-3-[[oxo-[[2-(trifluoromethyl)phenyl]methylamino]methyl]amino]-4-phenylbutyl]-5,5-dimethyl-N-[[2-(trifluoromethyl)phenyl]methyl]-4-thiazolidinecarboxamide
> <PUBCHEM_IUPAC_NAME_MARKUP>
(4<I>R</I>)-3-[(2<I>S</I>,3<I>S</I>)-2-hydroxy-4-phenyl-3-[[2-(trifluoromethyl)phenyl]methylcarbamoylamino]butanoyl]-5,5-dimethyl-<I>N</I>-[[2-(trifluoromethyl)phenyl]methyl]-1,3-thiazolidine-4-carboxamide
> <PUBCHEM_IUPAC_NAME>
(4R)-3-[(2S,3S)-2-hydroxy-4-phenyl-3-[[2-(trifluoromethyl)phenyl]methylcarbamoylamino]butanoyl]-5,5-dimethyl-N-[[2-(trifluoromethyl)phenyl]methyl]-1,3-thiazolidine-4-carboxamide
> <PUBCHEM_IUPAC_SYSTEMATIC_NAME>
(4R)-5,5-dimethyl-3-[(2S,3S)-2-oxidanyl-4-phenyl-3-[[2-(trifluoromethyl)phenyl]methylcarbamoylamino]butanoyl]-N-[[2-(trifluoromethyl)phenyl]methyl]-1,3-thiazolidine-4-carboxamide
> <PUBCHEM_IUPAC_TRADITIONAL_NAME>
(4R)-3-[(2S,3S)-2-hydroxy-4-phenyl-3-[[2-(trifluoromethyl)benzyl]carbamoylamino]butanoyl]-5,5-dimethyl-N-[2-(trifluoromethyl)benzyl]thiazolidine-4-carboxamide
> <PUBCHEM_IUPAC_INCHI>
InChI=1S/C33H34F6N4O4S/c1-31(2)27(28(45)40-17-21-12-6-8-14-23(21)32(34,35)36)43(19-48-31)29(46)26(44)25(16-20-10-4-3-5-11-20)42-30(47)41-18-22-13-7-9-15-24(22)33(37,38)39/h3-15,25-27,44H,16-19H2,1-2H3,(H,40,45)(H2,41,42,47)/t25-,26-,27+/m0/s1
> <PUBCHEM_IUPAC_INCHIKEY>
ZAUKRDWAKHWAQS-GMQQYTKMSA-N
> <PUBCHEM_XLOGP3_AA>
5.5
> <PUBCHEM_EXACT_MASS>
696.22049572
> <PUBCHEM_MOLECULAR_FORMULA>
C33H34F6N4O4S
> <PUBCHEM_MOLECULAR_WEIGHT>
696.7
> <PUBCHEM_OPENEYE_CAN_SMILES>
CC1(C(N(CS1)C(=O)C(C(CC2=CC=CC=C2)NC(=O)NCC3=CC=CC=C3C(F)(F)F)O)C(=O)NCC4=CC=CC=C4C(F)(F)F)C
> <PUBCHEM_OPENEYE_ISO_SMILES>
CC1([C@H](N(CS1)C(=O)[C@H]([C@H](CC2=CC=CC=C2)NC(=O)NCC3=CC=CC=C3C(F)(F)F)O)C(=O)NCC4=CC=CC=C4C(F)(F)F)C
> <PUBCHEM_CACTVS_TPSA>
136
> <PUBCHEM_MONOISOTOPIC_WEIGHT>
696.22049572
> <PUBCHEM_TOTAL_CHARGE>
0
> <PUBCHEM_HEAVY_ATOM_COUNT>
48
> <PUBCHEM_ATOM_DEF_STEREO_COUNT>
3
> <PUBCHEM_ATOM_UDEF_STEREO_COUNT>
0
> <PUBCHEM_BOND_DEF_STEREO_COUNT>
0
> <PUBCHEM_BOND_UDEF_STEREO_COUNT>
0
> <PUBCHEM_ISOTOPIC_ATOM_COUNT>
0
> <PUBCHEM_COMPONENT_COUNT>
1
> <PUBCHEM_CACTVS_TAUTO_COUNT>
-1
> <PUBCHEM_COORDINATE_TYPE>
1
5
255
> <PUBCHEM_BONDANNOTATIONS>
24  14  6
17  21  5
27  30  8
27  31  8
28  32  8
28  33  8
30  34  8
31  35  8
32  37  8
33  40  8
34  38  8
35  38  8
37  41  8
40  41  8
42  43  8
42  44  8
43  45  8
44  47  8
45  48  8
47  48  8
23  8  6
$$$$
