514548
  -OEChem-10302200282D
 82 87  0     1  0  0  0  0  0999 V2000
    9.0154    0.7826    0.0000 S   0  0  0  0  0  0  0  0  0  0  0  0
    9.3814   -2.2562    0.0000 O   0  0  0  0  0  0  0  0  0  0  0  0
    6.2200    1.1698    0.0000 O   0  0  0  0  0  0  0  0  0  0  0  0
    6.5474   -1.4556    0.0000 O   0  0  0  0  0  0  0  0  0  0  0  0
    7.6493   -5.2562    0.0000 O   0  0  0  0  0  0  0  0  0  0  0  0
    5.4769    1.8390    0.0000 O   0  0  0  0  0  0  0  0  0  0  0  0
    7.7063   -0.1684    0.0000 N   0  0  0  0  0  0  0  0  0  0  0  0
    7.6493   -2.2562    0.0000 N   0  0  0  0  0  0  0  0  0  0  0  0
    4.3179    0.5518    0.0000 N   0  0  0  0  0  0  0  0  0  0  0  0
    3.6542    4.7534    0.0000 N   0  0  0  0  0  0  0  0  0  0  0  0
    9.3244   -0.1684    0.0000 C   0  0  0  0  0  0  0  0  0  0  0  0
    8.5154   -0.7562    0.0000 C   0  0  1  0  0  0  0  0  0  0  0  0
    8.0154    0.7826    0.0000 C   0  0  0  0  0  0  0  0  0  0  0  0
   10.2754    0.1406    0.0000 C   0  0  0  0  0  0  0  0  0  0  0  0
    9.9122   -0.9775    0.0000 C   0  0  0  0  0  0  0  0  0  0  0  0
    8.5154   -1.7562    0.0000 C   0  0  0  0  0  0  0  0  0  0  0  0
    6.7553   -0.4775    0.0000 C   0  0  0  0  0  0  0  0  0  0  0  0
    6.0121    0.1917    0.0000 C   0  0  2  0  0  0  0  0  0  0  0  0
    7.6493   -3.2562    0.0000 C   0  0  1  0  0  0  0  0  0  0  0  0
    5.0611   -0.1174    0.0000 C   0  0  2  0  0  0  0  0  0  0  0  0
    8.5154   -3.7562    0.0000 C   0  0  0  0  0  0  0  0  0  0  0  0
    6.7833   -3.7562    0.0000 C   0  0  0  0  0  0  0  0  0  0  0  0
    4.8532   -1.0955    0.0000 C   0  0  0  0  0  0  0  0  0  0  0  0
    8.5154   -4.7562    0.0000 C   0  0  0  0  0  0  0  0  0  0  0  0
    6.7833   -4.7562    0.0000 C   0  0  0  0  0  0  0  0  0  0  0  0
    3.9021   -1.4045    0.0000 C   0  0  0  0  0  0  0  0  0  0  0  0
    5.8894   -3.2216    0.0000 C   0  0  0  0  0  0  0  0  0  0  0  0
    4.5258    1.5299    0.0000 C   0  0  0  0  0  0  0  0  0  0  0  0
    3.7827    2.1991    0.0000 C   0  0  0  0  0  0  0  0  0  0  0  0
    3.9906    3.1772    0.0000 C   0  0  0  0  0  0  0  0  0  0  0  0
    4.8502    3.6765    0.0000 C   0  0  0  0  0  0  0  0  0  0  0  0
    5.8894   -5.2909    0.0000 C   0  0  0  0  0  0  0  0  0  0  0  0
    3.2475    3.8463    0.0000 C   0  0  0  0  0  0  0  0  0  0  0  0
    4.6427    4.6487    0.0000 C   0  0  0  0  0  0  0  0  0  0  0  0
    4.9833   -3.7354    0.0000 C   0  0  0  0  0  0  0  0  0  0  0  0
    3.6942   -2.3827    0.0000 C   0  0  0  0  0  0  0  0  0  0  0  0
    3.1590   -0.7354    0.0000 C   0  0  0  0  0  0  0  0  0  0  0  0
    4.9833   -4.7770    0.0000 C   0  0  0  0  0  0  0  0  0  0  0  0
    2.8316    1.8900    0.0000 C   0  0  0  0  0  0  0  0  0  0  0  0
    2.2964    3.5373    0.0000 C   0  0  0  0  0  0  0  0  0  0  0  0
    2.0885    2.5592    0.0000 C   0  0  0  0  0  0  0  0  0  0  0  0
    2.7431   -2.6917    0.0000 C   0  0  0  0  0  0  0  0  0  0  0  0
    2.2079   -1.0444    0.0000 C   0  0  0  0  0  0  0  0  0  0  0  0
    2.0000   -2.0226    0.0000 C   0  0  0  0  0  0  0  0  0  0  0  0
    7.9629   -1.0377    0.0000 H   0  0  0  0  0  0  0  0  0  0  0  0
    8.0802    1.3992    0.0000 H   0  0  0  0  0  0  0  0  0  0  0  0
    7.4089    0.9115    0.0000 H   0  0  0  0  0  0  0  0  0  0  0  0
   10.4670   -0.4491    0.0000 H   0  0  0  0  0  0  0  0  0  0  0  0
   10.8651    0.3322    0.0000 H   0  0  0  0  0  0  0  0  0  0  0  0
   10.0838    0.7302    0.0000 H   0  0  0  0  0  0  0  0  0  0  0  0
    9.4106   -1.3419    0.0000 H   0  0  0  0  0  0  0  0  0  0  0  0
   10.2766   -1.4790    0.0000 H   0  0  0  0  0  0  0  0  0  0  0  0
   10.4137   -0.6130    0.0000 H   0  0  0  0  0  0  0  0  0  0  0  0
    6.6018    0.3833    0.0000 H   0  0  0  0  0  0  0  0  0  0  0  0
    8.1863   -2.9462    0.0000 H   0  0  0  0  0  0  0  0  0  0  0  0
    5.1900    0.4891    0.0000 H   0  0  0  0  0  0  0  0  0  0  0  0
    7.1124   -1.9462    0.0000 H   0  0  0  0  0  0  0  0  0  0  0  0
    9.1259   -3.8639    0.0000 H   0  0  0  0  0  0  0  0  0  0  0  0
    8.7274   -3.1736    0.0000 H   0  0  0  0  0  0  0  0  0  0  0  0
    4.9395   -1.7095    0.0000 H   0  0  0  0  0  0  0  0  0  0  0  0
    5.4728   -1.1171    0.0000 H   0  0  0  0  0  0  0  0  0  0  0  0
    8.7274   -5.3388    0.0000 H   0  0  0  0  0  0  0  0  0  0  0  0
    9.1259   -4.6486    0.0000 H   0  0  0  0  0  0  0  0  0  0  0  0
    3.7283    0.3602    0.0000 H   0  0  0  0  0  0  0  0  0  0  0  0
    6.8097    1.3614    0.0000 H   0  0  0  0  0  0  0  0  0  0  0  0
    5.8965   -2.6016    0.0000 H   0  0  0  0  0  0  0  0  0  0  0  0
    5.1035    3.1106    0.0000 H   0  0  0  0  0  0  0  0  0  0  0  0
    5.4396    3.8689    0.0000 H   0  0  0  0  0  0  0  0  0  0  0  0
    5.8965   -5.9108    0.0000 H   0  0  0  0  0  0  0  0  0  0  0  0
    5.2593    4.7136    0.0000 H   0  0  0  0  0  0  0  0  0  0  0  0
    4.6429    5.2687    0.0000 H   0  0  0  0  0  0  0  0  0  0  0  0
    4.4476   -3.4234    0.0000 H   0  0  0  0  0  0  0  0  0  0  0  0
    4.1550   -2.7975    0.0000 H   0  0  0  0  0  0  0  0  0  0  0  0
    3.2879   -0.1289    0.0000 H   0  0  0  0  0  0  0  0  0  0  0  0
    3.3451    5.2909    0.0000 H   0  0  0  0  0  0  0  0  0  0  0  0
    4.4476   -5.0891    0.0000 H   0  0  0  0  0  0  0  0  0  0  0  0
    2.7027    1.2836    0.0000 H   0  0  0  0  0  0  0  0  0  0  0  0
    1.8357    3.9522    0.0000 H   0  0  0  0  0  0  0  0  0  0  0  0
    1.4988    2.3676    0.0000 H   0  0  0  0  0  0  0  0  0  0  0  0
    2.6142   -3.2981    0.0000 H   0  0  0  0  0  0  0  0  0  0  0  0
    1.7472   -0.6295    0.0000 H   0  0  0  0  0  0  0  0  0  0  0  0
    1.4103   -2.2141    0.0000 H   0  0  0  0  0  0  0  0  0  0  0  0
  1 11  1  0  0  0  0
  1 13  1  0  0  0  0
  2 16  2  0  0  0  0
 18  3  1  6  0  0  0
  3 65  1  0  0  0  0
  4 17  2  0  0  0  0
  5 24  1  0  0  0  0
  5 25  1  0  0  0  0
  6 28  2  0  0  0  0
  7 12  1  0  0  0  0
  7 13  1  0  0  0  0
  7 17  1  0  0  0  0
  8 16  1  0  0  0  0
 19  8  1  1  0  0  0
  8 57  1  0  0  0  0
 20  9  1  6  0  0  0
  9 28  1  0  0  0  0
  9 64  1  0  0  0  0
 10 33  1  0  0  0  0
 10 34  1  0  0  0  0
 10 75  1  0  0  0  0
 11 12  1  0  0  0  0
 11 14  1  0  0  0  0
 11 15  1  0  0  0  0
 12 16  1  1  0  0  0
 12 45  1  0  0  0  0
 13 46  1  0  0  0  0
 13 47  1  0  0  0  0
 14 48  1  0  0  0  0
 14 49  1  0  0  0  0
 14 50  1  0  0  0  0
 15 51  1  0  0  0  0
 15 52  1  0  0  0  0
 15 53  1  0  0  0  0
 17 18  1  0  0  0  0
 18 20  1  0  0  0  0
 18 54  1  0  0  0  0
 19 21  1  0  0  0  0
 19 22  1  0  0  0  0
 19 55  1  0  0  0  0
 20 23  1  0  0  0  0
 20 56  1  0  0  0  0
 21 24  1  0  0  0  0
 21 58  1  0  0  0  0
 21 59  1  0  0  0  0
 22 25  1  0  0  0  0
 22 27  2  0  0  0  0
 23 26  1  0  0  0  0
 23 60  1  0  0  0  0
 23 61  1  0  0  0  0
 24 62  1  0  0  0  0
 24 63  1  0  0  0  0
 25 32  2  0  0  0  0
 26 36  2  0  0  0  0
 26 37  1  0  0  0  0
 27 35  1  0  0  0  0
 27 66  1  0  0  0  0
 28 29  1  0  0  0  0
 29 30  2  0  0  0  0
 29 39  1  0  0  0  0
 30 31  1  0  0  0  0
 30 33  1  0  0  0  0
 31 34  1  0  0  0  0
 31 67  1  0  0  0  0
 31 68  1  0  0  0  0
 32 38  1  0  0  0  0
 32 69  1  0  0  0  0
 33 40  2  0  0  0  0
 34 70  1  0  0  0  0
 34 71  1  0  0  0  0
 35 38  2  0  0  0  0
 35 72  1  0  0  0  0
 36 42  1  0  0  0  0
 36 73  1  0  0  0  0
 37 43  2  0  0  0  0
 37 74  1  0  0  0  0
 38 76  1  0  0  0  0
 39 41  2  0  0  0  0
 39 77  1  0  0  0  0
 40 41  1  0  0  0  0
 40 78  1  0  0  0  0
 41 79  1  0  0  0  0
 42 44  2  0  0  0  0
 42 80  1  0  0  0  0
 43 44  1  0  0  0  0
 43 81  1  0  0  0  0
 44 82  1  0  0  0  0
M  END
> <PUBCHEM_COMPOUND_CID>
514548
> <PUBCHEM_COMPOUND_CANONICALIZED>
1
> <PUBCHEM_CACTVS_COMPLEXITY>
1040
> <PUBCHEM_CACTVS_HBOND_ACCEPTOR>
7
> <PUBCHEM_CACTVS_HBOND_DONOR>
4
> <PUBCHEM_CACTVS_ROTATABLE_BOND>
8
> <PUBCHEM_CACTVS_SUBSKEYS>
AAADcfB/uABAAAAAAAAAAAAAAAAAAWLAAAA0YMEAAAAAAFiRUAAAHgQQCAAADDzh2AayxoPABgiIAiVSUAKCCABlIhAIiIHObMgOdjrk9buWeSjm1hHY6YecyaCOgAAAQAAaAAAAAACAADQAAAAAAAAAAA==
> <PUBCHEM_IUPAC_OPENEYE_NAME>
(4R)-N-[(4S)-chroman-4-yl]-3-[(2S,3S)-2-hydroxy-3-(indoline-4-carbonylamino)-4-phenyl-butanoyl]-5,5-dimethyl-thiazolidine-4-carboxamide
> <PUBCHEM_IUPAC_CAS_NAME>
(4R)-N-[(4S)-3,4-dihydro-2H-1-benzopyran-4-yl]-3-[(2S,3S)-3-[[2,3-dihydro-1H-indol-4-yl(oxo)methyl]amino]-2-hydroxy-1-oxo-4-phenylbutyl]-5,5-dimethyl-4-thiazolidinecarboxamide
> <PUBCHEM_IUPAC_NAME_MARKUP>
(4<I>R</I>)-<I>N</I>-[(4<I>S</I>)-3,4-dihydro-2<I>H</I>-chromen-4-yl]-3-[(2<I>S</I>,3<I>S</I>)-3-(2,3-dihydro-1<I>H</I>-indole-4-carbonylamino)-2-hydroxy-4-phenylbutanoyl]-5,5-dimethyl-1,3-thiazolidine-4-carboxamide
> <PUBCHEM_IUPAC_NAME>
(4R)-N-[(4S)-3,4-dihydro-2H-chromen-4-yl]-3-[(2S,3S)-3-(2,3-dihydro-1H-indole-4-carbonylamino)-2-hydroxy-4-phenylbutanoyl]-5,5-dimethyl-1,3-thiazolidine-4-carboxamide
> <PUBCHEM_IUPAC_SYSTEMATIC_NAME>
(4R)-N-[(4S)-3,4-dihydro-2H-chromen-4-yl]-3-[(2S,3S)-3-(2,3-dihydro-1H-indol-4-ylcarbonylamino)-2-oxidanyl-4-phenyl-butanoyl]-5,5-dimethyl-1,3-thiazolidine-4-carboxamide
> <PUBCHEM_IUPAC_TRADITIONAL_NAME>
(4R)-N-[(4S)-chroman-4-yl]-3-[(2S,3S)-2-hydroxy-3-(indoline-4-carbonylamino)-4-phenyl-butanoyl]-5,5-dimethyl-thiazolidine-4-carboxamide
> <PUBCHEM_IUPAC_INCHI>
InChI=1S/C34H38N4O5S/c1-34(2)30(32(41)36-26-16-18-43-28-14-7-6-11-24(26)28)38(20-44-34)33(42)29(39)27(19-21-9-4-3-5-10-21)37-31(40)23-12-8-13-25-22(23)15-17-35-25/h3-14,26-27,29-30,35,39H,15-20H2,1-2H3,(H,36,41)(H,37,40)/t26-,27-,29-,30+/m0/s1
> <PUBCHEM_IUPAC_INCHIKEY>
UKASMZVJKFXKIJ-ZSEJKAPFSA-N
> <PUBCHEM_XLOGP3_AA>
4.3
> <PUBCHEM_EXACT_MASS>
614.25629150
> <PUBCHEM_MOLECULAR_FORMULA>
C34H38N4O5S
> <PUBCHEM_MOLECULAR_WEIGHT>
614.8
> <PUBCHEM_OPENEYE_CAN_SMILES>
CC1(C(N(CS1)C(=O)C(C(CC2=CC=CC=C2)NC(=O)C3=C4CCNC4=CC=C3)O)C(=O)NC5CCOC6=CC=CC=C56)C
> <PUBCHEM_OPENEYE_ISO_SMILES>
CC1([C@H](N(CS1)C(=O)[C@H]([C@H](CC2=CC=CC=C2)NC(=O)C3=C4CCNC4=CC=C3)O)C(=O)N[C@H]5CCOC6=CC=CC=C56)C
> <PUBCHEM_CACTVS_TPSA>
145
> <PUBCHEM_MONOISOTOPIC_WEIGHT>
614.25629150
> <PUBCHEM_TOTAL_CHARGE>
0
> <PUBCHEM_HEAVY_ATOM_COUNT>
44
> <PUBCHEM_ATOM_DEF_STEREO_COUNT>
4
> <PUBCHEM_ATOM_UDEF_STEREO_COUNT>
0
> <PUBCHEM_BOND_DEF_STEREO_COUNT>
0
> <PUBCHEM_BOND_UDEF_STEREO_COUNT>
0
> <PUBCHEM_ISOTOPIC_ATOM_COUNT>
0
> <PUBCHEM_COMPONENT_COUNT>
1
> <PUBCHEM_CACTVS_TAUTO_COUNT>
-1
> <PUBCHEM_COORDINATE_TYPE>
1
5
255
> <PUBCHEM_BONDANNOTATIONS>
12  16  5
22  25  8
22  27  8
25  32  8
26  36  8
26  37  8
27  35  8
29  30  8
29  39  8
18  3  6
30  33  8
32  38  8
33  40  8
35  38  8
36  42  8
37  43  8
39  41  8
40  41  8
42  44  8
43  44  8
19  8  5
20  9  6
$$$$
