514513
  -OEChem-10302200282D
 79 83  0     1  0  0  0  0  0999 V2000
    7.1469    1.5821    0.0000 S   0  0  0  0  0  0  0  0  0  0  0  0
    2.0000   -3.9479    0.0000 F   0  0  0  0  0  0  0  0  0  0  0  0
    7.5013   -1.7307    0.0000 O   0  0  0  0  0  0  0  0  0  0  0  0
    9.9242    1.0818    0.0000 O   0  0  0  0  0  0  0  0  0  0  0  0
    8.7975   -1.3121    0.0000 O   0  0  0  0  0  0  0  0  0  0  0  0
   10.8385    1.4869    0.0000 O   0  0  0  0  0  0  0  0  0  0  0  0
   13.6875    3.6967    0.0000 O   0  0  0  0  0  0  0  0  0  0  0  0
    8.0957    0.2714    0.0000 N   0  0  0  0  0  0  0  0  0  0  0  0
    5.8550   -1.1927    0.0000 N   0  0  0  0  0  0  0  0  0  0  0  0
   11.5402   -0.0966    0.0000 N   0  0  0  0  0  0  0  0  0  0  0  0
    7.1441   -0.0359    0.0000 C   0  0  1  0  0  0  0  0  0  0  0  0
    6.5577    0.7741    0.0000 C   0  0  0  0  0  0  0  0  0  0  0  0
    5.5443   -2.1432    0.0000 C   0  0  1  0  0  0  0  0  0  0  0  0
    8.0974    1.2714    0.0000 C   0  0  0  0  0  0  0  0  0  0  0  0
    6.8335   -0.9864    0.0000 C   0  0  0  0  0  0  0  0  0  0  0  0
    5.7497    1.3633    0.0000 C   0  0  0  0  0  0  0  0  0  0  0  0
    5.7477    0.1877    0.0000 C   0  0  0  0  0  0  0  0  0  0  0  0
    6.1279   -2.9479    0.0000 C   0  0  0  0  0  0  0  0  0  0  0  0
    4.5981   -2.4479    0.0000 C   0  0  0  0  0  0  0  0  0  0  0  0
    8.9037   -0.3177    0.0000 C   0  0  0  0  0  0  0  0  0  0  0  0
    5.5443   -3.7526    0.0000 C   0  0  0  0  0  0  0  0  0  0  0  0
    4.5981   -3.4479    0.0000 C   0  0  0  0  0  0  0  0  0  0  0  0
    9.8180    0.0874    0.0000 C   0  0  2  0  0  0  0  0  0  0  0  0
   10.6260   -0.5018    0.0000 C   0  0  2  0  0  0  0  0  0  0  0  0
    3.7320   -1.9479    0.0000 C   0  0  0  0  0  0  0  0  0  0  0  0
    3.7320   -3.9479    0.0000 C   0  0  0  0  0  0  0  0  0  0  0  0
   10.5197   -1.4961    0.0000 C   0  0  0  0  0  0  0  0  0  0  0  0
    2.8660   -2.4479    0.0000 C   0  0  0  0  0  0  0  0  0  0  0  0
    2.8660   -3.4479    0.0000 C   0  0  0  0  0  0  0  0  0  0  0  0
   11.3277   -2.0853    0.0000 C   0  0  0  0  0  0  0  0  0  0  0  0
   11.6465    0.8977    0.0000 C   0  0  0  0  0  0  0  0  0  0  0  0
   12.2420   -1.6801    0.0000 C   0  0  0  0  0  0  0  0  0  0  0  0
   11.2215   -3.0796    0.0000 C   0  0  0  0  0  0  0  0  0  0  0  0
   12.5607    1.3029    0.0000 C   0  0  0  0  0  0  0  0  0  0  0  0
   13.0500   -2.2693    0.0000 C   0  0  0  0  0  0  0  0  0  0  0  0
   12.0295   -3.6688    0.0000 C   0  0  0  0  0  0  0  0  0  0  0  0
   12.6670    2.2972    0.0000 C   0  0  0  0  0  0  0  0  0  0  0  0
   12.9437   -3.2637    0.0000 C   0  0  0  0  0  0  0  0  0  0  0  0
   13.3687    0.7137    0.0000 C   0  0  0  0  0  0  0  0  0  0  0  0
   13.5812    2.7024    0.0000 C   0  0  0  0  0  0  0  0  0  0  0  0
   11.8590    2.8864    0.0000 C   0  0  0  0  0  0  0  0  0  0  0  0
   14.2830    1.1188    0.0000 C   0  0  0  0  0  0  0  0  0  0  0  0
   14.3892    2.1132    0.0000 C   0  0  0  0  0  0  0  0  0  0  0  0
    7.5818   -0.4751    0.0000 H   0  0  0  0  0  0  0  0  0  0  0  0
    5.1068   -1.7038    0.0000 H   0  0  0  0  0  0  0  0  0  0  0  0
    8.7139    1.2056    0.0000 H   0  0  0  0  0  0  0  0  0  0  0  0
    8.2274    1.8777    0.0000 H   0  0  0  0  0  0  0  0  0  0  0  0
    6.1150    1.8642    0.0000 H   0  0  0  0  0  0  0  0  0  0  0  0
    5.2488    1.7286    0.0000 H   0  0  0  0  0  0  0  0  0  0  0  0
    5.3844    0.8623    0.0000 H   0  0  0  0  0  0  0  0  0  0  0  0
    5.3842    0.6899    0.0000 H   0  0  0  0  0  0  0  0  0  0  0  0
    5.2455   -0.1758    0.0000 H   0  0  0  0  0  0  0  0  0  0  0  0
    6.1113   -0.3145    0.0000 H   0  0  0  0  0  0  0  0  0  0  0  0
    6.5888   -3.3626    0.0000 H   0  0  0  0  0  0  0  0  0  0  0  0
    6.5888   -2.5332    0.0000 H   0  0  0  0  0  0  0  0  0  0  0  0
    5.4409   -0.7312    0.0000 H   0  0  0  0  0  0  0  0  0  0  0  0
    5.2933   -4.3195    0.0000 H   0  0  0  0  0  0  0  0  0  0  0  0
    6.0817   -4.0619    0.0000 H   0  0  0  0  0  0  0  0  0  0  0  0
    9.3170    0.4527    0.0000 H   0  0  0  0  0  0  0  0  0  0  0  0
   10.6918    0.1147    0.0000 H   0  0  0  0  0  0  0  0  0  0  0  0
    3.7320   -1.3279    0.0000 H   0  0  0  0  0  0  0  0  0  0  0  0
    3.7320   -4.5679    0.0000 H   0  0  0  0  0  0  0  0  0  0  0  0
    9.9240   -1.3242    0.0000 H   0  0  0  0  0  0  0  0  0  0  0  0
   10.2470   -2.0529    0.0000 H   0  0  0  0  0  0  0  0  0  0  0  0
   12.0412   -0.4619    0.0000 H   0  0  0  0  0  0  0  0  0  0  0  0
    2.3291   -2.1379    0.0000 H   0  0  0  0  0  0  0  0  0  0  0  0
    9.4232    1.4470    0.0000 H   0  0  0  0  0  0  0  0  0  0  0  0
   12.3078   -1.0636    0.0000 H   0  0  0  0  0  0  0  0  0  0  0  0
   10.6546   -3.3308    0.0000 H   0  0  0  0  0  0  0  0  0  0  0  0
   13.6168   -2.0181    0.0000 H   0  0  0  0  0  0  0  0  0  0  0  0
   11.9636   -4.2853    0.0000 H   0  0  0  0  0  0  0  0  0  0  0  0
   13.4447   -3.6290    0.0000 H   0  0  0  0  0  0  0  0  0  0  0  0
   13.3028    0.0972    0.0000 H   0  0  0  0  0  0  0  0  0  0  0  0
   12.2243    3.3874    0.0000 H   0  0  0  0  0  0  0  0  0  0  0  0
   11.3580    3.2517    0.0000 H   0  0  0  0  0  0  0  0  0  0  0  0
   11.4937    2.3854    0.0000 H   0  0  0  0  0  0  0  0  0  0  0  0
   14.7839    0.7536    0.0000 H   0  0  0  0  0  0  0  0  0  0  0  0
   14.9560    2.3644    0.0000 H   0  0  0  0  0  0  0  0  0  0  0  0
   14.2543    3.9479    0.0000 H   0  0  0  0  0  0  0  0  0  0  0  0
  1 12  1  0  0  0  0
  1 14  1  0  0  0  0
  2 29  1  0  0  0  0
  3 15  2  0  0  0  0
 23  4  1  1  0  0  0
  4 67  1  0  0  0  0
  5 20  2  0  0  0  0
  6 31  2  0  0  0  0
  7 40  1  0  0  0  0
  7 79  1  0  0  0  0
  8 11  1  0  0  0  0
  8 14  1  0  0  0  0
  8 20  1  0  0  0  0
 13  9  1  1  0  0  0
  9 15  1  0  0  0  0
  9 56  1  0  0  0  0
 24 10  1  1  0  0  0
 10 31  1  0  0  0  0
 10 65  1  0  0  0  0
 11 12  1  0  0  0  0
 11 15  1  6  0  0  0
 11 44  1  0  0  0  0
 12 16  1  0  0  0  0
 12 17  1  0  0  0  0
 13 18  1  0  0  0  0
 13 19  1  0  0  0  0
 13 45  1  0  0  0  0
 14 46  1  0  0  0  0
 14 47  1  0  0  0  0
 16 48  1  0  0  0  0
 16 49  1  0  0  0  0
 16 50  1  0  0  0  0
 17 51  1  0  0  0  0
 17 52  1  0  0  0  0
 17 53  1  0  0  0  0
 18 21  1  0  0  0  0
 18 54  1  0  0  0  0
 18 55  1  0  0  0  0
 19 22  2  0  0  0  0
 19 25  1  0  0  0  0
 20 23  1  0  0  0  0
 21 22  1  0  0  0  0
 21 57  1  0  0  0  0
 21 58  1  0  0  0  0
 22 26  1  0  0  0  0
 23 24  1  0  0  0  0
 23 59  1  0  0  0  0
 24 27  1  0  0  0  0
 24 60  1  0  0  0  0
 25 28  2  0  0  0  0
 25 61  1  0  0  0  0
 26 29  2  0  0  0  0
 26 62  1  0  0  0  0
 27 30  1  0  0  0  0
 27 63  1  0  0  0  0
 27 64  1  0  0  0  0
 28 29  1  0  0  0  0
 28 66  1  0  0  0  0
 30 32  2  0  0  0  0
 30 33  1  0  0  0  0
 31 34  1  0  0  0  0
 32 35  1  0  0  0  0
 32 68  1  0  0  0  0
 33 36  2  0  0  0  0
 33 69  1  0  0  0  0
 34 37  2  0  0  0  0
 34 39  1  0  0  0  0
 35 38  2  0  0  0  0
 35 70  1  0  0  0  0
 36 38  1  0  0  0  0
 36 71  1  0  0  0  0
 37 40  1  0  0  0  0
 37 41  1  0  0  0  0
 38 72  1  0  0  0  0
 39 42  2  0  0  0  0
 39 73  1  0  0  0  0
 40 43  2  0  0  0  0
 41 74  1  0  0  0  0
 41 75  1  0  0  0  0
 41 76  1  0  0  0  0
 42 43  1  0  0  0  0
 42 77  1  0  0  0  0
 43 78  1  0  0  0  0
M  END
> <PUBCHEM_COMPOUND_CID>
514513
> <PUBCHEM_COMPOUND_CANONICALIZED>
1
> <PUBCHEM_CACTVS_COMPLEXITY>
1010
> <PUBCHEM_CACTVS_HBOND_ACCEPTOR>
7
> <PUBCHEM_CACTVS_HBOND_DONOR>
4
> <PUBCHEM_CACTVS_ROTATABLE_BOND>
8
> <PUBCHEM_CACTVS_SUBSKEYS>
AAADcfB/OQBAAAAAAAAAAAAAAAAAAeIAAAAwYMAAAAAAAGABUAAAHwQQCAAADDzh2A6yBoPAAgiIAiFSEAKCAABkIBAIiIHODMgKdjqi1TOUcQhk1hGYmYe6yLCOgAABAAAYAAAAAAIAADAAACAACQAAAA==
> <PUBCHEM_IUPAC_OPENEYE_NAME>
(4R)-N-[(1S)-5-fluoroindan-1-yl]-3-[(2S,3S)-2-hydroxy-3-[(3-hydroxy-2-methyl-benzoyl)amino]-4-phenyl-butanoyl]-5,5-dimethyl-thiazolidine-4-carboxamide
> <PUBCHEM_IUPAC_CAS_NAME>
(4R)-N-[(1S)-5-fluoro-2,3-dihydro-1H-inden-1-yl]-3-[(2S,3S)-2-hydroxy-3-[[(3-hydroxy-2-methylphenyl)-oxomethyl]amino]-1-oxo-4-phenylbutyl]-5,5-dimethyl-4-thiazolidinecarboxamide
> <PUBCHEM_IUPAC_NAME_MARKUP>
(4<I>R</I>)-<I>N</I>-[(1<I>S</I>)-5-fluoro-2,3-dihydro-1<I>H</I>-inden-1-yl]-3-[(2<I>S</I>,3<I>S</I>)-2-hydroxy-3-[(3-hydroxy-2-methylbenzoyl)amino]-4-phenylbutanoyl]-5,5-dimethyl-1,3-thiazolidine-4-carboxamide
> <PUBCHEM_IUPAC_NAME>
(4R)-N-[(1S)-5-fluoro-2,3-dihydro-1H-inden-1-yl]-3-[(2S,3S)-2-hydroxy-3-[(3-hydroxy-2-methylbenzoyl)amino]-4-phenylbutanoyl]-5,5-dimethyl-1,3-thiazolidine-4-carboxamide
> <PUBCHEM_IUPAC_SYSTEMATIC_NAME>
(4R)-N-[(1S)-5-fluoranyl-2,3-dihydro-1H-inden-1-yl]-5,5-dimethyl-3-[(2S,3S)-3-[(2-methyl-3-oxidanyl-phenyl)carbonylamino]-2-oxidanyl-4-phenyl-butanoyl]-1,3-thiazolidine-4-carboxamide
> <PUBCHEM_IUPAC_TRADITIONAL_NAME>
(4R)-N-[(1S)-5-fluoroindan-1-yl]-3-[(2S,3S)-2-hydroxy-3-[(3-hydroxy-2-methyl-benzoyl)amino]-4-phenyl-butanoyl]-5,5-dimethyl-thiazolidine-4-carboxamide
> <PUBCHEM_IUPAC_INCHI>
InChI=1S/C33H36FN3O5S/c1-19-23(10-7-11-27(19)38)30(40)36-26(16-20-8-5-4-6-9-20)28(39)32(42)37-18-43-33(2,3)29(37)31(41)35-25-15-12-21-17-22(34)13-14-24(21)25/h4-11,13-14,17,25-26,28-29,38-39H,12,15-16,18H2,1-3H3,(H,35,41)(H,36,40)/t25-,26-,28-,29+/m0/s1
> <PUBCHEM_IUPAC_INCHIKEY>
WNKXAPLLMBOLQL-ZSLRCHCDSA-N
> <PUBCHEM_XLOGP3_AA>
4.6
> <PUBCHEM_EXACT_MASS>
605.23597059
> <PUBCHEM_MOLECULAR_FORMULA>
C33H36FN3O5S
> <PUBCHEM_MOLECULAR_WEIGHT>
605.7
> <PUBCHEM_OPENEYE_CAN_SMILES>
CC1=C(C=CC=C1O)C(=O)NC(CC2=CC=CC=C2)C(C(=O)N3CSC(C3C(=O)NC4CCC5=C4C=CC(=C5)F)(C)C)O
> <PUBCHEM_OPENEYE_ISO_SMILES>
CC1=C(C=CC=C1O)C(=O)N[C@@H](CC2=CC=CC=C2)[C@@H](C(=O)N3CSC([C@H]3C(=O)N[C@H]4CCC5=C4C=CC(=C5)F)(C)C)O
> <PUBCHEM_CACTVS_TPSA>
144
> <PUBCHEM_MONOISOTOPIC_WEIGHT>
605.23597059
> <PUBCHEM_TOTAL_CHARGE>
0
> <PUBCHEM_HEAVY_ATOM_COUNT>
43
> <PUBCHEM_ATOM_DEF_STEREO_COUNT>
4
> <PUBCHEM_ATOM_UDEF_STEREO_COUNT>
0
> <PUBCHEM_BOND_DEF_STEREO_COUNT>
0
> <PUBCHEM_BOND_UDEF_STEREO_COUNT>
0
> <PUBCHEM_ISOTOPIC_ATOM_COUNT>
0
> <PUBCHEM_COMPONENT_COUNT>
1
> <PUBCHEM_CACTVS_TAUTO_COUNT>
-1
> <PUBCHEM_COORDINATE_TYPE>
1
5
255
> <PUBCHEM_BONDANNOTATIONS>
24  10  5
11  15  6
19  22  8
19  25  8
22  26  8
25  28  8
26  29  8
28  29  8
30  32  8
30  33  8
32  35  8
33  36  8
34  37  8
34  39  8
35  38  8
36  38  8
37  40  8
39  42  8
23  4  5
40  43  8
42  43  8
13  9  5
$$$$
