514515
  -OEChem-10302200282D
 81 84  0     1  0  0  0  0  0999 V2000
    8.2788    2.6602    0.0000 S   0  0  0  0  0  0  0  0  0  0  0  0
    7.5745   -0.5963    0.0000 O   0  0  0  0  0  0  0  0  0  0  0  0
    5.4641    2.4578    0.0000 O   0  0  0  0  0  0  0  0  0  0  0  0
    6.3301   -0.0422    0.0000 O   0  0  0  0  0  0  0  0  0  0  0  0
   11.0514   -4.4578    0.0000 O   0  0  0  0  0  0  0  0  0  0  0  0
    2.8660   -0.0422    0.0000 O   0  0  0  0  0  0  0  0  0  0  0  0
    2.0000   -3.5422    0.0000 O   0  0  0  0  0  0  0  0  0  0  0  0
    7.1962    1.4578    0.0000 N   0  0  0  0  0  0  0  0  0  0  0  0
    9.2687   -0.2361    0.0000 N   0  0  0  0  0  0  0  0  0  0  0  0
   10.6355   -2.5015    0.0000 N   0  0  0  0  0  0  0  0  0  0  0  0
    4.5981   -0.0422    0.0000 N   0  0  0  0  0  0  0  0  0  0  0  0
    8.7788    1.7942    0.0000 C   0  0  0  0  0  0  0  0  0  0  0  0
    8.1097    1.0510    0.0000 C   0  0  1  0  0  0  0  0  0  0  0  0
    7.3007    2.4523    0.0000 C   0  0  0  0  0  0  0  0  0  0  0  0
    9.6448    2.2942    0.0000 C   0  0  0  0  0  0  0  0  0  0  0  0
    9.5220    1.1250    0.0000 C   0  0  0  0  0  0  0  0  0  0  0  0
    8.3176    0.0729    0.0000 C   0  0  0  0  0  0  0  0  0  0  0  0
    6.3301    0.9578    0.0000 C   0  0  0  0  0  0  0  0  0  0  0  0
    5.4641    1.4578    0.0000 C   0  0  2  0  0  0  0  0  0  0  0  0
    4.5981    0.9578    0.0000 C   0  0  2  0  0  0  0  0  0  0  0  0
    9.4766   -1.2143    0.0000 C   0  0  0  0  0  0  0  0  0  0  0  0
    3.7320    1.4578    0.0000 C   0  0  0  0  0  0  0  0  0  0  0  0
   10.4276   -1.5233    0.0000 C   0  0  0  0  0  0  0  0  0  0  0  0
    9.8924   -3.1706    0.0000 C   0  0  0  0  0  0  0  0  0  0  0  0
   11.5866   -2.8105    0.0000 C   0  0  0  0  0  0  0  0  0  0  0  0
    3.7320    2.4578    0.0000 C   0  0  0  0  0  0  0  0  0  0  0  0
   10.1003   -4.1487    0.0000 C   0  0  0  0  0  0  0  0  0  0  0  0
   11.7945   -3.7886    0.0000 C   0  0  0  0  0  0  0  0  0  0  0  0
    3.7320   -0.5422    0.0000 C   0  0  0  0  0  0  0  0  0  0  0  0
    2.8660    2.9578    0.0000 C   0  0  0  0  0  0  0  0  0  0  0  0
    4.5981    2.9578    0.0000 C   0  0  0  0  0  0  0  0  0  0  0  0
    3.7320   -1.5422    0.0000 C   0  0  0  0  0  0  0  0  0  0  0  0
    2.8660    3.9578    0.0000 C   0  0  0  0  0  0  0  0  0  0  0  0
    4.5981    3.9578    0.0000 C   0  0  0  0  0  0  0  0  0  0  0  0
    2.8660   -2.0422    0.0000 C   0  0  0  0  0  0  0  0  0  0  0  0
    3.7320    4.4578    0.0000 C   0  0  0  0  0  0  0  0  0  0  0  0
    4.5981   -2.0422    0.0000 C   0  0  0  0  0  0  0  0  0  0  0  0
    2.8660   -3.0422    0.0000 C   0  0  0  0  0  0  0  0  0  0  0  0
    2.0000   -1.5422    0.0000 C   0  0  0  0  0  0  0  0  0  0  0  0
    4.5981   -3.0422    0.0000 C   0  0  0  0  0  0  0  0  0  0  0  0
    3.7320   -3.5422    0.0000 C   0  0  0  0  0  0  0  0  0  0  0  0
    7.6279    0.6608    0.0000 H   0  0  0  0  0  0  0  0  0  0  0  0
    7.2359    3.0689    0.0000 H   0  0  0  0  0  0  0  0  0  0  0  0
    6.6807    2.4523    0.0000 H   0  0  0  0  0  0  0  0  0  0  0  0
    9.9548    1.7572    0.0000 H   0  0  0  0  0  0  0  0  0  0  0  0
   10.1818    2.6042    0.0000 H   0  0  0  0  0  0  0  0  0  0  0  0
    9.3348    2.8311    0.0000 H   0  0  0  0  0  0  0  0  0  0  0  0
    9.1071    0.6643    0.0000 H   0  0  0  0  0  0  0  0  0  0  0  0
    9.9827    0.7102    0.0000 H   0  0  0  0  0  0  0  0  0  0  0  0
    9.9368    1.5858    0.0000 H   0  0  0  0  0  0  0  0  0  0  0  0
    6.0010    1.7678    0.0000 H   0  0  0  0  0  0  0  0  0  0  0  0
    5.1350    0.6478    0.0000 H   0  0  0  0  0  0  0  0  0  0  0  0
    9.7294    0.1787    0.0000 H   0  0  0  0  0  0  0  0  0  0  0  0
    8.8570   -1.2359    0.0000 H   0  0  0  0  0  0  0  0  0  0  0  0
    9.3903   -1.8283    0.0000 H   0  0  0  0  0  0  0  0  0  0  0  0
    3.1215    1.5654    0.0000 H   0  0  0  0  0  0  0  0  0  0  0  0
    3.5200    0.8751    0.0000 H   0  0  0  0  0  0  0  0  0  0  0  0
   11.0473   -1.5017    0.0000 H   0  0  0  0  0  0  0  0  0  0  0  0
   10.5139   -0.9093    0.0000 H   0  0  0  0  0  0  0  0  0  0  0  0
    5.1350   -0.3522    0.0000 H   0  0  0  0  0  0  0  0  0  0  0  0
    9.5638   -2.6448    0.0000 H   0  0  0  0  0  0  0  0  0  0  0  0
    9.3176   -3.4028    0.0000 H   0  0  0  0  0  0  0  0  0  0  0  0
   12.2062   -2.7888    0.0000 H   0  0  0  0  0  0  0  0  0  0  0  0
   11.6729   -2.1965    0.0000 H   0  0  0  0  0  0  0  0  0  0  0  0
    6.0010    2.7678    0.0000 H   0  0  0  0  0  0  0  0  0  0  0  0
    9.4807   -4.1704    0.0000 H   0  0  0  0  0  0  0  0  0  0  0  0
   10.0140   -4.7627    0.0000 H   0  0  0  0  0  0  0  0  0  0  0  0
   12.1231   -4.3144    0.0000 H   0  0  0  0  0  0  0  0  0  0  0  0
   12.3694   -3.5564    0.0000 H   0  0  0  0  0  0  0  0  0  0  0  0
    2.3291    2.6478    0.0000 H   0  0  0  0  0  0  0  0  0  0  0  0
    5.1350    2.6478    0.0000 H   0  0  0  0  0  0  0  0  0  0  0  0
    2.3291    4.2678    0.0000 H   0  0  0  0  0  0  0  0  0  0  0  0
    5.1350    4.2678    0.0000 H   0  0  0  0  0  0  0  0  0  0  0  0
    3.7320    5.0778    0.0000 H   0  0  0  0  0  0  0  0  0  0  0  0
    5.1350   -1.7322    0.0000 H   0  0  0  0  0  0  0  0  0  0  0  0
    2.3100   -1.0053    0.0000 H   0  0  0  0  0  0  0  0  0  0  0  0
    1.4631   -1.2322    0.0000 H   0  0  0  0  0  0  0  0  0  0  0  0
    1.6900   -2.0792    0.0000 H   0  0  0  0  0  0  0  0  0  0  0  0
    5.1350   -3.3522    0.0000 H   0  0  0  0  0  0  0  0  0  0  0  0
    3.7320   -4.1622    0.0000 H   0  0  0  0  0  0  0  0  0  0  0  0
    2.0000   -4.1622    0.0000 H   0  0  0  0  0  0  0  0  0  0  0  0
  1 12  1  0  0  0  0
  1 14  1  0  0  0  0
  2 17  2  0  0  0  0
 19  3  1  6  0  0  0
  3 65  1  0  0  0  0
  4 18  2  0  0  0  0
  5 27  1  0  0  0  0
  5 28  1  0  0  0  0
  6 29  2  0  0  0  0
  7 38  1  0  0  0  0
  7 81  1  0  0  0  0
  8 13  1  0  0  0  0
  8 14  1  0  0  0  0
  8 18  1  0  0  0  0
  9 17  1  0  0  0  0
  9 21  1  0  0  0  0
  9 53  1  0  0  0  0
 10 23  1  0  0  0  0
 10 24  1  0  0  0  0
 10 25  1  0  0  0  0
 20 11  1  1  0  0  0
 11 29  1  0  0  0  0
 11 60  1  0  0  0  0
 12 13  1  0  0  0  0
 12 15  1  0  0  0  0
 12 16  1  0  0  0  0
 13 17  1  1  0  0  0
 13 42  1  0  0  0  0
 14 43  1  0  0  0  0
 14 44  1  0  0  0  0
 15 45  1  0  0  0  0
 15 46  1  0  0  0  0
 15 47  1  0  0  0  0
 16 48  1  0  0  0  0
 16 49  1  0  0  0  0
 16 50  1  0  0  0  0
 18 19  1  0  0  0  0
 19 20  1  0  0  0  0
 19 51  1  0  0  0  0
 20 22  1  0  0  0  0
 20 52  1  0  0  0  0
 21 23  1  0  0  0  0
 21 54  1  0  0  0  0
 21 55  1  0  0  0  0
 22 26  1  0  0  0  0
 22 56  1  0  0  0  0
 22 57  1  0  0  0  0
 23 58  1  0  0  0  0
 23 59  1  0  0  0  0
 24 27  1  0  0  0  0
 24 61  1  0  0  0  0
 24 62  1  0  0  0  0
 25 28  1  0  0  0  0
 25 63  1  0  0  0  0
 25 64  1  0  0  0  0
 26 30  2  0  0  0  0
 26 31  1  0  0  0  0
 27 66  1  0  0  0  0
 27 67  1  0  0  0  0
 28 68  1  0  0  0  0
 28 69  1  0  0  0  0
 29 32  1  0  0  0  0
 30 33  1  0  0  0  0
 30 70  1  0  0  0  0
 31 34  2  0  0  0  0
 31 71  1  0  0  0  0
 32 35  2  0  0  0  0
 32 37  1  0  0  0  0
 33 36  2  0  0  0  0
 33 72  1  0  0  0  0
 34 36  1  0  0  0  0
 34 73  1  0  0  0  0
 35 38  1  0  0  0  0
 35 39  1  0  0  0  0
 36 74  1  0  0  0  0
 37 40  2  0  0  0  0
 37 75  1  0  0  0  0
 38 41  2  0  0  0  0
 39 76  1  0  0  0  0
 39 77  1  0  0  0  0
 39 78  1  0  0  0  0
 40 41  1  0  0  0  0
 40 79  1  0  0  0  0
 41 80  1  0  0  0  0
M  END
> <PUBCHEM_COMPOUND_CID>
514515
> <PUBCHEM_COMPOUND_CANONICALIZED>
1
> <PUBCHEM_CACTVS_COMPLEXITY>
894
> <PUBCHEM_CACTVS_HBOND_ACCEPTOR>
8
> <PUBCHEM_CACTVS_HBOND_DONOR>
4
> <PUBCHEM_CACTVS_ROTATABLE_BOND>
10
> <PUBCHEM_CACTVS_SUBSKEYS>
AAADcfB7uABAAAAAAAAAAAAAAAAAAWAAAAA8YIAAAAAAAAABQAAAHgQQCAAADDzh2AayBoPABgiIAiFSEAKCAABkIBAIiIHODMgKdjqi1TOXcQhk1hGYmYe6yLCOgAABAAAYAAAAAAIAADAAAAAAAAAAAA==
> <PUBCHEM_IUPAC_OPENEYE_NAME>
(4R)-3-[(2S,3S)-2-hydroxy-3-[(3-hydroxy-2-methyl-benzoyl)amino]-4-phenyl-butanoyl]-5,5-dimethyl-N-(2-morpholinoethyl)thiazolidine-4-carboxamide
> <PUBCHEM_IUPAC_CAS_NAME>
(4R)-3-[(2S,3S)-2-hydroxy-3-[[(3-hydroxy-2-methylphenyl)-oxomethyl]amino]-1-oxo-4-phenylbutyl]-5,5-dimethyl-N-[2-(4-morpholinyl)ethyl]-4-thiazolidinecarboxamide
> <PUBCHEM_IUPAC_NAME_MARKUP>
(4<I>R</I>)-3-[(2<I>S</I>,3<I>S</I>)-2-hydroxy-3-[(3-hydroxy-2-methylbenzoyl)amino]-4-phenylbutanoyl]-5,5-dimethyl-<I>N</I>-(2-morpholin-4-ylethyl)-1,3-thiazolidine-4-carboxamide
> <PUBCHEM_IUPAC_NAME>
(4R)-3-[(2S,3S)-2-hydroxy-3-[(3-hydroxy-2-methylbenzoyl)amino]-4-phenylbutanoyl]-5,5-dimethyl-N-(2-morpholin-4-ylethyl)-1,3-thiazolidine-4-carboxamide
> <PUBCHEM_IUPAC_SYSTEMATIC_NAME>
(4R)-5,5-dimethyl-3-[(2S,3S)-3-[(2-methyl-3-oxidanyl-phenyl)carbonylamino]-2-oxidanyl-4-phenyl-butanoyl]-N-(2-morpholin-4-ylethyl)-1,3-thiazolidine-4-carboxamide
> <PUBCHEM_IUPAC_TRADITIONAL_NAME>
(4R)-3-[(2S,3S)-2-hydroxy-3-[(3-hydroxy-2-methyl-benzoyl)amino]-4-phenyl-butanoyl]-5,5-dimethyl-N-(2-morpholinoethyl)thiazolidine-4-carboxamide
> <PUBCHEM_IUPAC_INCHI>
InChI=1S/C30H40N4O6S/c1-20-22(10-7-11-24(20)35)27(37)32-23(18-21-8-5-4-6-9-21)25(36)29(39)34-19-41-30(2,3)26(34)28(38)31-12-13-33-14-16-40-17-15-33/h4-11,23,25-26,35-36H,12-19H2,1-3H3,(H,31,38)(H,32,37)/t23-,25-,26+/m0/s1
> <PUBCHEM_IUPAC_INCHIKEY>
KRZWYYCUZFHGJP-AYRHNUGRSA-N
> <PUBCHEM_XLOGP3_AA>
2.3
> <PUBCHEM_EXACT_MASS>
584.26685618
> <PUBCHEM_MOLECULAR_FORMULA>
C30H40N4O6S
> <PUBCHEM_MOLECULAR_WEIGHT>
584.7
> <PUBCHEM_OPENEYE_CAN_SMILES>
CC1=C(C=CC=C1O)C(=O)NC(CC2=CC=CC=C2)C(C(=O)N3CSC(C3C(=O)NCCN4CCOCC4)(C)C)O
> <PUBCHEM_OPENEYE_ISO_SMILES>
CC1=C(C=CC=C1O)C(=O)N[C@@H](CC2=CC=CC=C2)[C@@H](C(=O)N3CSC([C@H]3C(=O)NCCN4CCOCC4)(C)C)O
> <PUBCHEM_CACTVS_TPSA>
157
> <PUBCHEM_MONOISOTOPIC_WEIGHT>
584.26685618
> <PUBCHEM_TOTAL_CHARGE>
0
> <PUBCHEM_HEAVY_ATOM_COUNT>
41
> <PUBCHEM_ATOM_DEF_STEREO_COUNT>
3
> <PUBCHEM_ATOM_UDEF_STEREO_COUNT>
0
> <PUBCHEM_BOND_DEF_STEREO_COUNT>
0
> <PUBCHEM_BOND_UDEF_STEREO_COUNT>
0
> <PUBCHEM_ISOTOPIC_ATOM_COUNT>
0
> <PUBCHEM_COMPONENT_COUNT>
1
> <PUBCHEM_CACTVS_TAUTO_COUNT>
-1
> <PUBCHEM_COORDINATE_TYPE>
1
5
255
> <PUBCHEM_BONDANNOTATIONS>
20  11  5
13  17  5
26  30  8
26  31  8
19  3  6
30  33  8
31  34  8
32  35  8
32  37  8
33  36  8
34  36  8
35  38  8
37  40  8
38  41  8
40  41  8
$$$$
