514506
  -OEChem-10302200282D
 79 83  0     1  0  0  0  0  0999 V2000
    3.2601    0.7911    0.0000 S   0  0  0  0  0  0  0  0  0  0  0  0
    6.4383   -5.0525    0.0000 S   0  0  0  0  0  0  0  0  0  0  0  0
    2.8940   -2.2478    0.0000 O   0  0  0  0  0  0  0  0  0  0  0  0
    6.0554    1.1783    0.0000 O   0  0  0  0  0  0  0  0  0  0  0  0
    5.7281   -1.4472    0.0000 O   0  0  0  0  0  0  0  0  0  0  0  0
    6.7985    1.8474    0.0000 O   0  0  0  0  0  0  0  0  0  0  0  0
    8.8200    4.8329    0.0000 O   0  0  0  0  0  0  0  0  0  0  0  0
    4.5691   -0.1600    0.0000 N   0  0  0  0  0  0  0  0  0  0  0  0
    4.6261   -2.2478    0.0000 N   0  0  0  0  0  0  0  0  0  0  0  0
    7.9575    0.5602    0.0000 N   0  0  0  0  0  0  0  0  0  0  0  0
    3.7601   -0.7478    0.0000 C   0  0  1  0  0  0  0  0  0  0  0  0
    2.9511   -0.1600    0.0000 C   0  0  0  0  0  0  0  0  0  0  0  0
    4.2601    0.7911    0.0000 C   0  0  0  0  0  0  0  0  0  0  0  0
    4.6261   -3.2478    0.0000 C   0  0  2  0  0  0  0  0  0  0  0  0
    3.7601   -1.7478    0.0000 C   0  0  0  0  0  0  0  0  0  0  0  0
    2.0000    0.1490    0.0000 C   0  0  0  0  0  0  0  0  0  0  0  0
    2.3633   -0.9690    0.0000 C   0  0  0  0  0  0  0  0  0  0  0  0
    3.7601   -3.7478    0.0000 C   0  0  0  0  0  0  0  0  0  0  0  0
    5.5202   -0.4690    0.0000 C   0  0  0  0  0  0  0  0  0  0  0  0
    5.4921   -3.7478    0.0000 C   0  0  0  0  0  0  0  0  0  0  0  0
    3.7601   -4.7478    0.0000 C   0  0  0  0  0  0  0  0  0  0  0  0
    6.2633    0.2001    0.0000 C   0  0  2  0  0  0  0  0  0  0  0  0
    4.6261   -5.2478    0.0000 C   0  0  0  0  0  0  0  0  0  0  0  0
    5.4921   -4.7478    0.0000 C   0  0  0  0  0  0  0  0  0  0  0  0
    7.2144   -0.1089    0.0000 C   0  0  2  0  0  0  0  0  0  0  0  0
    6.4383   -3.4431    0.0000 C   0  0  0  0  0  0  0  0  0  0  0  0
    7.4223   -1.0870    0.0000 C   0  0  0  0  0  0  0  0  0  0  0  0
    7.0220   -4.2478    0.0000 C   0  0  0  0  0  0  0  0  0  0  0  0
    8.3733   -1.3961    0.0000 C   0  0  0  0  0  0  0  0  0  0  0  0
    7.7496    1.5384    0.0000 C   0  0  0  0  0  0  0  0  0  0  0  0
    9.1165   -0.7269    0.0000 C   0  0  0  0  0  0  0  0  0  0  0  0
    8.5812   -2.3742    0.0000 C   0  0  0  0  0  0  0  0  0  0  0  0
    8.4927    2.2075    0.0000 C   0  0  0  0  0  0  0  0  0  0  0  0
   10.0675   -1.0360    0.0000 C   0  0  0  0  0  0  0  0  0  0  0  0
    9.5323   -2.6832    0.0000 C   0  0  0  0  0  0  0  0  0  0  0  0
    8.2848    3.1856    0.0000 C   0  0  0  0  0  0  0  0  0  0  0  0
   10.2754   -2.0141    0.0000 C   0  0  0  0  0  0  0  0  0  0  0  0
    9.4438    1.8985    0.0000 C   0  0  0  0  0  0  0  0  0  0  0  0
    9.0280    3.8548    0.0000 C   0  0  0  0  0  0  0  0  0  0  0  0
    7.3338    3.4947    0.0000 C   0  0  0  0  0  0  0  0  0  0  0  0
   10.1869    2.5676    0.0000 C   0  0  0  0  0  0  0  0  0  0  0  0
    9.9790    3.5458    0.0000 C   0  0  0  0  0  0  0  0  0  0  0  0
    4.3125   -1.0293    0.0000 H   0  0  0  0  0  0  0  0  0  0  0  0
    4.8665    0.9200    0.0000 H   0  0  0  0  0  0  0  0  0  0  0  0
    4.1953    1.4077    0.0000 H   0  0  0  0  0  0  0  0  0  0  0  0
    5.1630   -2.9378    0.0000 H   0  0  0  0  0  0  0  0  0  0  0  0
    2.1916    0.7387    0.0000 H   0  0  0  0  0  0  0  0  0  0  0  0
    1.4103    0.3406    0.0000 H   0  0  0  0  0  0  0  0  0  0  0  0
    1.8084   -0.4406    0.0000 H   0  0  0  0  0  0  0  0  0  0  0  0
    1.8617   -0.6046    0.0000 H   0  0  0  0  0  0  0  0  0  0  0  0
    1.9988   -1.4706    0.0000 H   0  0  0  0  0  0  0  0  0  0  0  0
    2.8649   -1.3334    0.0000 H   0  0  0  0  0  0  0  0  0  0  0  0
    3.5480   -3.1652    0.0000 H   0  0  0  0  0  0  0  0  0  0  0  0
    3.1495   -3.8554    0.0000 H   0  0  0  0  0  0  0  0  0  0  0  0
    5.1630   -1.9378    0.0000 H   0  0  0  0  0  0  0  0  0  0  0  0
    3.1495   -4.6401    0.0000 H   0  0  0  0  0  0  0  0  0  0  0  0
    3.5480   -5.3304    0.0000 H   0  0  0  0  0  0  0  0  0  0  0  0
    5.6736    0.3917    0.0000 H   0  0  0  0  0  0  0  0  0  0  0  0
    4.2276   -5.7227    0.0000 H   0  0  0  0  0  0  0  0  0  0  0  0
    5.0246   -5.7227    0.0000 H   0  0  0  0  0  0  0  0  0  0  0  0
    7.0854    0.4975    0.0000 H   0  0  0  0  0  0  0  0  0  0  0  0
    6.6310   -2.8537    0.0000 H   0  0  0  0  0  0  0  0  0  0  0  0
    6.8026   -1.1087    0.0000 H   0  0  0  0  0  0  0  0  0  0  0  0
    7.3360   -1.7010    0.0000 H   0  0  0  0  0  0  0  0  0  0  0  0
    8.5472    0.3686    0.0000 H   0  0  0  0  0  0  0  0  0  0  0  0
    7.6420   -4.2478    0.0000 H   0  0  0  0  0  0  0  0  0  0  0  0
    5.4657    1.3698    0.0000 H   0  0  0  0  0  0  0  0  0  0  0  0
    8.9876   -0.1205    0.0000 H   0  0  0  0  0  0  0  0  0  0  0  0
    8.1205   -2.7891    0.0000 H   0  0  0  0  0  0  0  0  0  0  0  0
   10.5283   -0.6211    0.0000 H   0  0  0  0  0  0  0  0  0  0  0  0
    9.6612   -3.2897    0.0000 H   0  0  0  0  0  0  0  0  0  0  0  0
   10.8651   -2.2057    0.0000 H   0  0  0  0  0  0  0  0  0  0  0  0
    9.5727    1.2920    0.0000 H   0  0  0  0  0  0  0  0  0  0  0  0
    7.5254    4.0843    0.0000 H   0  0  0  0  0  0  0  0  0  0  0  0
    6.7441    3.6863    0.0000 H   0  0  0  0  0  0  0  0  0  0  0  0
    7.1422    2.9050    0.0000 H   0  0  0  0  0  0  0  0  0  0  0  0
   10.7766    2.3760    0.0000 H   0  0  0  0  0  0  0  0  0  0  0  0
   10.4398    3.9606    0.0000 H   0  0  0  0  0  0  0  0  0  0  0  0
    9.2808    5.2478    0.0000 H   0  0  0  0  0  0  0  0  0  0  0  0
  1 12  1  0  0  0  0
  1 13  1  0  0  0  0
  2 24  1  0  0  0  0
  2 28  1  0  0  0  0
  3 15  2  0  0  0  0
 22  4  1  1  0  0  0
  4 67  1  0  0  0  0
  5 19  2  0  0  0  0
  6 30  2  0  0  0  0
  7 39  1  0  0  0  0
  7 79  1  0  0  0  0
  8 11  1  0  0  0  0
  8 13  1  0  0  0  0
  8 19  1  0  0  0  0
 14  9  1  1  0  0  0
  9 15  1  0  0  0  0
  9 55  1  0  0  0  0
 25 10  1  1  0  0  0
 10 30  1  0  0  0  0
 10 65  1  0  0  0  0
 11 12  1  0  0  0  0
 11 15  1  6  0  0  0
 11 43  1  0  0  0  0
 12 16  1  0  0  0  0
 12 17  1  0  0  0  0
 13 44  1  0  0  0  0
 13 45  1  0  0  0  0
 14 18  1  0  0  0  0
 14 20  1  0  0  0  0
 14 46  1  0  0  0  0
 16 47  1  0  0  0  0
 16 48  1  0  0  0  0
 16 49  1  0  0  0  0
 17 50  1  0  0  0  0
 17 51  1  0  0  0  0
 17 52  1  0  0  0  0
 18 21  1  0  0  0  0
 18 53  1  0  0  0  0
 18 54  1  0  0  0  0
 19 22  1  0  0  0  0
 20 24  2  0  0  0  0
 20 26  1  0  0  0  0
 21 23  1  0  0  0  0
 21 56  1  0  0  0  0
 21 57  1  0  0  0  0
 22 25  1  0  0  0  0
 22 58  1  0  0  0  0
 23 24  1  0  0  0  0
 23 59  1  0  0  0  0
 23 60  1  0  0  0  0
 25 27  1  0  0  0  0
 25 61  1  0  0  0  0
 26 28  2  0  0  0  0
 26 62  1  0  0  0  0
 27 29  1  0  0  0  0
 27 63  1  0  0  0  0
 27 64  1  0  0  0  0
 28 66  1  0  0  0  0
 29 31  2  0  0  0  0
 29 32  1  0  0  0  0
 30 33  1  0  0  0  0
 31 34  1  0  0  0  0
 31 68  1  0  0  0  0
 32 35  2  0  0  0  0
 32 69  1  0  0  0  0
 33 36  2  0  0  0  0
 33 38  1  0  0  0  0
 34 37  2  0  0  0  0
 34 70  1  0  0  0  0
 35 37  1  0  0  0  0
 35 71  1  0  0  0  0
 36 39  1  0  0  0  0
 36 40  1  0  0  0  0
 37 72  1  0  0  0  0
 38 41  2  0  0  0  0
 38 73  1  0  0  0  0
 39 42  2  0  0  0  0
 40 74  1  0  0  0  0
 40 75  1  0  0  0  0
 40 76  1  0  0  0  0
 41 42  1  0  0  0  0
 41 77  1  0  0  0  0
 42 78  1  0  0  0  0
M  END
> <PUBCHEM_COMPOUND_CID>
514506
> <PUBCHEM_COMPOUND_CANONICALIZED>
1
> <PUBCHEM_CACTVS_COMPLEXITY>
976
> <PUBCHEM_CACTVS_HBOND_ACCEPTOR>
7
> <PUBCHEM_CACTVS_HBOND_DONOR>
4
> <PUBCHEM_CACTVS_ROTATABLE_BOND>
8
> <PUBCHEM_CACTVS_SUBSKEYS>
AAADcfB/OABgAAAAAAAAAAAAAAAAAWJAAAAwYMAAAAAAAEgB0AAAHgQQCAAADDzl2AayB4PAAgiMAiFSEAKDAIBkKBBIiJnODMgKdjqi1TOUcQhk1hG4mYe6yLCOgAABAAAYAAAAAAIAQDwAAAAAAAAAAA==
> <PUBCHEM_IUPAC_OPENEYE_NAME>
(4R)-3-[(2S,3S)-2-hydroxy-3-[(3-hydroxy-2-methyl-benzoyl)amino]-4-phenyl-butanoyl]-5,5-dimethyl-N-[(4R)-4,5,6,7-tetrahydrobenzothiophen-4-yl]thiazolidine-4-carboxamide
> <PUBCHEM_IUPAC_CAS_NAME>
(4R)-3-[(2S,3S)-2-hydroxy-3-[[(3-hydroxy-2-methylphenyl)-oxomethyl]amino]-1-oxo-4-phenylbutyl]-5,5-dimethyl-N-[(4R)-4,5,6,7-tetrahydro-1-benzothiophen-4-yl]-4-thiazolidinecarboxamide
> <PUBCHEM_IUPAC_NAME_MARKUP>
(4<I>R</I>)-3-[(2<I>S</I>,3<I>S</I>)-2-hydroxy-3-[(3-hydroxy-2-methylbenzoyl)amino]-4-phenylbutanoyl]-5,5-dimethyl-<I>N</I>-[(4<I>R</I>)-4,5,6,7-tetrahydro-1-benzothiophen-4-yl]-1,3-thiazolidine-4-carboxamide
> <PUBCHEM_IUPAC_NAME>
(4R)-3-[(2S,3S)-2-hydroxy-3-[(3-hydroxy-2-methylbenzoyl)amino]-4-phenylbutanoyl]-5,5-dimethyl-N-[(4R)-4,5,6,7-tetrahydro-1-benzothiophen-4-yl]-1,3-thiazolidine-4-carboxamide
> <PUBCHEM_IUPAC_SYSTEMATIC_NAME>
(4R)-5,5-dimethyl-3-[(2S,3S)-3-[(2-methyl-3-oxidanyl-phenyl)carbonylamino]-2-oxidanyl-4-phenyl-butanoyl]-N-[(4R)-4,5,6,7-tetrahydro-1-benzothiophen-4-yl]-1,3-thiazolidine-4-carboxamide
> <PUBCHEM_IUPAC_TRADITIONAL_NAME>
(4R)-3-[(2S,3S)-2-hydroxy-3-[(3-hydroxy-2-methyl-benzoyl)amino]-4-phenyl-butanoyl]-5,5-dimethyl-N-[(4R)-4,5,6,7-tetrahydrobenzothiophen-4-yl]thiazolidine-4-carboxamide
> <PUBCHEM_IUPAC_INCHI>
InChI=1S/C32H37N3O5S2/c1-19-21(11-7-13-25(19)36)29(38)34-24(17-20-9-5-4-6-10-20)27(37)31(40)35-18-42-32(2,3)28(35)30(39)33-23-12-8-14-26-22(23)15-16-41-26/h4-7,9-11,13,15-16,23-24,27-28,36-37H,8,12,14,17-18H2,1-3H3,(H,33,39)(H,34,38)/t23-,24+,27+,28-/m1/s1
> <PUBCHEM_IUPAC_INCHIKEY>
BASRWATUZJOIPU-YFQNEARWSA-N
> <PUBCHEM_XLOGP3_AA>
4.6
> <PUBCHEM_EXACT_MASS>
607.21746364
> <PUBCHEM_MOLECULAR_FORMULA>
C32H37N3O5S2
> <PUBCHEM_MOLECULAR_WEIGHT>
607.8
> <PUBCHEM_OPENEYE_CAN_SMILES>
CC1=C(C=CC=C1O)C(=O)NC(CC2=CC=CC=C2)C(C(=O)N3CSC(C3C(=O)NC4CCCC5=C4C=CS5)(C)C)O
> <PUBCHEM_OPENEYE_ISO_SMILES>
CC1=C(C=CC=C1O)C(=O)N[C@@H](CC2=CC=CC=C2)[C@@H](C(=O)N3CSC([C@H]3C(=O)N[C@@H]4CCCC5=C4C=CS5)(C)C)O
> <PUBCHEM_CACTVS_TPSA>
173
> <PUBCHEM_MONOISOTOPIC_WEIGHT>
607.21746364
> <PUBCHEM_TOTAL_CHARGE>
0
> <PUBCHEM_HEAVY_ATOM_COUNT>
42
> <PUBCHEM_ATOM_DEF_STEREO_COUNT>
4
> <PUBCHEM_ATOM_UDEF_STEREO_COUNT>
0
> <PUBCHEM_BOND_DEF_STEREO_COUNT>
0
> <PUBCHEM_BOND_UDEF_STEREO_COUNT>
0
> <PUBCHEM_ISOTOPIC_ATOM_COUNT>
0
> <PUBCHEM_COMPONENT_COUNT>
1
> <PUBCHEM_CACTVS_TAUTO_COUNT>
-1
> <PUBCHEM_COORDINATE_TYPE>
1
5
255
> <PUBCHEM_BONDANNOTATIONS>
25  10  5
11  15  6
2  24  8
2  28  8
20  24  8
20  26  8
26  28  8
29  31  8
29  32  8
31  34  8
32  35  8
33  36  8
33  38  8
34  37  8
35  37  8
36  39  8
38  41  8
39  42  8
22  4  5
41  42  8
14  9  5
$$$$
