514551
  -OEChem-10302200282D
 76 80  0     1  0  0  0  0  0999 V2000
    9.2460    0.8043    0.0000 S   0  0  0  0  0  0  0  0  0  0  0  0
    4.2213    3.1989    0.0000 S   0  0  0  0  0  0  0  0  0  0  0  0
    9.6121   -2.2346    0.0000 O   0  0  0  0  0  0  0  0  0  0  0  0
    6.4507    1.1915    0.0000 O   0  0  0  0  0  0  0  0  0  0  0  0
    6.7780   -1.4340    0.0000 O   0  0  0  0  0  0  0  0  0  0  0  0
    7.8800   -5.2346    0.0000 O   0  0  0  0  0  0  0  0  0  0  0  0
    5.7076    1.8606    0.0000 O   0  0  0  0  0  0  0  0  0  0  0  0
    7.9370   -0.1468    0.0000 N   0  0  0  0  0  0  0  0  0  0  0  0
    7.8800   -2.2346    0.0000 N   0  0  0  0  0  0  0  0  0  0  0  0
    4.5486    0.5734    0.0000 N   0  0  0  0  0  0  0  0  0  0  0  0
    3.5827    4.8625    0.0000 N   0  0  0  0  0  0  0  0  0  0  0  0
    2.5000    3.6601    0.0000 N   0  0  0  0  0  0  0  0  0  0  0  0
    2.6691    5.2692    0.0000 N   0  0  0  0  0  0  0  0  0  0  0  0
    9.5550   -0.1468    0.0000 C   0  0  0  0  0  0  0  0  0  0  0  0
    8.7460   -0.7346    0.0000 C   0  0  1  0  0  0  0  0  0  0  0  0
    8.2460    0.8043    0.0000 C   0  0  0  0  0  0  0  0  0  0  0  0
   10.5061    0.1622    0.0000 C   0  0  0  0  0  0  0  0  0  0  0  0
   10.1428   -0.9558    0.0000 C   0  0  0  0  0  0  0  0  0  0  0  0
    8.7460   -1.7346    0.0000 C   0  0  0  0  0  0  0  0  0  0  0  0
    6.9860   -0.4558    0.0000 C   0  0  0  0  0  0  0  0  0  0  0  0
    6.2428    0.2133    0.0000 C   0  0  2  0  0  0  0  0  0  0  0  0
    7.8800   -3.2346    0.0000 C   0  0  1  0  0  0  0  0  0  0  0  0
    5.2918   -0.0957    0.0000 C   0  0  2  0  0  0  0  0  0  0  0  0
    8.7460   -3.7346    0.0000 C   0  0  0  0  0  0  0  0  0  0  0  0
    7.0140   -3.7346    0.0000 C   0  0  0  0  0  0  0  0  0  0  0  0
    5.0838   -1.0738    0.0000 C   0  0  0  0  0  0  0  0  0  0  0  0
    8.7460   -4.7346    0.0000 C   0  0  0  0  0  0  0  0  0  0  0  0
    7.0140   -4.7346    0.0000 C   0  0  0  0  0  0  0  0  0  0  0  0
    6.1200   -3.1999    0.0000 C   0  0  0  0  0  0  0  0  0  0  0  0
    4.1328   -1.3829    0.0000 C   0  0  0  0  0  0  0  0  0  0  0  0
    6.1200   -5.2692    0.0000 C   0  0  0  0  0  0  0  0  0  0  0  0
    4.7565    1.5516    0.0000 C   0  0  0  0  0  0  0  0  0  0  0  0
    5.2140   -3.7138    0.0000 C   0  0  0  0  0  0  0  0  0  0  0  0
    5.2140   -4.7554    0.0000 C   0  0  0  0  0  0  0  0  0  0  0  0
    3.9249   -2.3610    0.0000 C   0  0  0  0  0  0  0  0  0  0  0  0
    3.3896   -0.7137    0.0000 C   0  0  0  0  0  0  0  0  0  0  0  0
    4.0134    2.2207    0.0000 C   0  0  0  0  0  0  0  0  0  0  0  0
    2.9738   -2.6700    0.0000 C   0  0  0  0  0  0  0  0  0  0  0  0
    2.4386   -1.0228    0.0000 C   0  0  0  0  0  0  0  0  0  0  0  0
    2.2307   -2.0009    0.0000 C   0  0  0  0  0  0  0  0  0  0  0  0
    3.4782    3.8680    0.0000 C   0  0  0  0  0  0  0  0  0  0  0  0
    2.0000    4.5261    0.0000 C   0  0  0  0  0  0  0  0  0  0  0  0
    8.1936   -1.0161    0.0000 H   0  0  0  0  0  0  0  0  0  0  0  0
    8.3108    1.4209    0.0000 H   0  0  0  0  0  0  0  0  0  0  0  0
    7.6396    0.9332    0.0000 H   0  0  0  0  0  0  0  0  0  0  0  0
   10.6977   -0.4274    0.0000 H   0  0  0  0  0  0  0  0  0  0  0  0
   11.0958    0.3538    0.0000 H   0  0  0  0  0  0  0  0  0  0  0  0
   10.3145    0.7519    0.0000 H   0  0  0  0  0  0  0  0  0  0  0  0
    9.6412   -1.3202    0.0000 H   0  0  0  0  0  0  0  0  0  0  0  0
   10.5073   -1.4574    0.0000 H   0  0  0  0  0  0  0  0  0  0  0  0
   10.6444   -0.5914    0.0000 H   0  0  0  0  0  0  0  0  0  0  0  0
    5.7821    0.6282    0.0000 H   0  0  0  0  0  0  0  0  0  0  0  0
    8.4169   -2.9246    0.0000 H   0  0  0  0  0  0  0  0  0  0  0  0
    7.3431   -1.9246    0.0000 H   0  0  0  0  0  0  0  0  0  0  0  0
    4.7021   -0.2873    0.0000 H   0  0  0  0  0  0  0  0  0  0  0  0
    9.3566   -3.8422    0.0000 H   0  0  0  0  0  0  0  0  0  0  0  0
    8.9581   -3.1520    0.0000 H   0  0  0  0  0  0  0  0  0  0  0  0
    5.1701   -1.6878    0.0000 H   0  0  0  0  0  0  0  0  0  0  0  0
    5.7035   -1.0955    0.0000 H   0  0  0  0  0  0  0  0  0  0  0  0
    8.9581   -5.3172    0.0000 H   0  0  0  0  0  0  0  0  0  0  0  0
    9.3566   -4.6269    0.0000 H   0  0  0  0  0  0  0  0  0  0  0  0
    3.9590    0.3818    0.0000 H   0  0  0  0  0  0  0  0  0  0  0  0
    7.0404    1.3830    0.0000 H   0  0  0  0  0  0  0  0  0  0  0  0
    6.1272   -2.5800    0.0000 H   0  0  0  0  0  0  0  0  0  0  0  0
    6.1272   -5.8892    0.0000 H   0  0  0  0  0  0  0  0  0  0  0  0
    4.6782   -3.4017    0.0000 H   0  0  0  0  0  0  0  0  0  0  0  0
    4.6782   -5.0675    0.0000 H   0  0  0  0  0  0  0  0  0  0  0  0
    4.3856   -2.7759    0.0000 H   0  0  0  0  0  0  0  0  0  0  0  0
    3.5186   -0.1073    0.0000 H   0  0  0  0  0  0  0  0  0  0  0  0
    3.4385    2.4530    0.0000 H   0  0  0  0  0  0  0  0  0  0  0  0
    3.6848    1.6949    0.0000 H   0  0  0  0  0  0  0  0  0  0  0  0
    2.8449   -3.2765    0.0000 H   0  0  0  0  0  0  0  0  0  0  0  0
    1.9778   -0.6079    0.0000 H   0  0  0  0  0  0  0  0  0  0  0  0
    1.6410   -2.1925    0.0000 H   0  0  0  0  0  0  0  0  0  0  0  0
    4.1196    5.1725    0.0000 H   0  0  0  0  0  0  0  0  0  0  0  0
    1.3834    4.5909    0.0000 H   0  0  0  0  0  0  0  0  0  0  0  0
  1 14  1  0  0  0  0
  1 16  1  0  0  0  0
  2 37  1  0  0  0  0
  2 41  1  0  0  0  0
  3 19  2  0  0  0  0
 21  4  1  6  0  0  0
  4 63  1  0  0  0  0
  5 20  2  0  0  0  0
  6 27  1  0  0  0  0
  6 28  1  0  0  0  0
  7 32  2  0  0  0  0
  8 15  1  0  0  0  0
  8 16  1  0  0  0  0
  8 20  1  0  0  0  0
  9 19  1  0  0  0  0
 22  9  1  1  0  0  0
  9 54  1  0  0  0  0
 23 10  1  6  0  0  0
 10 32  1  0  0  0  0
 10 62  1  0  0  0  0
 11 13  1  0  0  0  0
 11 41  1  0  0  0  0
 11 75  1  0  0  0  0
 12 41  2  0  0  0  0
 12 42  1  0  0  0  0
 13 42  2  0  0  0  0
 14 15  1  0  0  0  0
 14 17  1  0  0  0  0
 14 18  1  0  0  0  0
 15 19  1  1  0  0  0
 15 43  1  0  0  0  0
 16 44  1  0  0  0  0
 16 45  1  0  0  0  0
 17 46  1  0  0  0  0
 17 47  1  0  0  0  0
 17 48  1  0  0  0  0
 18 49  1  0  0  0  0
 18 50  1  0  0  0  0
 18 51  1  0  0  0  0
 20 21  1  0  0  0  0
 21 23  1  0  0  0  0
 21 52  1  0  0  0  0
 22 24  1  0  0  0  0
 22 25  1  0  0  0  0
 22 53  1  0  0  0  0
 23 26  1  0  0  0  0
 23 55  1  0  0  0  0
 24 27  1  0  0  0  0
 24 56  1  0  0  0  0
 24 57  1  0  0  0  0
 25 28  1  0  0  0  0
 25 29  2  0  0  0  0
 26 30  1  0  0  0  0
 26 58  1  0  0  0  0
 26 59  1  0  0  0  0
 27 60  1  0  0  0  0
 27 61  1  0  0  0  0
 28 31  2  0  0  0  0
 29 33  1  0  0  0  0
 29 64  1  0  0  0  0
 30 35  2  0  0  0  0
 30 36  1  0  0  0  0
 31 34  1  0  0  0  0
 31 65  1  0  0  0  0
 32 37  1  0  0  0  0
 33 34  2  0  0  0  0
 33 66  1  0  0  0  0
 34 67  1  0  0  0  0
 35 38  1  0  0  0  0
 35 68  1  0  0  0  0
 36 39  2  0  0  0  0
 36 69  1  0  0  0  0
 37 70  1  0  0  0  0
 37 71  1  0  0  0  0
 38 40  2  0  0  0  0
 38 72  1  0  0  0  0
 39 40  1  0  0  0  0
 39 73  1  0  0  0  0
 40 74  1  0  0  0  0
 42 76  1  0  0  0  0
M  END
> <PUBCHEM_COMPOUND_CID>
514551
> <PUBCHEM_COMPOUND_CANONICALIZED>
1
> <PUBCHEM_CACTVS_COMPLEXITY>
954
> <PUBCHEM_CACTVS_HBOND_ACCEPTOR>
9
> <PUBCHEM_CACTVS_HBOND_DONOR>
4
> <PUBCHEM_CACTVS_ROTATABLE_BOND>
10
> <PUBCHEM_CACTVS_SUBSKEYS>
AAADcfB7uABgAAAAAAAAAAAAAAAAAWLAAAA0YIAAAAAAAACR0AAAHgQYCAAADDzl2Aa3FofrFgiqAiFTNAKSWgvwoJAN6IHODIiOfjqk8TuWeCjm1hGYqAeYyKCOAAAAAAAIAAAAAAAAABAAAAAAAAAAAA==
> <PUBCHEM_IUPAC_OPENEYE_NAME>
(4R)-N-[(4S)-chroman-4-yl]-3-[(2S,3S)-2-hydroxy-4-phenyl-3-[[2-(1H-1,2,4-triazol-5-ylsulfanyl)acetyl]amino]butanoyl]-5,5-dimethyl-thiazolidine-4-carboxamide
> <PUBCHEM_IUPAC_CAS_NAME>
(4R)-N-[(4S)-3,4-dihydro-2H-1-benzopyran-4-yl]-3-[(2S,3S)-2-hydroxy-1-oxo-3-[[1-oxo-2-(1H-1,2,4-triazol-5-ylthio)ethyl]amino]-4-phenylbutyl]-5,5-dimethyl-4-thiazolidinecarboxamide
> <PUBCHEM_IUPAC_NAME_MARKUP>
(4<I>R</I>)-<I>N</I>-[(4<I>S</I>)-3,4-dihydro-2<I>H</I>-chromen-4-yl]-3-[(2<I>S</I>,3<I>S</I>)-2-hydroxy-4-phenyl-3-[[2-(1<I>H</I>-1,2,4-triazol-5-ylsulfanyl)acetyl]amino]butanoyl]-5,5-dimethyl-1,3-thiazolidine-4-carboxamide
> <PUBCHEM_IUPAC_NAME>
(4R)-N-[(4S)-3,4-dihydro-2H-chromen-4-yl]-3-[(2S,3S)-2-hydroxy-4-phenyl-3-[[2-(1H-1,2,4-triazol-5-ylsulfanyl)acetyl]amino]butanoyl]-5,5-dimethyl-1,3-thiazolidine-4-carboxamide
> <PUBCHEM_IUPAC_SYSTEMATIC_NAME>
(4R)-N-[(4S)-3,4-dihydro-2H-chromen-4-yl]-5,5-dimethyl-3-[(2S,3S)-2-oxidanyl-4-phenyl-3-[2-(1H-1,2,4-triazol-5-ylsulfanyl)ethanoylamino]butanoyl]-1,3-thiazolidine-4-carboxamide
> <PUBCHEM_IUPAC_TRADITIONAL_NAME>
(4R)-N-[(4S)-chroman-4-yl]-3-[(2S,3S)-2-hydroxy-4-phenyl-3-[[2-(1H-1,2,4-triazol-5-ylthio)acetyl]amino]butanoyl]-5,5-dimethyl-thiazolidine-4-carboxamide
> <PUBCHEM_IUPAC_INCHI>
InChI=1S/C29H34N6O5S2/c1-29(2)25(26(38)33-20-12-13-40-22-11-7-6-10-19(20)22)35(17-42-29)27(39)24(37)21(14-18-8-4-3-5-9-18)32-23(36)15-41-28-30-16-31-34-28/h3-11,16,20-21,24-25,37H,12-15,17H2,1-2H3,(H,32,36)(H,33,38)(H,30,31,34)/t20-,21-,24-,25+/m0/s1
> <PUBCHEM_IUPAC_INCHIKEY>
OHZNAOCAJUBYHD-WIHVIGOGSA-N
> <PUBCHEM_XLOGP3_AA>
3.2
> <PUBCHEM_EXACT_MASS>
610.20321055
> <PUBCHEM_MOLECULAR_FORMULA>
C29H34N6O5S2
> <PUBCHEM_MOLECULAR_WEIGHT>
610.8
> <PUBCHEM_OPENEYE_CAN_SMILES>
CC1(C(N(CS1)C(=O)C(C(CC2=CC=CC=C2)NC(=O)CSC3=NC=NN3)O)C(=O)NC4CCOC5=CC=CC=C45)C
> <PUBCHEM_OPENEYE_ISO_SMILES>
CC1([C@H](N(CS1)C(=O)[C@H]([C@H](CC2=CC=CC=C2)NC(=O)CSC3=NC=NN3)O)C(=O)N[C@H]4CCOC5=CC=CC=C45)C
> <PUBCHEM_CACTVS_TPSA>
200
> <PUBCHEM_MONOISOTOPIC_WEIGHT>
610.20321055
> <PUBCHEM_TOTAL_CHARGE>
0
> <PUBCHEM_HEAVY_ATOM_COUNT>
42
> <PUBCHEM_ATOM_DEF_STEREO_COUNT>
4
> <PUBCHEM_ATOM_UDEF_STEREO_COUNT>
0
> <PUBCHEM_BOND_DEF_STEREO_COUNT>
0
> <PUBCHEM_BOND_UDEF_STEREO_COUNT>
0
> <PUBCHEM_ISOTOPIC_ATOM_COUNT>
0
> <PUBCHEM_COMPONENT_COUNT>
1
> <PUBCHEM_CACTVS_TAUTO_COUNT>
-1
> <PUBCHEM_COORDINATE_TYPE>
1
5
255
> <PUBCHEM_BONDANNOTATIONS>
23  10  6
11  13  8
11  41  8
12  41  8
12  42  8
13  42  8
15  19  5
25  28  8
25  29  8
28  31  8
29  33  8
30  35  8
30  36  8
31  34  8
33  34  8
35  38  8
36  39  8
38  40  8
39  40  8
21  4  6
22  9  5
$$$$
