514527
  -OEChem-10302200282D
 80 84  0     1  0  0  0  0  0999 V2000
    6.0509    2.3995    0.0000 S   0  0  0  0  0  0  0  0  0  0  0  0
    8.8656    2.1970    0.0000 O   0  0  0  0  0  0  0  0  0  0  0  0
    7.9996   -0.3030    0.0000 O   0  0  0  0  0  0  0  0  0  0  0  0
    6.7553   -0.8570    0.0000 O   0  0  0  0  0  0  0  0  0  0  0  0
   11.4637   -0.3030    0.0000 O   0  0  0  0  0  0  0  0  0  0  0  0
    7.1336    1.1970    0.0000 N   0  0  0  0  0  0  0  0  0  0  0  0
    5.0611   -0.4969    0.0000 N   0  0  0  0  0  0  0  0  0  0  0  0
    9.7317   -0.3030    0.0000 N   0  0  0  0  0  0  0  0  0  0  0  0
   12.4099   -3.6077    0.0000 N   0  0  0  0  0  0  0  0  0  0  0  0
    5.5509    1.5334    0.0000 C   0  0  0  0  0  0  0  0  0  0  0  0
    6.2200    0.7903    0.0000 C   0  0  1  0  0  0  0  0  0  0  0  0
    7.0291    2.1916    0.0000 C   0  0  0  0  0  0  0  0  0  0  0  0
    4.6849    2.0334    0.0000 C   0  0  0  0  0  0  0  0  0  0  0  0
    4.8078    0.8643    0.0000 C   0  0  0  0  0  0  0  0  0  0  0  0
    7.9996    0.6970    0.0000 C   0  0  0  0  0  0  0  0  0  0  0  0
    6.0121   -0.1879    0.0000 C   0  0  0  0  0  0  0  0  0  0  0  0
    8.8656    1.1970    0.0000 C   0  0  2  0  0  0  0  0  0  0  0  0
    9.7317    0.6970    0.0000 C   0  0  2  0  0  0  0  0  0  0  0  0
   10.5977    1.1970    0.0000 C   0  0  0  0  0  0  0  0  0  0  0  0
    4.8532   -1.4750    0.0000 C   0  0  0  0  0  0  0  0  0  0  0  0
   10.5977    2.1970    0.0000 C   0  0  0  0  0  0  0  0  0  0  0  0
   10.5977   -0.8030    0.0000 C   0  0  0  0  0  0  0  0  0  0  0  0
   11.4637   -2.3030    0.0000 C   0  0  0  0  0  0  0  0  0  0  0  0
   10.5977   -1.8030    0.0000 C   0  0  0  0  0  0  0  0  0  0  0  0
   12.4099   -1.9982    0.0000 C   0  0  0  0  0  0  0  0  0  0  0  0
   11.4637   -3.3030    0.0000 C   0  0  0  0  0  0  0  0  0  0  0  0
    3.9021   -1.7840    0.0000 C   0  0  0  0  0  0  0  0  0  0  0  0
   12.9936   -2.8030    0.0000 C   0  0  0  0  0  0  0  0  0  0  0  0
   11.4637    2.6970    0.0000 C   0  0  0  0  0  0  0  0  0  0  0  0
    9.7317    2.6970    0.0000 C   0  0  0  0  0  0  0  0  0  0  0  0
    9.7317   -2.3030    0.0000 C   0  0  0  0  0  0  0  0  0  0  0  0
   10.5977   -3.8030    0.0000 C   0  0  0  0  0  0  0  0  0  0  0  0
    3.1590   -1.1149    0.0000 C   0  0  0  0  0  0  0  0  0  0  0  0
    9.7317   -3.3030    0.0000 C   0  0  0  0  0  0  0  0  0  0  0  0
    3.6942   -2.7622    0.0000 C   0  0  0  0  0  0  0  0  0  0  0  0
   11.4637    3.6970    0.0000 C   0  0  0  0  0  0  0  0  0  0  0  0
    9.7317    3.6970    0.0000 C   0  0  0  0  0  0  0  0  0  0  0  0
   10.5977    4.1970    0.0000 C   0  0  0  0  0  0  0  0  0  0  0  0
    2.2079   -1.4239    0.0000 C   0  0  0  0  0  0  0  0  0  0  0  0
    3.3669   -0.1368    0.0000 C   0  0  0  0  0  0  0  0  0  0  0  0
    2.7431   -3.0712    0.0000 C   0  0  0  0  0  0  0  0  0  0  0  0
    2.0000   -2.4021    0.0000 C   0  0  0  0  0  0  0  0  0  0  0  0
    6.7019    0.4001    0.0000 H   0  0  0  0  0  0  0  0  0  0  0  0
    7.6491    2.1916    0.0000 H   0  0  0  0  0  0  0  0  0  0  0  0
    7.0939    2.8082    0.0000 H   0  0  0  0  0  0  0  0  0  0  0  0
    4.9949    2.5704    0.0000 H   0  0  0  0  0  0  0  0  0  0  0  0
    4.1480    2.3434    0.0000 H   0  0  0  0  0  0  0  0  0  0  0  0
    4.3749    1.4965    0.0000 H   0  0  0  0  0  0  0  0  0  0  0  0
    4.3929    1.3250    0.0000 H   0  0  0  0  0  0  0  0  0  0  0  0
    4.3470    0.4494    0.0000 H   0  0  0  0  0  0  0  0  0  0  0  0
    5.2226    0.4036    0.0000 H   0  0  0  0  0  0  0  0  0  0  0  0
    8.3287    1.5070    0.0000 H   0  0  0  0  0  0  0  0  0  0  0  0
   10.2686    0.3870    0.0000 H   0  0  0  0  0  0  0  0  0  0  0  0
   10.8097    0.6144    0.0000 H   0  0  0  0  0  0  0  0  0  0  0  0
   11.2083    1.3047    0.0000 H   0  0  0  0  0  0  0  0  0  0  0  0
    4.6003   -0.0820    0.0000 H   0  0  0  0  0  0  0  0  0  0  0  0
    9.1947   -0.6130    0.0000 H   0  0  0  0  0  0  0  0  0  0  0  0
    4.9395   -2.0890    0.0000 H   0  0  0  0  0  0  0  0  0  0  0  0
    5.4728   -1.4967    0.0000 H   0  0  0  0  0  0  0  0  0  0  0  0
    8.3287    2.5070    0.0000 H   0  0  0  0  0  0  0  0  0  0  0  0
   12.9473   -1.6890    0.0000 H   0  0  0  0  0  0  0  0  0  0  0  0
   12.1589   -1.4313    0.0000 H   0  0  0  0  0  0  0  0  0  0  0  0
   13.4544   -3.2177    0.0000 H   0  0  0  0  0  0  0  0  0  0  0  0
   13.4544   -2.3882    0.0000 H   0  0  0  0  0  0  0  0  0  0  0  0
   12.6026   -4.1970    0.0000 H   0  0  0  0  0  0  0  0  0  0  0  0
   12.0007    2.3870    0.0000 H   0  0  0  0  0  0  0  0  0  0  0  0
    9.1947    2.3870    0.0000 H   0  0  0  0  0  0  0  0  0  0  0  0
    9.1947   -1.9930    0.0000 H   0  0  0  0  0  0  0  0  0  0  0  0
   10.5977   -4.4230    0.0000 H   0  0  0  0  0  0  0  0  0  0  0  0
    9.1947   -3.6130    0.0000 H   0  0  0  0  0  0  0  0  0  0  0  0
    4.1550   -3.1770    0.0000 H   0  0  0  0  0  0  0  0  0  0  0  0
   12.0007    4.0070    0.0000 H   0  0  0  0  0  0  0  0  0  0  0  0
    9.1947    4.0070    0.0000 H   0  0  0  0  0  0  0  0  0  0  0  0
   10.5977    4.8170    0.0000 H   0  0  0  0  0  0  0  0  0  0  0  0
    1.7472   -1.0091    0.0000 H   0  0  0  0  0  0  0  0  0  0  0  0
    3.9733   -0.2657    0.0000 H   0  0  0  0  0  0  0  0  0  0  0  0
    3.4958    0.4697    0.0000 H   0  0  0  0  0  0  0  0  0  0  0  0
    2.7604   -0.0079    0.0000 H   0  0  0  0  0  0  0  0  0  0  0  0
    2.6142   -3.6776    0.0000 H   0  0  0  0  0  0  0  0  0  0  0  0
    1.4103   -2.5937    0.0000 H   0  0  0  0  0  0  0  0  0  0  0  0
  1 10  1  0  0  0  0
  1 12  1  0  0  0  0
 17  2  1  1  0  0  0
  2 60  1  0  0  0  0
  3 15  2  0  0  0  0
  4 16  2  0  0  0  0
  5 22  2  0  0  0  0
  6 11  1  0  0  0  0
  6 12  1  0  0  0  0
  6 15  1  0  0  0  0
  7 16  1  0  0  0  0
  7 20  1  0  0  0  0
  7 56  1  0  0  0  0
 18  8  1  6  0  0  0
  8 22  1  0  0  0  0
  8 57  1  0  0  0  0
  9 26  1  0  0  0  0
  9 28  1  0  0  0  0
  9 65  1  0  0  0  0
 10 11  1  0  0  0  0
 10 13  1  0  0  0  0
 10 14  1  0  0  0  0
 11 16  1  6  0  0  0
 11 43  1  0  0  0  0
 12 44  1  0  0  0  0
 12 45  1  0  0  0  0
 13 46  1  0  0  0  0
 13 47  1  0  0  0  0
 13 48  1  0  0  0  0
 14 49  1  0  0  0  0
 14 50  1  0  0  0  0
 14 51  1  0  0  0  0
 15 17  1  0  0  0  0
 17 18  1  0  0  0  0
 17 52  1  0  0  0  0
 18 19  1  0  0  0  0
 18 53  1  0  0  0  0
 19 21  1  0  0  0  0
 19 54  1  0  0  0  0
 19 55  1  0  0  0  0
 20 27  1  0  0  0  0
 20 58  1  0  0  0  0
 20 59  1  0  0  0  0
 21 29  2  0  0  0  0
 21 30  1  0  0  0  0
 22 24  1  0  0  0  0
 23 24  2  0  0  0  0
 23 25  1  0  0  0  0
 23 26  1  0  0  0  0
 24 31  1  0  0  0  0
 25 28  1  0  0  0  0
 25 61  1  0  0  0  0
 25 62  1  0  0  0  0
 26 32  2  0  0  0  0
 27 33  1  0  0  0  0
 27 35  2  0  0  0  0
 28 63  1  0  0  0  0
 28 64  1  0  0  0  0
 29 36  1  0  0  0  0
 29 66  1  0  0  0  0
 30 37  2  0  0  0  0
 30 67  1  0  0  0  0
 31 34  2  0  0  0  0
 31 68  1  0  0  0  0
 32 34  1  0  0  0  0
 32 69  1  0  0  0  0
 33 39  2  0  0  0  0
 33 40  1  0  0  0  0
 34 70  1  0  0  0  0
 35 41  1  0  0  0  0
 35 71  1  0  0  0  0
 36 38  2  0  0  0  0
 36 72  1  0  0  0  0
 37 38  1  0  0  0  0
 37 73  1  0  0  0  0
 38 74  1  0  0  0  0
 39 42  1  0  0  0  0
 39 75  1  0  0  0  0
 40 76  1  0  0  0  0
 40 77  1  0  0  0  0
 40 78  1  0  0  0  0
 41 42  2  0  0  0  0
 41 79  1  0  0  0  0
 42 80  1  0  0  0  0
M  END
> <PUBCHEM_COMPOUND_CID>
514527
> <PUBCHEM_COMPOUND_CANONICALIZED>
1
> <PUBCHEM_CACTVS_COMPLEXITY>
956
> <PUBCHEM_CACTVS_HBOND_ACCEPTOR>
6
> <PUBCHEM_CACTVS_HBOND_DONOR>
4
> <PUBCHEM_CACTVS_ROTATABLE_BOND>
9
> <PUBCHEM_CACTVS_SUBSKEYS>
AAADcfB/uABAAAAAAAAAAAAAAAAAAWLAAAAwYMAAAAAAAFgBUAAAHgQQCAAADDzh2AaywIPAAgiIAiVSUAKCAABlAhAIiIHIZMgKcDrg1bGUYQhklgDYyYecyaCOgAAAQAASAAAAAACAACQAAAAAAAAAAA==
> <PUBCHEM_IUPAC_OPENEYE_NAME>
(4R)-3-[(2S,3S)-2-hydroxy-3-(indoline-4-carbonylamino)-4-phenyl-butanoyl]-5,5-dimethyl-N-(o-tolylmethyl)thiazolidine-4-carboxamide
> <PUBCHEM_IUPAC_CAS_NAME>
(4R)-3-[(2S,3S)-3-[[2,3-dihydro-1H-indol-4-yl(oxo)methyl]amino]-2-hydroxy-1-oxo-4-phenylbutyl]-5,5-dimethyl-N-[(2-methylphenyl)methyl]-4-thiazolidinecarboxamide
> <PUBCHEM_IUPAC_NAME_MARKUP>
(4<I>R</I>)-3-[(2<I>S</I>,3<I>S</I>)-3-(2,3-dihydro-1<I>H</I>-indole-4-carbonylamino)-2-hydroxy-4-phenylbutanoyl]-5,5-dimethyl-<I>N</I>-[(2-methylphenyl)methyl]-1,3-thiazolidine-4-carboxamide
> <PUBCHEM_IUPAC_NAME>
(4R)-3-[(2S,3S)-3-(2,3-dihydro-1H-indole-4-carbonylamino)-2-hydroxy-4-phenylbutanoyl]-5,5-dimethyl-N-[(2-methylphenyl)methyl]-1,3-thiazolidine-4-carboxamide
> <PUBCHEM_IUPAC_SYSTEMATIC_NAME>
(4R)-3-[(2S,3S)-3-(2,3-dihydro-1H-indol-4-ylcarbonylamino)-2-oxidanyl-4-phenyl-butanoyl]-5,5-dimethyl-N-[(2-methylphenyl)methyl]-1,3-thiazolidine-4-carboxamide
> <PUBCHEM_IUPAC_TRADITIONAL_NAME>
(4R)-3-[(2S,3S)-2-hydroxy-3-(indoline-4-carbonylamino)-4-phenyl-butanoyl]-5,5-dimethyl-N-(2-methylbenzyl)thiazolidine-4-carboxamide
> <PUBCHEM_IUPAC_INCHI>
InChI=1S/C33H38N4O4S/c1-21-10-7-8-13-23(21)19-35-31(40)29-33(2,3)42-20-37(29)32(41)28(38)27(18-22-11-5-4-6-12-22)36-30(39)25-14-9-15-26-24(25)16-17-34-26/h4-15,27-29,34,38H,16-20H2,1-3H3,(H,35,40)(H,36,39)/t27-,28-,29+/m0/s1
> <PUBCHEM_IUPAC_INCHIKEY>
JNSLGIBLMYLCIG-YTCPBCGMSA-N
> <PUBCHEM_XLOGP3_AA>
4.5
> <PUBCHEM_EXACT_MASS>
586.26137688
> <PUBCHEM_MOLECULAR_FORMULA>
C33H38N4O4S
> <PUBCHEM_MOLECULAR_WEIGHT>
586.7
> <PUBCHEM_OPENEYE_CAN_SMILES>
CC1=CC=CC=C1CNC(=O)C2C(SCN2C(=O)C(C(CC3=CC=CC=C3)NC(=O)C4=C5CCNC5=CC=C4)O)(C)C
> <PUBCHEM_OPENEYE_ISO_SMILES>
CC1=CC=CC=C1CNC(=O)[C@@H]2C(SCN2C(=O)[C@H]([C@H](CC3=CC=CC=C3)NC(=O)C4=C5CCNC5=CC=C4)O)(C)C
> <PUBCHEM_CACTVS_TPSA>
136
> <PUBCHEM_MONOISOTOPIC_WEIGHT>
586.26137688
> <PUBCHEM_TOTAL_CHARGE>
0
> <PUBCHEM_HEAVY_ATOM_COUNT>
42
> <PUBCHEM_ATOM_DEF_STEREO_COUNT>
3
> <PUBCHEM_ATOM_UDEF_STEREO_COUNT>
0
> <PUBCHEM_BOND_DEF_STEREO_COUNT>
0
> <PUBCHEM_BOND_UDEF_STEREO_COUNT>
0
> <PUBCHEM_ISOTOPIC_ATOM_COUNT>
0
> <PUBCHEM_COMPONENT_COUNT>
1
> <PUBCHEM_CACTVS_TAUTO_COUNT>
-1
> <PUBCHEM_COORDINATE_TYPE>
1
5
255
> <PUBCHEM_BONDANNOTATIONS>
11  16  6
17  2  5
21  29  8
21  30  8
23  24  8
23  26  8
24  31  8
26  32  8
27  33  8
27  35  8
29  36  8
30  37  8
31  34  8
32  34  8
33  39  8
35  41  8
36  38  8
37  38  8
39  42  8
41  42  8
18  8  6
$$$$
