514542
  -OEChem-10302200282D
 67 69  0     1  0  0  0  0  0999 V2000
    7.6485    3.2694    0.0000 S   0  0  0  0  0  0  0  0  0  0  0  0
    8.8805    0.7306    0.0000 O   0  0  0  0  0  0  0  0  0  0  0  0
    6.2824    0.2306    0.0000 O   0  0  0  0  0  0  0  0  0  0  0  0
    5.1805    1.0312    0.0000 O   0  0  0  0  0  0  0  0  0  0  0  0
   10.6126   -1.2694    0.0000 O   0  0  0  0  0  0  0  0  0  0  0  0
   13.0613   -0.4330    0.0000 O   0  0  0  0  0  0  0  0  0  0  0  0
    9.7465    0.2306    0.0000 O   0  0  0  0  0  0  0  0  0  0  0  0
    7.1485    1.7306    0.0000 N   0  0  0  0  0  0  0  0  0  0  0  0
    4.6453    2.6785    0.0000 N   0  0  0  0  0  0  0  0  0  0  0  0
    8.8805   -1.2694    0.0000 N   0  0  0  0  0  0  0  0  0  0  0  0
    6.6485    3.2694    0.0000 C   0  0  0  0  0  0  0  0  0  0  0  0
    6.3395    2.3184    0.0000 C   0  0  1  0  0  0  0  0  0  0  0  0
    7.9575    2.3184    0.0000 C   0  0  0  0  0  0  0  0  0  0  0  0
    6.6485    4.2694    0.0000 C   0  0  0  0  0  0  0  0  0  0  0  0
    5.6974    3.5784    0.0000 C   0  0  0  0  0  0  0  0  0  0  0  0
    7.1485    0.7306    0.0000 C   0  0  0  0  0  0  0  0  0  0  0  0
    5.3884    2.0094    0.0000 C   0  0  0  0  0  0  0  0  0  0  0  0
    8.0145    0.2306    0.0000 C   0  0  2  0  0  0  0  0  0  0  0  0
    8.0145   -0.7694    0.0000 C   0  0  2  0  0  0  0  0  0  0  0  0
    7.1485   -1.2694    0.0000 C   0  0  0  0  0  0  0  0  0  0  0  0
   11.4786   -0.7694    0.0000 C   0  0  1  0  0  0  0  0  0  0  0  0
    7.1485   -2.2694    0.0000 C   0  0  0  0  0  0  0  0  0  0  0  0
   11.5831    0.2251    0.0000 C   0  0  0  0  0  0  0  0  0  0  0  0
    3.6942    2.3695    0.0000 C   0  0  0  0  0  0  0  0  0  0  0  0
    9.7465   -0.7694    0.0000 C   0  0  0  0  0  0  0  0  0  0  0  0
   12.3921   -1.1762    0.0000 C   0  0  0  0  0  0  0  0  0  0  0  0
   12.5613    0.4330    0.0000 C   0  0  0  0  0  0  0  0  0  0  0  0
    8.0145   -2.7694    0.0000 C   0  0  0  0  0  0  0  0  0  0  0  0
    6.2824   -2.7694    0.0000 C   0  0  0  0  0  0  0  0  0  0  0  0
    2.9511    3.0386    0.0000 C   0  0  0  0  0  0  0  0  0  0  0  0
    8.0145   -3.7694    0.0000 C   0  0  0  0  0  0  0  0  0  0  0  0
    6.2824   -3.7694    0.0000 C   0  0  0  0  0  0  0  0  0  0  0  0
    7.1485   -4.2694    0.0000 C   0  0  0  0  0  0  0  0  0  0  0  0
    2.0000    2.7296    0.0000 C   0  0  0  0  0  0  0  0  0  0  0  0
    6.2425    1.7060    0.0000 H   0  0  0  0  0  0  0  0  0  0  0  0
    8.2675    1.7814    0.0000 H   0  0  0  0  0  0  0  0  0  0  0  0
    8.5239    2.5705    0.0000 H   0  0  0  0  0  0  0  0  0  0  0  0
    7.2685    4.2694    0.0000 H   0  0  0  0  0  0  0  0  0  0  0  0
    6.6485    4.8894    0.0000 H   0  0  0  0  0  0  0  0  0  0  0  0
    6.0285    4.2694    0.0000 H   0  0  0  0  0  0  0  0  0  0  0  0
    5.8890    4.1681    0.0000 H   0  0  0  0  0  0  0  0  0  0  0  0
    5.1078    3.7700    0.0000 H   0  0  0  0  0  0  0  0  0  0  0  0
    5.5058    2.9888    0.0000 H   0  0  0  0  0  0  0  0  0  0  0  0
    8.0145    0.8506    0.0000 H   0  0  0  0  0  0  0  0  0  0  0  0
    8.5514   -0.4594    0.0000 H   0  0  0  0  0  0  0  0  0  0  0  0
    6.9364   -0.6868    0.0000 H   0  0  0  0  0  0  0  0  0  0  0  0
    6.5379   -1.3771    0.0000 H   0  0  0  0  0  0  0  0  0  0  0  0
    4.7742    3.2849    0.0000 H   0  0  0  0  0  0  0  0  0  0  0  0
    8.8805   -1.8894    0.0000 H   0  0  0  0  0  0  0  0  0  0  0  0
   11.5111   -1.3886    0.0000 H   0  0  0  0  0  0  0  0  0  0  0  0
    8.8805    1.3506    0.0000 H   0  0  0  0  0  0  0  0  0  0  0  0
   11.5183    0.8417    0.0000 H   0  0  0  0  0  0  0  0  0  0  0  0
   10.9631    0.2251    0.0000 H   0  0  0  0  0  0  0  0  0  0  0  0
    3.2056    1.9878    0.0000 H   0  0  0  0  0  0  0  0  0  0  0  0
    3.9853    1.8220    0.0000 H   0  0  0  0  0  0  0  0  0  0  0  0
   12.0821   -1.7131    0.0000 H   0  0  0  0  0  0  0  0  0  0  0  0
   12.8937   -1.5406    0.0000 H   0  0  0  0  0  0  0  0  0  0  0  0
   13.1277    0.6852    0.0000 H   0  0  0  0  0  0  0  0  0  0  0  0
   12.3697    1.0227    0.0000 H   0  0  0  0  0  0  0  0  0  0  0  0
    8.5514   -2.4594    0.0000 H   0  0  0  0  0  0  0  0  0  0  0  0
    5.7455   -2.4594    0.0000 H   0  0  0  0  0  0  0  0  0  0  0  0
    3.0800    3.6450    0.0000 H   0  0  0  0  0  0  0  0  0  0  0  0
    8.5514   -4.0794    0.0000 H   0  0  0  0  0  0  0  0  0  0  0  0
    5.7455   -4.0794    0.0000 H   0  0  0  0  0  0  0  0  0  0  0  0
    7.1485   -4.8894    0.0000 H   0  0  0  0  0  0  0  0  0  0  0  0
    1.5392    3.1444    0.0000 H   0  0  0  0  0  0  0  0  0  0  0  0
    1.8711    2.1231    0.0000 H   0  0  0  0  0  0  0  0  0  0  0  0
  1 11  1  0  0  0  0
  1 13  1  0  0  0  0
 18  2  1  1  0  0  0
  2 51  1  0  0  0  0
  3 16  2  0  0  0  0
  4 17  2  0  0  0  0
 21  5  1  1  0  0  0
  5 25  1  0  0  0  0
  6 26  1  0  0  0  0
  6 27  1  0  0  0  0
  7 25  2  0  0  0  0
  8 12  1  0  0  0  0
  8 13  1  0  0  0  0
  8 16  1  0  0  0  0
  9 17  1  0  0  0  0
  9 24  1  0  0  0  0
  9 48  1  0  0  0  0
 19 10  1  1  0  0  0
 10 25  1  0  0  0  0
 10 49  1  0  0  0  0
 11 12  1  0  0  0  0
 11 14  1  0  0  0  0
 11 15  1  0  0  0  0
 12 17  1  6  0  0  0
 12 35  1  0  0  0  0
 13 36  1  0  0  0  0
 13 37  1  0  0  0  0
 14 38  1  0  0  0  0
 14 39  1  0  0  0  0
 14 40  1  0  0  0  0
 15 41  1  0  0  0  0
 15 42  1  0  0  0  0
 15 43  1  0  0  0  0
 16 18  1  0  0  0  0
 18 19  1  0  0  0  0
 18 44  1  0  0  0  0
 19 20  1  0  0  0  0
 19 45  1  0  0  0  0
 20 22  1  0  0  0  0
 20 46  1  0  0  0  0
 20 47  1  0  0  0  0
 21 23  1  0  0  0  0
 21 26  1  0  0  0  0
 21 50  1  0  0  0  0
 22 28  2  0  0  0  0
 22 29  1  0  0  0  0
 23 27  1  0  0  0  0
 23 52  1  0  0  0  0
 23 53  1  0  0  0  0
 24 30  1  0  0  0  0
 24 54  1  0  0  0  0
 24 55  1  0  0  0  0
 26 56  1  0  0  0  0
 26 57  1  0  0  0  0
 27 58  1  0  0  0  0
 27 59  1  0  0  0  0
 28 31  1  0  0  0  0
 28 60  1  0  0  0  0
 29 32  2  0  0  0  0
 29 61  1  0  0  0  0
 30 34  2  0  0  0  0
 30 62  1  0  0  0  0
 31 33  2  0  0  0  0
 31 63  1  0  0  0  0
 32 33  1  0  0  0  0
 32 64  1  0  0  0  0
 33 65  1  0  0  0  0
 34 66  1  0  0  0  0
 34 67  1  0  0  0  0
M  END
> <PUBCHEM_COMPOUND_CID>
514542
> <PUBCHEM_COMPOUND_CANONICALIZED>
1
> <PUBCHEM_CACTVS_COMPLEXITY>
742
> <PUBCHEM_CACTVS_HBOND_ACCEPTOR>
7
> <PUBCHEM_CACTVS_HBOND_DONOR>
3
> <PUBCHEM_CACTVS_ROTATABLE_BOND>
10
> <PUBCHEM_CACTVS_SUBSKEYS>
AAADcfB7OABAAAAAAAAAAAAAAAAAAWJAAAAwAAAAAAAAAAABAAAAHgQQCAAADDzh2AayCIPABgiIAiFSGAKCAABgABAIiIHIAIkLcDqg0TGeYAAllgCaiAeYyKCOAAAAAAAAAAAAAAAAAAAAAAAAAAAAAA==
> <PUBCHEM_IUPAC_OPENEYE_NAME>
[(3S)-tetrahydrofuran-3-yl] N-[(1S,2S)-3-[(4R)-4-(allylcarbamoyl)-5,5-dimethyl-thiazolidin-3-yl]-1-benzyl-2-hydroxy-3-oxo-propyl]carbamate
> <PUBCHEM_IUPAC_CAS_NAME>
N-[(2S,3S)-4-[(4R)-5,5-dimethyl-4-[oxo-(prop-2-enylamino)methyl]-3-thiazolidinyl]-3-hydroxy-4-oxo-1-phenylbutan-2-yl]carbamic acid [(3S)-3-oxolanyl] ester
> <PUBCHEM_IUPAC_NAME_MARKUP>
[(3<I>S</I>)-oxolan-3-yl] <I>N</I>-[(2<I>S</I>,3<I>S</I>)-4-[(4<I>R</I>)-5,5-dimethyl-4-(prop-2-enylcarbamoyl)-1,3-thiazolidin-3-yl]-3-hydroxy-4-oxo-1-phenylbutan-2-yl]carbamate
> <PUBCHEM_IUPAC_NAME>
[(3S)-oxolan-3-yl] N-[(2S,3S)-4-[(4R)-5,5-dimethyl-4-(prop-2-enylcarbamoyl)-1,3-thiazolidin-3-yl]-3-hydroxy-4-oxo-1-phenylbutan-2-yl]carbamate
> <PUBCHEM_IUPAC_SYSTEMATIC_NAME>
[(3S)-oxolan-3-yl] N-[(2S,3S)-4-[(4R)-5,5-dimethyl-4-(prop-2-enylcarbamoyl)-1,3-thiazolidin-3-yl]-3-oxidanyl-4-oxidanylidene-1-phenyl-butan-2-yl]carbamate
> <PUBCHEM_IUPAC_TRADITIONAL_NAME>
N-[(1S,2S)-3-[(4R)-4-(allylcarbamoyl)-5,5-dimethyl-thiazolidin-3-yl]-1-benzyl-2-hydroxy-3-keto-propyl]carbamic acid [(3S)-tetrahydrofuran-3-yl] ester
> <PUBCHEM_IUPAC_INCHI>
InChI=1S/C24H33N3O6S/c1-4-11-25-21(29)20-24(2,3)34-15-27(20)22(30)19(28)18(13-16-8-6-5-7-9-16)26-23(31)33-17-10-12-32-14-17/h4-9,17-20,28H,1,10-15H2,2-3H3,(H,25,29)(H,26,31)/t17-,18-,19-,20+/m0/s1
> <PUBCHEM_IUPAC_INCHIKEY>
JXLLESSGRODBEO-LWYYNNOASA-N
> <PUBCHEM_XLOGP3_AA>
2.1
> <PUBCHEM_EXACT_MASS>
491.20900695
> <PUBCHEM_MOLECULAR_FORMULA>
C24H33N3O6S
> <PUBCHEM_MOLECULAR_WEIGHT>
491.6
> <PUBCHEM_OPENEYE_CAN_SMILES>
CC1(C(N(CS1)C(=O)C(C(CC2=CC=CC=C2)NC(=O)OC3CCOC3)O)C(=O)NCC=C)C
> <PUBCHEM_OPENEYE_ISO_SMILES>
CC1([C@H](N(CS1)C(=O)[C@H]([C@H](CC2=CC=CC=C2)NC(=O)O[C@H]3CCOC3)O)C(=O)NCC=C)C
> <PUBCHEM_CACTVS_TPSA>
143
> <PUBCHEM_MONOISOTOPIC_WEIGHT>
491.20900695
> <PUBCHEM_TOTAL_CHARGE>
0
> <PUBCHEM_HEAVY_ATOM_COUNT>
34
> <PUBCHEM_ATOM_DEF_STEREO_COUNT>
4
> <PUBCHEM_ATOM_UDEF_STEREO_COUNT>
0
> <PUBCHEM_BOND_DEF_STEREO_COUNT>
0
> <PUBCHEM_BOND_UDEF_STEREO_COUNT>
0
> <PUBCHEM_ISOTOPIC_ATOM_COUNT>
0
> <PUBCHEM_COMPONENT_COUNT>
1
> <PUBCHEM_CACTVS_TAUTO_COUNT>
-1
> <PUBCHEM_COORDINATE_TYPE>
1
5
255
> <PUBCHEM_BONDANNOTATIONS>
19  10  5
12  17  6
18  2  5
22  28  8
22  29  8
28  31  8
29  32  8
31  33  8
32  33  8
21  5  5
$$$$
