514697
  -OEChem-10302200282D
 79 83  0     1  0  0  0  0  0999 V2000
    2.3660   -0.2863    0.0000 S   0  0  0  0  0  0  0  0  0  0  0  0
    3.9487   -2.6227    0.0000 O   0  0  0  0  0  0  0  0  0  0  0  0
    5.5384    0.7319    0.0000 O   0  0  0  0  0  0  0  0  0  0  0  0
    5.6808   -0.6227    0.0000 O   0  0  0  0  0  0  0  0  0  0  0  0
    7.4128   -3.6227    0.0000 O   0  0  0  0  0  0  0  0  0  0  0  0
    3.9487   -0.6227    0.0000 N   0  0  0  0  0  0  0  0  0  0  0  0
    4.3794    2.0191    0.0000 N   0  0  0  0  0  0  0  0  0  0  0  0
    6.5468   -2.1227    0.0000 N   0  0  0  0  0  0  0  0  0  0  0  0
   11.8109   -2.1435    0.0000 N   0  0  0  0  0  0  0  0  0  0  0  0
    2.8660    0.5797    0.0000 C   0  0  0  0  0  0  0  0  0  0  0  0
    3.8442    0.3718    0.0000 C   0  0  3  0  0  0  0  0  0  0  0  0
    3.0352   -1.0294    0.0000 C   0  0  0  0  0  0  0  0  0  0  0  0
    2.0000    1.0798    0.0000 C   0  0  0  0  0  0  0  0  0  0  0  0
    3.0739    1.5579    0.0000 C   0  0  0  0  0  0  0  0  0  0  0  0
    4.5873    1.0410    0.0000 C   0  0  0  0  0  0  0  0  0  0  0  0
    4.8147   -1.1227    0.0000 C   0  0  0  0  0  0  0  0  0  0  0  0
    4.8147   -2.1227    0.0000 C   0  0  2  0  0  0  0  0  0  0  0  0
    5.6808   -2.6227    0.0000 C   0  0  3  0  0  0  0  0  0  0  0  0
    5.6808   -3.6227    0.0000 C   0  0  0  0  0  0  0  0  0  0  0  0
    5.1226    2.6882    0.0000 C   0  0  0  0  0  0  0  0  0  0  0  0
    4.8147   -4.1227    0.0000 C   0  0  0  0  0  0  0  0  0  0  0  0
    4.9146    3.6664    0.0000 C   0  0  0  0  0  0  0  0  0  0  0  0
    7.4128   -2.6227    0.0000 C   0  0  0  0  0  0  0  0  0  0  0  0
    4.8147   -5.1227    0.0000 C   0  0  0  0  0  0  0  0  0  0  0  0
    3.9487   -3.6227    0.0000 C   0  0  0  0  0  0  0  0  0  0  0  0
    5.6578    4.3355    0.0000 C   0  0  0  0  0  0  0  0  0  0  0  0
    8.2788   -2.1227    0.0000 C   0  0  0  0  0  0  0  0  0  0  0  0
    3.9636    3.9754    0.0000 C   0  0  0  0  0  0  0  0  0  0  0  0
    3.9487   -5.6227    0.0000 C   0  0  0  0  0  0  0  0  0  0  0  0
    3.0827   -4.1227    0.0000 C   0  0  0  0  0  0  0  0  0  0  0  0
    5.4499    5.3137    0.0000 C   0  0  0  0  0  0  0  0  0  0  0  0
    3.0827   -5.1227    0.0000 C   0  0  0  0  0  0  0  0  0  0  0  0
    9.1448   -2.6227    0.0000 C   0  0  0  0  0  0  0  0  0  0  0  0
    6.6088    4.0265    0.0000 C   0  0  0  0  0  0  0  0  0  0  0  0
    8.2788   -1.1227    0.0000 C   0  0  0  0  0  0  0  0  0  0  0  0
    3.7557    4.9536    0.0000 C   0  0  0  0  0  0  0  0  0  0  0  0
    4.4988    5.6227    0.0000 C   0  0  0  0  0  0  0  0  0  0  0  0
   10.0109   -2.1227    0.0000 C   0  0  0  0  0  0  0  0  0  0  0  0
   10.0109   -1.1227    0.0000 C   0  0  0  0  0  0  0  0  0  0  0  0
    9.1448   -0.6227    0.0000 C   0  0  0  0  0  0  0  0  0  0  0  0
   10.9048   -2.6574    0.0000 C   0  0  0  0  0  0  0  0  0  0  0  0
   10.9048   -0.5880    0.0000 C   0  0  0  0  0  0  0  0  0  0  0  0
   11.8109   -1.1019    0.0000 C   0  0  0  0  0  0  0  0  0  0  0  0
    4.4230    0.1496    0.0000 H   0  0  0  0  0  0  0  0  0  0  0  0
    2.5336   -1.3938    0.0000 H   0  0  0  0  0  0  0  0  0  0  0  0
    3.3452   -1.5664    0.0000 H   0  0  0  0  0  0  0  0  0  0  0  0
    2.3100    1.6167    0.0000 H   0  0  0  0  0  0  0  0  0  0  0  0
    1.4631    1.3898    0.0000 H   0  0  0  0  0  0  0  0  0  0  0  0
    1.6900    0.5428    0.0000 H   0  0  0  0  0  0  0  0  0  0  0  0
    3.6804    1.4290    0.0000 H   0  0  0  0  0  0  0  0  0  0  0  0
    3.2028    2.1644    0.0000 H   0  0  0  0  0  0  0  0  0  0  0  0
    2.4675    1.6868    0.0000 H   0  0  0  0  0  0  0  0  0  0  0  0
    4.8147   -2.7427    0.0000 H   0  0  0  0  0  0  0  0  0  0  0  0
    5.6808   -2.0027    0.0000 H   0  0  0  0  0  0  0  0  0  0  0  0
    3.7898    2.2107    0.0000 H   0  0  0  0  0  0  0  0  0  0  0  0
    5.8928   -4.2053    0.0000 H   0  0  0  0  0  0  0  0  0  0  0  0
    6.2913   -3.5150    0.0000 H   0  0  0  0  0  0  0  0  0  0  0  0
    6.5468   -1.5027    0.0000 H   0  0  0  0  0  0  0  0  0  0  0  0
    5.4511    2.1625    0.0000 H   0  0  0  0  0  0  0  0  0  0  0  0
    5.6974    2.9205    0.0000 H   0  0  0  0  0  0  0  0  0  0  0  0
    3.4118   -2.3127    0.0000 H   0  0  0  0  0  0  0  0  0  0  0  0
    5.3517   -5.4327    0.0000 H   0  0  0  0  0  0  0  0  0  0  0  0
    3.9487   -3.0027    0.0000 H   0  0  0  0  0  0  0  0  0  0  0  0
    3.5028    3.5606    0.0000 H   0  0  0  0  0  0  0  0  0  0  0  0
    3.9487   -6.2427    0.0000 H   0  0  0  0  0  0  0  0  0  0  0  0
    2.5457   -3.8127    0.0000 H   0  0  0  0  0  0  0  0  0  0  0  0
    5.9106    5.7285    0.0000 H   0  0  0  0  0  0  0  0  0  0  0  0
    2.5457   -5.4327    0.0000 H   0  0  0  0  0  0  0  0  0  0  0  0
    9.1448   -3.2427    0.0000 H   0  0  0  0  0  0  0  0  0  0  0  0
    6.4172    3.4368    0.0000 H   0  0  0  0  0  0  0  0  0  0  0  0
    7.1985    3.8349    0.0000 H   0  0  0  0  0  0  0  0  0  0  0  0
    6.8004    4.6162    0.0000 H   0  0  0  0  0  0  0  0  0  0  0  0
    7.7419   -0.8127    0.0000 H   0  0  0  0  0  0  0  0  0  0  0  0
    3.1660    5.1452    0.0000 H   0  0  0  0  0  0  0  0  0  0  0  0
    4.3699    6.2291    0.0000 H   0  0  0  0  0  0  0  0  0  0  0  0
    9.1448   -0.0027    0.0000 H   0  0  0  0  0  0  0  0  0  0  0  0
   10.8977   -3.2773    0.0000 H   0  0  0  0  0  0  0  0  0  0  0  0
   10.8977    0.0319    0.0000 H   0  0  0  0  0  0  0  0  0  0  0  0
   12.3466   -0.7898    0.0000 H   0  0  0  0  0  0  0  0  0  0  0  0
  1 10  1  0  0  0  0
  1 12  1  0  0  0  0
 17  2  1  6  0  0  0
  2 61  1  0  0  0  0
  3 15  2  0  0  0  0
  4 16  2  0  0  0  0
  5 23  2  0  0  0  0
  6 11  1  0  0  0  0
  6 12  1  0  0  0  0
  6 16  1  0  0  0  0
  7 15  1  0  0  0  0
  7 20  1  0  0  0  0
  7 55  1  0  0  0  0
  8 18  1  0  0  0  0
  8 23  1  0  0  0  0
  8 58  1  0  0  0  0
  9 41  2  0  0  0  0
  9 43  1  0  0  0  0
 10 11  1  0  0  0  0
 10 13  1  0  0  0  0
 10 14  1  0  0  0  0
 11 15  1  0  0  0  0
 11 44  1  0  0  0  0
 12 45  1  0  0  0  0
 12 46  1  0  0  0  0
 13 47  1  0  0  0  0
 13 48  1  0  0  0  0
 13 49  1  0  0  0  0
 14 50  1  0  0  0  0
 14 51  1  0  0  0  0
 14 52  1  0  0  0  0
 16 17  1  0  0  0  0
 17 18  1  0  0  0  0
 17 53  1  0  0  0  0
 18 19  1  0  0  0  0
 18 54  1  0  0  0  0
 19 21  1  0  0  0  0
 19 56  1  0  0  0  0
 19 57  1  0  0  0  0
 20 22  1  0  0  0  0
 20 59  1  0  0  0  0
 20 60  1  0  0  0  0
 21 24  2  0  0  0  0
 21 25  1  0  0  0  0
 22 26  1  0  0  0  0
 22 28  2  0  0  0  0
 23 27  1  0  0  0  0
 24 29  1  0  0  0  0
 24 62  1  0  0  0  0
 25 30  2  0  0  0  0
 25 63  1  0  0  0  0
 26 31  2  0  0  0  0
 26 34  1  0  0  0  0
 27 33  2  0  0  0  0
 27 35  1  0  0  0  0
 28 36  1  0  0  0  0
 28 64  1  0  0  0  0
 29 32  2  0  0  0  0
 29 65  1  0  0  0  0
 30 32  1  0  0  0  0
 30 66  1  0  0  0  0
 31 37  1  0  0  0  0
 31 67  1  0  0  0  0
 32 68  1  0  0  0  0
 33 38  1  0  0  0  0
 33 69  1  0  0  0  0
 34 70  1  0  0  0  0
 34 71  1  0  0  0  0
 34 72  1  0  0  0  0
 35 40  2  0  0  0  0
 35 73  1  0  0  0  0
 36 37  2  0  0  0  0
 36 74  1  0  0  0  0
 37 75  1  0  0  0  0
 38 39  2  0  0  0  0
 38 41  1  0  0  0  0
 39 40  1  0  0  0  0
 39 42  1  0  0  0  0
 40 76  1  0  0  0  0
 41 77  1  0  0  0  0
 42 43  2  0  0  0  0
 42 78  1  0  0  0  0
 43 79  1  0  0  0  0
M  END
> <PUBCHEM_COMPOUND_CID>
514697
> <PUBCHEM_COMPOUND_CANONICALIZED>
1
> <PUBCHEM_CACTVS_COMPLEXITY>
972
> <PUBCHEM_CACTVS_HBOND_ACCEPTOR>
6
> <PUBCHEM_CACTVS_HBOND_DONOR>
3
> <PUBCHEM_CACTVS_ROTATABLE_BOND>
9
> <PUBCHEM_CACTVS_SUBSKEYS>
AAADcfB/uABAAAAAAAAAAAAAAAAAAWAAAAA8YMEAAAAAAACx9AAAHgQQCAAADDzh2ga+gNPIEgioAjF3VAKCgCB1AjAI2KH4ZNgKcPrg1bGUYQhklgDYyYeYyeCOwAACAAAQAACAAAQAACAAAAAAAAAAAA==
> <PUBCHEM_IUPAC_OPENEYE_NAME>
3-[(2S)-2-hydroxy-3-(isoquinoline-7-carbonylamino)-4-phenyl-butanoyl]-5,5-dimethyl-N-(o-tolylmethyl)thiazolidine-4-carboxamide
> <PUBCHEM_IUPAC_CAS_NAME>
3-[(2S)-2-hydroxy-3-[[7-isoquinolinyl(oxo)methyl]amino]-1-oxo-4-phenylbutyl]-5,5-dimethyl-N-[(2-methylphenyl)methyl]-4-thiazolidinecarboxamide
> <PUBCHEM_IUPAC_NAME_MARKUP>
3-[(2<I>S</I>)-2-hydroxy-3-(isoquinoline-7-carbonylamino)-4-phenylbutanoyl]-5,5-dimethyl-<I>N</I>-[(2-methylphenyl)methyl]-1,3-thiazolidine-4-carboxamide
> <PUBCHEM_IUPAC_NAME>
3-[(2S)-2-hydroxy-3-(isoquinoline-7-carbonylamino)-4-phenylbutanoyl]-5,5-dimethyl-N-[(2-methylphenyl)methyl]-1,3-thiazolidine-4-carboxamide
> <PUBCHEM_IUPAC_SYSTEMATIC_NAME>
3-[(2S)-3-(isoquinolin-7-ylcarbonylamino)-2-oxidanyl-4-phenyl-butanoyl]-5,5-dimethyl-N-[(2-methylphenyl)methyl]-1,3-thiazolidine-4-carboxamide
> <PUBCHEM_IUPAC_TRADITIONAL_NAME>
3-[(2S)-2-hydroxy-3-(isoquinoline-7-carbonylamino)-4-phenyl-butanoyl]-5,5-dimethyl-N-(2-methylbenzyl)thiazolidine-4-carboxamide
> <PUBCHEM_IUPAC_INCHI>
InChI=1S/C34H36N4O4S/c1-22-9-7-8-12-26(22)20-36-32(41)30-34(2,3)43-21-38(30)33(42)29(39)28(17-23-10-5-4-6-11-23)37-31(40)25-14-13-24-15-16-35-19-27(24)18-25/h4-16,18-19,28-30,39H,17,20-21H2,1-3H3,(H,36,41)(H,37,40)/t28?,29-,30?/m0/s1
> <PUBCHEM_IUPAC_INCHIKEY>
YEDHDMGPMJCPSY-GBYJYRDPSA-N
> <PUBCHEM_XLOGP3_AA>
4.7
> <PUBCHEM_EXACT_MASS>
596.24572682
> <PUBCHEM_MOLECULAR_FORMULA>
C34H36N4O4S
> <PUBCHEM_MOLECULAR_WEIGHT>
596.7
> <PUBCHEM_OPENEYE_CAN_SMILES>
CC1=CC=CC=C1CNC(=O)C2C(SCN2C(=O)C(C(CC3=CC=CC=C3)NC(=O)C4=CC5=C(C=C4)C=CN=C5)O)(C)C
> <PUBCHEM_OPENEYE_ISO_SMILES>
CC1=CC=CC=C1CNC(=O)C2C(SCN2C(=O)[C@H](C(CC3=CC=CC=C3)NC(=O)C4=CC5=C(C=C4)C=CN=C5)O)(C)C
> <PUBCHEM_CACTVS_TPSA>
137
> <PUBCHEM_MONOISOTOPIC_WEIGHT>
596.24572682
> <PUBCHEM_TOTAL_CHARGE>
0
> <PUBCHEM_HEAVY_ATOM_COUNT>
43
> <PUBCHEM_ATOM_DEF_STEREO_COUNT>
1
> <PUBCHEM_ATOM_UDEF_STEREO_COUNT>
2
> <PUBCHEM_BOND_DEF_STEREO_COUNT>
0
> <PUBCHEM_BOND_UDEF_STEREO_COUNT>
0
> <PUBCHEM_ISOTOPIC_ATOM_COUNT>
0
> <PUBCHEM_COMPONENT_COUNT>
1
> <PUBCHEM_CACTVS_TAUTO_COUNT>
-1
> <PUBCHEM_COORDINATE_TYPE>
1
5
255
> <PUBCHEM_BONDANNOTATIONS>
11  15  3
18  19  3
17  2  6
21  24  8
21  25  8
22  26  8
22  28  8
24  29  8
25  30  8
26  31  8
27  33  8
27  35  8
28  36  8
29  32  8
30  32  8
31  37  8
33  38  8
35  40  8
36  37  8
38  39  8
38  41  8
39  40  8
39  42  8
42  43  8
9  41  8
9  43  8
$$$$
