514690
  -OEChem-10302200282D
 84 87  0     1  0  0  0  0  0999 V2000
    6.5468    3.3539    0.0000 S   0  0  0  0  0  0  0  0  0  0  0  0
    8.2798    1.1267    0.0000 O   0  0  0  0  0  0  0  0  0  0  0  0
    3.7320    2.1515    0.0000 O   0  0  0  0  0  0  0  0  0  0  0  0
    5.8424    0.0975    0.0000 O   0  0  0  0  0  0  0  0  0  0  0  0
    9.2308    0.8177    0.0000 O   0  0  0  0  0  0  0  0  0  0  0  0
    2.0000   -2.8485    0.0000 O   0  0  0  0  0  0  0  0  0  0  0  0
   14.9372   -1.0364    0.0000 O   0  0  0  0  0  0  0  0  0  0  0  0
    6.3776    1.7447    0.0000 N   0  0  0  0  0  0  0  0  0  0  0  0
    4.5981    0.6515    0.0000 N   0  0  0  0  0  0  0  0  0  0  0  0
    8.6956   -0.8296    0.0000 N   0  0  0  0  0  0  0  0  0  0  0  0
   10.3898   -0.4695    0.0000 N   0  0  0  0  0  0  0  0  0  0  0  0
    5.5686    3.1460    0.0000 C   0  0  0  0  0  0  0  0  0  0  0  0
    5.4641    2.1515    0.0000 C   0  0  1  0  0  0  0  0  0  0  0  0
    7.0468    2.4879    0.0000 C   0  0  0  0  0  0  0  0  0  0  0  0
    5.3607    4.1242    0.0000 C   0  0  0  0  0  0  0  0  0  0  0  0
    4.5741    3.2505    0.0000 C   0  0  0  0  0  0  0  0  0  0  0  0
    4.5981    1.6515    0.0000 C   0  0  0  0  0  0  0  0  0  0  0  0
    6.5856    0.7666    0.0000 C   0  0  0  0  0  0  0  0  0  0  0  0
    7.5366    0.4576    0.0000 C   0  0  2  0  0  0  0  0  0  0  0  0
    7.7445   -0.5206    0.0000 C   0  0  2  0  0  0  0  0  0  0  0  0
    7.0014   -1.1897    0.0000 C   0  0  0  0  0  0  0  0  0  0  0  0
    3.7320    0.1515    0.0000 C   0  0  0  0  0  0  0  0  0  0  0  0
    7.2093   -2.1678    0.0000 C   0  0  0  0  0  0  0  0  0  0  0  0
    3.7320   -0.8485    0.0000 C   0  0  0  0  0  0  0  0  0  0  0  0
    9.4387   -0.1605    0.0000 C   0  0  0  0  0  0  0  0  0  0  0  0
    8.1604   -2.4769    0.0000 C   0  0  0  0  0  0  0  0  0  0  0  0
    6.4662   -2.8370    0.0000 C   0  0  0  0  0  0  0  0  0  0  0  0
    2.8660   -1.3485    0.0000 C   0  0  0  0  0  0  0  0  0  0  0  0
    4.5981   -1.3485    0.0000 C   0  0  0  0  0  0  0  0  0  0  0  0
    8.3683   -3.4550    0.0000 C   0  0  0  0  0  0  0  0  0  0  0  0
    6.6741   -3.8151    0.0000 C   0  0  0  0  0  0  0  0  0  0  0  0
    7.6251   -4.1242    0.0000 C   0  0  0  0  0  0  0  0  0  0  0  0
   11.1329    0.1997    0.0000 C   0  0  0  0  0  0  0  0  0  0  0  0
    2.8660   -2.3485    0.0000 C   0  0  0  0  0  0  0  0  0  0  0  0
    4.5981   -2.3485    0.0000 C   0  0  0  0  0  0  0  0  0  0  0  0
    3.7320   -2.8485    0.0000 C   0  0  0  0  0  0  0  0  0  0  0  0
   12.0840   -0.1094    0.0000 C   0  0  0  0  0  0  0  0  0  0  0  0
   12.8271    0.5598    0.0000 C   0  0  0  0  0  0  0  0  0  0  0  0
   12.2919   -1.0875    0.0000 C   0  0  0  0  0  0  0  0  0  0  0  0
   13.7782    0.2508    0.0000 C   0  0  0  0  0  0  0  0  0  0  0  0
   13.2430   -1.3965    0.0000 C   0  0  0  0  0  0  0  0  0  0  0  0
    2.0000   -3.8485    0.0000 C   0  0  0  0  0  0  0  0  0  0  0  0
   13.9861   -0.7274    0.0000 C   0  0  0  0  0  0  0  0  0  0  0  0
   15.6803   -0.3673    0.0000 C   0  0  0  0  0  0  0  0  0  0  0  0
    5.4966    1.5323    0.0000 H   0  0  0  0  0  0  0  0  0  0  0  0
    7.4616    2.0271    0.0000 H   0  0  0  0  0  0  0  0  0  0  0  0
    7.5484    2.8523    0.0000 H   0  0  0  0  0  0  0  0  0  0  0  0
    5.9672    4.2530    0.0000 H   0  0  0  0  0  0  0  0  0  0  0  0
    5.2318    4.7306    0.0000 H   0  0  0  0  0  0  0  0  0  0  0  0
    4.7543    3.9952    0.0000 H   0  0  0  0  0  0  0  0  0  0  0  0
    4.6389    3.8671    0.0000 H   0  0  0  0  0  0  0  0  0  0  0  0
    3.9575    3.3153    0.0000 H   0  0  0  0  0  0  0  0  0  0  0  0
    4.5093    2.6339    0.0000 H   0  0  0  0  0  0  0  0  0  0  0  0
    7.4077    1.0640    0.0000 H   0  0  0  0  0  0  0  0  0  0  0  0
    8.2053   -0.1057    0.0000 H   0  0  0  0  0  0  0  0  0  0  0  0
    5.1350    0.3415    0.0000 H   0  0  0  0  0  0  0  0  0  0  0  0
    6.6728   -0.6639    0.0000 H   0  0  0  0  0  0  0  0  0  0  0  0
    6.4265   -1.4220    0.0000 H   0  0  0  0  0  0  0  0  0  0  0  0
    8.8245   -1.4360    0.0000 H   0  0  0  0  0  0  0  0  0  0  0  0
    3.5200    0.7341    0.0000 H   0  0  0  0  0  0  0  0  0  0  0  0
    3.1215    0.0438    0.0000 H   0  0  0  0  0  0  0  0  0  0  0  0
    8.1509    1.7332    0.0000 H   0  0  0  0  0  0  0  0  0  0  0  0
    8.6211   -2.0620    0.0000 H   0  0  0  0  0  0  0  0  0  0  0  0
    5.8765   -2.6454    0.0000 H   0  0  0  0  0  0  0  0  0  0  0  0
   10.5187   -1.0759    0.0000 H   0  0  0  0  0  0  0  0  0  0  0  0
    2.3291   -1.0385    0.0000 H   0  0  0  0  0  0  0  0  0  0  0  0
    5.1350   -1.0385    0.0000 H   0  0  0  0  0  0  0  0  0  0  0  0
    8.9579   -3.6466    0.0000 H   0  0  0  0  0  0  0  0  0  0  0  0
    6.2133   -4.2300    0.0000 H   0  0  0  0  0  0  0  0  0  0  0  0
    7.7540   -4.7306    0.0000 H   0  0  0  0  0  0  0  0  0  0  0  0
   11.4240    0.7471    0.0000 H   0  0  0  0  0  0  0  0  0  0  0  0
   10.6444    0.5814    0.0000 H   0  0  0  0  0  0  0  0  0  0  0  0
    5.1350   -2.6585    0.0000 H   0  0  0  0  0  0  0  0  0  0  0  0
    3.7320   -3.4685    0.0000 H   0  0  0  0  0  0  0  0  0  0  0  0
   12.6982    1.1662    0.0000 H   0  0  0  0  0  0  0  0  0  0  0  0
   11.8311   -1.5024    0.0000 H   0  0  0  0  0  0  0  0  0  0  0  0
   14.2389    0.6656    0.0000 H   0  0  0  0  0  0  0  0  0  0  0  0
   13.3719   -2.0030    0.0000 H   0  0  0  0  0  0  0  0  0  0  0  0
    1.3800   -3.8485    0.0000 H   0  0  0  0  0  0  0  0  0  0  0  0
    2.0000   -4.4685    0.0000 H   0  0  0  0  0  0  0  0  0  0  0  0
    2.6200   -3.8485    0.0000 H   0  0  0  0  0  0  0  0  0  0  0  0
   16.0952   -0.8280    0.0000 H   0  0  0  0  0  0  0  0  0  0  0  0
   16.1411    0.0476    0.0000 H   0  0  0  0  0  0  0  0  0  0  0  0
   15.2654    0.0935    0.0000 H   0  0  0  0  0  0  0  0  0  0  0  0
  1 12  1  0  0  0  0
  1 14  1  0  0  0  0
 19  2  1  1  0  0  0
  2 62  1  0  0  0  0
  3 17  2  0  0  0  0
  4 18  2  0  0  0  0
  5 25  2  0  0  0  0
  6 34  1  0  0  0  0
  6 42  1  0  0  0  0
  7 43  1  0  0  0  0
  7 44  1  0  0  0  0
  8 13  1  0  0  0  0
  8 14  1  0  0  0  0
  8 18  1  0  0  0  0
  9 17  1  0  0  0  0
  9 22  1  0  0  0  0
  9 56  1  0  0  0  0
 20 10  1  1  0  0  0
 10 25  1  0  0  0  0
 10 59  1  0  0  0  0
 11 25  1  0  0  0  0
 11 33  1  0  0  0  0
 11 65  1  0  0  0  0
 12 13  1  0  0  0  0
 12 15  1  0  0  0  0
 12 16  1  0  0  0  0
 13 17  1  6  0  0  0
 13 45  1  0  0  0  0
 14 46  1  0  0  0  0
 14 47  1  0  0  0  0
 15 48  1  0  0  0  0
 15 49  1  0  0  0  0
 15 50  1  0  0  0  0
 16 51  1  0  0  0  0
 16 52  1  0  0  0  0
 16 53  1  0  0  0  0
 18 19  1  0  0  0  0
 19 20  1  0  0  0  0
 19 54  1  0  0  0  0
 20 21  1  0  0  0  0
 20 55  1  0  0  0  0
 21 23  1  0  0  0  0
 21 57  1  0  0  0  0
 21 58  1  0  0  0  0
 22 24  1  0  0  0  0
 22 60  1  0  0  0  0
 22 61  1  0  0  0  0
 23 26  2  0  0  0  0
 23 27  1  0  0  0  0
 24 28  2  0  0  0  0
 24 29  1  0  0  0  0
 26 30  1  0  0  0  0
 26 63  1  0  0  0  0
 27 31  2  0  0  0  0
 27 64  1  0  0  0  0
 28 34  1  0  0  0  0
 28 66  1  0  0  0  0
 29 35  2  0  0  0  0
 29 67  1  0  0  0  0
 30 32  2  0  0  0  0
 30 68  1  0  0  0  0
 31 32  1  0  0  0  0
 31 69  1  0  0  0  0
 32 70  1  0  0  0  0
 33 37  1  0  0  0  0
 33 71  1  0  0  0  0
 33 72  1  0  0  0  0
 34 36  2  0  0  0  0
 35 36  1  0  0  0  0
 35 73  1  0  0  0  0
 36 74  1  0  0  0  0
 37 38  2  0  0  0  0
 37 39  1  0  0  0  0
 38 40  1  0  0  0  0
 38 75  1  0  0  0  0
 39 41  2  0  0  0  0
 39 76  1  0  0  0  0
 40 43  2  0  0  0  0
 40 77  1  0  0  0  0
 41 43  1  0  0  0  0
 41 78  1  0  0  0  0
 42 79  1  0  0  0  0
 42 80  1  0  0  0  0
 42 81  1  0  0  0  0
 44 82  1  0  0  0  0
 44 83  1  0  0  0  0
 44 84  1  0  0  0  0
M  END
> <PUBCHEM_COMPOUND_CID>
514690
> <PUBCHEM_COMPOUND_CANONICALIZED>
1
> <PUBCHEM_CACTVS_COMPLEXITY>
939
> <PUBCHEM_CACTVS_HBOND_ACCEPTOR>
7
> <PUBCHEM_CACTVS_HBOND_DONOR>
4
> <PUBCHEM_CACTVS_ROTATABLE_BOND>
12
> <PUBCHEM_CACTVS_SUBSKEYS>
AAADcfB/uABAAAAAAAAAAAAAAAAAAWAAAAAwYMAAAAAAAAABUAAAHgQQCAAADDzh2AazBoPABgiIAiFSEAKCCABgIBAIiIHODIiOdjqk8TuUcChs1hOYqAe42LKOIAABAAAAAABAAAIAAAAAAAAAAAAAAA==
> <PUBCHEM_IUPAC_OPENEYE_NAME>
(4R)-3-[(2S,3S)-2-hydroxy-3-[(4-methoxyphenyl)methylcarbamoylamino]-4-phenyl-butanoyl]-N-[(3-methoxyphenyl)methyl]-5,5-dimethyl-thiazolidine-4-carboxamide
> <PUBCHEM_IUPAC_CAS_NAME>
(4R)-3-[(2S,3S)-2-hydroxy-3-[[[(4-methoxyphenyl)methylamino]-oxomethyl]amino]-1-oxo-4-phenylbutyl]-N-[(3-methoxyphenyl)methyl]-5,5-dimethyl-4-thiazolidinecarboxamide
> <PUBCHEM_IUPAC_NAME_MARKUP>
(4<I>R</I>)-3-[(2<I>S</I>,3<I>S</I>)-2-hydroxy-3-[(4-methoxyphenyl)methylcarbamoylamino]-4-phenylbutanoyl]-<I>N</I>-[(3-methoxyphenyl)methyl]-5,5-dimethyl-1,3-thiazolidine-4-carboxamide
> <PUBCHEM_IUPAC_NAME>
(4R)-3-[(2S,3S)-2-hydroxy-3-[(4-methoxyphenyl)methylcarbamoylamino]-4-phenylbutanoyl]-N-[(3-methoxyphenyl)methyl]-5,5-dimethyl-1,3-thiazolidine-4-carboxamide
> <PUBCHEM_IUPAC_SYSTEMATIC_NAME>
(4R)-N-[(3-methoxyphenyl)methyl]-3-[(2S,3S)-3-[(4-methoxyphenyl)methylcarbamoylamino]-2-oxidanyl-4-phenyl-butanoyl]-5,5-dimethyl-1,3-thiazolidine-4-carboxamide
> <PUBCHEM_IUPAC_TRADITIONAL_NAME>
(4R)-3-[(2S,3S)-2-hydroxy-3-(p-anisylcarbamoylamino)-4-phenyl-butanoyl]-N-m-anisyl-5,5-dimethyl-thiazolidine-4-carboxamide
> <PUBCHEM_IUPAC_INCHI>
InChI=1S/C33H40N4O6S/c1-33(2)29(30(39)34-20-24-11-8-12-26(17-24)43-4)37(21-44-33)31(40)28(38)27(18-22-9-6-5-7-10-22)36-32(41)35-19-23-13-15-25(42-3)16-14-23/h5-17,27-29,38H,18-21H2,1-4H3,(H,34,39)(H2,35,36,41)/t27-,28-,29+/m0/s1
> <PUBCHEM_IUPAC_INCHIKEY>
DCWYBKMSCICVRY-YTCPBCGMSA-N
> <PUBCHEM_XLOGP3_AA>
3.7
> <PUBCHEM_EXACT_MASS>
620.26685618
> <PUBCHEM_MOLECULAR_FORMULA>
C33H40N4O6S
> <PUBCHEM_MOLECULAR_WEIGHT>
620.8
> <PUBCHEM_OPENEYE_CAN_SMILES>
CC1(C(N(CS1)C(=O)C(C(CC2=CC=CC=C2)NC(=O)NCC3=CC=C(C=C3)OC)O)C(=O)NCC4=CC(=CC=C4)OC)C
> <PUBCHEM_OPENEYE_ISO_SMILES>
CC1([C@H](N(CS1)C(=O)[C@H]([C@H](CC2=CC=CC=C2)NC(=O)NCC3=CC=C(C=C3)OC)O)C(=O)NCC4=CC(=CC=C4)OC)C
> <PUBCHEM_CACTVS_TPSA>
155
> <PUBCHEM_MONOISOTOPIC_WEIGHT>
620.26685618
> <PUBCHEM_TOTAL_CHARGE>
0
> <PUBCHEM_HEAVY_ATOM_COUNT>
44
> <PUBCHEM_ATOM_DEF_STEREO_COUNT>
3
> <PUBCHEM_ATOM_UDEF_STEREO_COUNT>
0
> <PUBCHEM_BOND_DEF_STEREO_COUNT>
0
> <PUBCHEM_BOND_UDEF_STEREO_COUNT>
0
> <PUBCHEM_ISOTOPIC_ATOM_COUNT>
0
> <PUBCHEM_COMPONENT_COUNT>
1
> <PUBCHEM_CACTVS_TAUTO_COUNT>
-1
> <PUBCHEM_COORDINATE_TYPE>
1
5
255
> <PUBCHEM_BONDANNOTATIONS>
20  10  5
13  17  6
19  2  5
23  26  8
23  27  8
24  28  8
24  29  8
26  30  8
27  31  8
28  34  8
29  35  8
30  32  8
31  32  8
34  36  8
35  36  8
37  38  8
37  39  8
38  40  8
39  41  8
40  43  8
41  43  8
$$$$
