514600
  -OEChem-10302200282D
 78 82  0     1  0  0  0  0  0999 V2000
    6.2809    1.7077    0.0000 S   0  0  0  0  0  0  0  0  0  0  0  0
   12.8214    3.8223    0.0000 F   0  0  0  0  0  0  0  0  0  0  0  0
    6.6353   -1.6052    0.0000 O   0  0  0  0  0  0  0  0  0  0  0  0
    9.0582    1.2074    0.0000 O   0  0  0  0  0  0  0  0  0  0  0  0
    7.9314   -1.1865    0.0000 O   0  0  0  0  0  0  0  0  0  0  0  0
    9.9724    1.6125    0.0000 O   0  0  0  0  0  0  0  0  0  0  0  0
    7.2297    0.3970    0.0000 N   0  0  0  0  0  0  0  0  0  0  0  0
    4.9889   -1.0671    0.0000 N   0  0  0  0  0  0  0  0  0  0  0  0
   10.6742    0.0290    0.0000 N   0  0  0  0  0  0  0  0  0  0  0  0
    6.2781    0.0897    0.0000 C   0  0  1  0  0  0  0  0  0  0  0  0
    5.6917    0.8997    0.0000 C   0  0  0  0  0  0  0  0  0  0  0  0
    4.6783   -2.0176    0.0000 C   0  0  1  0  0  0  0  0  0  0  0  0
    7.2314    1.3970    0.0000 C   0  0  0  0  0  0  0  0  0  0  0  0
    5.9674   -0.8608    0.0000 C   0  0  0  0  0  0  0  0  0  0  0  0
    4.8837    1.4889    0.0000 C   0  0  0  0  0  0  0  0  0  0  0  0
    4.8817    0.3133    0.0000 C   0  0  0  0  0  0  0  0  0  0  0  0
    5.2619   -2.8223    0.0000 C   0  0  0  0  0  0  0  0  0  0  0  0
    3.7320   -2.3223    0.0000 C   0  0  0  0  0  0  0  0  0  0  0  0
    8.0377   -0.1921    0.0000 C   0  0  0  0  0  0  0  0  0  0  0  0
    4.6783   -3.6270    0.0000 C   0  0  0  0  0  0  0  0  0  0  0  0
    3.7320   -3.3223    0.0000 C   0  0  0  0  0  0  0  0  0  0  0  0
    8.9519    0.2130    0.0000 C   0  0  2  0  0  0  0  0  0  0  0  0
    9.7599   -0.3762    0.0000 C   0  0  2  0  0  0  0  0  0  0  0  0
    2.8660   -1.8223    0.0000 C   0  0  0  0  0  0  0  0  0  0  0  0
    2.8660   -3.8223    0.0000 C   0  0  0  0  0  0  0  0  0  0  0  0
    9.6537   -1.3705    0.0000 C   0  0  0  0  0  0  0  0  0  0  0  0
    2.0000   -2.3223    0.0000 C   0  0  0  0  0  0  0  0  0  0  0  0
    2.0000   -3.3223    0.0000 C   0  0  0  0  0  0  0  0  0  0  0  0
   10.4617   -1.9597    0.0000 C   0  0  0  0  0  0  0  0  0  0  0  0
   10.7804    1.0233    0.0000 C   0  0  0  0  0  0  0  0  0  0  0  0
   10.3554   -2.9540    0.0000 C   0  0  0  0  0  0  0  0  0  0  0  0
   11.3759   -1.5545    0.0000 C   0  0  0  0  0  0  0  0  0  0  0  0
   11.6947    1.4285    0.0000 C   0  0  0  0  0  0  0  0  0  0  0  0
   11.1634   -3.5432    0.0000 C   0  0  0  0  0  0  0  0  0  0  0  0
   12.1839   -2.1437    0.0000 C   0  0  0  0  0  0  0  0  0  0  0  0
   11.8009    2.4228    0.0000 C   0  0  0  0  0  0  0  0  0  0  0  0
   12.0777   -3.1381    0.0000 C   0  0  0  0  0  0  0  0  0  0  0  0
   12.5027    0.8393    0.0000 C   0  0  0  0  0  0  0  0  0  0  0  0
   12.7152    2.8280    0.0000 C   0  0  0  0  0  0  0  0  0  0  0  0
   10.9929    3.0120    0.0000 C   0  0  0  0  0  0  0  0  0  0  0  0
   13.4169    1.2444    0.0000 C   0  0  0  0  0  0  0  0  0  0  0  0
   13.5232    2.2388    0.0000 C   0  0  0  0  0  0  0  0  0  0  0  0
    6.7158   -0.3495    0.0000 H   0  0  0  0  0  0  0  0  0  0  0  0
    5.2908   -1.9214    0.0000 H   0  0  0  0  0  0  0  0  0  0  0  0
    7.8479    1.3312    0.0000 H   0  0  0  0  0  0  0  0  0  0  0  0
    7.3614    2.0033    0.0000 H   0  0  0  0  0  0  0  0  0  0  0  0
    5.2490    1.9898    0.0000 H   0  0  0  0  0  0  0  0  0  0  0  0
    4.3828    1.8542    0.0000 H   0  0  0  0  0  0  0  0  0  0  0  0
    4.5184    0.9879    0.0000 H   0  0  0  0  0  0  0  0  0  0  0  0
    4.5181    0.8155    0.0000 H   0  0  0  0  0  0  0  0  0  0  0  0
    4.3795   -0.0502    0.0000 H   0  0  0  0  0  0  0  0  0  0  0  0
    5.2452   -0.1889    0.0000 H   0  0  0  0  0  0  0  0  0  0  0  0
    5.7227   -3.2370    0.0000 H   0  0  0  0  0  0  0  0  0  0  0  0
    5.7227   -2.4076    0.0000 H   0  0  0  0  0  0  0  0  0  0  0  0
    4.5749   -0.6056    0.0000 H   0  0  0  0  0  0  0  0  0  0  0  0
    4.4272   -4.1940    0.0000 H   0  0  0  0  0  0  0  0  0  0  0  0
    5.2156   -3.9363    0.0000 H   0  0  0  0  0  0  0  0  0  0  0  0
    9.5188    0.4642    0.0000 H   0  0  0  0  0  0  0  0  0  0  0  0
   10.2609   -0.7415    0.0000 H   0  0  0  0  0  0  0  0  0  0  0  0
    2.8660   -1.2023    0.0000 H   0  0  0  0  0  0  0  0  0  0  0  0
    2.8660   -4.4423    0.0000 H   0  0  0  0  0  0  0  0  0  0  0  0
    9.0580   -1.1986    0.0000 H   0  0  0  0  0  0  0  0  0  0  0  0
    9.3809   -1.9273    0.0000 H   0  0  0  0  0  0  0  0  0  0  0  0
   11.1751   -0.3363    0.0000 H   0  0  0  0  0  0  0  0  0  0  0  0
    1.4631   -2.0123    0.0000 H   0  0  0  0  0  0  0  0  0  0  0  0
    1.4631   -3.6323    0.0000 H   0  0  0  0  0  0  0  0  0  0  0  0
    8.5572    1.5727    0.0000 H   0  0  0  0  0  0  0  0  0  0  0  0
    9.7886   -3.2052    0.0000 H   0  0  0  0  0  0  0  0  0  0  0  0
   11.4418   -0.9380    0.0000 H   0  0  0  0  0  0  0  0  0  0  0  0
   11.0976   -4.1597    0.0000 H   0  0  0  0  0  0  0  0  0  0  0  0
   12.7508   -1.8925    0.0000 H   0  0  0  0  0  0  0  0  0  0  0  0
   12.5786   -3.5034    0.0000 H   0  0  0  0  0  0  0  0  0  0  0  0
   12.4368    0.2228    0.0000 H   0  0  0  0  0  0  0  0  0  0  0  0
   11.3582    3.5130    0.0000 H   0  0  0  0  0  0  0  0  0  0  0  0
   10.4920    3.3773    0.0000 H   0  0  0  0  0  0  0  0  0  0  0  0
   10.6276    2.5110    0.0000 H   0  0  0  0  0  0  0  0  0  0  0  0
   13.9179    0.8792    0.0000 H   0  0  0  0  0  0  0  0  0  0  0  0
   14.0900    2.4900    0.0000 H   0  0  0  0  0  0  0  0  0  0  0  0
  1 11  1  0  0  0  0
  1 13  1  0  0  0  0
  2 39  1  0  0  0  0
  3 14  2  0  0  0  0
 22  4  1  1  0  0  0
  4 67  1  0  0  0  0
  5 19  2  0  0  0  0
  6 30  2  0  0  0  0
  7 10  1  0  0  0  0
  7 13  1  0  0  0  0
  7 19  1  0  0  0  0
 12  8  1  1  0  0  0
  8 14  1  0  0  0  0
  8 55  1  0  0  0  0
 23  9  1  1  0  0  0
  9 30  1  0  0  0  0
  9 64  1  0  0  0  0
 10 11  1  0  0  0  0
 10 14  1  6  0  0  0
 10 43  1  0  0  0  0
 11 15  1  0  0  0  0
 11 16  1  0  0  0  0
 12 17  1  0  0  0  0
 12 18  1  0  0  0  0
 12 44  1  0  0  0  0
 13 45  1  0  0  0  0
 13 46  1  0  0  0  0
 15 47  1  0  0  0  0
 15 48  1  0  0  0  0
 15 49  1  0  0  0  0
 16 50  1  0  0  0  0
 16 51  1  0  0  0  0
 16 52  1  0  0  0  0
 17 20  1  0  0  0  0
 17 53  1  0  0  0  0
 17 54  1  0  0  0  0
 18 21  1  0  0  0  0
 18 24  2  0  0  0  0
 19 22  1  0  0  0  0
 20 21  1  0  0  0  0
 20 56  1  0  0  0  0
 20 57  1  0  0  0  0
 21 25  2  0  0  0  0
 22 23  1  0  0  0  0
 22 58  1  0  0  0  0
 23 26  1  0  0  0  0
 23 59  1  0  0  0  0
 24 27  1  0  0  0  0
 24 60  1  0  0  0  0
 25 28  1  0  0  0  0
 25 61  1  0  0  0  0
 26 29  1  0  0  0  0
 26 62  1  0  0  0  0
 26 63  1  0  0  0  0
 27 28  2  0  0  0  0
 27 65  1  0  0  0  0
 28 66  1  0  0  0  0
 29 31  2  0  0  0  0
 29 32  1  0  0  0  0
 30 33  1  0  0  0  0
 31 34  1  0  0  0  0
 31 68  1  0  0  0  0
 32 35  2  0  0  0  0
 32 69  1  0  0  0  0
 33 36  2  0  0  0  0
 33 38  1  0  0  0  0
 34 37  2  0  0  0  0
 34 70  1  0  0  0  0
 35 37  1  0  0  0  0
 35 71  1  0  0  0  0
 36 39  1  0  0  0  0
 36 40  1  0  0  0  0
 37 72  1  0  0  0  0
 38 41  2  0  0  0  0
 38 73  1  0  0  0  0
 39 42  2  0  0  0  0
 40 74  1  0  0  0  0
 40 75  1  0  0  0  0
 40 76  1  0  0  0  0
 41 42  1  0  0  0  0
 41 77  1  0  0  0  0
 42 78  1  0  0  0  0
M  END
> <PUBCHEM_COMPOUND_CID>
514600
> <PUBCHEM_COMPOUND_CANONICALIZED>
1
> <PUBCHEM_CACTVS_COMPLEXITY>
975
> <PUBCHEM_CACTVS_HBOND_ACCEPTOR>
6
> <PUBCHEM_CACTVS_HBOND_DONOR>
3
> <PUBCHEM_CACTVS_ROTATABLE_BOND>
8
> <PUBCHEM_CACTVS_SUBSKEYS>
AAADcfB/OQBAAAAAAAAAAAAAAAAAAeIAAAAwYMAAAAAAAGABUAAAHwQQCAAADDzh2A6yAIPAAgiIAiFSEAKCAABkABAIiIHIBMgKcDqg1TGUYQhklgCYiYeYyKCOgAAAAAAQAAAAAAAAACAAACAACQAAAA==
> <PUBCHEM_IUPAC_OPENEYE_NAME>
(4R)-3-[(2S,3S)-3-[(3-fluoro-2-methyl-benzoyl)amino]-2-hydroxy-4-phenyl-butanoyl]-N-[(1S)-indan-1-yl]-5,5-dimethyl-thiazolidine-4-carboxamide
> <PUBCHEM_IUPAC_CAS_NAME>
(4R)-N-[(1S)-2,3-dihydro-1H-inden-1-yl]-3-[(2S,3S)-3-[[(3-fluoro-2-methylphenyl)-oxomethyl]amino]-2-hydroxy-1-oxo-4-phenylbutyl]-5,5-dimethyl-4-thiazolidinecarboxamide
> <PUBCHEM_IUPAC_NAME_MARKUP>
(4<I>R</I>)-<I>N</I>-[(1<I>S</I>)-2,3-dihydro-1<I>H</I>-inden-1-yl]-3-[(2<I>S</I>,3<I>S</I>)-3-[(3-fluoro-2-methylbenzoyl)amino]-2-hydroxy-4-phenylbutanoyl]-5,5-dimethyl-1,3-thiazolidine-4-carboxamide
> <PUBCHEM_IUPAC_NAME>
(4R)-N-[(1S)-2,3-dihydro-1H-inden-1-yl]-3-[(2S,3S)-3-[(3-fluoro-2-methylbenzoyl)amino]-2-hydroxy-4-phenylbutanoyl]-5,5-dimethyl-1,3-thiazolidine-4-carboxamide
> <PUBCHEM_IUPAC_SYSTEMATIC_NAME>
(4R)-N-[(1S)-2,3-dihydro-1H-inden-1-yl]-3-[(2S,3S)-3-[(3-fluoranyl-2-methyl-phenyl)carbonylamino]-2-oxidanyl-4-phenyl-butanoyl]-5,5-dimethyl-1,3-thiazolidine-4-carboxamide
> <PUBCHEM_IUPAC_TRADITIONAL_NAME>
(4R)-3-[(2S,3S)-3-[(3-fluoro-2-methyl-benzoyl)amino]-2-hydroxy-4-phenyl-butanoyl]-N-[(1S)-indan-1-yl]-5,5-dimethyl-thiazolidine-4-carboxamide
> <PUBCHEM_IUPAC_INCHI>
InChI=1S/C33H36FN3O4S/c1-20-23(14-9-15-25(20)34)30(39)36-27(18-21-10-5-4-6-11-21)28(38)32(41)37-19-42-33(2,3)29(37)31(40)35-26-17-16-22-12-7-8-13-24(22)26/h4-15,26-29,38H,16-19H2,1-3H3,(H,35,40)(H,36,39)/t26-,27-,28-,29+/m0/s1
> <PUBCHEM_IUPAC_INCHIKEY>
QATKQQSRJDENNH-XFTNXAEASA-N
> <PUBCHEM_XLOGP3_AA>
5
> <PUBCHEM_EXACT_MASS>
589.24105597
> <PUBCHEM_MOLECULAR_FORMULA>
C33H36FN3O4S
> <PUBCHEM_MOLECULAR_WEIGHT>
589.7
> <PUBCHEM_OPENEYE_CAN_SMILES>
CC1=C(C=CC=C1F)C(=O)NC(CC2=CC=CC=C2)C(C(=O)N3CSC(C3C(=O)NC4CCC5=CC=CC=C45)(C)C)O
> <PUBCHEM_OPENEYE_ISO_SMILES>
CC1=C(C=CC=C1F)C(=O)N[C@@H](CC2=CC=CC=C2)[C@@H](C(=O)N3CSC([C@H]3C(=O)N[C@H]4CCC5=CC=CC=C45)(C)C)O
> <PUBCHEM_CACTVS_TPSA>
124
> <PUBCHEM_MONOISOTOPIC_WEIGHT>
589.24105597
> <PUBCHEM_TOTAL_CHARGE>
0
> <PUBCHEM_HEAVY_ATOM_COUNT>
42
> <PUBCHEM_ATOM_DEF_STEREO_COUNT>
4
> <PUBCHEM_ATOM_UDEF_STEREO_COUNT>
0
> <PUBCHEM_BOND_DEF_STEREO_COUNT>
0
> <PUBCHEM_BOND_UDEF_STEREO_COUNT>
0
> <PUBCHEM_ISOTOPIC_ATOM_COUNT>
0
> <PUBCHEM_COMPONENT_COUNT>
1
> <PUBCHEM_CACTVS_TAUTO_COUNT>
-1
> <PUBCHEM_COORDINATE_TYPE>
1
5
255
> <PUBCHEM_BONDANNOTATIONS>
10  14  6
18  21  8
18  24  8
21  25  8
24  27  8
25  28  8
27  28  8
29  31  8
29  32  8
31  34  8
32  35  8
33  36  8
33  38  8
34  37  8
35  37  8
36  39  8
38  41  8
39  42  8
22  4  5
41  42  8
12  8  5
23  9  5
$$$$
