514618
  -OEChem-10302200282D
 81 85  0     1  0  0  0  0  0999 V2000
   10.5397    0.2551    0.0000 F   0  0  0  0  0  0  0  0  0  0  0  0
    9.8504    1.2073    0.0000 F   0  0  0  0  0  0  0  0  0  0  0  0
    8.9436   -2.7454    0.0000 O   0  0  0  0  0  0  0  0  0  0  0  0
    6.4985   -1.1040    0.0000 O   0  0  0  0  0  0  0  0  0  0  0  0
    7.0030    1.4933    0.0000 O   0  0  0  0  0  0  0  0  0  0  0  0
    6.5045    2.3602    0.0000 O   0  0  0  0  0  0  0  0  0  0  0  0
    2.5075    4.0991    0.0000 O   0  0  0  0  0  0  0  0  0  0  0  0
    8.0000   -0.2405    0.0000 N   0  0  0  0  0  0  0  0  0  0  0  0
    7.2972   -2.2073    0.0000 N   0  0  0  0  0  0  0  0  0  0  0  0
    5.0030    1.4967    0.0000 N   0  0  0  0  0  0  0  0  0  0  0  0
    9.5380   -0.7432    0.0000 C   0  0  0  0  0  0  0  0  0  0  0  0
    8.5864   -1.0506    0.0000 C   0  0  1  0  0  0  0  0  0  0  0  0
    9.5397    0.2568    0.0000 C   0  0  0  0  0  0  0  0  0  0  0  0
    8.5892    0.5675    0.0000 C   0  0  0  0  0  0  0  0  0  0  0  0
   10.5380   -0.7449    0.0000 C   0  0  0  0  0  0  0  0  0  0  0  0
    9.8453   -1.6948    0.0000 C   0  0  0  0  0  0  0  0  0  0  0  0
    8.2757   -2.0011    0.0000 C   0  0  0  0  0  0  0  0  0  0  0  0
    7.0000   -0.2388    0.0000 C   0  0  0  0  0  0  0  0  0  0  0  0
    6.9866   -3.1578    0.0000 C   0  0  1  0  0  0  0  0  0  0  0  0
    6.5015    0.6281    0.0000 C   0  0  2  0  0  0  0  0  0  0  0  0
    7.5702   -3.9626    0.0000 C   0  0  0  0  0  0  0  0  0  0  0  0
    6.0403   -3.4626    0.0000 C   0  0  0  0  0  0  0  0  0  0  0  0
    5.5015    0.6298    0.0000 C   0  0  2  0  0  0  0  0  0  0  0  0
    6.9866   -4.7673    0.0000 C   0  0  0  0  0  0  0  0  0  0  0  0
    6.0403   -4.4626    0.0000 C   0  0  0  0  0  0  0  0  0  0  0  0
    5.0000   -0.2353    0.0000 C   0  0  0  0  0  0  0  0  0  0  0  0
    5.1743   -2.9625    0.0000 C   0  0  0  0  0  0  0  0  0  0  0  0
    5.1743   -4.9626    0.0000 C   0  0  0  0  0  0  0  0  0  0  0  0
    4.3083   -3.4626    0.0000 C   0  0  0  0  0  0  0  0  0  0  0  0
    4.0000   -0.2336    0.0000 C   0  0  0  0  0  0  0  0  0  0  0  0
    4.3083   -4.4626    0.0000 C   0  0  0  0  0  0  0  0  0  0  0  0
    5.5045    2.3619    0.0000 C   0  0  0  0  0  0  0  0  0  0  0  0
    3.5015    0.6333    0.0000 C   0  0  0  0  0  0  0  0  0  0  0  0
    3.4985   -1.0988    0.0000 C   0  0  0  0  0  0  0  0  0  0  0  0
    5.0060    3.2288    0.0000 C   0  0  0  0  0  0  0  0  0  0  0  0
    2.5015    0.6350    0.0000 C   0  0  0  0  0  0  0  0  0  0  0  0
    2.4985   -1.0970    0.0000 C   0  0  0  0  0  0  0  0  0  0  0  0
    4.0060    3.2305    0.0000 C   0  0  0  0  0  0  0  0  0  0  0  0
    2.0000   -0.2301    0.0000 C   0  0  0  0  0  0  0  0  0  0  0  0
    5.5075    4.0939    0.0000 C   0  0  0  0  0  0  0  0  0  0  0  0
    3.5075    4.0974    0.0000 C   0  0  0  0  0  0  0  0  0  0  0  0
    3.5045    2.3653    0.0000 C   0  0  0  0  0  0  0  0  0  0  0  0
    5.0090    4.9608    0.0000 C   0  0  0  0  0  0  0  0  0  0  0  0
    4.0090    4.9626    0.0000 C   0  0  0  0  0  0  0  0  0  0  0  0
    7.9738   -1.1465    0.0000 H   0  0  0  0  0  0  0  0  0  0  0  0
    8.8423    1.1334    0.0000 H   0  0  0  0  0  0  0  0  0  0  0  0
    8.0528    0.8784    0.0000 H   0  0  0  0  0  0  0  0  0  0  0  0
   10.5369   -1.3649    0.0000 H   0  0  0  0  0  0  0  0  0  0  0  0
   11.1580   -0.7460    0.0000 H   0  0  0  0  0  0  0  0  0  0  0  0
   10.5390   -0.1249    0.0000 H   0  0  0  0  0  0  0  0  0  0  0  0
    9.2554   -1.8853    0.0000 H   0  0  0  0  0  0  0  0  0  0  0  0
   10.0359   -2.2848    0.0000 H   0  0  0  0  0  0  0  0  0  0  0  0
   10.4353   -1.5042    0.0000 H   0  0  0  0  0  0  0  0  0  0  0  0
    7.5990   -3.0616    0.0000 H   0  0  0  0  0  0  0  0  0  0  0  0
    6.8831   -1.7458    0.0000 H   0  0  0  0  0  0  0  0  0  0  0  0
    7.1215    0.6270    0.0000 H   0  0  0  0  0  0  0  0  0  0  0  0
    8.0310   -4.3773    0.0000 H   0  0  0  0  0  0  0  0  0  0  0  0
    8.0310   -3.5478    0.0000 H   0  0  0  0  0  0  0  0  0  0  0  0
    5.8124    1.1662    0.0000 H   0  0  0  0  0  0  0  0  0  0  0  0
    6.7355   -5.3342    0.0000 H   0  0  0  0  0  0  0  0  0  0  0  0
    7.5239   -5.0765    0.0000 H   0  0  0  0  0  0  0  0  0  0  0  0
    4.8913   -0.8457    0.0000 H   0  0  0  0  0  0  0  0  0  0  0  0
    5.5822   -0.4484    0.0000 H   0  0  0  0  0  0  0  0  0  0  0  0
    5.1743   -2.3426    0.0000 H   0  0  0  0  0  0  0  0  0  0  0  0
    7.6230    1.4922    0.0000 H   0  0  0  0  0  0  0  0  0  0  0  0
    4.3830    1.4978    0.0000 H   0  0  0  0  0  0  0  0  0  0  0  0
    5.1743   -5.5826    0.0000 H   0  0  0  0  0  0  0  0  0  0  0  0
    3.7713   -3.1526    0.0000 H   0  0  0  0  0  0  0  0  0  0  0  0
    3.7713   -4.7726    0.0000 H   0  0  0  0  0  0  0  0  0  0  0  0
    3.8124    1.1697    0.0000 H   0  0  0  0  0  0  0  0  0  0  0  0
    3.8076   -1.6362    0.0000 H   0  0  0  0  0  0  0  0  0  0  0  0
    2.1924    1.1725    0.0000 H   0  0  0  0  0  0  0  0  0  0  0  0
    2.1876   -1.6334    0.0000 H   0  0  0  0  0  0  0  0  0  0  0  0
    1.3800   -0.2291    0.0000 H   0  0  0  0  0  0  0  0  0  0  0  0
    6.1275    4.0928    0.0000 H   0  0  0  0  0  0  0  0  0  0  0  0
    2.9681    2.6763    0.0000 H   0  0  0  0  0  0  0  0  0  0  0  0
    3.1936    1.8289    0.0000 H   0  0  0  0  0  0  0  0  0  0  0  0
    4.0409    2.0544    0.0000 H   0  0  0  0  0  0  0  0  0  0  0  0
    5.3199    5.4972    0.0000 H   0  0  0  0  0  0  0  0  0  0  0  0
    3.6999    5.5000    0.0000 H   0  0  0  0  0  0  0  0  0  0  0  0
    2.1984    4.6366    0.0000 H   0  0  0  0  0  0  0  0  0  0  0  0
  1 13  1  0  0  0  0
  2 13  1  0  0  0  0
  3 17  2  0  0  0  0
  4 18  2  0  0  0  0
 20  5  1  6  0  0  0
  5 65  1  0  0  0  0
  6 32  2  0  0  0  0
  7 41  1  0  0  0  0
  7 81  1  0  0  0  0
  8 12  1  0  0  0  0
  8 14  1  0  0  0  0
  8 18  1  0  0  0  0
  9 17  1  0  0  0  0
 19  9  1  1  0  0  0
  9 55  1  0  0  0  0
 23 10  1  6  0  0  0
 10 32  1  0  0  0  0
 10 66  1  0  0  0  0
 11 12  1  0  0  0  0
 11 13  1  0  0  0  0
 11 15  1  0  0  0  0
 11 16  1  0  0  0  0
 12 17  1  1  0  0  0
 12 45  1  0  0  0  0
 13 14  1  0  0  0  0
 14 46  1  0  0  0  0
 14 47  1  0  0  0  0
 15 48  1  0  0  0  0
 15 49  1  0  0  0  0
 15 50  1  0  0  0  0
 16 51  1  0  0  0  0
 16 52  1  0  0  0  0
 16 53  1  0  0  0  0
 18 20  1  0  0  0  0
 19 21  1  0  0  0  0
 19 22  1  0  0  0  0
 19 54  1  0  0  0  0
 20 23  1  0  0  0  0
 20 56  1  0  0  0  0
 21 24  1  0  0  0  0
 21 57  1  0  0  0  0
 21 58  1  0  0  0  0
 22 25  1  0  0  0  0
 22 27  2  0  0  0  0
 23 26  1  0  0  0  0
 23 59  1  0  0  0  0
 24 25  1  0  0  0  0
 24 60  1  0  0  0  0
 24 61  1  0  0  0  0
 25 28  2  0  0  0  0
 26 30  1  0  0  0  0
 26 62  1  0  0  0  0
 26 63  1  0  0  0  0
 27 29  1  0  0  0  0
 27 64  1  0  0  0  0
 28 31  1  0  0  0  0
 28 67  1  0  0  0  0
 29 31  2  0  0  0  0
 29 68  1  0  0  0  0
 30 33  2  0  0  0  0
 30 34  1  0  0  0  0
 31 69  1  0  0  0  0
 32 35  1  0  0  0  0
 33 36  1  0  0  0  0
 33 70  1  0  0  0  0
 34 37  2  0  0  0  0
 34 71  1  0  0  0  0
 35 38  2  0  0  0  0
 35 40  1  0  0  0  0
 36 39  2  0  0  0  0
 36 72  1  0  0  0  0
 37 39  1  0  0  0  0
 37 73  1  0  0  0  0
 38 41  1  0  0  0  0
 38 42  1  0  0  0  0
 39 74  1  0  0  0  0
 40 43  2  0  0  0  0
 40 75  1  0  0  0  0
 41 44  2  0  0  0  0
 42 76  1  0  0  0  0
 42 77  1  0  0  0  0
 42 78  1  0  0  0  0
 43 44  1  0  0  0  0
 43 79  1  0  0  0  0
 44 80  1  0  0  0  0
M  END
> <PUBCHEM_COMPOUND_CID>
514618
> <PUBCHEM_COMPOUND_CANONICALIZED>
1
> <PUBCHEM_CACTVS_COMPLEXITY>
1050
> <PUBCHEM_CACTVS_HBOND_ACCEPTOR>
7
> <PUBCHEM_CACTVS_HBOND_DONOR>
4
> <PUBCHEM_CACTVS_ROTATABLE_BOND>
8
> <PUBCHEM_CACTVS_SUBSKEYS>
AAADcfB/OYAAAAAAAAAAAAAAAAAAAeIAAAAwYMAAAAAAAGABUAAAHwAQCAAADjzhmBYyBoPAAgCIAiFSEAKCAAAkIAAIiIHODMgKdjqC1TOUcQhk1hGYmYe6ybCPgAABAAAYAAAAAAIAADAAACAACQAAAA==
> <PUBCHEM_IUPAC_OPENEYE_NAME>
(2S)-4,4-difluoro-1-[(2S,3S)-2-hydroxy-3-[(3-hydroxy-2-methyl-benzoyl)amino]-4-phenyl-butanoyl]-N-[(1S)-indan-1-yl]-3,3-dimethyl-pyrrolidine-2-carboxamide
> <PUBCHEM_IUPAC_CAS_NAME>
(2S)-N-[(1S)-2,3-dihydro-1H-inden-1-yl]-4,4-difluoro-1-[(2S,3S)-2-hydroxy-3-[[(3-hydroxy-2-methylphenyl)-oxomethyl]amino]-1-oxo-4-phenylbutyl]-3,3-dimethyl-2-pyrrolidinecarboxamide
> <PUBCHEM_IUPAC_NAME_MARKUP>
(2<I>S</I>)-<I>N</I>-[(1<I>S</I>)-2,3-dihydro-1<I>H</I>-inden-1-yl]-4,4-difluoro-1-[(2<I>S</I>,3<I>S</I>)-2-hydroxy-3-[(3-hydroxy-2-methylbenzoyl)amino]-4-phenylbutanoyl]-3,3-dimethylpyrrolidine-2-carboxamide
> <PUBCHEM_IUPAC_NAME>
(2S)-N-[(1S)-2,3-dihydro-1H-inden-1-yl]-4,4-difluoro-1-[(2S,3S)-2-hydroxy-3-[(3-hydroxy-2-methylbenzoyl)amino]-4-phenylbutanoyl]-3,3-dimethylpyrrolidine-2-carboxamide
> <PUBCHEM_IUPAC_SYSTEMATIC_NAME>
(2S)-N-[(1S)-2,3-dihydro-1H-inden-1-yl]-4,4-bis(fluoranyl)-3,3-dimethyl-1-[(2S,3S)-3-[(2-methyl-3-oxidanyl-phenyl)carbonylamino]-2-oxidanyl-4-phenyl-butanoyl]pyrrolidine-2-carboxamide
> <PUBCHEM_IUPAC_TRADITIONAL_NAME>
(2S)-4,4-difluoro-1-[(2S,3S)-2-hydroxy-3-[(3-hydroxy-2-methyl-benzoyl)amino]-4-phenyl-butanoyl]-N-[(1S)-indan-1-yl]-3,3-dimethyl-pyrrolidine-2-carboxamide
> <PUBCHEM_IUPAC_INCHI>
InChI=1S/C34H37F2N3O5/c1-20-23(14-9-15-27(20)40)30(42)38-26(18-21-10-5-4-6-11-21)28(41)32(44)39-19-34(35,36)33(2,3)29(39)31(43)37-25-17-16-22-12-7-8-13-24(22)25/h4-15,25-26,28-29,40-41H,16-19H2,1-3H3,(H,37,43)(H,38,42)/t25-,26-,28-,29+/m0/s1
> <PUBCHEM_IUPAC_INCHIKEY>
NVWCYSSXJKYWHM-ZSLRCHCDSA-N
> <PUBCHEM_XLOGP3_AA>
5
> <PUBCHEM_EXACT_MASS>
605.27012761
> <PUBCHEM_MOLECULAR_FORMULA>
C34H37F2N3O5
> <PUBCHEM_MOLECULAR_WEIGHT>
605.7
> <PUBCHEM_OPENEYE_CAN_SMILES>
CC1=C(C=CC=C1O)C(=O)NC(CC2=CC=CC=C2)C(C(=O)N3CC(C(C3C(=O)NC4CCC5=CC=CC=C45)(C)C)(F)F)O
> <PUBCHEM_OPENEYE_ISO_SMILES>
CC1=C(C=CC=C1O)C(=O)N[C@@H](CC2=CC=CC=C2)[C@@H](C(=O)N3CC(C([C@H]3C(=O)N[C@H]4CCC5=CC=CC=C45)(C)C)(F)F)O
> <PUBCHEM_CACTVS_TPSA>
119
> <PUBCHEM_MONOISOTOPIC_WEIGHT>
605.27012761
> <PUBCHEM_TOTAL_CHARGE>
0
> <PUBCHEM_HEAVY_ATOM_COUNT>
44
> <PUBCHEM_ATOM_DEF_STEREO_COUNT>
4
> <PUBCHEM_ATOM_UDEF_STEREO_COUNT>
0
> <PUBCHEM_BOND_DEF_STEREO_COUNT>
0
> <PUBCHEM_BOND_UDEF_STEREO_COUNT>
0
> <PUBCHEM_ISOTOPIC_ATOM_COUNT>
0
> <PUBCHEM_COMPONENT_COUNT>
1
> <PUBCHEM_CACTVS_TAUTO_COUNT>
-1
> <PUBCHEM_COORDINATE_TYPE>
1
5
255
> <PUBCHEM_BONDANNOTATIONS>
23  10  6
12  17  5
22  25  8
22  27  8
25  28  8
27  29  8
28  31  8
29  31  8
30  33  8
30  34  8
33  36  8
34  37  8
35  38  8
35  40  8
36  39  8
37  39  8
38  41  8
40  43  8
41  44  8
43  44  8
20  5  6
19  9  5
$$$$
