514643
  -OEChem-10302200282D
 72 75  0     1  0  0  0  0  0999 V2000
    8.8881   -1.2509    0.0000 F   0  0  0  0  0  0  0  0  0  0  0  0
    9.0110   -0.0818    0.0000 F   0  0  0  0  0  0  0  0  0  0  0  0
    7.0826    2.0327    0.0000 O   0  0  0  0  0  0  0  0  0  0  0  0
    4.9726    0.4365    0.0000 O   0  0  0  0  0  0  0  0  0  0  0  0
    4.8302   -0.9182    0.0000 O   0  0  0  0  0  0  0  0  0  0  0  0
    6.7553    4.6581    0.0000 O   0  0  0  0  0  0  0  0  0  0  0  0
    9.0154    5.9182    0.0000 O   0  0  0  0  0  0  0  0  0  0  0  0
    7.2905    3.0108    0.0000 O   0  0  0  0  0  0  0  0  0  0  0  0
    6.6668    0.0764    0.0000 N   0  0  0  0  0  0  0  0  0  0  0  0
    5.6962   -2.4182    0.0000 N   0  0  0  0  0  0  0  0  0  0  0  0
    5.5963    3.3709    0.0000 N   0  0  0  0  0  0  0  0  0  0  0  0
    6.5622   -0.9182    0.0000 C   0  0  1  0  0  0  0  0  0  0  0  0
    7.4758   -1.3249    0.0000 C   0  0  0  0  0  0  0  0  0  0  0  0
    8.1449   -0.5818    0.0000 C   0  0  0  0  0  0  0  0  0  0  0  0
    7.6449    0.2843    0.0000 C   0  0  0  0  0  0  0  0  0  0  0  0
    5.9236    0.7455    0.0000 C   0  0  0  0  0  0  0  0  0  0  0  0
    6.1316    1.7236    0.0000 C   0  0  2  0  0  0  0  0  0  0  0  0
    5.6962   -1.4182    0.0000 C   0  0  0  0  0  0  0  0  0  0  0  0
    5.3884    2.3928    0.0000 C   0  0  2  0  0  0  0  0  0  0  0  0
    4.4374    2.0838    0.0000 C   0  0  0  0  0  0  0  0  0  0  0  0
    3.6942    2.7529    0.0000 C   0  0  0  0  0  0  0  0  0  0  0  0
    7.7063    4.9671    0.0000 C   0  0  1  0  0  0  0  0  0  0  0  0
    4.8302   -2.9182    0.0000 C   0  0  0  0  0  0  0  0  0  0  0  0
    8.5154    4.3793    0.0000 C   0  0  0  0  0  0  0  0  0  0  0  0
    6.5474    3.6799    0.0000 C   0  0  0  0  0  0  0  0  0  0  0  0
    8.0154    5.9182    0.0000 C   0  0  0  0  0  0  0  0  0  0  0  0
    9.3244    4.9671    0.0000 C   0  0  0  0  0  0  0  0  0  0  0  0
    4.8302   -3.9182    0.0000 C   0  0  0  0  0  0  0  0  0  0  0  0
    2.7431    2.4439    0.0000 C   0  0  0  0  0  0  0  0  0  0  0  0
    3.9021    3.7310    0.0000 C   0  0  0  0  0  0  0  0  0  0  0  0
    3.9642   -4.4182    0.0000 C   0  0  0  0  0  0  0  0  0  0  0  0
    5.6962   -4.4182    0.0000 C   0  0  0  0  0  0  0  0  0  0  0  0
    2.0000    3.1130    0.0000 C   0  0  0  0  0  0  0  0  0  0  0  0
    3.1590    4.4002    0.0000 C   0  0  0  0  0  0  0  0  0  0  0  0
    2.2079    4.0912    0.0000 C   0  0  0  0  0  0  0  0  0  0  0  0
    3.9642   -5.4182    0.0000 C   0  0  0  0  0  0  0  0  0  0  0  0
    3.0982   -3.9182    0.0000 C   0  0  0  0  0  0  0  0  0  0  0  0
    5.6962   -5.4182    0.0000 C   0  0  0  0  0  0  0  0  0  0  0  0
    4.8302   -5.9182    0.0000 C   0  0  0  0  0  0  0  0  0  0  0  0
    6.0423   -0.5805    0.0000 H   0  0  0  0  0  0  0  0  0  0  0  0
    7.1658   -1.8618    0.0000 H   0  0  0  0  0  0  0  0  0  0  0  0
    7.9774   -1.6893    0.0000 H   0  0  0  0  0  0  0  0  0  0  0  0
    8.2113    0.5365    0.0000 H   0  0  0  0  0  0  0  0  0  0  0  0
    7.4533    0.8739    0.0000 H   0  0  0  0  0  0  0  0  0  0  0  0
    6.2604    2.3301    0.0000 H   0  0  0  0  0  0  0  0  0  0  0  0
    4.9276    2.8076    0.0000 H   0  0  0  0  0  0  0  0  0  0  0  0
    3.9488    1.7020    0.0000 H   0  0  0  0  0  0  0  0  0  0  0  0
    4.7284    1.5363    0.0000 H   0  0  0  0  0  0  0  0  0  0  0  0
    6.2332   -2.7282    0.0000 H   0  0  0  0  0  0  0  0  0  0  0  0
    5.1356    3.7858    0.0000 H   0  0  0  0  0  0  0  0  0  0  0  0
    7.5434    1.6178    0.0000 H   0  0  0  0  0  0  0  0  0  0  0  0
    7.6094    4.3547    0.0000 H   0  0  0  0  0  0  0  0  0  0  0  0
    4.6182   -2.3356    0.0000 H   0  0  0  0  0  0  0  0  0  0  0  0
    4.2196   -3.0258    0.0000 H   0  0  0  0  0  0  0  0  0  0  0  0
    8.1005    3.9186    0.0000 H   0  0  0  0  0  0  0  0  0  0  0  0
    8.9302    3.9186    0.0000 H   0  0  0  0  0  0  0  0  0  0  0  0
    8.0802    6.5348    0.0000 H   0  0  0  0  0  0  0  0  0  0  0  0
    7.4089    6.0471    0.0000 H   0  0  0  0  0  0  0  0  0  0  0  0
    9.6344    4.4302    0.0000 H   0  0  0  0  0  0  0  0  0  0  0  0
    9.8908    5.2193    0.0000 H   0  0  0  0  0  0  0  0  0  0  0  0
    2.6142    1.8374    0.0000 H   0  0  0  0  0  0  0  0  0  0  0  0
    4.4918    3.9226    0.0000 H   0  0  0  0  0  0  0  0  0  0  0  0
    6.2332   -4.1082    0.0000 H   0  0  0  0  0  0  0  0  0  0  0  0
    1.4103    2.9214    0.0000 H   0  0  0  0  0  0  0  0  0  0  0  0
    3.2879    5.0066    0.0000 H   0  0  0  0  0  0  0  0  0  0  0  0
    1.7472    4.5060    0.0000 H   0  0  0  0  0  0  0  0  0  0  0  0
    3.4272   -5.7282    0.0000 H   0  0  0  0  0  0  0  0  0  0  0  0
    3.4082   -3.3812    0.0000 H   0  0  0  0  0  0  0  0  0  0  0  0
    2.5612   -3.6082    0.0000 H   0  0  0  0  0  0  0  0  0  0  0  0
    2.7882   -4.4551    0.0000 H   0  0  0  0  0  0  0  0  0  0  0  0
    6.2332   -5.7282    0.0000 H   0  0  0  0  0  0  0  0  0  0  0  0
    4.8302   -6.5382    0.0000 H   0  0  0  0  0  0  0  0  0  0  0  0
  1 14  1  0  0  0  0
  2 14  1  0  0  0  0
 17  3  1  6  0  0  0
  3 51  1  0  0  0  0
  4 16  2  0  0  0  0
  5 18  2  0  0  0  0
 22  6  1  6  0  0  0
  6 25  1  0  0  0  0
  7 26  1  0  0  0  0
  7 27  1  0  0  0  0
  8 25  2  0  0  0  0
  9 12  1  0  0  0  0
  9 15  1  0  0  0  0
  9 16  1  0  0  0  0
 10 18  1  0  0  0  0
 10 23  1  0  0  0  0
 10 49  1  0  0  0  0
 19 11  1  6  0  0  0
 11 25  1  0  0  0  0
 11 50  1  0  0  0  0
 12 13  1  0  0  0  0
 12 18  1  1  0  0  0
 12 40  1  0  0  0  0
 13 14  1  0  0  0  0
 13 41  1  0  0  0  0
 13 42  1  0  0  0  0
 14 15  1  0  0  0  0
 15 43  1  0  0  0  0
 15 44  1  0  0  0  0
 16 17  1  0  0  0  0
 17 19  1  0  0  0  0
 17 45  1  0  0  0  0
 19 20  1  0  0  0  0
 19 46  1  0  0  0  0
 20 21  1  0  0  0  0
 20 47  1  0  0  0  0
 20 48  1  0  0  0  0
 21 29  2  0  0  0  0
 21 30  1  0  0  0  0
 22 24  1  0  0  0  0
 22 26  1  0  0  0  0
 22 52  1  0  0  0  0
 23 28  1  0  0  0  0
 23 53  1  0  0  0  0
 23 54  1  0  0  0  0
 24 27  1  0  0  0  0
 24 55  1  0  0  0  0
 24 56  1  0  0  0  0
 26 57  1  0  0  0  0
 26 58  1  0  0  0  0
 27 59  1  0  0  0  0
 27 60  1  0  0  0  0
 28 31  1  0  0  0  0
 28 32  2  0  0  0  0
 29 33  1  0  0  0  0
 29 61  1  0  0  0  0
 30 34  2  0  0  0  0
 30 62  1  0  0  0  0
 31 36  2  0  0  0  0
 31 37  1  0  0  0  0
 32 38  1  0  0  0  0
 32 63  1  0  0  0  0
 33 35  2  0  0  0  0
 33 64  1  0  0  0  0
 34 35  1  0  0  0  0
 34 65  1  0  0  0  0
 35 66  1  0  0  0  0
 36 39  1  0  0  0  0
 36 67  1  0  0  0  0
 37 68  1  0  0  0  0
 37 69  1  0  0  0  0
 37 70  1  0  0  0  0
 38 39  2  0  0  0  0
 38 71  1  0  0  0  0
 39 72  1  0  0  0  0
M  END
> <PUBCHEM_COMPOUND_CID>
514643
> <PUBCHEM_COMPOUND_CANONICALIZED>
1
> <PUBCHEM_CACTVS_COMPLEXITY>
855
> <PUBCHEM_CACTVS_HBOND_ACCEPTOR>
8
> <PUBCHEM_CACTVS_HBOND_DONOR>
3
> <PUBCHEM_CACTVS_ROTATABLE_BOND>
10
> <PUBCHEM_CACTVS_SUBSKEYS>
AAADcfB7OYAAAAAAAAAAAAAAAAAAAWJAAAAwYAAAAAAAAAABQAAAHwAQCAAADDzhmBYyCIPABgCIAiFSGAKCAAAgAAAIiIHIBIkLcDqA0TGeYAhllgCaiAeYyaCOgAAAAAAQAAAAAAAAACAAAAAAAAAAAA==
> <PUBCHEM_IUPAC_OPENEYE_NAME>
[(3S)-tetrahydrofuran-3-yl] N-[(1S,2S)-1-benzyl-3-[(2S)-4,4-difluoro-2-(o-tolylmethylcarbamoyl)pyrrolidin-1-yl]-2-hydroxy-3-oxo-propyl]carbamate
> <PUBCHEM_IUPAC_CAS_NAME>
N-[(2S,3S)-4-[(2S)-4,4-difluoro-2-[[(2-methylphenyl)methylamino]-oxomethyl]-1-pyrrolidinyl]-3-hydroxy-4-oxo-1-phenylbutan-2-yl]carbamic acid [(3S)-3-oxolanyl] ester
> <PUBCHEM_IUPAC_NAME_MARKUP>
[(3<I>S</I>)-oxolan-3-yl] <I>N</I>-[(2<I>S</I>,3<I>S</I>)-4-[(2<I>S</I>)-4,4-difluoro-2-[(2-methylphenyl)methylcarbamoyl]pyrrolidin-1-yl]-3-hydroxy-4-oxo-1-phenylbutan-2-yl]carbamate
> <PUBCHEM_IUPAC_NAME>
[(3S)-oxolan-3-yl] N-[(2S,3S)-4-[(2S)-4,4-difluoro-2-[(2-methylphenyl)methylcarbamoyl]pyrrolidin-1-yl]-3-hydroxy-4-oxo-1-phenylbutan-2-yl]carbamate
> <PUBCHEM_IUPAC_SYSTEMATIC_NAME>
[(3S)-oxolan-3-yl] N-[(2S,3S)-4-[(2S)-4,4-bis(fluoranyl)-2-[(2-methylphenyl)methylcarbamoyl]pyrrolidin-1-yl]-3-oxidanyl-4-oxidanylidene-1-phenyl-butan-2-yl]carbamate
> <PUBCHEM_IUPAC_TRADITIONAL_NAME>
N-[(1S,2S)-1-benzyl-3-[(2S)-4,4-difluoro-2-[(2-methylbenzyl)carbamoyl]pyrrolidino]-2-hydroxy-3-keto-propyl]carbamic acid [(3S)-tetrahydrofuran-3-yl] ester
> <PUBCHEM_IUPAC_INCHI>
InChI=1S/C28H33F2N3O6/c1-18-7-5-6-10-20(18)15-31-25(35)23-14-28(29,30)17-33(23)26(36)24(34)22(13-19-8-3-2-4-9-19)32-27(37)39-21-11-12-38-16-21/h2-10,21-24,34H,11-17H2,1H3,(H,31,35)(H,32,37)/t21-,22-,23-,24-/m0/s1
> <PUBCHEM_IUPAC_INCHIKEY>
AGKZCTWBJWYOCT-ZJZGAYNASA-N
> <PUBCHEM_XLOGP3_AA>
2.9
> <PUBCHEM_EXACT_MASS>
545.23374211
> <PUBCHEM_MOLECULAR_FORMULA>
C28H33F2N3O6
> <PUBCHEM_MOLECULAR_WEIGHT>
545.6
> <PUBCHEM_OPENEYE_CAN_SMILES>
CC1=CC=CC=C1CNC(=O)C2CC(CN2C(=O)C(C(CC3=CC=CC=C3)NC(=O)OC4CCOC4)O)(F)F
> <PUBCHEM_OPENEYE_ISO_SMILES>
CC1=CC=CC=C1CNC(=O)[C@@H]2CC(CN2C(=O)[C@H]([C@H](CC3=CC=CC=C3)NC(=O)O[C@H]4CCOC4)O)(F)F
> <PUBCHEM_CACTVS_TPSA>
117
> <PUBCHEM_MONOISOTOPIC_WEIGHT>
545.23374211
> <PUBCHEM_TOTAL_CHARGE>
0
> <PUBCHEM_HEAVY_ATOM_COUNT>
39
> <PUBCHEM_ATOM_DEF_STEREO_COUNT>
4
> <PUBCHEM_ATOM_UDEF_STEREO_COUNT>
0
> <PUBCHEM_BOND_DEF_STEREO_COUNT>
0
> <PUBCHEM_BOND_UDEF_STEREO_COUNT>
0
> <PUBCHEM_ISOTOPIC_ATOM_COUNT>
0
> <PUBCHEM_COMPONENT_COUNT>
1
> <PUBCHEM_CACTVS_TAUTO_COUNT>
-1
> <PUBCHEM_COORDINATE_TYPE>
1
5
255
> <PUBCHEM_BONDANNOTATIONS>
19  11  6
12  18  5
21  29  8
21  30  8
28  31  8
28  32  8
29  33  8
17  3  6
30  34  8
31  36  8
32  38  8
33  35  8
34  35  8
36  39  8
38  39  8
22  6  6
$$$$
