514626
  -OEChem-10302200282D
 82 86  0     1  0  0  0  0  0999 V2000
   11.2897    1.8139    0.0000 F   0  0  0  0  0  0  0  0  0  0  0  0
   10.3387    2.5049    0.0000 F   0  0  0  0  0  0  0  0  0  0  0  0
   10.7047   -1.5340    0.0000 O   0  0  0  0  0  0  0  0  0  0  0  0
    7.8707   -0.7333    0.0000 O   0  0  0  0  0  0  0  0  0  0  0  0
    7.5434    1.8921    0.0000 O   0  0  0  0  0  0  0  0  0  0  0  0
    8.9726   -4.5340    0.0000 O   0  0  0  0  0  0  0  0  0  0  0  0
    6.8002    2.5612    0.0000 O   0  0  0  0  0  0  0  0  0  0  0  0
    2.4608    2.9724    0.0000 O   0  0  0  0  0  0  0  0  0  0  0  0
    9.0296    0.5538    0.0000 N   0  0  0  0  0  0  0  0  0  0  0  0
    8.9726   -1.5340    0.0000 N   0  0  0  0  0  0  0  0  0  0  0  0
    5.6412    1.2741    0.0000 N   0  0  0  0  0  0  0  0  0  0  0  0
   10.6477    0.5538    0.0000 C   0  0  0  0  0  0  0  0  0  0  0  0
    9.8387   -0.0340    0.0000 C   0  0  1  0  0  0  0  0  0  0  0  0
   10.3387    1.5049    0.0000 C   0  0  0  0  0  0  0  0  0  0  0  0
    9.3387    1.5049    0.0000 C   0  0  0  0  0  0  0  0  0  0  0  0
   11.5987    0.8628    0.0000 C   0  0  0  0  0  0  0  0  0  0  0  0
   11.2355   -0.2552    0.0000 C   0  0  0  0  0  0  0  0  0  0  0  0
    9.8387   -1.0340    0.0000 C   0  0  0  0  0  0  0  0  0  0  0  0
    8.0786    0.2448    0.0000 C   0  0  0  0  0  0  0  0  0  0  0  0
    7.3354    0.9139    0.0000 C   0  0  2  0  0  0  0  0  0  0  0  0
    8.9726   -2.5340    0.0000 C   0  0  1  0  0  0  0  0  0  0  0  0
    6.3844    0.6049    0.0000 C   0  0  2  0  0  0  0  0  0  0  0  0
    9.8387   -3.0340    0.0000 C   0  0  0  0  0  0  0  0  0  0  0  0
    8.1066   -3.0340    0.0000 C   0  0  0  0  0  0  0  0  0  0  0  0
    6.1765   -0.3732    0.0000 C   0  0  0  0  0  0  0  0  0  0  0  0
    9.8387   -4.0340    0.0000 C   0  0  0  0  0  0  0  0  0  0  0  0
    8.1066   -4.0340    0.0000 C   0  0  0  0  0  0  0  0  0  0  0  0
    5.2254   -0.6822    0.0000 C   0  0  0  0  0  0  0  0  0  0  0  0
    7.2127   -2.4993    0.0000 C   0  0  0  0  0  0  0  0  0  0  0  0
    5.8492    2.2522    0.0000 C   0  0  0  0  0  0  0  0  0  0  0  0
    7.2127   -4.5686    0.0000 C   0  0  0  0  0  0  0  0  0  0  0  0
    6.3066   -3.0131    0.0000 C   0  0  0  0  0  0  0  0  0  0  0  0
    5.0175   -1.6604    0.0000 C   0  0  0  0  0  0  0  0  0  0  0  0
    4.4823   -0.0131    0.0000 C   0  0  0  0  0  0  0  0  0  0  0  0
    6.3066   -4.0548    0.0000 C   0  0  0  0  0  0  0  0  0  0  0  0
    5.1060    2.9213    0.0000 C   0  0  0  0  0  0  0  0  0  0  0  0
    4.0664   -1.9694    0.0000 C   0  0  0  0  0  0  0  0  0  0  0  0
    3.5312   -0.3221    0.0000 C   0  0  0  0  0  0  0  0  0  0  0  0
    4.1550    2.6123    0.0000 C   0  0  0  0  0  0  0  0  0  0  0  0
    3.3233   -1.3003    0.0000 C   0  0  0  0  0  0  0  0  0  0  0  0
    5.3139    3.8995    0.0000 C   0  0  0  0  0  0  0  0  0  0  0  0
    3.4118    3.2814    0.0000 C   0  0  0  0  0  0  0  0  0  0  0  0
    3.9470    1.6342    0.0000 C   0  0  0  0  0  0  0  0  0  0  0  0
    4.5708    4.5686    0.0000 C   0  0  0  0  0  0  0  0  0  0  0  0
    3.6197    4.2596    0.0000 C   0  0  0  0  0  0  0  0  0  0  0  0
    9.2862   -0.3154    0.0000 H   0  0  0  0  0  0  0  0  0  0  0  0
    9.4035    2.1215    0.0000 H   0  0  0  0  0  0  0  0  0  0  0  0
    8.7322    1.6338    0.0000 H   0  0  0  0  0  0  0  0  0  0  0  0
   11.7903    0.2732    0.0000 H   0  0  0  0  0  0  0  0  0  0  0  0
   12.1884    1.0544    0.0000 H   0  0  0  0  0  0  0  0  0  0  0  0
   11.4071    1.4525    0.0000 H   0  0  0  0  0  0  0  0  0  0  0  0
   10.7339   -0.6196    0.0000 H   0  0  0  0  0  0  0  0  0  0  0  0
   11.5999   -0.7568    0.0000 H   0  0  0  0  0  0  0  0  0  0  0  0
   11.7371    0.1092    0.0000 H   0  0  0  0  0  0  0  0  0  0  0  0
    6.8747    1.3288    0.0000 H   0  0  0  0  0  0  0  0  0  0  0  0
    8.4357   -1.2240    0.0000 H   0  0  0  0  0  0  0  0  0  0  0  0
    9.5096   -2.2240    0.0000 H   0  0  0  0  0  0  0  0  0  0  0  0
    5.7947    0.4133    0.0000 H   0  0  0  0  0  0  0  0  0  0  0  0
   10.4492   -3.1416    0.0000 H   0  0  0  0  0  0  0  0  0  0  0  0
   10.0507   -2.4513    0.0000 H   0  0  0  0  0  0  0  0  0  0  0  0
    6.2628   -0.9872    0.0000 H   0  0  0  0  0  0  0  0  0  0  0  0
    6.7961   -0.3949    0.0000 H   0  0  0  0  0  0  0  0  0  0  0  0
    8.1330    2.0837    0.0000 H   0  0  0  0  0  0  0  0  0  0  0  0
   10.0507   -4.6166    0.0000 H   0  0  0  0  0  0  0  0  0  0  0  0
   10.4492   -3.9263    0.0000 H   0  0  0  0  0  0  0  0  0  0  0  0
    5.0516    1.0825    0.0000 H   0  0  0  0  0  0  0  0  0  0  0  0
    7.2198   -1.8793    0.0000 H   0  0  0  0  0  0  0  0  0  0  0  0
    7.2198   -5.1886    0.0000 H   0  0  0  0  0  0  0  0  0  0  0  0
    5.7709   -2.7011    0.0000 H   0  0  0  0  0  0  0  0  0  0  0  0
    5.4783   -2.0752    0.0000 H   0  0  0  0  0  0  0  0  0  0  0  0
    4.6112    0.5933    0.0000 H   0  0  0  0  0  0  0  0  0  0  0  0
    5.7709   -4.3668    0.0000 H   0  0  0  0  0  0  0  0  0  0  0  0
    3.9375   -2.5758    0.0000 H   0  0  0  0  0  0  0  0  0  0  0  0
    3.0705    0.0927    0.0000 H   0  0  0  0  0  0  0  0  0  0  0  0
    2.7336   -1.4919    0.0000 H   0  0  0  0  0  0  0  0  0  0  0  0
    5.9036    4.0911    0.0000 H   0  0  0  0  0  0  0  0  0  0  0  0
    3.3406    1.7631    0.0000 H   0  0  0  0  0  0  0  0  0  0  0  0
    3.8181    1.0277    0.0000 H   0  0  0  0  0  0  0  0  0  0  0  0
    4.5535    1.5053    0.0000 H   0  0  0  0  0  0  0  0  0  0  0  0
    4.6997    5.1751    0.0000 H   0  0  0  0  0  0  0  0  0  0  0  0
    3.1590    4.6745    0.0000 H   0  0  0  0  0  0  0  0  0  0  0  0
    2.0000    3.3873    0.0000 H   0  0  0  0  0  0  0  0  0  0  0  0
  1 14  1  0  0  0  0
  2 14  1  0  0  0  0
  3 18  2  0  0  0  0
  4 19  2  0  0  0  0
 20  5  1  6  0  0  0
  5 63  1  0  0  0  0
  6 26  1  0  0  0  0
  6 27  1  0  0  0  0
  7 30  2  0  0  0  0
  8 42  1  0  0  0  0
  8 82  1  0  0  0  0
  9 13  1  0  0  0  0
  9 15  1  0  0  0  0
  9 19  1  0  0  0  0
 10 18  1  0  0  0  0
 21 10  1  1  0  0  0
 10 56  1  0  0  0  0
 22 11  1  6  0  0  0
 11 30  1  0  0  0  0
 11 66  1  0  0  0  0
 12 13  1  0  0  0  0
 12 14  1  0  0  0  0
 12 16  1  0  0  0  0
 12 17  1  0  0  0  0
 13 18  1  1  0  0  0
 13 46  1  0  0  0  0
 14 15  1  0  0  0  0
 15 47  1  0  0  0  0
 15 48  1  0  0  0  0
 16 49  1  0  0  0  0
 16 50  1  0  0  0  0
 16 51  1  0  0  0  0
 17 52  1  0  0  0  0
 17 53  1  0  0  0  0
 17 54  1  0  0  0  0
 19 20  1  0  0  0  0
 20 22  1  0  0  0  0
 20 55  1  0  0  0  0
 21 23  1  0  0  0  0
 21 24  1  0  0  0  0
 21 57  1  0  0  0  0
 22 25  1  0  0  0  0
 22 58  1  0  0  0  0
 23 26  1  0  0  0  0
 23 59  1  0  0  0  0
 23 60  1  0  0  0  0
 24 27  1  0  0  0  0
 24 29  2  0  0  0  0
 25 28  1  0  0  0  0
 25 61  1  0  0  0  0
 25 62  1  0  0  0  0
 26 64  1  0  0  0  0
 26 65  1  0  0  0  0
 27 31  2  0  0  0  0
 28 33  2  0  0  0  0
 28 34  1  0  0  0  0
 29 32  1  0  0  0  0
 29 67  1  0  0  0  0
 30 36  1  0  0  0  0
 31 35  1  0  0  0  0
 31 68  1  0  0  0  0
 32 35  2  0  0  0  0
 32 69  1  0  0  0  0
 33 37  1  0  0  0  0
 33 70  1  0  0  0  0
 34 38  2  0  0  0  0
 34 71  1  0  0  0  0
 35 72  1  0  0  0  0
 36 39  2  0  0  0  0
 36 41  1  0  0  0  0
 37 40  2  0  0  0  0
 37 73  1  0  0  0  0
 38 40  1  0  0  0  0
 38 74  1  0  0  0  0
 39 42  1  0  0  0  0
 39 43  1  0  0  0  0
 40 75  1  0  0  0  0
 41 44  2  0  0  0  0
 41 76  1  0  0  0  0
 42 45  2  0  0  0  0
 43 77  1  0  0  0  0
 43 78  1  0  0  0  0
 43 79  1  0  0  0  0
 44 45  1  0  0  0  0
 44 80  1  0  0  0  0
 45 81  1  0  0  0  0
M  END
> <PUBCHEM_COMPOUND_CID>
514626
> <PUBCHEM_COMPOUND_CANONICALIZED>
1
> <PUBCHEM_CACTVS_COMPLEXITY>
1070
> <PUBCHEM_CACTVS_HBOND_ACCEPTOR>
8
> <PUBCHEM_CACTVS_HBOND_DONOR>
4
> <PUBCHEM_CACTVS_ROTATABLE_BOND>
8
> <PUBCHEM_CACTVS_SUBSKEYS>
AAADcfB/OYAAAAAAAAAAAAAAAAAAAWAAAAA0YMEAAAAAAACRUAAAHwAQCAAADjzhmBYyBoPABgCIAiFSEAKCCAAkIAAIiIHODMgOdjqG9TuWeSjm1hGYuYe6ybCPgAABAAAYAAAAAAIAADAAAAAAAAAAAA==
> <PUBCHEM_IUPAC_OPENEYE_NAME>
(2S)-N-[(4S)-chroman-4-yl]-4,4-difluoro-1-[(2S,3S)-2-hydroxy-3-[(3-hydroxy-2-methyl-benzoyl)amino]-4-phenyl-butanoyl]-3,3-dimethyl-pyrrolidine-2-carboxamide
> <PUBCHEM_IUPAC_CAS_NAME>
(2S)-N-[(4S)-3,4-dihydro-2H-1-benzopyran-4-yl]-4,4-difluoro-1-[(2S,3S)-2-hydroxy-3-[[(3-hydroxy-2-methylphenyl)-oxomethyl]amino]-1-oxo-4-phenylbutyl]-3,3-dimethyl-2-pyrrolidinecarboxamide
> <PUBCHEM_IUPAC_NAME_MARKUP>
(2<I>S</I>)-<I>N</I>-[(4<I>S</I>)-3,4-dihydro-2<I>H</I>-chromen-4-yl]-4,4-difluoro-1-[(2<I>S</I>,3<I>S</I>)-2-hydroxy-3-[(3-hydroxy-2-methylbenzoyl)amino]-4-phenylbutanoyl]-3,3-dimethylpyrrolidine-2-carboxamide
> <PUBCHEM_IUPAC_NAME>
(2S)-N-[(4S)-3,4-dihydro-2H-chromen-4-yl]-4,4-difluoro-1-[(2S,3S)-2-hydroxy-3-[(3-hydroxy-2-methylbenzoyl)amino]-4-phenylbutanoyl]-3,3-dimethylpyrrolidine-2-carboxamide
> <PUBCHEM_IUPAC_SYSTEMATIC_NAME>
(2S)-N-[(4S)-3,4-dihydro-2H-chromen-4-yl]-4,4-bis(fluoranyl)-3,3-dimethyl-1-[(2S,3S)-3-[(2-methyl-3-oxidanyl-phenyl)carbonylamino]-2-oxidanyl-4-phenyl-butanoyl]pyrrolidine-2-carboxamide
> <PUBCHEM_IUPAC_TRADITIONAL_NAME>
(2S)-N-[(4S)-chroman-4-yl]-4,4-difluoro-1-[(2S,3S)-2-hydroxy-3-[(3-hydroxy-2-methyl-benzoyl)amino]-4-phenyl-butanoyl]-3,3-dimethyl-pyrrolidine-2-carboxamide
> <PUBCHEM_IUPAC_INCHI>
InChI=1S/C34H37F2N3O6/c1-20-22(13-9-14-26(20)40)30(42)38-25(18-21-10-5-4-6-11-21)28(41)32(44)39-19-34(35,36)33(2,3)29(39)31(43)37-24-16-17-45-27-15-8-7-12-23(24)27/h4-15,24-25,28-29,40-41H,16-19H2,1-3H3,(H,37,43)(H,38,42)/t24-,25-,28-,29+/m0/s1
> <PUBCHEM_IUPAC_INCHIKEY>
NZQCNNAFFQIDQD-YFVZOPNBSA-N
> <PUBCHEM_XLOGP3_AA>
4.8
> <PUBCHEM_EXACT_MASS>
621.26504223
> <PUBCHEM_MOLECULAR_FORMULA>
C34H37F2N3O6
> <PUBCHEM_MOLECULAR_WEIGHT>
621.7
> <PUBCHEM_OPENEYE_CAN_SMILES>
CC1=C(C=CC=C1O)C(=O)NC(CC2=CC=CC=C2)C(C(=O)N3CC(C(C3C(=O)NC4CCOC5=CC=CC=C45)(C)C)(F)F)O
> <PUBCHEM_OPENEYE_ISO_SMILES>
CC1=C(C=CC=C1O)C(=O)N[C@@H](CC2=CC=CC=C2)[C@@H](C(=O)N3CC(C([C@H]3C(=O)N[C@H]4CCOC5=CC=CC=C45)(C)C)(F)F)O
> <PUBCHEM_CACTVS_TPSA>
128
> <PUBCHEM_MONOISOTOPIC_WEIGHT>
621.26504223
> <PUBCHEM_TOTAL_CHARGE>
0
> <PUBCHEM_HEAVY_ATOM_COUNT>
45
> <PUBCHEM_ATOM_DEF_STEREO_COUNT>
4
> <PUBCHEM_ATOM_UDEF_STEREO_COUNT>
0
> <PUBCHEM_BOND_DEF_STEREO_COUNT>
0
> <PUBCHEM_BOND_UDEF_STEREO_COUNT>
0
> <PUBCHEM_ISOTOPIC_ATOM_COUNT>
0
> <PUBCHEM_COMPONENT_COUNT>
1
> <PUBCHEM_CACTVS_TAUTO_COUNT>
-1
> <PUBCHEM_COORDINATE_TYPE>
1
5
255
> <PUBCHEM_BONDANNOTATIONS>
21  10  5
22  11  6
13  18  5
24  27  8
24  29  8
27  31  8
28  33  8
28  34  8
29  32  8
31  35  8
32  35  8
33  37  8
34  38  8
36  39  8
36  41  8
37  40  8
38  40  8
39  42  8
41  44  8
42  45  8
44  45  8
20  5  6
$$$$
