514635
  -OEChem-10302200282D
 75 78  0     1  0  0  0  0  0999 V2000
    7.9575   -2.5574    0.0000 S   0  0  0  0  0  0  0  0  0  0  0  0
    5.1805   -3.8445    0.0000 O   0  0  0  0  0  0  0  0  0  0  0  0
    5.0662   -0.9018    0.0000 O   0  0  0  0  0  0  0  0  0  0  0  0
    7.4620    0.2208    0.0000 O   0  0  0  0  0  0  0  0  0  0  0  0
    7.8687    1.1343    0.0000 O   0  0  0  0  0  0  0  0  0  0  0  0
   10.0834    3.9795    0.0000 O   0  0  0  0  0  0  0  0  0  0  0  0
    6.6485   -1.6063    0.0000 N   0  0  0  0  0  0  0  0  0  0  0  0
    4.6453   -2.1972    0.0000 N   0  0  0  0  0  0  0  0  0  0  0  0
    6.2864    1.8388    0.0000 N   0  0  0  0  0  0  0  0  0  0  0  0
    7.1485   -3.1451    0.0000 C   0  0  0  0  0  0  0  0  0  0  0  0
    6.3395   -2.5574    0.0000 C   0  0  1  0  0  0  0  0  0  0  0  0
    7.9575   -3.7329    0.0000 C   0  0  0  0  0  0  0  0  0  0  0  0
    6.3395   -3.7329    0.0000 C   0  0  0  0  0  0  0  0  0  0  0  0
    7.6485   -4.6840    0.0000 C   0  0  0  0  0  0  0  0  0  0  0  0
    6.6485   -4.6840    0.0000 C   0  0  0  0  0  0  0  0  0  0  0  0
    7.6485   -1.6063    0.0000 C   0  0  0  0  0  0  0  0  0  0  0  0
    5.3884   -2.8664    0.0000 C   0  0  0  0  0  0  0  0  0  0  0  0
    6.0607   -0.7973    0.0000 C   0  0  0  0  0  0  0  0  0  0  0  0
    6.4674    0.1163    0.0000 C   0  0  2  0  0  0  0  0  0  0  0  0
    5.8796    0.9253    0.0000 C   0  0  2  0  0  0  0  0  0  0  0  0
    3.6942   -2.5063    0.0000 C   0  0  0  0  0  0  0  0  0  0  0  0
    4.8851    0.8207    0.0000 C   0  0  0  0  0  0  0  0  0  0  0  0
    2.9511   -1.8371    0.0000 C   0  0  0  0  0  0  0  0  0  0  0  0
    4.2973    1.6298    0.0000 C   0  0  0  0  0  0  0  0  0  0  0  0
    7.2809    1.9434    0.0000 C   0  0  0  0  0  0  0  0  0  0  0  0
    2.0000   -2.1462    0.0000 C   0  0  0  0  0  0  0  0  0  0  0  0
    3.3028    1.5252    0.0000 C   0  0  0  0  0  0  0  0  0  0  0  0
    4.7041    2.5433    0.0000 C   0  0  0  0  0  0  0  0  0  0  0  0
    7.6876    2.8569    0.0000 C   0  0  0  0  0  0  0  0  0  0  0  0
    2.7150    2.3342    0.0000 C   0  0  0  0  0  0  0  0  0  0  0  0
    4.1163    3.3523    0.0000 C   0  0  0  0  0  0  0  0  0  0  0  0
    8.6822    2.9614    0.0000 C   0  0  0  0  0  0  0  0  0  0  0  0
    3.1218    3.2478    0.0000 C   0  0  0  0  0  0  0  0  0  0  0  0
    7.0998    3.6659    0.0000 C   0  0  0  0  0  0  0  0  0  0  0  0
    9.0889    3.8750    0.0000 C   0  0  0  0  0  0  0  0  0  0  0  0
    9.2699    2.1524    0.0000 C   0  0  0  0  0  0  0  0  0  0  0  0
    7.5066    4.5795    0.0000 C   0  0  0  0  0  0  0  0  0  0  0  0
    8.5011    4.6840    0.0000 C   0  0  0  0  0  0  0  0  0  0  0  0
    5.9010   -2.1190    0.0000 H   0  0  0  0  0  0  0  0  0  0  0  0
    8.5239   -3.9851    0.0000 H   0  0  0  0  0  0  0  0  0  0  0  0
    8.2675   -3.1960    0.0000 H   0  0  0  0  0  0  0  0  0  0  0  0
    6.0295   -3.1960    0.0000 H   0  0  0  0  0  0  0  0  0  0  0  0
    5.7731   -3.9851    0.0000 H   0  0  0  0  0  0  0  0  0  0  0  0
    7.5837   -5.3006    0.0000 H   0  0  0  0  0  0  0  0  0  0  0  0
    8.2549   -4.8129    0.0000 H   0  0  0  0  0  0  0  0  0  0  0  0
    6.0420   -4.8129    0.0000 H   0  0  0  0  0  0  0  0  0  0  0  0
    6.7133   -5.3006    0.0000 H   0  0  0  0  0  0  0  0  0  0  0  0
    8.2549   -1.4774    0.0000 H   0  0  0  0  0  0  0  0  0  0  0  0
    7.5837   -0.9897    0.0000 H   0  0  0  0  0  0  0  0  0  0  0  0
    6.8318   -0.3853    0.0000 H   0  0  0  0  0  0  0  0  0  0  0  0
    4.7742   -1.5908    0.0000 H   0  0  0  0  0  0  0  0  0  0  0  0
    6.4962    0.9901    0.0000 H   0  0  0  0  0  0  0  0  0  0  0  0
    3.2056   -2.8880    0.0000 H   0  0  0  0  0  0  0  0  0  0  0  0
    3.9853   -3.0537    0.0000 H   0  0  0  0  0  0  0  0  0  0  0  0
    4.3279    0.5490    0.0000 H   0  0  0  0  0  0  0  0  0  0  0  0
    5.0560    0.2248    0.0000 H   0  0  0  0  0  0  0  0  0  0  0  0
    7.8264   -0.2808    0.0000 H   0  0  0  0  0  0  0  0  0  0  0  0
    5.9220    2.3404    0.0000 H   0  0  0  0  0  0  0  0  0  0  0  0
    3.4396   -1.4554    0.0000 H   0  0  0  0  0  0  0  0  0  0  0  0
    2.6600   -1.2897    0.0000 H   0  0  0  0  0  0  0  0  0  0  0  0
    1.8084   -1.5565    0.0000 H   0  0  0  0  0  0  0  0  0  0  0  0
    1.4103   -2.3377    0.0000 H   0  0  0  0  0  0  0  0  0  0  0  0
    2.1916   -2.7358    0.0000 H   0  0  0  0  0  0  0  0  0  0  0  0
    3.0506    0.9588    0.0000 H   0  0  0  0  0  0  0  0  0  0  0  0
    5.3207    2.6081    0.0000 H   0  0  0  0  0  0  0  0  0  0  0  0
    2.0984    2.2694    0.0000 H   0  0  0  0  0  0  0  0  0  0  0  0
    4.3685    3.9187    0.0000 H   0  0  0  0  0  0  0  0  0  0  0  0
    2.7573    3.7494    0.0000 H   0  0  0  0  0  0  0  0  0  0  0  0
    6.4832    3.6011    0.0000 H   0  0  0  0  0  0  0  0  0  0  0  0
    8.7684    1.7880    0.0000 H   0  0  0  0  0  0  0  0  0  0  0  0
    9.6344    1.6508    0.0000 H   0  0  0  0  0  0  0  0  0  0  0  0
    9.7715    2.5168    0.0000 H   0  0  0  0  0  0  0  0  0  0  0  0
    7.1422    5.0810    0.0000 H   0  0  0  0  0  0  0  0  0  0  0  0
    8.7533    5.2504    0.0000 H   0  0  0  0  0  0  0  0  0  0  0  0
   10.3356    4.5459    0.0000 H   0  0  0  0  0  0  0  0  0  0  0  0
  1 10  1  0  0  0  0
  1 16  1  0  0  0  0
  2 17  2  0  0  0  0
  3 18  2  0  0  0  0
 19  4  1  6  0  0  0
  4 57  1  0  0  0  0
  5 25  2  0  0  0  0
  6 35  1  0  0  0  0
  6 75  1  0  0  0  0
  7 11  1  0  0  0  0
  7 16  1  0  0  0  0
  7 18  1  0  0  0  0
  8 17  1  0  0  0  0
  8 21  1  0  0  0  0
  8 51  1  0  0  0  0
 20  9  1  6  0  0  0
  9 25  1  0  0  0  0
  9 58  1  0  0  0  0
 10 11  1  0  0  0  0
 10 12  1  0  0  0  0
 10 13  1  0  0  0  0
 11 17  1  1  0  0  0
 11 39  1  0  0  0  0
 12 14  1  0  0  0  0
 12 40  1  0  0  0  0
 12 41  1  0  0  0  0
 13 15  1  0  0  0  0
 13 42  1  0  0  0  0
 13 43  1  0  0  0  0
 14 15  1  0  0  0  0
 14 44  1  0  0  0  0
 14 45  1  0  0  0  0
 15 46  1  0  0  0  0
 15 47  1  0  0  0  0
 16 48  1  0  0  0  0
 16 49  1  0  0  0  0
 18 19  1  0  0  0  0
 19 20  1  0  0  0  0
 19 50  1  0  0  0  0
 20 22  1  0  0  0  0
 20 52  1  0  0  0  0
 21 23  1  0  0  0  0
 21 53  1  0  0  0  0
 21 54  1  0  0  0  0
 22 24  1  0  0  0  0
 22 55  1  0  0  0  0
 22 56  1  0  0  0  0
 23 26  1  0  0  0  0
 23 59  1  0  0  0  0
 23 60  1  0  0  0  0
 24 27  2  0  0  0  0
 24 28  1  0  0  0  0
 25 29  1  0  0  0  0
 26 61  1  0  0  0  0
 26 62  1  0  0  0  0
 26 63  1  0  0  0  0
 27 30  1  0  0  0  0
 27 64  1  0  0  0  0
 28 31  2  0  0  0  0
 28 65  1  0  0  0  0
 29 32  2  0  0  0  0
 29 34  1  0  0  0  0
 30 33  2  0  0  0  0
 30 66  1  0  0  0  0
 31 33  1  0  0  0  0
 31 67  1  0  0  0  0
 32 35  1  0  0  0  0
 32 36  1  0  0  0  0
 33 68  1  0  0  0  0
 34 37  2  0  0  0  0
 34 69  1  0  0  0  0
 35 38  2  0  0  0  0
 36 70  1  0  0  0  0
 36 71  1  0  0  0  0
 36 72  1  0  0  0  0
 37 38  1  0  0  0  0
 37 73  1  0  0  0  0
 38 74  1  0  0  0  0
M  END
> <PUBCHEM_COMPOUND_CID>
514635
> <PUBCHEM_COMPOUND_CANONICALIZED>
1
> <PUBCHEM_CACTVS_COMPLEXITY>
829
> <PUBCHEM_CACTVS_HBOND_ACCEPTOR>
6
> <PUBCHEM_CACTVS_HBOND_DONOR>
4
> <PUBCHEM_CACTVS_ROTATABLE_BOND>
9
> <PUBCHEM_CACTVS_SUBSKEYS>
AAADcfB7OABAAAAAAAAAAAAAAAAAAeIAAAAwYAAAAAAAAAABQAAAHgQQCAAADDzh2AayBoPAAgiIAiFSEAKCAABkIBAIiIHODMgKdjqi1TOUcQhk1hGYmYe6yLCOgAABAAAYAAAAAAIAADAAAAAAAAAAAA==
> <PUBCHEM_IUPAC_OPENEYE_NAME>
(4R)-3-[(2S,3S)-2-hydroxy-3-[(3-hydroxy-2-methyl-benzoyl)amino]-4-phenyl-butanoyl]-N-propyl-1-thia-3-azaspiro[4.4]nonane-4-carboxamide
> <PUBCHEM_IUPAC_CAS_NAME>
(4R)-3-[(2S,3S)-2-hydroxy-3-[[(3-hydroxy-2-methylphenyl)-oxomethyl]amino]-1-oxo-4-phenylbutyl]-N-propyl-1-thia-3-azaspiro[4.4]nonane-4-carboxamide
> <PUBCHEM_IUPAC_NAME_MARKUP>
(4<I>R</I>)-3-[(2<I>S</I>,3<I>S</I>)-2-hydroxy-3-[(3-hydroxy-2-methylbenzoyl)amino]-4-phenylbutanoyl]-<I>N</I>-propyl-1-thia-3-azaspiro[4.4]nonane-4-carboxamide
> <PUBCHEM_IUPAC_NAME>
(4R)-3-[(2S,3S)-2-hydroxy-3-[(3-hydroxy-2-methylbenzoyl)amino]-4-phenylbutanoyl]-N-propyl-1-thia-3-azaspiro[4.4]nonane-4-carboxamide
> <PUBCHEM_IUPAC_SYSTEMATIC_NAME>
(4R)-3-[(2S,3S)-3-[(2-methyl-3-oxidanyl-phenyl)carbonylamino]-2-oxidanyl-4-phenyl-butanoyl]-N-propyl-1-thia-3-azaspiro[4.4]nonane-4-carboxamide
> <PUBCHEM_IUPAC_TRADITIONAL_NAME>
(4R)-3-[(2S,3S)-2-hydroxy-3-[(3-hydroxy-2-methyl-benzoyl)amino]-4-phenyl-butanoyl]-N-propyl-1-thia-3-azaspiro[4.4]nonane-4-carboxamide
> <PUBCHEM_IUPAC_INCHI>
InChI=1S/C29H37N3O5S/c1-3-16-30-27(36)25-29(14-7-8-15-29)38-18-32(25)28(37)24(34)22(17-20-10-5-4-6-11-20)31-26(35)21-12-9-13-23(33)19(21)2/h4-6,9-13,22,24-25,33-34H,3,7-8,14-18H2,1-2H3,(H,30,36)(H,31,35)/t22-,24-,25+/m0/s1
> <PUBCHEM_IUPAC_INCHIKEY>
PDMMBUTXICNQHR-ZKMPZPQNSA-N
> <PUBCHEM_XLOGP3_AA>
4
> <PUBCHEM_EXACT_MASS>
539.24539246
> <PUBCHEM_MOLECULAR_FORMULA>
C29H37N3O5S
> <PUBCHEM_MOLECULAR_WEIGHT>
539.7
> <PUBCHEM_OPENEYE_CAN_SMILES>
CCCNC(=O)C1C2(CCCC2)SCN1C(=O)C(C(CC3=CC=CC=C3)NC(=O)C4=C(C(=CC=C4)O)C)O
> <PUBCHEM_OPENEYE_ISO_SMILES>
CCCNC(=O)[C@@H]1C2(CCCC2)SCN1C(=O)[C@H]([C@H](CC3=CC=CC=C3)NC(=O)C4=C(C(=CC=C4)O)C)O
> <PUBCHEM_CACTVS_TPSA>
144
> <PUBCHEM_MONOISOTOPIC_WEIGHT>
539.24539246
> <PUBCHEM_TOTAL_CHARGE>
0
> <PUBCHEM_HEAVY_ATOM_COUNT>
38
> <PUBCHEM_ATOM_DEF_STEREO_COUNT>
3
> <PUBCHEM_ATOM_UDEF_STEREO_COUNT>
0
> <PUBCHEM_BOND_DEF_STEREO_COUNT>
0
> <PUBCHEM_BOND_UDEF_STEREO_COUNT>
0
> <PUBCHEM_ISOTOPIC_ATOM_COUNT>
0
> <PUBCHEM_COMPONENT_COUNT>
1
> <PUBCHEM_CACTVS_TAUTO_COUNT>
-1
> <PUBCHEM_COORDINATE_TYPE>
1
5
255
> <PUBCHEM_BONDANNOTATIONS>
11  17  5
24  27  8
24  28  8
27  30  8
28  31  8
29  32  8
29  34  8
30  33  8
31  33  8
32  35  8
34  37  8
35  38  8
37  38  8
19  4  6
20  9  6
$$$$
