514672
  -OEChem-10302200282D
 88 92  0     1  0  0  0  0  0999 V2000
    2.3660   -0.2863    0.0000 S   0  0  0  0  0  0  0  0  0  0  0  0
    8.2788   -2.1227    0.0000 O   0  0  0  0  0  0  0  0  0  0  0  0
    7.4128   -3.6227    0.0000 O   0  0  0  0  0  0  0  0  0  0  0  0
    3.9487   -2.6227    0.0000 O   0  0  0  0  0  0  0  0  0  0  0  0
    5.6808   -0.6227    0.0000 O   0  0  0  0  0  0  0  0  0  0  0  0
    5.5384    0.7319    0.0000 O   0  0  0  0  0  0  0  0  0  0  0  0
    6.5468   -2.1227    0.0000 N   0  0  0  0  0  0  0  0  0  0  0  0
    3.9487   -0.6227    0.0000 N   0  0  0  0  0  0  0  0  0  0  0  0
    4.3794    2.0191    0.0000 N   0  0  0  0  0  0  0  0  0  0  0  0
   10.8769   -2.6227    0.0000 C   0  0  3  0  0  0  0  0  0  0  0  0
   10.8769   -3.6227    0.0000 C   0  0  3  0  0  0  0  0  0  0  0  0
   11.8231   -2.3180    0.0000 C   0  0  0  0  0  0  0  0  0  0  0  0
   11.8231   -3.9274    0.0000 C   0  0  0  0  0  0  0  0  0  0  0  0
   10.0109   -2.1227    0.0000 C   0  0  0  0  0  0  0  0  0  0  0  0
   10.0109   -4.1227    0.0000 C   0  0  0  0  0  0  0  0  0  0  0  0
   12.4067   -3.1227    0.0000 C   0  0  0  0  0  0  0  0  0  0  0  0
    9.1448   -2.6227    0.0000 C   0  0  3  0  0  0  0  0  0  0  0  0
    9.1448   -3.6227    0.0000 C   0  0  0  0  0  0  0  0  0  0  0  0
    7.4128   -2.6227    0.0000 C   0  0  0  0  0  0  0  0  0  0  0  0
    5.6808   -2.6227    0.0000 C   0  0  2  0  0  0  0  0  0  0  0  0
    2.8660    0.5797    0.0000 C   0  0  0  0  0  0  0  0  0  0  0  0
    3.8442    0.3718    0.0000 C   0  0  1  0  0  0  0  0  0  0  0  0
    4.8147   -2.1227    0.0000 C   0  0  1  0  0  0  0  0  0  0  0  0
    3.0352   -1.0294    0.0000 C   0  0  0  0  0  0  0  0  0  0  0  0
    4.8147   -1.1227    0.0000 C   0  0  0  0  0  0  0  0  0  0  0  0
    5.6808   -3.6227    0.0000 C   0  0  0  0  0  0  0  0  0  0  0  0
    2.0000    1.0798    0.0000 C   0  0  0  0  0  0  0  0  0  0  0  0
    3.0739    1.5579    0.0000 C   0  0  0  0  0  0  0  0  0  0  0  0
    4.5873    1.0410    0.0000 C   0  0  0  0  0  0  0  0  0  0  0  0
    4.8147   -4.1227    0.0000 C   0  0  0  0  0  0  0  0  0  0  0  0
    5.1226    2.6882    0.0000 C   0  0  0  0  0  0  0  0  0  0  0  0
    4.8147   -5.1227    0.0000 C   0  0  0  0  0  0  0  0  0  0  0  0
    3.9487   -3.6227    0.0000 C   0  0  0  0  0  0  0  0  0  0  0  0
    4.9146    3.6664    0.0000 C   0  0  0  0  0  0  0  0  0  0  0  0
    3.9487   -5.6227    0.0000 C   0  0  0  0  0  0  0  0  0  0  0  0
    3.0827   -4.1227    0.0000 C   0  0  0  0  0  0  0  0  0  0  0  0
    3.0827   -5.1227    0.0000 C   0  0  0  0  0  0  0  0  0  0  0  0
    5.6578    4.3355    0.0000 C   0  0  0  0  0  0  0  0  0  0  0  0
    3.9636    3.9754    0.0000 C   0  0  0  0  0  0  0  0  0  0  0  0
    5.4499    5.3137    0.0000 C   0  0  0  0  0  0  0  0  0  0  0  0
    6.6088    4.0265    0.0000 C   0  0  0  0  0  0  0  0  0  0  0  0
    3.7557    4.9536    0.0000 C   0  0  0  0  0  0  0  0  0  0  0  0
    4.4988    5.6227    0.0000 C   0  0  0  0  0  0  0  0  0  0  0  0
   10.9425   -2.0062    0.0000 H   0  0  0  0  0  0  0  0  0  0  0  0
   10.9425   -4.2392    0.0000 H   0  0  0  0  0  0  0  0  0  0  0  0
   12.3605   -2.0087    0.0000 H   0  0  0  0  0  0  0  0  0  0  0  0
   11.5721   -1.7510    0.0000 H   0  0  0  0  0  0  0  0  0  0  0  0
   11.5721   -4.4943    0.0000 H   0  0  0  0  0  0  0  0  0  0  0  0
   12.3605   -4.2366    0.0000 H   0  0  0  0  0  0  0  0  0  0  0  0
   10.4094   -1.6477    0.0000 H   0  0  0  0  0  0  0  0  0  0  0  0
    9.6124   -1.6477    0.0000 H   0  0  0  0  0  0  0  0  0  0  0  0
    9.6124   -4.5976    0.0000 H   0  0  0  0  0  0  0  0  0  0  0  0
   10.4094   -4.5976    0.0000 H   0  0  0  0  0  0  0  0  0  0  0  0
   12.8676   -3.5374    0.0000 H   0  0  0  0  0  0  0  0  0  0  0  0
   12.8676   -2.7080    0.0000 H   0  0  0  0  0  0  0  0  0  0  0  0
    8.6079   -2.9327    0.0000 H   0  0  0  0  0  0  0  0  0  0  0  0
    8.5343   -3.5150    0.0000 H   0  0  0  0  0  0  0  0  0  0  0  0
    8.9328   -4.2053    0.0000 H   0  0  0  0  0  0  0  0  0  0  0  0
    6.5468   -1.5027    0.0000 H   0  0  0  0  0  0  0  0  0  0  0  0
    5.6808   -2.0027    0.0000 H   0  0  0  0  0  0  0  0  0  0  0  0
    4.4230    0.1496    0.0000 H   0  0  0  0  0  0  0  0  0  0  0  0
    4.8147   -2.7427    0.0000 H   0  0  0  0  0  0  0  0  0  0  0  0
    2.5336   -1.3938    0.0000 H   0  0  0  0  0  0  0  0  0  0  0  0
    3.3452   -1.5664    0.0000 H   0  0  0  0  0  0  0  0  0  0  0  0
    5.8928   -4.2053    0.0000 H   0  0  0  0  0  0  0  0  0  0  0  0
    6.2913   -3.5150    0.0000 H   0  0  0  0  0  0  0  0  0  0  0  0
    2.3100    1.6167    0.0000 H   0  0  0  0  0  0  0  0  0  0  0  0
    1.4631    1.3898    0.0000 H   0  0  0  0  0  0  0  0  0  0  0  0
    1.6900    0.5428    0.0000 H   0  0  0  0  0  0  0  0  0  0  0  0
    3.6804    1.4290    0.0000 H   0  0  0  0  0  0  0  0  0  0  0  0
    3.2028    2.1644    0.0000 H   0  0  0  0  0  0  0  0  0  0  0  0
    2.4675    1.6868    0.0000 H   0  0  0  0  0  0  0  0  0  0  0  0
    3.4118   -2.3127    0.0000 H   0  0  0  0  0  0  0  0  0  0  0  0
    3.7898    2.2107    0.0000 H   0  0  0  0  0  0  0  0  0  0  0  0
    5.4511    2.1625    0.0000 H   0  0  0  0  0  0  0  0  0  0  0  0
    5.6974    2.9205    0.0000 H   0  0  0  0  0  0  0  0  0  0  0  0
    5.3517   -5.4327    0.0000 H   0  0  0  0  0  0  0  0  0  0  0  0
    3.9487   -3.0027    0.0000 H   0  0  0  0  0  0  0  0  0  0  0  0
    3.9487   -6.2427    0.0000 H   0  0  0  0  0  0  0  0  0  0  0  0
    2.5457   -3.8127    0.0000 H   0  0  0  0  0  0  0  0  0  0  0  0
    2.5457   -5.4327    0.0000 H   0  0  0  0  0  0  0  0  0  0  0  0
    3.5028    3.5606    0.0000 H   0  0  0  0  0  0  0  0  0  0  0  0
    5.9106    5.7285    0.0000 H   0  0  0  0  0  0  0  0  0  0  0  0
    6.4172    3.4368    0.0000 H   0  0  0  0  0  0  0  0  0  0  0  0
    7.1985    3.8349    0.0000 H   0  0  0  0  0  0  0  0  0  0  0  0
    6.8004    4.6162    0.0000 H   0  0  0  0  0  0  0  0  0  0  0  0
    3.1660    5.1452    0.0000 H   0  0  0  0  0  0  0  0  0  0  0  0
    4.3699    6.2291    0.0000 H   0  0  0  0  0  0  0  0  0  0  0  0
  1 21  1  0  0  0  0
  1 24  1  0  0  0  0
  2 17  1  0  0  0  0
  2 19  1  0  0  0  0
  3 19  2  0  0  0  0
 23  4  1  6  0  0  0
  4 73  1  0  0  0  0
  5 25  2  0  0  0  0
  6 29  2  0  0  0  0
  7 19  1  0  0  0  0
 20  7  1  1  0  0  0
  7 59  1  0  0  0  0
  8 22  1  0  0  0  0
  8 24  1  0  0  0  0
  8 25  1  0  0  0  0
  9 29  1  0  0  0  0
  9 31  1  0  0  0  0
  9 74  1  0  0  0  0
 10 11  1  0  0  0  0
 10 12  1  0  0  0  0
 10 14  1  0  0  0  0
 10 44  1  0  0  0  0
 11 13  1  0  0  0  0
 11 15  1  0  0  0  0
 11 45  1  0  0  0  0
 12 16  1  0  0  0  0
 12 46  1  0  0  0  0
 12 47  1  0  0  0  0
 13 16  1  0  0  0  0
 13 48  1  0  0  0  0
 13 49  1  0  0  0  0
 14 17  1  0  0  0  0
 14 50  1  0  0  0  0
 14 51  1  0  0  0  0
 15 18  1  0  0  0  0
 15 52  1  0  0  0  0
 15 53  1  0  0  0  0
 16 54  1  0  0  0  0
 16 55  1  0  0  0  0
 17 18  1  0  0  0  0
 17 56  1  0  0  0  0
 18 57  1  0  0  0  0
 18 58  1  0  0  0  0
 20 23  1  0  0  0  0
 20 26  1  0  0  0  0
 20 60  1  0  0  0  0
 21 22  1  0  0  0  0
 21 27  1  0  0  0  0
 21 28  1  0  0  0  0
 22 29  1  1  0  0  0
 22 61  1  0  0  0  0
 23 25  1  0  0  0  0
 23 62  1  0  0  0  0
 24 63  1  0  0  0  0
 24 64  1  0  0  0  0
 26 30  1  0  0  0  0
 26 65  1  0  0  0  0
 26 66  1  0  0  0  0
 27 67  1  0  0  0  0
 27 68  1  0  0  0  0
 27 69  1  0  0  0  0
 28 70  1  0  0  0  0
 28 71  1  0  0  0  0
 28 72  1  0  0  0  0
 30 32  2  0  0  0  0
 30 33  1  0  0  0  0
 31 34  1  0  0  0  0
 31 75  1  0  0  0  0
 31 76  1  0  0  0  0
 32 35  1  0  0  0  0
 32 77  1  0  0  0  0
 33 36  2  0  0  0  0
 33 78  1  0  0  0  0
 34 38  1  0  0  0  0
 34 39  2  0  0  0  0
 35 37  2  0  0  0  0
 35 79  1  0  0  0  0
 36 37  1  0  0  0  0
 36 80  1  0  0  0  0
 37 81  1  0  0  0  0
 38 40  2  0  0  0  0
 38 41  1  0  0  0  0
 39 42  1  0  0  0  0
 39 82  1  0  0  0  0
 40 43  1  0  0  0  0
 40 83  1  0  0  0  0
 41 84  1  0  0  0  0
 41 85  1  0  0  0  0
 41 86  1  0  0  0  0
 42 43  2  0  0  0  0
 42 87  1  0  0  0  0
 43 88  1  0  0  0  0
M  END
> <PUBCHEM_COMPOUND_CID>
514672
> <PUBCHEM_COMPOUND_CANONICALIZED>
1
> <PUBCHEM_CACTVS_COMPLEXITY>
972
> <PUBCHEM_CACTVS_HBOND_ACCEPTOR>
6
> <PUBCHEM_CACTVS_HBOND_DONOR>
3
> <PUBCHEM_CACTVS_ROTATABLE_BOND>
10
> <PUBCHEM_CACTVS_SUBSKEYS>
AAADcfB/OABAAAAAAAAAAAAAAAAAAeIAAAAwYMAAAAAAAGABQAAAHgQQCAAADTzh2AayCIPABgiIAiFSGAKCAABgABAIiIHIBIkKcDqg0TGcYAhklgCYiAeYyLCOgAAAAAAQAABAAAIAACAAAAAACAAAAA==
> <PUBCHEM_IUPAC_OPENEYE_NAME>
2,3,3a,4,5,6,7,7a-octahydro-1H-inden-5-yl N-[(1S,2S)-1-benzyl-3-[(4R)-5,5-dimethyl-4-(o-tolylmethylcarbamoyl)thiazolidin-3-yl]-2-hydroxy-3-oxo-propyl]carbamate
> <PUBCHEM_IUPAC_CAS_NAME>
N-[(2S,3S)-4-[(4R)-5,5-dimethyl-4-[[(2-methylphenyl)methylamino]-oxomethyl]-3-thiazolidinyl]-3-hydroxy-4-oxo-1-phenylbutan-2-yl]carbamic acid 2,3,3a,4,5,6,7,7a-octahydro-1H-inden-5-yl ester
> <PUBCHEM_IUPAC_NAME_MARKUP>
2,3,3<I>a</I>,4,5,6,7,7<I>a</I>-octahydro-1<I>H</I>-inden-5-yl <I>N</I>-[(2<I>S</I>,3<I>S</I>)-4-[(4<I>R</I>)-5,5-dimethyl-4-[(2-methylphenyl)methylcarbamoyl]-1,3-thiazolidin-3-yl]-3-hydroxy-4-oxo-1-phenylbutan-2-yl]carbamate
> <PUBCHEM_IUPAC_NAME>
2,3,3a,4,5,6,7,7a-octahydro-1H-inden-5-yl N-[(2S,3S)-4-[(4R)-5,5-dimethyl-4-[(2-methylphenyl)methylcarbamoyl]-1,3-thiazolidin-3-yl]-3-hydroxy-4-oxo-1-phenylbutan-2-yl]carbamate
> <PUBCHEM_IUPAC_SYSTEMATIC_NAME>
2,3,3a,4,5,6,7,7a-octahydro-1H-inden-5-yl N-[(2S,3S)-4-[(4R)-5,5-dimethyl-4-[(2-methylphenyl)methylcarbamoyl]-1,3-thiazolidin-3-yl]-3-oxidanyl-4-oxidanylidene-1-phenyl-butan-2-yl]carbamate
> <PUBCHEM_IUPAC_TRADITIONAL_NAME>
N-[(1S,2S)-1-benzyl-3-[(4R)-5,5-dimethyl-4-[(2-methylbenzyl)carbamoyl]thiazolidin-3-yl]-2-hydroxy-3-keto-propyl]carbamic acid 2,3,3a,4,5,6,7,7a-octahydro-1H-inden-5-yl ester
> <PUBCHEM_IUPAC_INCHI>
InChI=1S/C34H45N3O5S/c1-22-10-7-8-13-26(22)20-35-31(39)30-34(2,3)43-21-37(30)32(40)29(38)28(18-23-11-5-4-6-12-23)36-33(41)42-27-17-16-24-14-9-15-25(24)19-27/h4-8,10-13,24-25,27-30,38H,9,14-21H2,1-3H3,(H,35,39)(H,36,41)/t24?,25?,27?,28-,29-,30+/m0/s1
> <PUBCHEM_IUPAC_INCHIKEY>
PHHLUWYNUSQDHZ-SMVXFUJKSA-N
> <PUBCHEM_XLOGP3_AA>
6
> <PUBCHEM_EXACT_MASS>
607.30799272
> <PUBCHEM_MOLECULAR_FORMULA>
C34H45N3O5S
> <PUBCHEM_MOLECULAR_WEIGHT>
607.8
> <PUBCHEM_OPENEYE_CAN_SMILES>
CC1=CC=CC=C1CNC(=O)C2C(SCN2C(=O)C(C(CC3=CC=CC=C3)NC(=O)OC4CCC5CCCC5C4)O)(C)C
> <PUBCHEM_OPENEYE_ISO_SMILES>
CC1=CC=CC=C1CNC(=O)[C@@H]2C(SCN2C(=O)[C@H]([C@H](CC3=CC=CC=C3)NC(=O)OC4CCC5CCCC5C4)O)(C)C
> <PUBCHEM_CACTVS_TPSA>
133
> <PUBCHEM_MONOISOTOPIC_WEIGHT>
607.30799272
> <PUBCHEM_TOTAL_CHARGE>
0
> <PUBCHEM_HEAVY_ATOM_COUNT>
43
> <PUBCHEM_ATOM_DEF_STEREO_COUNT>
3
> <PUBCHEM_ATOM_UDEF_STEREO_COUNT>
3
> <PUBCHEM_BOND_DEF_STEREO_COUNT>
0
> <PUBCHEM_BOND_UDEF_STEREO_COUNT>
0
> <PUBCHEM_ISOTOPIC_ATOM_COUNT>
0
> <PUBCHEM_COMPONENT_COUNT>
1
> <PUBCHEM_CACTVS_TAUTO_COUNT>
-1
> <PUBCHEM_COORDINATE_TYPE>
1
5
255
> <PUBCHEM_BONDANNOTATIONS>
10  12  3
11  13  3
17  2  3
22  29  5
30  32  8
30  33  8
32  35  8
33  36  8
34  38  8
34  39  8
35  37  8
36  37  8
38  40  8
39  42  8
23  4  6
40  43  8
42  43  8
20  7  5
$$$$
