514675
  -OEChem-10302200282D
 68 71  0     1  0  0  0  0  0999 V2000
    8.1756    3.1842    0.0000 S   0  0  0  0  0  0  0  0  0  0  0  0
    2.5000    2.7455    0.0000 S   0  0  0  0  0  0  0  0  0  0  0  0
   12.0057   -0.8546    0.0000 S   0  0  0  0  0  0  0  0  0  0  0  0
    9.4076    0.6454    0.0000 O   0  0  0  0  0  0  0  0  0  0  0  0
    6.8095    0.1454    0.0000 O   0  0  0  0  0  0  0  0  0  0  0  0
    5.7076    0.9460    0.0000 O   0  0  0  0  0  0  0  0  0  0  0  0
   10.2736    0.1454    0.0000 O   0  0  0  0  0  0  0  0  0  0  0  0
    7.6756    1.6454    0.0000 N   0  0  0  0  0  0  0  0  0  0  0  0
    5.1724    2.5933    0.0000 N   0  0  0  0  0  0  0  0  0  0  0  0
    9.4076   -1.3546    0.0000 N   0  0  0  0  0  0  0  0  0  0  0  0
   13.7853   -0.9479    0.0000 N   0  0  0  0  0  0  0  0  0  0  0  0
   12.9762   -2.3492    0.0000 N   0  0  0  0  0  0  0  0  0  0  0  0
   14.4544   -1.6910    0.0000 N   0  0  0  0  0  0  0  0  0  0  0  0
    7.1756    3.1842    0.0000 C   0  0  0  0  0  0  0  0  0  0  0  0
    6.8666    2.2332    0.0000 C   0  0  1  0  0  0  0  0  0  0  0  0
    8.4846    2.2332    0.0000 C   0  0  0  0  0  0  0  0  0  0  0  0
    7.1756    4.1842    0.0000 C   0  0  0  0  0  0  0  0  0  0  0  0
    6.2245    3.4932    0.0000 C   0  0  0  0  0  0  0  0  0  0  0  0
    7.6756    0.6454    0.0000 C   0  0  0  0  0  0  0  0  0  0  0  0
    5.9155    1.9241    0.0000 C   0  0  0  0  0  0  0  0  0  0  0  0
    8.5416    0.1454    0.0000 C   0  0  2  0  0  0  0  0  0  0  0  0
    8.5416   -0.8546    0.0000 C   0  0  2  0  0  0  0  0  0  0  0  0
    7.6756   -1.3546    0.0000 C   0  0  0  0  0  0  0  0  0  0  0  0
    4.2213    2.2842    0.0000 C   0  0  0  0  0  0  0  0  0  0  0  0
    7.6756   -2.3546    0.0000 C   0  0  0  0  0  0  0  0  0  0  0  0
   10.2736   -0.8546    0.0000 C   0  0  0  0  0  0  0  0  0  0  0  0
    3.4782    2.9534    0.0000 C   0  0  0  0  0  0  0  0  0  0  0  0
    8.5416   -2.8546    0.0000 C   0  0  0  0  0  0  0  0  0  0  0  0
    6.8095   -2.8546    0.0000 C   0  0  0  0  0  0  0  0  0  0  0  0
   11.1397   -1.3546    0.0000 C   0  0  0  0  0  0  0  0  0  0  0  0
    8.5416   -3.8546    0.0000 C   0  0  0  0  0  0  0  0  0  0  0  0
    6.8095   -3.8546    0.0000 C   0  0  0  0  0  0  0  0  0  0  0  0
    3.5827    3.9479    0.0000 C   0  0  0  0  0  0  0  0  0  0  0  0
    7.6756   -4.3546    0.0000 C   0  0  0  0  0  0  0  0  0  0  0  0
    2.6691    4.3546    0.0000 C   0  0  0  0  0  0  0  0  0  0  0  0
    2.0000    3.6115    0.0000 C   0  0  0  0  0  0  0  0  0  0  0  0
   12.8717   -1.3546    0.0000 C   0  0  0  0  0  0  0  0  0  0  0  0
   13.9544   -2.5571    0.0000 C   0  0  0  0  0  0  0  0  0  0  0  0
    6.7696    1.6208    0.0000 H   0  0  0  0  0  0  0  0  0  0  0  0
    8.7946    1.6962    0.0000 H   0  0  0  0  0  0  0  0  0  0  0  0
    9.0510    2.4853    0.0000 H   0  0  0  0  0  0  0  0  0  0  0  0
    7.7956    4.1842    0.0000 H   0  0  0  0  0  0  0  0  0  0  0  0
    7.1756    4.8042    0.0000 H   0  0  0  0  0  0  0  0  0  0  0  0
    6.5556    4.1842    0.0000 H   0  0  0  0  0  0  0  0  0  0  0  0
    6.4161    4.0829    0.0000 H   0  0  0  0  0  0  0  0  0  0  0  0
    5.6349    3.6848    0.0000 H   0  0  0  0  0  0  0  0  0  0  0  0
    6.0329    2.9036    0.0000 H   0  0  0  0  0  0  0  0  0  0  0  0
    8.5416    0.7654    0.0000 H   0  0  0  0  0  0  0  0  0  0  0  0
    8.5416   -1.4746    0.0000 H   0  0  0  0  0  0  0  0  0  0  0  0
    7.4635   -0.7720    0.0000 H   0  0  0  0  0  0  0  0  0  0  0  0
    7.0650   -1.4623    0.0000 H   0  0  0  0  0  0  0  0  0  0  0  0
    5.3012    3.1997    0.0000 H   0  0  0  0  0  0  0  0  0  0  0  0
    9.4076   -1.9746    0.0000 H   0  0  0  0  0  0  0  0  0  0  0  0
    3.7327    1.9025    0.0000 H   0  0  0  0  0  0  0  0  0  0  0  0
    4.5124    1.7368    0.0000 H   0  0  0  0  0  0  0  0  0  0  0  0
    9.4076    1.2654    0.0000 H   0  0  0  0  0  0  0  0  0  0  0  0
    9.0785   -2.5446    0.0000 H   0  0  0  0  0  0  0  0  0  0  0  0
    6.2726   -2.5446    0.0000 H   0  0  0  0  0  0  0  0  0  0  0  0
   10.7411   -1.8296    0.0000 H   0  0  0  0  0  0  0  0  0  0  0  0
   11.5382   -1.8296    0.0000 H   0  0  0  0  0  0  0  0  0  0  0  0
    9.0785   -4.1646    0.0000 H   0  0  0  0  0  0  0  0  0  0  0  0
    6.2726   -4.1646    0.0000 H   0  0  0  0  0  0  0  0  0  0  0  0
    4.1196    4.2579    0.0000 H   0  0  0  0  0  0  0  0  0  0  0  0
    7.6756   -4.9746    0.0000 H   0  0  0  0  0  0  0  0  0  0  0  0
    2.5402    4.9611    0.0000 H   0  0  0  0  0  0  0  0  0  0  0  0
    1.3834    3.6763    0.0000 H   0  0  0  0  0  0  0  0  0  0  0  0
   13.9142   -0.3414    0.0000 H   0  0  0  0  0  0  0  0  0  0  0  0
   14.2066   -3.1235    0.0000 H   0  0  0  0  0  0  0  0  0  0  0  0
  1 14  1  0  0  0  0
  1 16  1  0  0  0  0
  2 27  1  0  0  0  0
  2 36  1  0  0  0  0
  3 30  1  0  0  0  0
  3 37  1  0  0  0  0
 21  4  1  1  0  0  0
  4 56  1  0  0  0  0
  5 19  2  0  0  0  0
  6 20  2  0  0  0  0
  7 26  2  0  0  0  0
  8 15  1  0  0  0  0
  8 16  1  0  0  0  0
  8 19  1  0  0  0  0
  9 20  1  0  0  0  0
  9 24  1  0  0  0  0
  9 52  1  0  0  0  0
 22 10  1  1  0  0  0
 10 26  1  0  0  0  0
 10 53  1  0  0  0  0
 11 13  1  0  0  0  0
 11 37  1  0  0  0  0
 11 67  1  0  0  0  0
 12 37  2  0  0  0  0
 12 38  1  0  0  0  0
 13 38  2  0  0  0  0
 14 15  1  0  0  0  0
 14 17  1  0  0  0  0
 14 18  1  0  0  0  0
 15 20  1  6  0  0  0
 15 39  1  0  0  0  0
 16 40  1  0  0  0  0
 16 41  1  0  0  0  0
 17 42  1  0  0  0  0
 17 43  1  0  0  0  0
 17 44  1  0  0  0  0
 18 45  1  0  0  0  0
 18 46  1  0  0  0  0
 18 47  1  0  0  0  0
 19 21  1  0  0  0  0
 21 22  1  0  0  0  0
 21 48  1  0  0  0  0
 22 23  1  0  0  0  0
 22 49  1  0  0  0  0
 23 25  1  0  0  0  0
 23 50  1  0  0  0  0
 23 51  1  0  0  0  0
 24 27  1  0  0  0  0
 24 54  1  0  0  0  0
 24 55  1  0  0  0  0
 25 28  2  0  0  0  0
 25 29  1  0  0  0  0
 26 30  1  0  0  0  0
 27 33  2  0  0  0  0
 28 31  1  0  0  0  0
 28 57  1  0  0  0  0
 29 32  2  0  0  0  0
 29 58  1  0  0  0  0
 30 59  1  0  0  0  0
 30 60  1  0  0  0  0
 31 34  2  0  0  0  0
 31 61  1  0  0  0  0
 32 34  1  0  0  0  0
 32 62  1  0  0  0  0
 33 35  1  0  0  0  0
 33 63  1  0  0  0  0
 34 64  1  0  0  0  0
 35 36  2  0  0  0  0
 35 65  1  0  0  0  0
 36 66  1  0  0  0  0
 38 68  1  0  0  0  0
M  END
> <PUBCHEM_COMPOUND_CID>
514675
> <PUBCHEM_COMPOUND_CANONICALIZED>
1
> <PUBCHEM_CACTVS_COMPLEXITY>
831
> <PUBCHEM_CACTVS_HBOND_ACCEPTOR>
9
> <PUBCHEM_CACTVS_HBOND_DONOR>
4
> <PUBCHEM_CACTVS_ROTATABLE_BOND>
11
> <PUBCHEM_CACTVS_SUBSKEYS>
AAADceB7uABgAAAAAAAAAAAAAAAAAWLEgAAwAAAAAAAAAAAB8AAAHgQYCAAADDzl2Aa3EYfrEgiuAiFTNAKTUovwiJBN6JnIBIiKeDqg0TGUYAhklgC4iAeYyKCOAAAAAAAAAAAAAAAAAAAAAAAAAAAAAA==
> <PUBCHEM_IUPAC_OPENEYE_NAME>
(4R)-3-[(2S,3S)-2-hydroxy-4-phenyl-3-[[2-(1H-1,2,4-triazol-5-ylsulfanyl)acetyl]amino]butanoyl]-5,5-dimethyl-N-(2-thienylmethyl)thiazolidine-4-carboxamide
> <PUBCHEM_IUPAC_CAS_NAME>
(4R)-3-[(2S,3S)-2-hydroxy-1-oxo-3-[[1-oxo-2-(1H-1,2,4-triazol-5-ylthio)ethyl]amino]-4-phenylbutyl]-5,5-dimethyl-N-(thiophen-2-ylmethyl)-4-thiazolidinecarboxamide
> <PUBCHEM_IUPAC_NAME_MARKUP>
(4<I>R</I>)-3-[(2<I>S</I>,3<I>S</I>)-2-hydroxy-4-phenyl-3-[[2-(1<I>H</I>-1,2,4-triazol-5-ylsulfanyl)acetyl]amino]butanoyl]-5,5-dimethyl-<I>N</I>-(thiophen-2-ylmethyl)-1,3-thiazolidine-4-carboxamide
> <PUBCHEM_IUPAC_NAME>
(4R)-3-[(2S,3S)-2-hydroxy-4-phenyl-3-[[2-(1H-1,2,4-triazol-5-ylsulfanyl)acetyl]amino]butanoyl]-5,5-dimethyl-N-(thiophen-2-ylmethyl)-1,3-thiazolidine-4-carboxamide
> <PUBCHEM_IUPAC_SYSTEMATIC_NAME>
(4R)-5,5-dimethyl-3-[(2S,3S)-2-oxidanyl-4-phenyl-3-[2-(1H-1,2,4-triazol-5-ylsulfanyl)ethanoylamino]butanoyl]-N-(thiophen-2-ylmethyl)-1,3-thiazolidine-4-carboxamide
> <PUBCHEM_IUPAC_TRADITIONAL_NAME>
(4R)-3-[(2S,3S)-2-hydroxy-4-phenyl-3-[[2-(1H-1,2,4-triazol-5-ylthio)acetyl]amino]butanoyl]-5,5-dimethyl-N-(2-thenyl)thiazolidine-4-carboxamide
> <PUBCHEM_IUPAC_INCHI>
InChI=1S/C25H30N6O4S3/c1-25(2)21(22(34)26-12-17-9-6-10-36-17)31(15-38-25)23(35)20(33)18(11-16-7-4-3-5-8-16)29-19(32)13-37-24-27-14-28-30-24/h3-10,14,18,20-21,33H,11-13,15H2,1-2H3,(H,26,34)(H,29,32)(H,27,28,30)/t18-,20-,21+/m0/s1
> <PUBCHEM_IUPAC_INCHIKEY>
SEUJLCCNFWKAFG-SESVDKBCSA-N
> <PUBCHEM_XLOGP3_AA>
2.8
> <PUBCHEM_EXACT_MASS>
574.14906698
> <PUBCHEM_MOLECULAR_FORMULA>
C25H30N6O4S3
> <PUBCHEM_MOLECULAR_WEIGHT>
574.7
> <PUBCHEM_OPENEYE_CAN_SMILES>
CC1(C(N(CS1)C(=O)C(C(CC2=CC=CC=C2)NC(=O)CSC3=NC=NN3)O)C(=O)NCC4=CC=CS4)C
> <PUBCHEM_OPENEYE_ISO_SMILES>
CC1([C@H](N(CS1)C(=O)[C@H]([C@H](CC2=CC=CC=C2)NC(=O)CSC3=NC=NN3)O)C(=O)NCC4=CC=CS4)C
> <PUBCHEM_CACTVS_TPSA>
219
> <PUBCHEM_MONOISOTOPIC_WEIGHT>
574.14906698
> <PUBCHEM_TOTAL_CHARGE>
0
> <PUBCHEM_HEAVY_ATOM_COUNT>
38
> <PUBCHEM_ATOM_DEF_STEREO_COUNT>
3
> <PUBCHEM_ATOM_UDEF_STEREO_COUNT>
0
> <PUBCHEM_BOND_DEF_STEREO_COUNT>
0
> <PUBCHEM_BOND_UDEF_STEREO_COUNT>
0
> <PUBCHEM_ISOTOPIC_ATOM_COUNT>
0
> <PUBCHEM_COMPONENT_COUNT>
1
> <PUBCHEM_CACTVS_TAUTO_COUNT>
-1
> <PUBCHEM_COORDINATE_TYPE>
1
5
255
> <PUBCHEM_BONDANNOTATIONS>
22  10  5
11  13  8
11  37  8
12  37  8
12  38  8
13  38  8
15  20  6
2  27  8
2  36  8
25  28  8
25  29  8
27  33  8
28  31  8
29  32  8
31  34  8
32  34  8
33  35  8
35  36  8
21  4  5
$$$$
