514666
  -OEChem-10302200282D
 83 87  0     1  0  0  0  0  0999 V2000
    6.0509    2.9698    0.0000 S   0  0  0  0  0  0  0  0  0  0  0  0
    8.8656    2.7673    0.0000 O   0  0  0  0  0  0  0  0  0  0  0  0
    6.7553   -0.2867    0.0000 O   0  0  0  0  0  0  0  0  0  0  0  0
    7.9996    0.2673    0.0000 O   0  0  0  0  0  0  0  0  0  0  0  0
   11.4637    0.2673    0.0000 O   0  0  0  0  0  0  0  0  0  0  0  0
   11.4637   -1.7327    0.0000 O   0  0  0  0  0  0  0  0  0  0  0  0
    7.1336    1.7673    0.0000 N   0  0  0  0  0  0  0  0  0  0  0  0
    5.0611    0.0734    0.0000 N   0  0  0  0  0  0  0  0  0  0  0  0
    9.7317    0.2673    0.0000 N   0  0  0  0  0  0  0  0  0  0  0  0
   13.2237   -4.7673    0.0000 N   0  0  0  0  0  0  0  0  0  0  0  0
    5.5509    2.1037    0.0000 C   0  0  0  0  0  0  0  0  0  0  0  0
    6.2200    1.3606    0.0000 C   0  0  1  0  0  0  0  0  0  0  0  0
    7.0291    2.7618    0.0000 C   0  0  0  0  0  0  0  0  0  0  0  0
    4.6849    2.6037    0.0000 C   0  0  0  0  0  0  0  0  0  0  0  0
    4.8078    1.4346    0.0000 C   0  0  0  0  0  0  0  0  0  0  0  0
    6.0121    0.3824    0.0000 C   0  0  0  0  0  0  0  0  0  0  0  0
    7.9996    1.2673    0.0000 C   0  0  0  0  0  0  0  0  0  0  0  0
    8.8656    1.7673    0.0000 C   0  0  2  0  0  0  0  0  0  0  0  0
    9.7317    1.2673    0.0000 C   0  0  2  0  0  0  0  0  0  0  0  0
   10.5977    1.7673    0.0000 C   0  0  0  0  0  0  0  0  0  0  0  0
    4.8532   -0.9047    0.0000 C   0  0  0  0  0  0  0  0  0  0  0  0
   10.5977    2.7673    0.0000 C   0  0  0  0  0  0  0  0  0  0  0  0
    3.9021   -1.2137    0.0000 C   0  0  0  0  0  0  0  0  0  0  0  0
   10.5977   -0.2327    0.0000 C   0  0  0  0  0  0  0  0  0  0  0  0
   11.4637    3.2673    0.0000 C   0  0  0  0  0  0  0  0  0  0  0  0
    9.7317    3.2673    0.0000 C   0  0  0  0  0  0  0  0  0  0  0  0
    3.6942   -2.1919    0.0000 C   0  0  0  0  0  0  0  0  0  0  0  0
   10.5977   -1.2327    0.0000 C   0  0  0  0  0  0  0  0  0  0  0  0
    3.1590   -0.5446    0.0000 C   0  0  0  0  0  0  0  0  0  0  0  0
   11.4637    4.2673    0.0000 C   0  0  0  0  0  0  0  0  0  0  0  0
    9.7317    4.2673    0.0000 C   0  0  0  0  0  0  0  0  0  0  0  0
    2.7431   -2.5009    0.0000 C   0  0  0  0  0  0  0  0  0  0  0  0
   10.5977    4.7673    0.0000 C   0  0  0  0  0  0  0  0  0  0  0  0
    4.4374   -2.8610    0.0000 C   0  0  0  0  0  0  0  0  0  0  0  0
    2.2079   -0.8536    0.0000 C   0  0  0  0  0  0  0  0  0  0  0  0
    2.0000   -1.8318    0.0000 C   0  0  0  0  0  0  0  0  0  0  0  0
   11.4637   -2.7327    0.0000 C   0  0  0  0  0  0  0  0  0  0  0  0
   12.3297   -3.2327    0.0000 C   0  0  0  0  0  0  0  0  0  0  0  0
   10.5977   -3.2327    0.0000 C   0  0  0  0  0  0  0  0  0  0  0  0
   12.3297   -4.2327    0.0000 C   0  0  0  0  0  0  0  0  0  0  0  0
   10.5977   -4.2327    0.0000 C   0  0  0  0  0  0  0  0  0  0  0  0
   13.2237   -2.6980    0.0000 C   0  0  0  0  0  0  0  0  0  0  0  0
   11.4637   -4.7327    0.0000 C   0  0  0  0  0  0  0  0  0  0  0  0
   14.1298   -3.2118    0.0000 C   0  0  0  0  0  0  0  0  0  0  0  0
   14.1298   -4.2535    0.0000 C   0  0  0  0  0  0  0  0  0  0  0  0
    6.7019    0.9704    0.0000 H   0  0  0  0  0  0  0  0  0  0  0  0
    7.6491    2.7618    0.0000 H   0  0  0  0  0  0  0  0  0  0  0  0
    7.0939    3.3785    0.0000 H   0  0  0  0  0  0  0  0  0  0  0  0
    4.9949    3.1407    0.0000 H   0  0  0  0  0  0  0  0  0  0  0  0
    4.1480    2.9137    0.0000 H   0  0  0  0  0  0  0  0  0  0  0  0
    4.3749    2.0668    0.0000 H   0  0  0  0  0  0  0  0  0  0  0  0
    4.3929    1.8954    0.0000 H   0  0  0  0  0  0  0  0  0  0  0  0
    4.3470    1.0198    0.0000 H   0  0  0  0  0  0  0  0  0  0  0  0
    5.2226    0.9739    0.0000 H   0  0  0  0  0  0  0  0  0  0  0  0
    8.3287    2.0773    0.0000 H   0  0  0  0  0  0  0  0  0  0  0  0
   10.2686    0.9573    0.0000 H   0  0  0  0  0  0  0  0  0  0  0  0
    4.6003    0.4883    0.0000 H   0  0  0  0  0  0  0  0  0  0  0  0
   10.8097    1.1847    0.0000 H   0  0  0  0  0  0  0  0  0  0  0  0
   11.2083    1.8750    0.0000 H   0  0  0  0  0  0  0  0  0  0  0  0
    9.1947   -0.0427    0.0000 H   0  0  0  0  0  0  0  0  0  0  0  0
    4.9395   -1.5187    0.0000 H   0  0  0  0  0  0  0  0  0  0  0  0
    5.4728   -0.9264    0.0000 H   0  0  0  0  0  0  0  0  0  0  0  0
    8.3287    3.0773    0.0000 H   0  0  0  0  0  0  0  0  0  0  0  0
   12.0007    2.9573    0.0000 H   0  0  0  0  0  0  0  0  0  0  0  0
    9.1947    2.9573    0.0000 H   0  0  0  0  0  0  0  0  0  0  0  0
    9.9871   -1.1250    0.0000 H   0  0  0  0  0  0  0  0  0  0  0  0
   10.3856   -1.8153    0.0000 H   0  0  0  0  0  0  0  0  0  0  0  0
    3.2879    0.0618    0.0000 H   0  0  0  0  0  0  0  0  0  0  0  0
   12.0007    4.5773    0.0000 H   0  0  0  0  0  0  0  0  0  0  0  0
    9.1947    4.5773    0.0000 H   0  0  0  0  0  0  0  0  0  0  0  0
    2.6142   -3.1074    0.0000 H   0  0  0  0  0  0  0  0  0  0  0  0
   10.5977    5.3873    0.0000 H   0  0  0  0  0  0  0  0  0  0  0  0
    4.0225   -3.3218    0.0000 H   0  0  0  0  0  0  0  0  0  0  0  0
    4.8981   -3.2759    0.0000 H   0  0  0  0  0  0  0  0  0  0  0  0
    4.8522   -2.4003    0.0000 H   0  0  0  0  0  0  0  0  0  0  0  0
    1.7472   -0.4388    0.0000 H   0  0  0  0  0  0  0  0  0  0  0  0
    1.4103   -2.0234    0.0000 H   0  0  0  0  0  0  0  0  0  0  0  0
   10.0608   -2.9227    0.0000 H   0  0  0  0  0  0  0  0  0  0  0  0
   10.0608   -4.5427    0.0000 H   0  0  0  0  0  0  0  0  0  0  0  0
   13.2165   -2.0780    0.0000 H   0  0  0  0  0  0  0  0  0  0  0  0
   11.4637   -5.3527    0.0000 H   0  0  0  0  0  0  0  0  0  0  0  0
   14.6655   -2.8998    0.0000 H   0  0  0  0  0  0  0  0  0  0  0  0
   14.6655   -4.5656    0.0000 H   0  0  0  0  0  0  0  0  0  0  0  0
  1 11  1  0  0  0  0
  1 13  1  0  0  0  0
 18  2  1  1  0  0  0
  2 63  1  0  0  0  0
  3 16  2  0  0  0  0
  4 17  2  0  0  0  0
  5 24  2  0  0  0  0
  6 28  1  0  0  0  0
  6 37  1  0  0  0  0
  7 12  1  0  0  0  0
  7 13  1  0  0  0  0
  7 17  1  0  0  0  0
  8 16  1  0  0  0  0
  8 21  1  0  0  0  0
  8 57  1  0  0  0  0
 19  9  1  6  0  0  0
  9 24  1  0  0  0  0
  9 60  1  0  0  0  0
 10 40  1  0  0  0  0
 10 45  2  0  0  0  0
 11 12  1  0  0  0  0
 11 14  1  0  0  0  0
 11 15  1  0  0  0  0
 12 16  1  6  0  0  0
 12 46  1  0  0  0  0
 13 47  1  0  0  0  0
 13 48  1  0  0  0  0
 14 49  1  0  0  0  0
 14 50  1  0  0  0  0
 14 51  1  0  0  0  0
 15 52  1  0  0  0  0
 15 53  1  0  0  0  0
 15 54  1  0  0  0  0
 17 18  1  0  0  0  0
 18 19  1  0  0  0  0
 18 55  1  0  0  0  0
 19 20  1  0  0  0  0
 19 56  1  0  0  0  0
 20 22  1  0  0  0  0
 20 58  1  0  0  0  0
 20 59  1  0  0  0  0
 21 23  1  0  0  0  0
 21 61  1  0  0  0  0
 21 62  1  0  0  0  0
 22 25  2  0  0  0  0
 22 26  1  0  0  0  0
 23 27  1  0  0  0  0
 23 29  2  0  0  0  0
 24 28  1  0  0  0  0
 25 30  1  0  0  0  0
 25 64  1  0  0  0  0
 26 31  2  0  0  0  0
 26 65  1  0  0  0  0
 27 32  2  0  0  0  0
 27 34  1  0  0  0  0
 28 66  1  0  0  0  0
 28 67  1  0  0  0  0
 29 35  1  0  0  0  0
 29 68  1  0  0  0  0
 30 33  2  0  0  0  0
 30 69  1  0  0  0  0
 31 33  1  0  0  0  0
 31 70  1  0  0  0  0
 32 36  1  0  0  0  0
 32 71  1  0  0  0  0
 33 72  1  0  0  0  0
 34 73  1  0  0  0  0
 34 74  1  0  0  0  0
 34 75  1  0  0  0  0
 35 36  2  0  0  0  0
 35 76  1  0  0  0  0
 36 77  1  0  0  0  0
 37 38  1  0  0  0  0
 37 39  2  0  0  0  0
 38 40  2  0  0  0  0
 38 42  1  0  0  0  0
 39 41  1  0  0  0  0
 39 78  1  0  0  0  0
 40 43  1  0  0  0  0
 41 43  2  0  0  0  0
 41 79  1  0  0  0  0
 42 44  2  0  0  0  0
 42 80  1  0  0  0  0
 43 81  1  0  0  0  0
 44 45  1  0  0  0  0
 44 82  1  0  0  0  0
 45 83  1  0  0  0  0
M  END
> <PUBCHEM_COMPOUND_CID>
514666
> <PUBCHEM_COMPOUND_CANONICALIZED>
1
> <PUBCHEM_CACTVS_COMPLEXITY>
1010
> <PUBCHEM_CACTVS_HBOND_ACCEPTOR>
7
> <PUBCHEM_CACTVS_HBOND_DONOR>
3
> <PUBCHEM_CACTVS_ROTATABLE_BOND>
11
> <PUBCHEM_CACTVS_SUBSKEYS>
AAADcfB/uABAAAAAAAAAAAAAAAAAAWAAAAA8YMEAAAAAAACx9AAAHgQQCAAADDzh3ga+xvPIFgioAzV3VAKCiCBxIjAI2KH+bJgOdvrk8b+XeCjm1hnY6AeY2KOOgAAAAgAaAAAAAAAEADQAAAAAAAAAAA==
> <PUBCHEM_IUPAC_OPENEYE_NAME>
(4R)-3-[(2S,3S)-2-hydroxy-4-phenyl-3-[[2-(5-quinolyloxy)acetyl]amino]butanoyl]-5,5-dimethyl-N-(o-tolylmethyl)thiazolidine-4-carboxamide
> <PUBCHEM_IUPAC_CAS_NAME>
(4R)-3-[(2S,3S)-2-hydroxy-1-oxo-3-[[1-oxo-2-(5-quinolinyloxy)ethyl]amino]-4-phenylbutyl]-5,5-dimethyl-N-[(2-methylphenyl)methyl]-4-thiazolidinecarboxamide
> <PUBCHEM_IUPAC_NAME_MARKUP>
(4<I>R</I>)-3-[(2<I>S</I>,3<I>S</I>)-2-hydroxy-4-phenyl-3-[(2-quinolin-5-yloxyacetyl)amino]butanoyl]-5,5-dimethyl-<I>N</I>-[(2-methylphenyl)methyl]-1,3-thiazolidine-4-carboxamide
> <PUBCHEM_IUPAC_NAME>
(4R)-3-[(2S,3S)-2-hydroxy-4-phenyl-3-[(2-quinolin-5-yloxyacetyl)amino]butanoyl]-5,5-dimethyl-N-[(2-methylphenyl)methyl]-1,3-thiazolidine-4-carboxamide
> <PUBCHEM_IUPAC_SYSTEMATIC_NAME>
(4R)-5,5-dimethyl-N-[(2-methylphenyl)methyl]-3-[(2S,3S)-2-oxidanyl-4-phenyl-3-(2-quinolin-5-yloxyethanoylamino)butanoyl]-1,3-thiazolidine-4-carboxamide
> <PUBCHEM_IUPAC_TRADITIONAL_NAME>
(4R)-3-[(2S,3S)-2-hydroxy-4-phenyl-3-[[2-(5-quinolyloxy)acetyl]amino]butanoyl]-5,5-dimethyl-N-(2-methylbenzyl)thiazolidine-4-carboxamide
> <PUBCHEM_IUPAC_INCHI>
InChI=1S/C35H38N4O5S/c1-23-11-7-8-14-25(23)20-37-33(42)32-35(2,3)45-22-39(32)34(43)31(41)28(19-24-12-5-4-6-13-24)38-30(40)21-44-29-17-9-16-27-26(29)15-10-18-36-27/h4-18,28,31-32,41H,19-22H2,1-3H3,(H,37,42)(H,38,40)/t28-,31-,32+/m0/s1
> <PUBCHEM_IUPAC_INCHIKEY>
HUTOMHVRIASONW-JWBZKWLISA-N
> <PUBCHEM_XLOGP3_AA>
4.8
> <PUBCHEM_EXACT_MASS>
626.25629150
> <PUBCHEM_MOLECULAR_FORMULA>
C35H38N4O5S
> <PUBCHEM_MOLECULAR_WEIGHT>
626.8
> <PUBCHEM_OPENEYE_CAN_SMILES>
CC1=CC=CC=C1CNC(=O)C2C(SCN2C(=O)C(C(CC3=CC=CC=C3)NC(=O)COC4=CC=CC5=C4C=CC=N5)O)(C)C
> <PUBCHEM_OPENEYE_ISO_SMILES>
CC1=CC=CC=C1CNC(=O)[C@@H]2C(SCN2C(=O)[C@H]([C@H](CC3=CC=CC=C3)NC(=O)COC4=CC=CC5=C4C=CC=N5)O)(C)C
> <PUBCHEM_CACTVS_TPSA>
146
> <PUBCHEM_MONOISOTOPIC_WEIGHT>
626.25629150
> <PUBCHEM_TOTAL_CHARGE>
0
> <PUBCHEM_HEAVY_ATOM_COUNT>
45
> <PUBCHEM_ATOM_DEF_STEREO_COUNT>
3
> <PUBCHEM_ATOM_UDEF_STEREO_COUNT>
0
> <PUBCHEM_BOND_DEF_STEREO_COUNT>
0
> <PUBCHEM_BOND_UDEF_STEREO_COUNT>
0
> <PUBCHEM_ISOTOPIC_ATOM_COUNT>
0
> <PUBCHEM_COMPONENT_COUNT>
1
> <PUBCHEM_CACTVS_TAUTO_COUNT>
-1
> <PUBCHEM_COORDINATE_TYPE>
1
5
255
> <PUBCHEM_BONDANNOTATIONS>
10  40  8
10  45  8
12  16  6
18  2  5
22  25  8
22  26  8
23  27  8
23  29  8
25  30  8
26  31  8
27  32  8
29  35  8
30  33  8
31  33  8
32  36  8
35  36  8
37  38  8
37  39  8
38  40  8
38  42  8
39  41  8
40  43  8
41  43  8
42  44  8
44  45  8
19  9  6
$$$$
