514641
  -OEChem-10302200282D
 77 81  0     1  0  0  0  0  0999 V2000
    8.1654   -2.6197    0.0000 S   0  0  0  0  0  0  0  0  0  0  0  0
    5.3884   -3.9068    0.0000 O   0  0  0  0  0  0  0  0  0  0  0  0
    5.2741   -0.9641    0.0000 O   0  0  0  0  0  0  0  0  0  0  0  0
    7.6699    0.1585    0.0000 O   0  0  0  0  0  0  0  0  0  0  0  0
    8.0766    1.0720    0.0000 O   0  0  0  0  0  0  0  0  0  0  0  0
   10.2913    3.9172    0.0000 O   0  0  0  0  0  0  0  0  0  0  0  0
    6.8564   -1.6686    0.0000 N   0  0  0  0  0  0  0  0  0  0  0  0
    4.8532   -2.2596    0.0000 N   0  0  0  0  0  0  0  0  0  0  0  0
    6.4943    1.7765    0.0000 N   0  0  0  0  0  0  0  0  0  0  0  0
    7.3564   -3.2075    0.0000 C   0  0  0  0  0  0  0  0  0  0  0  0
    8.0635   -3.9146    0.0000 C   0  0  0  0  0  0  0  0  0  0  0  0
    6.6493   -3.9146    0.0000 C   0  0  0  0  0  0  0  0  0  0  0  0
    6.5474   -2.6197    0.0000 C   0  0  1  0  0  0  0  0  0  0  0  0
    7.3564   -4.6217    0.0000 C   0  0  0  0  0  0  0  0  0  0  0  0
    7.8564   -1.6686    0.0000 C   0  0  0  0  0  0  0  0  0  0  0  0
    5.5963   -2.9287    0.0000 C   0  0  0  0  0  0  0  0  0  0  0  0
    6.2686   -0.8596    0.0000 C   0  0  0  0  0  0  0  0  0  0  0  0
    6.6753    0.0539    0.0000 C   0  0  2  0  0  0  0  0  0  0  0  0
    3.9021   -2.5686    0.0000 C   0  0  1  0  0  0  0  0  0  0  0  0
    6.0876    0.8630    0.0000 C   0  0  2  0  0  0  0  0  0  0  0  0
    3.1590   -1.8994    0.0000 C   0  0  0  0  0  0  0  0  0  0  0  0
    3.6942   -3.5467    0.0000 C   0  0  0  0  0  0  0  0  0  0  0  0
    5.0930    0.7584    0.0000 C   0  0  0  0  0  0  0  0  0  0  0  0
    2.2079   -2.2085    0.0000 C   0  0  0  0  0  0  0  0  0  0  0  0
    2.0000   -3.1866    0.0000 C   0  0  0  0  0  0  0  0  0  0  0  0
    2.7431   -3.8557    0.0000 C   0  0  0  0  0  0  0  0  0  0  0  0
    4.5052    1.5674    0.0000 C   0  0  0  0  0  0  0  0  0  0  0  0
    7.4888    1.8810    0.0000 C   0  0  0  0  0  0  0  0  0  0  0  0
    3.5107    1.4629    0.0000 C   0  0  0  0  0  0  0  0  0  0  0  0
    4.9120    2.4810    0.0000 C   0  0  0  0  0  0  0  0  0  0  0  0
    7.8956    2.7946    0.0000 C   0  0  0  0  0  0  0  0  0  0  0  0
    2.9229    2.2719    0.0000 C   0  0  0  0  0  0  0  0  0  0  0  0
    4.3242    3.2900    0.0000 C   0  0  0  0  0  0  0  0  0  0  0  0
    8.8901    2.8991    0.0000 C   0  0  0  0  0  0  0  0  0  0  0  0
    3.3297    3.1855    0.0000 C   0  0  0  0  0  0  0  0  0  0  0  0
    7.3078    3.6036    0.0000 C   0  0  0  0  0  0  0  0  0  0  0  0
    9.2968    3.8127    0.0000 C   0  0  0  0  0  0  0  0  0  0  0  0
    9.4779    2.0901    0.0000 C   0  0  0  0  0  0  0  0  0  0  0  0
    7.7145    4.5171    0.0000 C   0  0  0  0  0  0  0  0  0  0  0  0
    8.7090    4.6217    0.0000 C   0  0  0  0  0  0  0  0  0  0  0  0
    8.5019   -4.3530    0.0000 H   0  0  0  0  0  0  0  0  0  0  0  0
    8.5019   -3.4762    0.0000 H   0  0  0  0  0  0  0  0  0  0  0  0
    6.2109   -3.4762    0.0000 H   0  0  0  0  0  0  0  0  0  0  0  0
    6.2109   -4.3530    0.0000 H   0  0  0  0  0  0  0  0  0  0  0  0
    6.1090   -2.1813    0.0000 H   0  0  0  0  0  0  0  0  0  0  0  0
    6.9180   -5.0601    0.0000 H   0  0  0  0  0  0  0  0  0  0  0  0
    7.7948   -5.0601    0.0000 H   0  0  0  0  0  0  0  0  0  0  0  0
    8.4628   -1.5397    0.0000 H   0  0  0  0  0  0  0  0  0  0  0  0
    7.7916   -1.0520    0.0000 H   0  0  0  0  0  0  0  0  0  0  0  0
    4.9821   -1.6531    0.0000 H   0  0  0  0  0  0  0  0  0  0  0  0
    6.9275    0.6203    0.0000 H   0  0  0  0  0  0  0  0  0  0  0  0
    4.0310   -1.9621    0.0000 H   0  0  0  0  0  0  0  0  0  0  0  0
    5.7231    1.3646    0.0000 H   0  0  0  0  0  0  0  0  0  0  0  0
    3.6475   -1.5177    0.0000 H   0  0  0  0  0  0  0  0  0  0  0  0
    2.8679   -1.3520    0.0000 H   0  0  0  0  0  0  0  0  0  0  0  0
    4.1550   -3.9616    0.0000 H   0  0  0  0  0  0  0  0  0  0  0  0
    4.5358    0.4866    0.0000 H   0  0  0  0  0  0  0  0  0  0  0  0
    5.2639    0.1625    0.0000 H   0  0  0  0  0  0  0  0  0  0  0  0
    2.1216   -1.5945    0.0000 H   0  0  0  0  0  0  0  0  0  0  0  0
    1.5883   -2.1868    0.0000 H   0  0  0  0  0  0  0  0  0  0  0  0
    8.0343   -0.3431    0.0000 H   0  0  0  0  0  0  0  0  0  0  0  0
    1.4252   -2.9544    0.0000 H   0  0  0  0  0  0  0  0  0  0  0  0
    1.6714   -3.7124    0.0000 H   0  0  0  0  0  0  0  0  0  0  0  0
    6.1299    2.2781    0.0000 H   0  0  0  0  0  0  0  0  0  0  0  0
    2.6142   -4.4622    0.0000 H   0  0  0  0  0  0  0  0  0  0  0  0
    3.2586    0.8965    0.0000 H   0  0  0  0  0  0  0  0  0  0  0  0
    5.5286    2.5458    0.0000 H   0  0  0  0  0  0  0  0  0  0  0  0
    2.3063    2.2071    0.0000 H   0  0  0  0  0  0  0  0  0  0  0  0
    4.5764    3.8564    0.0000 H   0  0  0  0  0  0  0  0  0  0  0  0
    2.9652    3.6871    0.0000 H   0  0  0  0  0  0  0  0  0  0  0  0
    6.6912    3.5388    0.0000 H   0  0  0  0  0  0  0  0  0  0  0  0
    8.9763    1.7257    0.0000 H   0  0  0  0  0  0  0  0  0  0  0  0
    9.8423    1.5885    0.0000 H   0  0  0  0  0  0  0  0  0  0  0  0
    9.9794    2.4545    0.0000 H   0  0  0  0  0  0  0  0  0  0  0  0
    7.3501    5.0187    0.0000 H   0  0  0  0  0  0  0  0  0  0  0  0
    8.9612    5.1881    0.0000 H   0  0  0  0  0  0  0  0  0  0  0  0
   10.5435    4.4836    0.0000 H   0  0  0  0  0  0  0  0  0  0  0  0
  1 10  1  0  0  0  0
  1 15  1  0  0  0  0
  2 16  2  0  0  0  0
  3 17  2  0  0  0  0
 18  4  1  6  0  0  0
  4 61  1  0  0  0  0
  5 28  2  0  0  0  0
  6 37  1  0  0  0  0
  6 77  1  0  0  0  0
  7 13  1  0  0  0  0
  7 15  1  0  0  0  0
  7 17  1  0  0  0  0
  8 16  1  0  0  0  0
 19  8  1  6  0  0  0
  8 50  1  0  0  0  0
 20  9  1  6  0  0  0
  9 28  1  0  0  0  0
  9 64  1  0  0  0  0
 10 11  1  0  0  0  0
 10 12  1  0  0  0  0
 10 13  1  0  0  0  0
 11 14  1  0  0  0  0
 11 41  1  0  0  0  0
 11 42  1  0  0  0  0
 12 14  1  0  0  0  0
 12 43  1  0  0  0  0
 12 44  1  0  0  0  0
 13 16  1  1  0  0  0
 13 45  1  0  0  0  0
 14 46  1  0  0  0  0
 14 47  1  0  0  0  0
 15 48  1  0  0  0  0
 15 49  1  0  0  0  0
 17 18  1  0  0  0  0
 18 20  1  0  0  0  0
 18 51  1  0  0  0  0
 19 21  1  0  0  0  0
 19 22  1  0  0  0  0
 19 52  1  0  0  0  0
 20 23  1  0  0  0  0
 20 53  1  0  0  0  0
 21 24  1  0  0  0  0
 21 54  1  0  0  0  0
 21 55  1  0  0  0  0
 22 26  2  0  0  0  0
 22 56  1  0  0  0  0
 23 27  1  0  0  0  0
 23 57  1  0  0  0  0
 23 58  1  0  0  0  0
 24 25  1  0  0  0  0
 24 59  1  0  0  0  0
 24 60  1  0  0  0  0
 25 26  1  0  0  0  0
 25 62  1  0  0  0  0
 25 63  1  0  0  0  0
 26 65  1  0  0  0  0
 27 29  2  0  0  0  0
 27 30  1  0  0  0  0
 28 31  1  0  0  0  0
 29 32  1  0  0  0  0
 29 66  1  0  0  0  0
 30 33  2  0  0  0  0
 30 67  1  0  0  0  0
 31 34  2  0  0  0  0
 31 36  1  0  0  0  0
 32 35  2  0  0  0  0
 32 68  1  0  0  0  0
 33 35  1  0  0  0  0
 33 69  1  0  0  0  0
 34 37  1  0  0  0  0
 34 38  1  0  0  0  0
 35 70  1  0  0  0  0
 36 39  2  0  0  0  0
 36 71  1  0  0  0  0
 37 40  2  0  0  0  0
 38 72  1  0  0  0  0
 38 73  1  0  0  0  0
 38 74  1  0  0  0  0
 39 40  1  0  0  0  0
 39 75  1  0  0  0  0
 40 76  1  0  0  0  0
M  END
> <PUBCHEM_COMPOUND_CID>
514641
> <PUBCHEM_COMPOUND_CANONICALIZED>
1
> <PUBCHEM_CACTVS_COMPLEXITY>
949
> <PUBCHEM_CACTVS_HBOND_ACCEPTOR>
6
> <PUBCHEM_CACTVS_HBOND_DONOR>
4
> <PUBCHEM_CACTVS_ROTATABLE_BOND>
8
> <PUBCHEM_CACTVS_SUBSKEYS>
AAADcfB7OABAAAAAAAAAAAAAAABgAWAAAAAwYIAAAAAAAAABQAAAHgQQCAAADDzh2AayBoPAAgiIAiFSEAKCAABkIBAIiIHODMgKdjqi1TOUcQhk1hGYmYe6yLCOgAABAAAYAAAAAAIAADAAAAAAAAAAAA==
> <PUBCHEM_IUPAC_OPENEYE_NAME>
(8R)-N-[(1S)-cyclohex-2-en-1-yl]-7-[(2S,3S)-2-hydroxy-3-[(3-hydroxy-2-methyl-benzoyl)amino]-4-phenyl-butanoyl]-5-thia-7-azaspiro[3.4]octane-8-carboxamide
> <PUBCHEM_IUPAC_CAS_NAME>
(8R)-N-[(1S)-1-cyclohex-2-enyl]-7-[(2S,3S)-2-hydroxy-3-[[(3-hydroxy-2-methylphenyl)-oxomethyl]amino]-1-oxo-4-phenylbutyl]-5-thia-7-azaspiro[3.4]octane-8-carboxamide
> <PUBCHEM_IUPAC_NAME_MARKUP>
(8<I>R</I>)-<I>N</I>-[(1<I>S</I>)-cyclohex-2-en-1-yl]-7-[(2<I>S</I>,3<I>S</I>)-2-hydroxy-3-[(3-hydroxy-2-methylbenzoyl)amino]-4-phenylbutanoyl]-5-thia-7-azaspiro[3.4]octane-8-carboxamide
> <PUBCHEM_IUPAC_NAME>
(8R)-N-[(1S)-cyclohex-2-en-1-yl]-7-[(2S,3S)-2-hydroxy-3-[(3-hydroxy-2-methylbenzoyl)amino]-4-phenylbutanoyl]-5-thia-7-azaspiro[3.4]octane-8-carboxamide
> <PUBCHEM_IUPAC_SYSTEMATIC_NAME>
(8R)-N-[(1S)-cyclohex-2-en-1-yl]-7-[(2S,3S)-3-[(2-methyl-3-oxidanyl-phenyl)carbonylamino]-2-oxidanyl-4-phenyl-butanoyl]-5-thia-7-azaspiro[3.4]octane-8-carboxamide
> <PUBCHEM_IUPAC_TRADITIONAL_NAME>
(8R)-N-[(1S)-cyclohex-2-en-1-yl]-7-[(2S,3S)-2-hydroxy-3-[(3-hydroxy-2-methyl-benzoyl)amino]-4-phenyl-butanoyl]-5-thia-7-azaspiro[3.4]octane-8-carboxamide
> <PUBCHEM_IUPAC_INCHI>
InChI=1S/C31H37N3O5S/c1-20-23(14-8-15-25(20)35)28(37)33-24(18-21-10-4-2-5-11-21)26(36)30(39)34-19-40-31(16-9-17-31)27(34)29(38)32-22-12-6-3-7-13-22/h2,4-6,8,10-12,14-15,22,24,26-27,35-36H,3,7,9,13,16-19H2,1H3,(H,32,38)(H,33,37)/t22-,24+,26+,27-/m1/s1
> <PUBCHEM_IUPAC_INCHIKEY>
JJCPHWDOLKFABR-PPKJMBTNSA-N
> <PUBCHEM_XLOGP3_AA>
4.2
> <PUBCHEM_EXACT_MASS>
563.24539246
> <PUBCHEM_MOLECULAR_FORMULA>
C31H37N3O5S
> <PUBCHEM_MOLECULAR_WEIGHT>
563.7
> <PUBCHEM_OPENEYE_CAN_SMILES>
CC1=C(C=CC=C1O)C(=O)NC(CC2=CC=CC=C2)C(C(=O)N3CSC4(C3C(=O)NC5CCCC=C5)CCC4)O
> <PUBCHEM_OPENEYE_ISO_SMILES>
CC1=C(C=CC=C1O)C(=O)N[C@@H](CC2=CC=CC=C2)[C@@H](C(=O)N3CSC4([C@H]3C(=O)N[C@H]5CCCC=C5)CCC4)O
> <PUBCHEM_CACTVS_TPSA>
144
> <PUBCHEM_MONOISOTOPIC_WEIGHT>
563.24539246
> <PUBCHEM_TOTAL_CHARGE>
0
> <PUBCHEM_HEAVY_ATOM_COUNT>
40
> <PUBCHEM_ATOM_DEF_STEREO_COUNT>
4
> <PUBCHEM_ATOM_UDEF_STEREO_COUNT>
0
> <PUBCHEM_BOND_DEF_STEREO_COUNT>
0
> <PUBCHEM_BOND_UDEF_STEREO_COUNT>
0
> <PUBCHEM_ISOTOPIC_ATOM_COUNT>
0
> <PUBCHEM_COMPONENT_COUNT>
1
> <PUBCHEM_CACTVS_TAUTO_COUNT>
-1
> <PUBCHEM_COORDINATE_TYPE>
1
5
255
> <PUBCHEM_BONDANNOTATIONS>
13  16  5
27  29  8
27  30  8
29  32  8
30  33  8
31  34  8
31  36  8
32  35  8
33  35  8
34  37  8
36  39  8
37  40  8
39  40  8
18  4  6
19  8  6
20  9  6
$$$$
