514602
  -OEChem-10302200282D
 83 87  0     1  0  0  0  0  0999 V2000
    4.5878   -2.5170    0.0000 S   0  0  0  0  0  0  0  0  0  0  0  0
    3.3006    0.2600    0.0000 O   0  0  0  0  0  0  0  0  0  0  0  0
    6.2433    0.3743    0.0000 O   0  0  0  0  0  0  0  0  0  0  0  0
    7.3659   -2.0215    0.0000 O   0  0  0  0  0  0  0  0  0  0  0  0
    8.2795   -2.4282    0.0000 O   0  0  0  0  0  0  0  0  0  0  0  0
   12.5336   -1.4783    0.0000 O   0  0  0  0  0  0  0  0  0  0  0  0
    5.5388   -1.2080    0.0000 N   0  0  0  0  0  0  0  0  0  0  0  0
    4.9479    0.7952    0.0000 N   0  0  0  0  0  0  0  0  0  0  0  0
    8.9840   -0.8459    0.0000 N   0  0  0  0  0  0  0  0  0  0  0  0
    4.0000   -1.7080    0.0000 C   0  0  0  0  0  0  0  0  0  0  0  0
    4.5878   -0.8990    0.0000 C   0  0  1  0  0  0  0  0  0  0  0  0
    3.5000   -2.5740    0.0000 C   0  0  0  0  0  0  0  0  0  0  0  0
    3.5000   -0.8420    0.0000 C   0  0  0  0  0  0  0  0  0  0  0  0
    2.5000   -2.5740    0.0000 C   0  0  0  0  0  0  0  0  0  0  0  0
    2.5000   -0.8420    0.0000 C   0  0  0  0  0  0  0  0  0  0  0  0
    2.0000   -1.7080    0.0000 C   0  0  0  0  0  0  0  0  0  0  0  0
    5.5388   -2.2080    0.0000 C   0  0  0  0  0  0  0  0  0  0  0  0
    4.2788    0.0521    0.0000 C   0  0  0  0  0  0  0  0  0  0  0  0
    6.3479   -0.6202    0.0000 C   0  0  0  0  0  0  0  0  0  0  0  0
    7.2614   -1.0269    0.0000 C   0  0  2  0  0  0  0  0  0  0  0  0
    4.6389    1.7463    0.0000 C   0  0  1  0  0  0  0  0  0  0  0  0
    8.0704   -0.4392    0.0000 C   0  0  2  0  0  0  0  0  0  0  0  0
    5.3080    2.4894    0.0000 C   0  0  0  0  0  0  0  0  0  0  0  0
    3.6607    1.9542    0.0000 C   0  0  0  0  0  0  0  0  0  0  0  0
    4.9990    3.4405    0.0000 C   0  0  0  0  0  0  0  0  0  0  0  0
    7.9659    0.5554    0.0000 C   0  0  0  0  0  0  0  0  0  0  0  0
    4.0208    3.6484    0.0000 C   0  0  0  0  0  0  0  0  0  0  0  0
    3.3517    2.9053    0.0000 C   0  0  0  0  0  0  0  0  0  0  0  0
    8.7749    1.1432    0.0000 C   0  0  0  0  0  0  0  0  0  0  0  0
    9.0885   -1.8404    0.0000 C   0  0  0  0  0  0  0  0  0  0  0  0
    8.6704    2.1377    0.0000 C   0  0  0  0  0  0  0  0  0  0  0  0
    9.6885    0.7364    0.0000 C   0  0  0  0  0  0  0  0  0  0  0  0
   10.0020   -2.2472    0.0000 C   0  0  0  0  0  0  0  0  0  0  0  0
    9.4794    2.7255    0.0000 C   0  0  0  0  0  0  0  0  0  0  0  0
   10.4975    1.3242    0.0000 C   0  0  0  0  0  0  0  0  0  0  0  0
   10.8111   -1.6594    0.0000 C   0  0  0  0  0  0  0  0  0  0  0  0
   10.3929    2.3187    0.0000 C   0  0  0  0  0  0  0  0  0  0  0  0
   10.1066   -3.2417    0.0000 C   0  0  0  0  0  0  0  0  0  0  0  0
   11.7246   -2.0661    0.0000 C   0  0  0  0  0  0  0  0  0  0  0  0
   10.7065   -0.6648    0.0000 C   0  0  0  0  0  0  0  0  0  0  0  0
   11.0201   -3.6484    0.0000 C   0  0  0  0  0  0  0  0  0  0  0  0
   11.8291   -3.0606    0.0000 C   0  0  0  0  0  0  0  0  0  0  0  0
    5.0262   -0.4606    0.0000 H   0  0  0  0  0  0  0  0  0  0  0  0
    3.3923   -3.1846    0.0000 H   0  0  0  0  0  0  0  0  0  0  0  0
    4.0826   -2.7861    0.0000 H   0  0  0  0  0  0  0  0  0  0  0  0
    4.0826   -0.6299    0.0000 H   0  0  0  0  0  0  0  0  0  0  0  0
    3.3923   -0.2314    0.0000 H   0  0  0  0  0  0  0  0  0  0  0  0
    1.9174   -2.7861    0.0000 H   0  0  0  0  0  0  0  0  0  0  0  0
    2.6077   -3.1846    0.0000 H   0  0  0  0  0  0  0  0  0  0  0  0
    2.6077   -0.2314    0.0000 H   0  0  0  0  0  0  0  0  0  0  0  0
    1.9174   -0.6299    0.0000 H   0  0  0  0  0  0  0  0  0  0  0  0
    1.5250   -1.3095    0.0000 H   0  0  0  0  0  0  0  0  0  0  0  0
    1.5250   -2.1065    0.0000 H   0  0  0  0  0  0  0  0  0  0  0  0
    5.6678   -2.8144    0.0000 H   0  0  0  0  0  0  0  0  0  0  0  0
    6.1554   -2.1432    0.0000 H   0  0  0  0  0  0  0  0  0  0  0  0
    5.5544    0.6663    0.0000 H   0  0  0  0  0  0  0  0  0  0  0  0
    6.7598   -1.3914    0.0000 H   0  0  0  0  0  0  0  0  0  0  0  0
    4.2240    1.2855    0.0000 H   0  0  0  0  0  0  0  0  0  0  0  0
    8.1352   -1.0558    0.0000 H   0  0  0  0  0  0  0  0  0  0  0  0
    5.6897    2.0009    0.0000 H   0  0  0  0  0  0  0  0  0  0  0  0
    5.8554    2.7805    0.0000 H   0  0  0  0  0  0  0  0  0  0  0  0
    3.2459    1.4934    0.0000 H   0  0  0  0  0  0  0  0  0  0  0  0
    5.6130    3.5268    0.0000 H   0  0  0  0  0  0  0  0  0  0  0  0
    5.0206    4.0601    0.0000 H   0  0  0  0  0  0  0  0  0  0  0  0
    7.6941    1.1126    0.0000 H   0  0  0  0  0  0  0  0  0  0  0  0
    7.3699    0.3845    0.0000 H   0  0  0  0  0  0  0  0  0  0  0  0
    6.8643   -2.3859    0.0000 H   0  0  0  0  0  0  0  0  0  0  0  0
    4.2531    4.2233    0.0000 H   0  0  0  0  0  0  0  0  0  0  0  0
    3.4951    3.9770    0.0000 H   0  0  0  0  0  0  0  0  0  0  0  0
    9.4856   -0.4815    0.0000 H   0  0  0  0  0  0  0  0  0  0  0  0
    2.7453    3.0342    0.0000 H   0  0  0  0  0  0  0  0  0  0  0  0
    8.1040    2.3899    0.0000 H   0  0  0  0  0  0  0  0  0  0  0  0
    9.7533    0.1198    0.0000 H   0  0  0  0  0  0  0  0  0  0  0  0
    9.4146    3.3421    0.0000 H   0  0  0  0  0  0  0  0  0  0  0  0
   11.0639    1.0720    0.0000 H   0  0  0  0  0  0  0  0  0  0  0  0
   10.8945    2.6832    0.0000 H   0  0  0  0  0  0  0  0  0  0  0  0
    9.6050   -3.6061    0.0000 H   0  0  0  0  0  0  0  0  0  0  0  0
   11.3231   -0.6000    0.0000 H   0  0  0  0  0  0  0  0  0  0  0  0
   10.6417   -0.0482    0.0000 H   0  0  0  0  0  0  0  0  0  0  0  0
   10.0899   -0.7296    0.0000 H   0  0  0  0  0  0  0  0  0  0  0  0
   11.0849   -4.2650    0.0000 H   0  0  0  0  0  0  0  0  0  0  0  0
   12.3955   -3.3128    0.0000 H   0  0  0  0  0  0  0  0  0  0  0  0
   13.1000   -1.7305    0.0000 H   0  0  0  0  0  0  0  0  0  0  0  0
  1 10  1  0  0  0  0
  1 17  1  0  0  0  0
  2 18  2  0  0  0  0
  3 19  2  0  0  0  0
 20  4  1  6  0  0  0
  4 67  1  0  0  0  0
  5 30  2  0  0  0  0
  6 39  1  0  0  0  0
  6 83  1  0  0  0  0
  7 11  1  0  0  0  0
  7 17  1  0  0  0  0
  7 19  1  0  0  0  0
  8 18  1  0  0  0  0
 21  8  1  6  0  0  0
  8 56  1  0  0  0  0
 22  9  1  6  0  0  0
  9 30  1  0  0  0  0
  9 70  1  0  0  0  0
 10 11  1  0  0  0  0
 10 12  1  0  0  0  0
 10 13  1  0  0  0  0
 11 18  1  1  0  0  0
 11 43  1  0  0  0  0
 12 14  1  0  0  0  0
 12 44  1  0  0  0  0
 12 45  1  0  0  0  0
 13 15  1  0  0  0  0
 13 46  1  0  0  0  0
 13 47  1  0  0  0  0
 14 16  1  0  0  0  0
 14 48  1  0  0  0  0
 14 49  1  0  0  0  0
 15 16  1  0  0  0  0
 15 50  1  0  0  0  0
 15 51  1  0  0  0  0
 16 52  1  0  0  0  0
 16 53  1  0  0  0  0
 17 54  1  0  0  0  0
 17 55  1  0  0  0  0
 19 20  1  0  0  0  0
 20 22  1  0  0  0  0
 20 57  1  0  0  0  0
 21 23  1  0  0  0  0
 21 24  1  0  0  0  0
 21 58  1  0  0  0  0
 22 26  1  0  0  0  0
 22 59  1  0  0  0  0
 23 25  1  0  0  0  0
 23 60  1  0  0  0  0
 23 61  1  0  0  0  0
 24 28  2  0  0  0  0
 24 62  1  0  0  0  0
 25 27  1  0  0  0  0
 25 63  1  0  0  0  0
 25 64  1  0  0  0  0
 26 29  1  0  0  0  0
 26 65  1  0  0  0  0
 26 66  1  0  0  0  0
 27 28  1  0  0  0  0
 27 68  1  0  0  0  0
 27 69  1  0  0  0  0
 28 71  1  0  0  0  0
 29 31  2  0  0  0  0
 29 32  1  0  0  0  0
 30 33  1  0  0  0  0
 31 34  1  0  0  0  0
 31 72  1  0  0  0  0
 32 35  2  0  0  0  0
 32 73  1  0  0  0  0
 33 36  2  0  0  0  0
 33 38  1  0  0  0  0
 34 37  2  0  0  0  0
 34 74  1  0  0  0  0
 35 37  1  0  0  0  0
 35 75  1  0  0  0  0
 36 39  1  0  0  0  0
 36 40  1  0  0  0  0
 37 76  1  0  0  0  0
 38 41  2  0  0  0  0
 38 77  1  0  0  0  0
 39 42  2  0  0  0  0
 40 78  1  0  0  0  0
 40 79  1  0  0  0  0
 40 80  1  0  0  0  0
 41 42  1  0  0  0  0
 41 81  1  0  0  0  0
 42 82  1  0  0  0  0
M  END
> <PUBCHEM_COMPOUND_CID>
514602
> <PUBCHEM_COMPOUND_CANONICALIZED>
1
> <PUBCHEM_CACTVS_COMPLEXITY>
979
> <PUBCHEM_CACTVS_HBOND_ACCEPTOR>
6
> <PUBCHEM_CACTVS_HBOND_DONOR>
4
> <PUBCHEM_CACTVS_ROTATABLE_BOND>
8
> <PUBCHEM_CACTVS_SUBSKEYS>
AAADcfB/OABAAAAAAAAAAAAAAAAAAWAAAAAwYMEAAAAAAAABQAAAHgQQCAAADDzh2AayBoPAAgiIAiFSEAKCAABkIBAIiIHODMgKdjqi1TOUcQhk1hGYmYe6yLCOgAABAAAYAAAAAAIAADAAAAAAAAAAAA==
> <PUBCHEM_IUPAC_OPENEYE_NAME>
(4R)-N-[(1S)-cyclohex-2-en-1-yl]-3-[(2S,3S)-2-hydroxy-3-[(3-hydroxy-2-methyl-benzoyl)amino]-4-phenyl-butanoyl]-1-thia-3-azaspiro[4.5]decane-4-carboxamide
> <PUBCHEM_IUPAC_CAS_NAME>
(4R)-N-[(1S)-1-cyclohex-2-enyl]-3-[(2S,3S)-2-hydroxy-3-[[(3-hydroxy-2-methylphenyl)-oxomethyl]amino]-1-oxo-4-phenylbutyl]-1-thia-3-azaspiro[4.5]decane-4-carboxamide
> <PUBCHEM_IUPAC_NAME_MARKUP>
(4<I>R</I>)-<I>N</I>-[(1<I>S</I>)-cyclohex-2-en-1-yl]-3-[(2<I>S</I>,3<I>S</I>)-2-hydroxy-3-[(3-hydroxy-2-methylbenzoyl)amino]-4-phenylbutanoyl]-1-thia-3-azaspiro[4.5]decane-4-carboxamide
> <PUBCHEM_IUPAC_NAME>
(4R)-N-[(1S)-cyclohex-2-en-1-yl]-3-[(2S,3S)-2-hydroxy-3-[(3-hydroxy-2-methylbenzoyl)amino]-4-phenylbutanoyl]-1-thia-3-azaspiro[4.5]decane-4-carboxamide
> <PUBCHEM_IUPAC_SYSTEMATIC_NAME>
(4R)-N-[(1S)-cyclohex-2-en-1-yl]-3-[(2S,3S)-3-[(2-methyl-3-oxidanyl-phenyl)carbonylamino]-2-oxidanyl-4-phenyl-butanoyl]-1-thia-3-azaspiro[4.5]decane-4-carboxamide
> <PUBCHEM_IUPAC_TRADITIONAL_NAME>
(4R)-N-[(1S)-cyclohex-2-en-1-yl]-3-[(2S,3S)-2-hydroxy-3-[(3-hydroxy-2-methyl-benzoyl)amino]-4-phenyl-butanoyl]-1-thia-3-azaspiro[4.5]decane-4-carboxamide
> <PUBCHEM_IUPAC_INCHI>
InChI=1S/C33H41N3O5S/c1-22-25(16-11-17-27(22)37)30(39)35-26(20-23-12-5-2-6-13-23)28(38)32(41)36-21-42-33(18-9-4-10-19-33)29(36)31(40)34-24-14-7-3-8-15-24/h2,5-7,11-14,16-17,24,26,28-29,37-38H,3-4,8-10,15,18-21H2,1H3,(H,34,40)(H,35,39)/t24-,26+,28+,29-/m1/s1
> <PUBCHEM_IUPAC_INCHIKEY>
IIMHPATUFJKZIZ-MVWACUTHSA-N
> <PUBCHEM_XLOGP3_AA>
5.1
> <PUBCHEM_EXACT_MASS>
591.27669259
> <PUBCHEM_MOLECULAR_FORMULA>
C33H41N3O5S
> <PUBCHEM_MOLECULAR_WEIGHT>
591.8
> <PUBCHEM_OPENEYE_CAN_SMILES>
CC1=C(C=CC=C1O)C(=O)NC(CC2=CC=CC=C2)C(C(=O)N3CSC4(C3C(=O)NC5CCCC=C5)CCCCC4)O
> <PUBCHEM_OPENEYE_ISO_SMILES>
CC1=C(C=CC=C1O)C(=O)N[C@@H](CC2=CC=CC=C2)[C@@H](C(=O)N3CSC4([C@H]3C(=O)N[C@H]5CCCC=C5)CCCCC4)O
> <PUBCHEM_CACTVS_TPSA>
144
> <PUBCHEM_MONOISOTOPIC_WEIGHT>
591.27669259
> <PUBCHEM_TOTAL_CHARGE>
0
> <PUBCHEM_HEAVY_ATOM_COUNT>
42
> <PUBCHEM_ATOM_DEF_STEREO_COUNT>
4
> <PUBCHEM_ATOM_UDEF_STEREO_COUNT>
0
> <PUBCHEM_BOND_DEF_STEREO_COUNT>
0
> <PUBCHEM_BOND_UDEF_STEREO_COUNT>
0
> <PUBCHEM_ISOTOPIC_ATOM_COUNT>
0
> <PUBCHEM_COMPONENT_COUNT>
1
> <PUBCHEM_CACTVS_TAUTO_COUNT>
-1
> <PUBCHEM_COORDINATE_TYPE>
1
5
255
> <PUBCHEM_BONDANNOTATIONS>
11  18  5
29  31  8
29  32  8
31  34  8
32  35  8
33  36  8
33  38  8
34  37  8
35  37  8
36  39  8
38  41  8
39  42  8
20  4  6
41  42  8
21  8  6
22  9  6
$$$$
