514638
  -OEChem-10302200282D
 82 86  0     1  0  0  0  0  0999 V2000
    9.6517   -3.1928    0.0000 S   0  0  0  0  0  0  0  0  0  0  0  0
    2.0000   -2.4215    0.0000 F   0  0  0  0  0  0  0  0  0  0  0  0
    6.8747   -4.4800    0.0000 O   0  0  0  0  0  0  0  0  0  0  0  0
    6.7604   -1.5373    0.0000 O   0  0  0  0  0  0  0  0  0  0  0  0
    9.1562   -0.4147    0.0000 O   0  0  0  0  0  0  0  0  0  0  0  0
    9.5629    0.4989    0.0000 O   0  0  0  0  0  0  0  0  0  0  0  0
    8.6130    4.7530    0.0000 O   0  0  0  0  0  0  0  0  0  0  0  0
    8.3427   -2.2418    0.0000 N   0  0  0  0  0  0  0  0  0  0  0  0
    6.3395   -2.8327    0.0000 N   0  0  0  0  0  0  0  0  0  0  0  0
    7.9806    1.2034    0.0000 N   0  0  0  0  0  0  0  0  0  0  0  0
    8.8427   -3.7806    0.0000 C   0  0  0  0  0  0  0  0  0  0  0  0
    8.0337   -3.1928    0.0000 C   0  0  1  0  0  0  0  0  0  0  0  0
    9.6517   -4.3684    0.0000 C   0  0  0  0  0  0  0  0  0  0  0  0
    8.0337   -4.3684    0.0000 C   0  0  0  0  0  0  0  0  0  0  0  0
    9.3427   -5.3194    0.0000 C   0  0  0  0  0  0  0  0  0  0  0  0
    8.3427   -5.3194    0.0000 C   0  0  0  0  0  0  0  0  0  0  0  0
    9.3427   -2.2418    0.0000 C   0  0  0  0  0  0  0  0  0  0  0  0
    7.0826   -3.5018    0.0000 C   0  0  0  0  0  0  0  0  0  0  0  0
    7.7549   -1.4327    0.0000 C   0  0  0  0  0  0  0  0  0  0  0  0
    8.1616   -0.5192    0.0000 C   0  0  2  0  0  0  0  0  0  0  0  0
    7.5738    0.2898    0.0000 C   0  0  2  0  0  0  0  0  0  0  0  0
    5.3884   -3.1417    0.0000 C   0  0  0  0  0  0  0  0  0  0  0  0
    6.5793    0.1853    0.0000 C   0  0  0  0  0  0  0  0  0  0  0  0
    4.6453   -2.4726    0.0000 C   0  0  0  0  0  0  0  0  0  0  0  0
    5.9915    0.9943    0.0000 C   0  0  0  0  0  0  0  0  0  0  0  0
    8.9751    1.3079    0.0000 C   0  0  0  0  0  0  0  0  0  0  0  0
    4.8532   -1.4944    0.0000 C   0  0  0  0  0  0  0  0  0  0  0  0
    3.6942   -2.7816    0.0000 C   0  0  0  0  0  0  0  0  0  0  0  0
    4.9970    0.8898    0.0000 C   0  0  0  0  0  0  0  0  0  0  0  0
    6.3983    1.9079    0.0000 C   0  0  0  0  0  0  0  0  0  0  0  0
    9.3818    2.2214    0.0000 C   0  0  0  0  0  0  0  0  0  0  0  0
    4.1100   -0.8253    0.0000 C   0  0  0  0  0  0  0  0  0  0  0  0
    5.8042   -1.1854    0.0000 C   0  0  0  0  0  0  0  0  0  0  0  0
    2.9511   -2.1125    0.0000 C   0  0  0  0  0  0  0  0  0  0  0  0
    3.1590   -1.1343    0.0000 C   0  0  0  0  0  0  0  0  0  0  0  0
    4.4092    1.6988    0.0000 C   0  0  0  0  0  0  0  0  0  0  0  0
    5.8105    2.7169    0.0000 C   0  0  0  0  0  0  0  0  0  0  0  0
    8.7940    3.0305    0.0000 C   0  0  0  0  0  0  0  0  0  0  0  0
    4.8160    2.6124    0.0000 C   0  0  0  0  0  0  0  0  0  0  0  0
   10.3764    2.3260    0.0000 C   0  0  0  0  0  0  0  0  0  0  0  0
    9.2008    3.9440    0.0000 C   0  0  0  0  0  0  0  0  0  0  0  0
    7.7995    2.9259    0.0000 C   0  0  0  0  0  0  0  0  0  0  0  0
   10.7831    3.2395    0.0000 C   0  0  0  0  0  0  0  0  0  0  0  0
   10.1953    4.0485    0.0000 C   0  0  0  0  0  0  0  0  0  0  0  0
    7.5952   -2.7544    0.0000 H   0  0  0  0  0  0  0  0  0  0  0  0
   10.2181   -4.6206    0.0000 H   0  0  0  0  0  0  0  0  0  0  0  0
    9.9617   -3.8314    0.0000 H   0  0  0  0  0  0  0  0  0  0  0  0
    7.7237   -3.8314    0.0000 H   0  0  0  0  0  0  0  0  0  0  0  0
    7.4673   -4.6206    0.0000 H   0  0  0  0  0  0  0  0  0  0  0  0
    9.2779   -5.9360    0.0000 H   0  0  0  0  0  0  0  0  0  0  0  0
    9.9491   -5.4483    0.0000 H   0  0  0  0  0  0  0  0  0  0  0  0
    7.7362   -5.4483    0.0000 H   0  0  0  0  0  0  0  0  0  0  0  0
    8.4075   -5.9360    0.0000 H   0  0  0  0  0  0  0  0  0  0  0  0
    9.9491   -2.1128    0.0000 H   0  0  0  0  0  0  0  0  0  0  0  0
    9.2779   -1.6251    0.0000 H   0  0  0  0  0  0  0  0  0  0  0  0
    8.4138    0.0472    0.0000 H   0  0  0  0  0  0  0  0  0  0  0  0
    6.4684   -2.2262    0.0000 H   0  0  0  0  0  0  0  0  0  0  0  0
    7.2094    0.7914    0.0000 H   0  0  0  0  0  0  0  0  0  0  0  0
    4.8998   -3.5234    0.0000 H   0  0  0  0  0  0  0  0  0  0  0  0
    5.6795   -3.6891    0.0000 H   0  0  0  0  0  0  0  0  0  0  0  0
    6.0221   -0.0865    0.0000 H   0  0  0  0  0  0  0  0  0  0  0  0
    6.7502   -0.4107    0.0000 H   0  0  0  0  0  0  0  0  0  0  0  0
    9.5206   -0.9162    0.0000 H   0  0  0  0  0  0  0  0  0  0  0  0
    7.6162    1.7050    0.0000 H   0  0  0  0  0  0  0  0  0  0  0  0
    3.5653   -3.3880    0.0000 H   0  0  0  0  0  0  0  0  0  0  0  0
    4.7448    0.3234    0.0000 H   0  0  0  0  0  0  0  0  0  0  0  0
    7.0149    1.9727    0.0000 H   0  0  0  0  0  0  0  0  0  0  0  0
    4.2389   -0.2188    0.0000 H   0  0  0  0  0  0  0  0  0  0  0  0
    5.9958   -1.7751    0.0000 H   0  0  0  0  0  0  0  0  0  0  0  0
    6.3939   -0.9938    0.0000 H   0  0  0  0  0  0  0  0  0  0  0  0
    5.6126   -0.5958    0.0000 H   0  0  0  0  0  0  0  0  0  0  0  0
    2.6982   -0.7195    0.0000 H   0  0  0  0  0  0  0  0  0  0  0  0
    3.7926    1.6340    0.0000 H   0  0  0  0  0  0  0  0  0  0  0  0
    6.0627    3.2833    0.0000 H   0  0  0  0  0  0  0  0  0  0  0  0
    4.4515    3.1140    0.0000 H   0  0  0  0  0  0  0  0  0  0  0  0
   10.7408    1.8244    0.0000 H   0  0  0  0  0  0  0  0  0  0  0  0
    7.7347    3.5425    0.0000 H   0  0  0  0  0  0  0  0  0  0  0  0
    7.1829    2.8611    0.0000 H   0  0  0  0  0  0  0  0  0  0  0  0
    7.8643    2.3093    0.0000 H   0  0  0  0  0  0  0  0  0  0  0  0
   11.3997    3.3043    0.0000 H   0  0  0  0  0  0  0  0  0  0  0  0
   10.4475    4.6149    0.0000 H   0  0  0  0  0  0  0  0  0  0  0  0
    8.8652    5.3194    0.0000 H   0  0  0  0  0  0  0  0  0  0  0  0
  1 11  1  0  0  0  0
  1 17  1  0  0  0  0
  2 34  1  0  0  0  0
  3 18  2  0  0  0  0
  4 19  2  0  0  0  0
 20  5  1  6  0  0  0
  5 63  1  0  0  0  0
  6 26  2  0  0  0  0
  7 41  1  0  0  0  0
  7 82  1  0  0  0  0
  8 12  1  0  0  0  0
  8 17  1  0  0  0  0
  8 19  1  0  0  0  0
  9 18  1  0  0  0  0
  9 22  1  0  0  0  0
  9 57  1  0  0  0  0
 21 10  1  6  0  0  0
 10 26  1  0  0  0  0
 10 64  1  0  0  0  0
 11 12  1  0  0  0  0
 11 13  1  0  0  0  0
 11 14  1  0  0  0  0
 12 18  1  1  0  0  0
 12 45  1  0  0  0  0
 13 15  1  0  0  0  0
 13 46  1  0  0  0  0
 13 47  1  0  0  0  0
 14 16  1  0  0  0  0
 14 48  1  0  0  0  0
 14 49  1  0  0  0  0
 15 16  1  0  0  0  0
 15 50  1  0  0  0  0
 15 51  1  0  0  0  0
 16 52  1  0  0  0  0
 16 53  1  0  0  0  0
 17 54  1  0  0  0  0
 17 55  1  0  0  0  0
 19 20  1  0  0  0  0
 20 21  1  0  0  0  0
 20 56  1  0  0  0  0
 21 23  1  0  0  0  0
 21 58  1  0  0  0  0
 22 24  1  0  0  0  0
 22 59  1  0  0  0  0
 22 60  1  0  0  0  0
 23 25  1  0  0  0  0
 23 61  1  0  0  0  0
 23 62  1  0  0  0  0
 24 27  2  0  0  0  0
 24 28  1  0  0  0  0
 25 29  2  0  0  0  0
 25 30  1  0  0  0  0
 26 31  1  0  0  0  0
 27 32  1  0  0  0  0
 27 33  1  0  0  0  0
 28 34  2  0  0  0  0
 28 65  1  0  0  0  0
 29 36  1  0  0  0  0
 29 66  1  0  0  0  0
 30 37  2  0  0  0  0
 30 67  1  0  0  0  0
 31 38  2  0  0  0  0
 31 40  1  0  0  0  0
 32 35  2  0  0  0  0
 32 68  1  0  0  0  0
 33 69  1  0  0  0  0
 33 70  1  0  0  0  0
 33 71  1  0  0  0  0
 34 35  1  0  0  0  0
 35 72  1  0  0  0  0
 36 39  2  0  0  0  0
 36 73  1  0  0  0  0
 37 39  1  0  0  0  0
 37 74  1  0  0  0  0
 38 41  1  0  0  0  0
 38 42  1  0  0  0  0
 39 75  1  0  0  0  0
 40 43  2  0  0  0  0
 40 76  1  0  0  0  0
 41 44  2  0  0  0  0
 42 77  1  0  0  0  0
 42 78  1  0  0  0  0
 42 79  1  0  0  0  0
 43 44  1  0  0  0  0
 43 80  1  0  0  0  0
 44 81  1  0  0  0  0
M  END
> <PUBCHEM_COMPOUND_CID>
514638
> <PUBCHEM_COMPOUND_CANONICALIZED>
1
> <PUBCHEM_CACTVS_COMPLEXITY>
1010
> <PUBCHEM_CACTVS_HBOND_ACCEPTOR>
7
> <PUBCHEM_CACTVS_HBOND_DONOR>
4
> <PUBCHEM_CACTVS_ROTATABLE_BOND>
9
> <PUBCHEM_CACTVS_SUBSKEYS>
AAADcfB/OQBAAAAAAAAAAAAAAAAAAeIAAAAwYMAAAAAAAAABUAAAHwQQCAAADDzh2A6yBoPAAgiIAiFSEAKCAABkIBAIiIHODMgKdjqi1TOUcQhk1hGYmYe6yLCOgAABAAAYAAAAAAIAADAAAAAAAAAAAA==
> <PUBCHEM_IUPAC_OPENEYE_NAME>
(4R)-N-[(5-fluoro-2-methyl-phenyl)methyl]-3-[(2S,3S)-2-hydroxy-3-[(3-hydroxy-2-methyl-benzoyl)amino]-4-phenyl-butanoyl]-1-thia-3-azaspiro[4.4]nonane-4-carboxamide
> <PUBCHEM_IUPAC_CAS_NAME>
(4R)-N-[(5-fluoro-2-methylphenyl)methyl]-3-[(2S,3S)-2-hydroxy-3-[[(3-hydroxy-2-methylphenyl)-oxomethyl]amino]-1-oxo-4-phenylbutyl]-1-thia-3-azaspiro[4.4]nonane-4-carboxamide
> <PUBCHEM_IUPAC_NAME_MARKUP>
(4<I>R</I>)-<I>N</I>-[(5-fluoro-2-methylphenyl)methyl]-3-[(2<I>S</I>,3<I>S</I>)-2-hydroxy-3-[(3-hydroxy-2-methylbenzoyl)amino]-4-phenylbutanoyl]-1-thia-3-azaspiro[4.4]nonane-4-carboxamide
> <PUBCHEM_IUPAC_NAME>
(4R)-N-[(5-fluoro-2-methylphenyl)methyl]-3-[(2S,3S)-2-hydroxy-3-[(3-hydroxy-2-methylbenzoyl)amino]-4-phenylbutanoyl]-1-thia-3-azaspiro[4.4]nonane-4-carboxamide
> <PUBCHEM_IUPAC_SYSTEMATIC_NAME>
(4R)-N-[(5-fluoranyl-2-methyl-phenyl)methyl]-3-[(2S,3S)-3-[(2-methyl-3-oxidanyl-phenyl)carbonylamino]-2-oxidanyl-4-phenyl-butanoyl]-1-thia-3-azaspiro[4.4]nonane-4-carboxamide
> <PUBCHEM_IUPAC_TRADITIONAL_NAME>
(4R)-N-(5-fluoro-2-methyl-benzyl)-3-[(2S,3S)-2-hydroxy-3-[(3-hydroxy-2-methyl-benzoyl)amino]-4-phenyl-butanoyl]-1-thia-3-azaspiro[4.4]nonane-4-carboxamide
> <PUBCHEM_IUPAC_INCHI>
InChI=1S/C34H38FN3O5S/c1-21-13-14-25(35)18-24(21)19-36-32(42)30-34(15-6-7-16-34)44-20-38(30)33(43)29(40)27(17-23-9-4-3-5-10-23)37-31(41)26-11-8-12-28(39)22(26)2/h3-5,8-14,18,27,29-30,39-40H,6-7,15-17,19-20H2,1-2H3,(H,36,42)(H,37,41)/t27-,29-,30+/m0/s1
> <PUBCHEM_IUPAC_INCHIKEY>
NRTOKYDUMOJYGV-LOAGWBBBSA-N
> <PUBCHEM_XLOGP3_AA>
5.1
> <PUBCHEM_EXACT_MASS>
619.25162066
> <PUBCHEM_MOLECULAR_FORMULA>
C34H38FN3O5S
> <PUBCHEM_MOLECULAR_WEIGHT>
619.7
> <PUBCHEM_OPENEYE_CAN_SMILES>
CC1=C(C=C(C=C1)F)CNC(=O)C2C3(CCCC3)SCN2C(=O)C(C(CC4=CC=CC=C4)NC(=O)C5=C(C(=CC=C5)O)C)O
> <PUBCHEM_OPENEYE_ISO_SMILES>
CC1=C(C=C(C=C1)F)CNC(=O)[C@@H]2C3(CCCC3)SCN2C(=O)[C@H]([C@H](CC4=CC=CC=C4)NC(=O)C5=C(C(=CC=C5)O)C)O
> <PUBCHEM_CACTVS_TPSA>
144
> <PUBCHEM_MONOISOTOPIC_WEIGHT>
619.25162066
> <PUBCHEM_TOTAL_CHARGE>
0
> <PUBCHEM_HEAVY_ATOM_COUNT>
44
> <PUBCHEM_ATOM_DEF_STEREO_COUNT>
3
> <PUBCHEM_ATOM_UDEF_STEREO_COUNT>
0
> <PUBCHEM_BOND_DEF_STEREO_COUNT>
0
> <PUBCHEM_BOND_UDEF_STEREO_COUNT>
0
> <PUBCHEM_ISOTOPIC_ATOM_COUNT>
0
> <PUBCHEM_COMPONENT_COUNT>
1
> <PUBCHEM_CACTVS_TAUTO_COUNT>
-1
> <PUBCHEM_COORDINATE_TYPE>
1
5
255
> <PUBCHEM_BONDANNOTATIONS>
21  10  6
12  18  5
24  27  8
24  28  8
25  29  8
25  30  8
27  32  8
28  34  8
29  36  8
30  37  8
31  38  8
31  40  8
32  35  8
34  35  8
36  39  8
37  39  8
38  41  8
40  43  8
41  44  8
43  44  8
20  5  6
$$$$
