514640
  -OEChem-10302200282D
 72 75  0     1  0  0  0  0  0999 V2000
    7.9575   -2.6197    0.0000 S   0  0  0  0  0  0  0  0  0  0  0  0
    5.1805   -3.9068    0.0000 O   0  0  0  0  0  0  0  0  0  0  0  0
    5.0662   -0.9641    0.0000 O   0  0  0  0  0  0  0  0  0  0  0  0
    7.4620    0.1585    0.0000 O   0  0  0  0  0  0  0  0  0  0  0  0
    7.8687    1.0720    0.0000 O   0  0  0  0  0  0  0  0  0  0  0  0
   10.0834    3.9172    0.0000 O   0  0  0  0  0  0  0  0  0  0  0  0
    6.6485   -1.6686    0.0000 N   0  0  0  0  0  0  0  0  0  0  0  0
    4.6453   -2.2596    0.0000 N   0  0  0  0  0  0  0  0  0  0  0  0
    6.2864    1.7765    0.0000 N   0  0  0  0  0  0  0  0  0  0  0  0
    7.1485   -3.2075    0.0000 C   0  0  0  0  0  0  0  0  0  0  0  0
    7.8556   -3.9146    0.0000 C   0  0  0  0  0  0  0  0  0  0  0  0
    6.4414   -3.9146    0.0000 C   0  0  0  0  0  0  0  0  0  0  0  0
    6.3395   -2.6197    0.0000 C   0  0  1  0  0  0  0  0  0  0  0  0
    7.1485   -4.6217    0.0000 C   0  0  0  0  0  0  0  0  0  0  0  0
    7.6485   -1.6686    0.0000 C   0  0  0  0  0  0  0  0  0  0  0  0
    5.3884   -2.9287    0.0000 C   0  0  0  0  0  0  0  0  0  0  0  0
    6.0607   -0.8596    0.0000 C   0  0  0  0  0  0  0  0  0  0  0  0
    6.4674    0.0539    0.0000 C   0  0  2  0  0  0  0  0  0  0  0  0
    5.8796    0.8630    0.0000 C   0  0  2  0  0  0  0  0  0  0  0  0
    3.6942   -2.5686    0.0000 C   0  0  0  0  0  0  0  0  0  0  0  0
    4.8851    0.7584    0.0000 C   0  0  0  0  0  0  0  0  0  0  0  0
    2.9511   -1.8994    0.0000 C   0  0  0  0  0  0  0  0  0  0  0  0
    4.2973    1.5674    0.0000 C   0  0  0  0  0  0  0  0  0  0  0  0
    2.0000   -2.2085    0.0000 C   0  0  0  0  0  0  0  0  0  0  0  0
    7.2809    1.8810    0.0000 C   0  0  0  0  0  0  0  0  0  0  0  0
    3.3028    1.4629    0.0000 C   0  0  0  0  0  0  0  0  0  0  0  0
    4.7041    2.4810    0.0000 C   0  0  0  0  0  0  0  0  0  0  0  0
    7.6876    2.7946    0.0000 C   0  0  0  0  0  0  0  0  0  0  0  0
    2.7150    2.2719    0.0000 C   0  0  0  0  0  0  0  0  0  0  0  0
    4.1163    3.2900    0.0000 C   0  0  0  0  0  0  0  0  0  0  0  0
    8.6822    2.8991    0.0000 C   0  0  0  0  0  0  0  0  0  0  0  0
    3.1218    3.1855    0.0000 C   0  0  0  0  0  0  0  0  0  0  0  0
    7.0998    3.6036    0.0000 C   0  0  0  0  0  0  0  0  0  0  0  0
    9.0889    3.8127    0.0000 C   0  0  0  0  0  0  0  0  0  0  0  0
    9.2699    2.0901    0.0000 C   0  0  0  0  0  0  0  0  0  0  0  0
    7.5066    4.5171    0.0000 C   0  0  0  0  0  0  0  0  0  0  0  0
    8.5011    4.6217    0.0000 C   0  0  0  0  0  0  0  0  0  0  0  0
    8.2940   -4.3530    0.0000 H   0  0  0  0  0  0  0  0  0  0  0  0
    8.2940   -3.4762    0.0000 H   0  0  0  0  0  0  0  0  0  0  0  0
    6.0030   -3.4762    0.0000 H   0  0  0  0  0  0  0  0  0  0  0  0
    6.0030   -4.3530    0.0000 H   0  0  0  0  0  0  0  0  0  0  0  0
    5.9010   -2.1813    0.0000 H   0  0  0  0  0  0  0  0  0  0  0  0
    6.7101   -5.0601    0.0000 H   0  0  0  0  0  0  0  0  0  0  0  0
    7.5869   -5.0601    0.0000 H   0  0  0  0  0  0  0  0  0  0  0  0
    8.2549   -1.5397    0.0000 H   0  0  0  0  0  0  0  0  0  0  0  0
    7.5837   -1.0520    0.0000 H   0  0  0  0  0  0  0  0  0  0  0  0
    6.8318   -0.4476    0.0000 H   0  0  0  0  0  0  0  0  0  0  0  0
    4.7742   -1.6531    0.0000 H   0  0  0  0  0  0  0  0  0  0  0  0
    6.4962    0.9278    0.0000 H   0  0  0  0  0  0  0  0  0  0  0  0
    3.2056   -2.9503    0.0000 H   0  0  0  0  0  0  0  0  0  0  0  0
    3.9853   -3.1160    0.0000 H   0  0  0  0  0  0  0  0  0  0  0  0
    4.3279    0.4866    0.0000 H   0  0  0  0  0  0  0  0  0  0  0  0
    5.0560    0.1625    0.0000 H   0  0  0  0  0  0  0  0  0  0  0  0
    7.8264   -0.3431    0.0000 H   0  0  0  0  0  0  0  0  0  0  0  0
    5.9220    2.2781    0.0000 H   0  0  0  0  0  0  0  0  0  0  0  0
    3.4396   -1.5177    0.0000 H   0  0  0  0  0  0  0  0  0  0  0  0
    2.6600   -1.3520    0.0000 H   0  0  0  0  0  0  0  0  0  0  0  0
    1.8084   -1.6188    0.0000 H   0  0  0  0  0  0  0  0  0  0  0  0
    1.4103   -2.4000    0.0000 H   0  0  0  0  0  0  0  0  0  0  0  0
    2.1916   -2.7981    0.0000 H   0  0  0  0  0  0  0  0  0  0  0  0
    3.0506    0.8965    0.0000 H   0  0  0  0  0  0  0  0  0  0  0  0
    5.3207    2.5458    0.0000 H   0  0  0  0  0  0  0  0  0  0  0  0
    2.0984    2.2071    0.0000 H   0  0  0  0  0  0  0  0  0  0  0  0
    4.3685    3.8564    0.0000 H   0  0  0  0  0  0  0  0  0  0  0  0
    2.7573    3.6871    0.0000 H   0  0  0  0  0  0  0  0  0  0  0  0
    6.4832    3.5388    0.0000 H   0  0  0  0  0  0  0  0  0  0  0  0
    8.7684    1.7257    0.0000 H   0  0  0  0  0  0  0  0  0  0  0  0
    9.6344    1.5885    0.0000 H   0  0  0  0  0  0  0  0  0  0  0  0
    9.7715    2.4545    0.0000 H   0  0  0  0  0  0  0  0  0  0  0  0
    7.1422    5.0187    0.0000 H   0  0  0  0  0  0  0  0  0  0  0  0
    8.7533    5.1881    0.0000 H   0  0  0  0  0  0  0  0  0  0  0  0
   10.3356    4.4836    0.0000 H   0  0  0  0  0  0  0  0  0  0  0  0
  1 10  1  0  0  0  0
  1 15  1  0  0  0  0
  2 16  2  0  0  0  0
  3 17  2  0  0  0  0
 18  4  1  6  0  0  0
  4 54  1  0  0  0  0
  5 25  2  0  0  0  0
  6 34  1  0  0  0  0
  6 72  1  0  0  0  0
  7 13  1  0  0  0  0
  7 15  1  0  0  0  0
  7 17  1  0  0  0  0
  8 16  1  0  0  0  0
  8 20  1  0  0  0  0
  8 48  1  0  0  0  0
 19  9  1  6  0  0  0
  9 25  1  0  0  0  0
  9 55  1  0  0  0  0
 10 11  1  0  0  0  0
 10 12  1  0  0  0  0
 10 13  1  0  0  0  0
 11 14  1  0  0  0  0
 11 38  1  0  0  0  0
 11 39  1  0  0  0  0
 12 14  1  0  0  0  0
 12 40  1  0  0  0  0
 12 41  1  0  0  0  0
 13 16  1  1  0  0  0
 13 42  1  0  0  0  0
 14 43  1  0  0  0  0
 14 44  1  0  0  0  0
 15 45  1  0  0  0  0
 15 46  1  0  0  0  0
 17 18  1  0  0  0  0
 18 19  1  0  0  0  0
 18 47  1  0  0  0  0
 19 21  1  0  0  0  0
 19 49  1  0  0  0  0
 20 22  1  0  0  0  0
 20 50  1  0  0  0  0
 20 51  1  0  0  0  0
 21 23  1  0  0  0  0
 21 52  1  0  0  0  0
 21 53  1  0  0  0  0
 22 24  1  0  0  0  0
 22 56  1  0  0  0  0
 22 57  1  0  0  0  0
 23 26  2  0  0  0  0
 23 27  1  0  0  0  0
 24 58  1  0  0  0  0
 24 59  1  0  0  0  0
 24 60  1  0  0  0  0
 25 28  1  0  0  0  0
 26 29  1  0  0  0  0
 26 61  1  0  0  0  0
 27 30  2  0  0  0  0
 27 62  1  0  0  0  0
 28 31  2  0  0  0  0
 28 33  1  0  0  0  0
 29 32  2  0  0  0  0
 29 63  1  0  0  0  0
 30 32  1  0  0  0  0
 30 64  1  0  0  0  0
 31 34  1  0  0  0  0
 31 35  1  0  0  0  0
 32 65  1  0  0  0  0
 33 36  2  0  0  0  0
 33 66  1  0  0  0  0
 34 37  2  0  0  0  0
 35 67  1  0  0  0  0
 35 68  1  0  0  0  0
 35 69  1  0  0  0  0
 36 37  1  0  0  0  0
 36 70  1  0  0  0  0
 37 71  1  0  0  0  0
M  END
> <PUBCHEM_COMPOUND_CID>
514640
> <PUBCHEM_COMPOUND_CANONICALIZED>
1
> <PUBCHEM_CACTVS_COMPLEXITY>
816
> <PUBCHEM_CACTVS_HBOND_ACCEPTOR>
6
> <PUBCHEM_CACTVS_HBOND_DONOR>
4
> <PUBCHEM_CACTVS_ROTATABLE_BOND>
9
> <PUBCHEM_CACTVS_SUBSKEYS>
AAADcfB7OABAAAAAAAAAAAAAAABgAWAAAAAwYAAAAAAAAAABQAAAHgQQCAAADDzh2AayBoPAAgiIAiFSEAKCAABkIBAIiIHODMgKdjqi1TOUcQhk1hGYmYe6yLCOgAABAAAYAAAAAAIAADAAAAAAAAAAAA==
> <PUBCHEM_IUPAC_OPENEYE_NAME>
(8R)-7-[(2S,3S)-2-hydroxy-3-[(3-hydroxy-2-methyl-benzoyl)amino]-4-phenyl-butanoyl]-N-propyl-5-thia-7-azaspiro[3.4]octane-8-carboxamide
> <PUBCHEM_IUPAC_CAS_NAME>
(8R)-7-[(2S,3S)-2-hydroxy-3-[[(3-hydroxy-2-methylphenyl)-oxomethyl]amino]-1-oxo-4-phenylbutyl]-N-propyl-5-thia-7-azaspiro[3.4]octane-8-carboxamide
> <PUBCHEM_IUPAC_NAME_MARKUP>
(8<I>R</I>)-7-[(2<I>S</I>,3<I>S</I>)-2-hydroxy-3-[(3-hydroxy-2-methylbenzoyl)amino]-4-phenylbutanoyl]-<I>N</I>-propyl-5-thia-7-azaspiro[3.4]octane-8-carboxamide
> <PUBCHEM_IUPAC_NAME>
(8R)-7-[(2S,3S)-2-hydroxy-3-[(3-hydroxy-2-methylbenzoyl)amino]-4-phenylbutanoyl]-N-propyl-5-thia-7-azaspiro[3.4]octane-8-carboxamide
> <PUBCHEM_IUPAC_SYSTEMATIC_NAME>
(8R)-7-[(2S,3S)-3-[(2-methyl-3-oxidanyl-phenyl)carbonylamino]-2-oxidanyl-4-phenyl-butanoyl]-N-propyl-5-thia-7-azaspiro[3.4]octane-8-carboxamide
> <PUBCHEM_IUPAC_TRADITIONAL_NAME>
(8R)-7-[(2S,3S)-2-hydroxy-3-[(3-hydroxy-2-methyl-benzoyl)amino]-4-phenyl-butanoyl]-N-propyl-5-thia-7-azaspiro[3.4]octane-8-carboxamide
> <PUBCHEM_IUPAC_INCHI>
InChI=1S/C28H35N3O5S/c1-3-15-29-26(35)24-28(13-8-14-28)37-17-31(24)27(36)23(33)21(16-19-9-5-4-6-10-19)30-25(34)20-11-7-12-22(32)18(20)2/h4-7,9-12,21,23-24,32-33H,3,8,13-17H2,1-2H3,(H,29,35)(H,30,34)/t21-,23-,24+/m0/s1
> <PUBCHEM_IUPAC_INCHIKEY>
KCYMHGXUBPXWPC-OEMFJLHTSA-N
> <PUBCHEM_XLOGP3_AA>
3.6
> <PUBCHEM_EXACT_MASS>
525.22974240
> <PUBCHEM_MOLECULAR_FORMULA>
C28H35N3O5S
> <PUBCHEM_MOLECULAR_WEIGHT>
525.7
> <PUBCHEM_OPENEYE_CAN_SMILES>
CCCNC(=O)C1C2(CCC2)SCN1C(=O)C(C(CC3=CC=CC=C3)NC(=O)C4=C(C(=CC=C4)O)C)O
> <PUBCHEM_OPENEYE_ISO_SMILES>
CCCNC(=O)[C@@H]1C2(CCC2)SCN1C(=O)[C@H]([C@H](CC3=CC=CC=C3)NC(=O)C4=C(C(=CC=C4)O)C)O
> <PUBCHEM_CACTVS_TPSA>
144
> <PUBCHEM_MONOISOTOPIC_WEIGHT>
525.22974240
> <PUBCHEM_TOTAL_CHARGE>
0
> <PUBCHEM_HEAVY_ATOM_COUNT>
37
> <PUBCHEM_ATOM_DEF_STEREO_COUNT>
3
> <PUBCHEM_ATOM_UDEF_STEREO_COUNT>
0
> <PUBCHEM_BOND_DEF_STEREO_COUNT>
0
> <PUBCHEM_BOND_UDEF_STEREO_COUNT>
0
> <PUBCHEM_ISOTOPIC_ATOM_COUNT>
0
> <PUBCHEM_COMPONENT_COUNT>
1
> <PUBCHEM_CACTVS_TAUTO_COUNT>
-1
> <PUBCHEM_COORDINATE_TYPE>
1
5
255
> <PUBCHEM_BONDANNOTATIONS>
13  16  5
23  26  8
23  27  8
26  29  8
27  30  8
28  31  8
28  33  8
29  32  8
30  32  8
31  34  8
33  36  8
34  37  8
36  37  8
18  4  6
19  9  6
$$$$
