514670
  -OEChem-10302200282D
 78 82  0     1  0  0  0  0  0999 V2000
    4.7268    1.0140    0.0000 O   0  0  0  0  0  0  0  0  0  0  0  0
    5.2177   -0.8179    0.0000 O   0  0  0  0  0  0  0  0  0  0  0  0
    7.7177   -1.6839    0.0000 O   0  0  0  0  0  0  0  0  0  0  0  0
    8.2177   -2.5500    0.0000 O   0  0  0  0  0  0  0  0  0  0  0  0
   10.7177   -5.1480    0.0000 O   0  0  0  0  0  0  0  0  0  0  0  0
    6.7177    0.0481    0.0000 N   0  0  0  0  0  0  0  0  0  0  0  0
    5.5928    2.5140    0.0000 N   0  0  0  0  0  0  0  0  0  0  0  0
    6.7177   -3.4160    0.0000 N   0  0  0  0  0  0  0  0  0  0  0  0
    7.8578    1.5229    0.0000 C   0  0  2  0  0  0  0  0  0  0  0  0
    8.1166    0.5569    0.0000 C   0  0  2  0  0  0  0  0  0  0  0  0
    8.5944    2.5055    0.0000 C   0  0  0  0  0  0  0  0  0  0  0  0
    6.4588    1.0140    0.0000 C   0  0  1  0  0  0  0  0  0  0  0  0
    9.8313    0.9046    0.0000 C   0  0  0  0  0  0  0  0  0  0  0  0
    9.4893   -0.0351    0.0000 C   0  0  0  0  0  0  0  0  0  0  0  0
    5.5928    1.5140    0.0000 C   0  0  0  0  0  0  0  0  0  0  0  0
    6.2177   -0.8179    0.0000 C   0  0  0  0  0  0  0  0  0  0  0  0
    6.7177   -1.6839    0.0000 C   0  0  2  0  0  0  0  0  0  0  0  0
    6.2177   -2.5500    0.0000 C   0  0  2  0  0  0  0  0  0  0  0  0
    4.7268    3.0140    0.0000 C   0  0  0  0  0  0  0  0  0  0  0  0
    5.2177   -2.5500    0.0000 C   0  0  0  0  0  0  0  0  0  0  0  0
    4.7268    4.0140    0.0000 C   0  0  0  0  0  0  0  0  0  0  0  0
    4.7177   -3.4160    0.0000 C   0  0  0  0  0  0  0  0  0  0  0  0
    7.7177   -3.4160    0.0000 C   0  0  0  0  0  0  0  0  0  0  0  0
    3.8608    4.5140    0.0000 C   0  0  0  0  0  0  0  0  0  0  0  0
    5.5928    4.5140    0.0000 C   0  0  0  0  0  0  0  0  0  0  0  0
    5.2177   -4.2820    0.0000 C   0  0  0  0  0  0  0  0  0  0  0  0
    3.7177   -3.4160    0.0000 C   0  0  0  0  0  0  0  0  0  0  0  0
    8.2177   -4.2820    0.0000 C   0  0  0  0  0  0  0  0  0  0  0  0
    3.8608    5.5140    0.0000 C   0  0  0  0  0  0  0  0  0  0  0  0
    2.9947    4.0140    0.0000 C   0  0  0  0  0  0  0  0  0  0  0  0
    5.5928    5.5140    0.0000 C   0  0  0  0  0  0  0  0  0  0  0  0
    4.7177   -5.1480    0.0000 C   0  0  0  0  0  0  0  0  0  0  0  0
    3.2177   -4.2820    0.0000 C   0  0  0  0  0  0  0  0  0  0  0  0
    4.7268    6.0140    0.0000 C   0  0  0  0  0  0  0  0  0  0  0  0
    9.2177   -4.2820    0.0000 C   0  0  0  0  0  0  0  0  0  0  0  0
    3.7177   -5.1480    0.0000 C   0  0  0  0  0  0  0  0  0  0  0  0
    7.7177   -5.1480    0.0000 C   0  0  0  0  0  0  0  0  0  0  0  0
    9.7177   -5.1480    0.0000 C   0  0  0  0  0  0  0  0  0  0  0  0
    9.7177   -3.4160    0.0000 C   0  0  0  0  0  0  0  0  0  0  0  0
    8.2177   -6.0140    0.0000 C   0  0  0  0  0  0  0  0  0  0  0  0
    9.2177   -6.0140    0.0000 C   0  0  0  0  0  0  0  0  0  0  0  0
    7.6378    2.3439    0.0000 H   0  0  0  0  0  0  0  0  0  0  0  0
    8.3366   -0.2641    0.0000 H   0  0  0  0  0  0  0  0  0  0  0  0
    8.2766    3.0378    0.0000 H   0  0  0  0  0  0  0  0  0  0  0  0
    9.2076    2.5974    0.0000 H   0  0  0  0  0  0  0  0  0  0  0  0
    5.9670    0.6366    0.0000 H   0  0  0  0  0  0  0  0  0  0  0  0
   10.0256    1.4934    0.0000 H   0  0  0  0  0  0  0  0  0  0  0  0
   10.4171    0.7014    0.0000 H   0  0  0  0  0  0  0  0  0  0  0  0
   10.0677   -0.2584    0.0000 H   0  0  0  0  0  0  0  0  0  0  0  0
    9.2549   -0.6090    0.0000 H   0  0  0  0  0  0  0  0  0  0  0  0
    7.0277   -1.1470    0.0000 H   0  0  0  0  0  0  0  0  0  0  0  0
    6.1298    2.8240    0.0000 H   0  0  0  0  0  0  0  0  0  0  0  0
    6.8377   -2.5500    0.0000 H   0  0  0  0  0  0  0  0  0  0  0  0
    4.5148    2.4314    0.0000 H   0  0  0  0  0  0  0  0  0  0  0  0
    4.1162    3.1217    0.0000 H   0  0  0  0  0  0  0  0  0  0  0  0
    4.6351   -2.3379    0.0000 H   0  0  0  0  0  0  0  0  0  0  0  0
    5.3253   -1.9394    0.0000 H   0  0  0  0  0  0  0  0  0  0  0  0
    8.0277   -1.1470    0.0000 H   0  0  0  0  0  0  0  0  0  0  0  0
    6.4077   -3.9529    0.0000 H   0  0  0  0  0  0  0  0  0  0  0  0
    6.1298    4.2040    0.0000 H   0  0  0  0  0  0  0  0  0  0  0  0
    5.8377   -4.2820    0.0000 H   0  0  0  0  0  0  0  0  0  0  0  0
    3.4077   -2.8790    0.0000 H   0  0  0  0  0  0  0  0  0  0  0  0
    3.3238    5.8240    0.0000 H   0  0  0  0  0  0  0  0  0  0  0  0
    3.3048    3.4771    0.0000 H   0  0  0  0  0  0  0  0  0  0  0  0
    2.4578    3.7040    0.0000 H   0  0  0  0  0  0  0  0  0  0  0  0
    2.6848    4.5510    0.0000 H   0  0  0  0  0  0  0  0  0  0  0  0
    6.1298    5.8240    0.0000 H   0  0  0  0  0  0  0  0  0  0  0  0
    5.0277   -5.6850    0.0000 H   0  0  0  0  0  0  0  0  0  0  0  0
    2.5977   -4.2820    0.0000 H   0  0  0  0  0  0  0  0  0  0  0  0
    4.7268    6.6340    0.0000 H   0  0  0  0  0  0  0  0  0  0  0  0
    3.4077   -5.6850    0.0000 H   0  0  0  0  0  0  0  0  0  0  0  0
    7.0977   -5.1480    0.0000 H   0  0  0  0  0  0  0  0  0  0  0  0
    9.1807   -3.1060    0.0000 H   0  0  0  0  0  0  0  0  0  0  0  0
   10.0277   -2.8790    0.0000 H   0  0  0  0  0  0  0  0  0  0  0  0
   10.2546   -3.7260    0.0000 H   0  0  0  0  0  0  0  0  0  0  0  0
    7.9077   -6.5510    0.0000 H   0  0  0  0  0  0  0  0  0  0  0  0
    9.5277   -6.5510    0.0000 H   0  0  0  0  0  0  0  0  0  0  0  0
   11.0277   -5.6850    0.0000 H   0  0  0  0  0  0  0  0  0  0  0  0
  1 15  2  0  0  0  0
  2 16  2  0  0  0  0
 17  3  1  1  0  0  0
  3 58  1  0  0  0  0
  4 23  2  0  0  0  0
  5 38  1  0  0  0  0
  5 78  1  0  0  0  0
  6 10  1  0  0  0  0
  6 12  1  0  0  0  0
  6 16  1  0  0  0  0
  7 15  1  0  0  0  0
  7 19  1  0  0  0  0
  7 52  1  0  0  0  0
 18  8  1  1  0  0  0
  8 23  1  0  0  0  0
  8 59  1  0  0  0  0
  9 11  1  0  0  0  0
  9 12  1  0  0  0  0
  9 13  1  0  0  0  0
  9 42  1  6  0  0  0
 10 11  1  0  0  0  0
 10 14  1  0  0  0  0
 10 43  1  1  0  0  0
 11 44  1  0  0  0  0
 11 45  1  0  0  0  0
 12 15  1  6  0  0  0
 12 46  1  0  0  0  0
 13 14  1  0  0  0  0
 13 47  1  0  0  0  0
 13 48  1  0  0  0  0
 14 49  1  0  0  0  0
 14 50  1  0  0  0  0
 16 17  1  0  0  0  0
 17 18  1  0  0  0  0
 17 51  1  0  0  0  0
 18 20  1  0  0  0  0
 18 53  1  0  0  0  0
 19 21  1  0  0  0  0
 19 54  1  0  0  0  0
 19 55  1  0  0  0  0
 20 22  1  0  0  0  0
 20 56  1  0  0  0  0
 20 57  1  0  0  0  0
 21 24  1  0  0  0  0
 21 25  2  0  0  0  0
 22 26  2  0  0  0  0
 22 27  1  0  0  0  0
 23 28  1  0  0  0  0
 24 29  2  0  0  0  0
 24 30  1  0  0  0  0
 25 31  1  0  0  0  0
 25 60  1  0  0  0  0
 26 32  1  0  0  0  0
 26 61  1  0  0  0  0
 27 33  2  0  0  0  0
 27 62  1  0  0  0  0
 28 35  2  0  0  0  0
 28 37  1  0  0  0  0
 29 34  1  0  0  0  0
 29 63  1  0  0  0  0
 30 64  1  0  0  0  0
 30 65  1  0  0  0  0
 30 66  1  0  0  0  0
 31 34  2  0  0  0  0
 31 67  1  0  0  0  0
 32 36  2  0  0  0  0
 32 68  1  0  0  0  0
 33 36  1  0  0  0  0
 33 69  1  0  0  0  0
 34 70  1  0  0  0  0
 35 38  1  0  0  0  0
 35 39  1  0  0  0  0
 36 71  1  0  0  0  0
 37 40  2  0  0  0  0
 37 72  1  0  0  0  0
 38 41  2  0  0  0  0
 39 73  1  0  0  0  0
 39 74  1  0  0  0  0
 39 75  1  0  0  0  0
 40 41  1  0  0  0  0
 40 76  1  0  0  0  0
 41 77  1  0  0  0  0
M  END
> <PUBCHEM_COMPOUND_CID>
514670
> <PUBCHEM_COMPOUND_CANONICALIZED>
1
> <PUBCHEM_CACTVS_COMPLEXITY>
923
> <PUBCHEM_CACTVS_HBOND_ACCEPTOR>
5
> <PUBCHEM_CACTVS_HBOND_DONOR>
4
> <PUBCHEM_CACTVS_ROTATABLE_BOND>
9
> <PUBCHEM_CACTVS_SUBSKEYS>
AAADcfB/OAAAAAAAAAAAAAAAAAAAAeIAAAA8YMEAAAAAAAABUAAAHgAQCAAADTzhmAYyBoPAAgCIAiFSEAKCAAAkIAAIiIHODMgKdjqC1TOUcQhk1hGYmYe6ybCegAABAAAYAAAAAAIAADAAACAAAAAAAA==
> <PUBCHEM_IUPAC_OPENEYE_NAME>
(1S,3S,4R)-2-[(2S,3S)-2-hydroxy-3-[(3-hydroxy-2-methyl-benzoyl)amino]-4-phenyl-butanoyl]-N-(o-tolylmethyl)-2-azabicyclo[2.2.1]heptane-3-carboxamide
> <PUBCHEM_IUPAC_CAS_NAME>
(1S,3S,4R)-2-[(2S,3S)-2-hydroxy-3-[[(3-hydroxy-2-methylphenyl)-oxomethyl]amino]-1-oxo-4-phenylbutyl]-N-[(2-methylphenyl)methyl]-2-azabicyclo[2.2.1]heptane-3-carboxamide
> <PUBCHEM_IUPAC_NAME_MARKUP>
(1<I>S</I>,3<I>S</I>,4<I>R</I>)-2-[(2<I>S</I>,3<I>S</I>)-2-hydroxy-3-[(3-hydroxy-2-methylbenzoyl)amino]-4-phenylbutanoyl]-<I>N</I>-[(2-methylphenyl)methyl]-2-azabicyclo[2.2.1]heptane-3-carboxamide
> <PUBCHEM_IUPAC_NAME>
(1S,3S,4R)-2-[(2S,3S)-2-hydroxy-3-[(3-hydroxy-2-methylbenzoyl)amino]-4-phenylbutanoyl]-N-[(2-methylphenyl)methyl]-2-azabicyclo[2.2.1]heptane-3-carboxamide
> <PUBCHEM_IUPAC_SYSTEMATIC_NAME>
(1S,3S,4R)-2-[(2S,3S)-3-[(2-methyl-3-oxidanyl-phenyl)carbonylamino]-2-oxidanyl-4-phenyl-butanoyl]-N-[(2-methylphenyl)methyl]-2-azabicyclo[2.2.1]heptane-3-carboxamide
> <PUBCHEM_IUPAC_TRADITIONAL_NAME>
(1S,3S,4R)-2-[(2S,3S)-2-hydroxy-3-[(3-hydroxy-2-methyl-benzoyl)amino]-4-phenyl-butanoyl]-N-(2-methylbenzyl)-2-azabicyclo[2.2.1]heptane-3-carboxamide
> <PUBCHEM_IUPAC_INCHI>
InChI=1S/C33H37N3O5/c1-20-9-6-7-12-24(20)19-34-32(40)29-23-15-16-25(18-23)36(29)33(41)30(38)27(17-22-10-4-3-5-11-22)35-31(39)26-13-8-14-28(37)21(26)2/h3-14,23,25,27,29-30,37-38H,15-19H2,1-2H3,(H,34,40)(H,35,39)/t23-,25+,27+,29+,30+/m1/s1
> <PUBCHEM_IUPAC_INCHIKEY>
UXOVMBHQJZJMOO-NNVWDDSISA-N
> <PUBCHEM_XLOGP3_AA>
4.3
> <PUBCHEM_EXACT_MASS>
555.27332129
> <PUBCHEM_MOLECULAR_FORMULA>
C33H37N3O5
> <PUBCHEM_MOLECULAR_WEIGHT>
555.7
> <PUBCHEM_OPENEYE_CAN_SMILES>
CC1=CC=CC=C1CNC(=O)C2C3CCC(C3)N2C(=O)C(C(CC4=CC=CC=C4)NC(=O)C5=C(C(=CC=C5)O)C)O
> <PUBCHEM_OPENEYE_ISO_SMILES>
CC1=CC=CC=C1CNC(=O)[C@@H]2[C@@H]3CC[C@@H](C3)N2C(=O)[C@H]([C@H](CC4=CC=CC=C4)NC(=O)C5=C(C(=CC=C5)O)C)O
> <PUBCHEM_CACTVS_TPSA>
119
> <PUBCHEM_MONOISOTOPIC_WEIGHT>
555.27332129
> <PUBCHEM_TOTAL_CHARGE>
0
> <PUBCHEM_HEAVY_ATOM_COUNT>
41
> <PUBCHEM_ATOM_DEF_STEREO_COUNT>
5
> <PUBCHEM_ATOM_UDEF_STEREO_COUNT>
0
> <PUBCHEM_BOND_DEF_STEREO_COUNT>
0
> <PUBCHEM_BOND_UDEF_STEREO_COUNT>
0
> <PUBCHEM_ISOTOPIC_ATOM_COUNT>
0
> <PUBCHEM_COMPONENT_COUNT>
1
> <PUBCHEM_CACTVS_TAUTO_COUNT>
-1
> <PUBCHEM_COORDINATE_TYPE>
1
5
255
> <PUBCHEM_BONDANNOTATIONS>
10  43  5
12  15  6
21  24  8
21  25  8
22  26  8
22  27  8
24  29  8
25  31  8
26  32  8
27  33  8
28  35  8
28  37  8
29  34  8
17  3  5
31  34  8
32  36  8
33  36  8
35  38  8
37  40  8
38  41  8
40  41  8
18  8  5
9  42  6
$$$$
