514605
  -OEChem-10302200282D
 78 82  0     1  0  0  0  0  0999 V2000
   11.2897   -1.8139    0.0000 F   0  0  0  0  0  0  0  0  0  0  0  0
   10.3387   -2.5049    0.0000 F   0  0  0  0  0  0  0  0  0  0  0  0
    8.9726    1.5340    0.0000 O   0  0  0  0  0  0  0  0  0  0  0  0
    7.5434   -1.8921    0.0000 O   0  0  0  0  0  0  0  0  0  0  0  0
    7.8707    0.7333    0.0000 O   0  0  0  0  0  0  0  0  0  0  0  0
    6.8002   -2.5612    0.0000 O   0  0  0  0  0  0  0  0  0  0  0  0
    2.4608   -2.9724    0.0000 O   0  0  0  0  0  0  0  0  0  0  0  0
    9.0296   -0.5538    0.0000 N   0  0  0  0  0  0  0  0  0  0  0  0
   10.7047    1.5340    0.0000 N   0  0  0  0  0  0  0  0  0  0  0  0
    5.6412   -1.2741    0.0000 N   0  0  0  0  0  0  0  0  0  0  0  0
    9.8387    0.0340    0.0000 C   0  0  1  0  0  0  0  0  0  0  0  0
   10.6477   -0.5538    0.0000 C   0  0  0  0  0  0  0  0  0  0  0  0
   10.3387   -1.5049    0.0000 C   0  0  0  0  0  0  0  0  0  0  0  0
    9.3387   -1.5049    0.0000 C   0  0  0  0  0  0  0  0  0  0  0  0
   10.7047    2.5340    0.0000 C   0  0  1  0  0  0  0  0  0  0  0  0
    9.8387    1.0340    0.0000 C   0  0  0  0  0  0  0  0  0  0  0  0
    9.8387    3.0340    0.0000 C   0  0  0  0  0  0  0  0  0  0  0  0
    8.0786   -0.2448    0.0000 C   0  0  0  0  0  0  0  0  0  0  0  0
   11.5707    3.0340    0.0000 C   0  0  0  0  0  0  0  0  0  0  0  0
    9.8387    4.0340    0.0000 C   0  0  0  0  0  0  0  0  0  0  0  0
    7.3354   -0.9139    0.0000 C   0  0  2  0  0  0  0  0  0  0  0  0
   10.7047    4.5340    0.0000 C   0  0  0  0  0  0  0  0  0  0  0  0
   11.5707    4.0340    0.0000 C   0  0  0  0  0  0  0  0  0  0  0  0
    6.3844   -0.6049    0.0000 C   0  0  2  0  0  0  0  0  0  0  0  0
    6.1765    0.3732    0.0000 C   0  0  0  0  0  0  0  0  0  0  0  0
   12.4647    2.4993    0.0000 C   0  0  0  0  0  0  0  0  0  0  0  0
   12.4647    4.5686    0.0000 C   0  0  0  0  0  0  0  0  0  0  0  0
   13.3707    3.0131    0.0000 C   0  0  0  0  0  0  0  0  0  0  0  0
   13.3707    4.0548    0.0000 C   0  0  0  0  0  0  0  0  0  0  0  0
    5.2254    0.6822    0.0000 C   0  0  0  0  0  0  0  0  0  0  0  0
    5.8492   -2.2522    0.0000 C   0  0  0  0  0  0  0  0  0  0  0  0
    4.4823    0.0131    0.0000 C   0  0  0  0  0  0  0  0  0  0  0  0
    5.0175    1.6604    0.0000 C   0  0  0  0  0  0  0  0  0  0  0  0
    5.1060   -2.9213    0.0000 C   0  0  0  0  0  0  0  0  0  0  0  0
    3.5312    0.3221    0.0000 C   0  0  0  0  0  0  0  0  0  0  0  0
    4.0664    1.9694    0.0000 C   0  0  0  0  0  0  0  0  0  0  0  0
    4.1550   -2.6123    0.0000 C   0  0  0  0  0  0  0  0  0  0  0  0
    3.3233    1.3003    0.0000 C   0  0  0  0  0  0  0  0  0  0  0  0
    5.3139   -3.8995    0.0000 C   0  0  0  0  0  0  0  0  0  0  0  0
    3.4118   -3.2814    0.0000 C   0  0  0  0  0  0  0  0  0  0  0  0
    3.9470   -1.6342    0.0000 C   0  0  0  0  0  0  0  0  0  0  0  0
    4.5708   -4.5686    0.0000 C   0  0  0  0  0  0  0  0  0  0  0  0
    3.6197   -4.2596    0.0000 C   0  0  0  0  0  0  0  0  0  0  0  0
    9.2862    0.3154    0.0000 H   0  0  0  0  0  0  0  0  0  0  0  0
   11.2141   -0.8060    0.0000 H   0  0  0  0  0  0  0  0  0  0  0  0
   10.9577   -0.0169    0.0000 H   0  0  0  0  0  0  0  0  0  0  0  0
    8.7322   -1.6338    0.0000 H   0  0  0  0  0  0  0  0  0  0  0  0
    9.4035   -2.1215    0.0000 H   0  0  0  0  0  0  0  0  0  0  0  0
   11.2416    2.2240    0.0000 H   0  0  0  0  0  0  0  0  0  0  0  0
    9.2281    3.1416    0.0000 H   0  0  0  0  0  0  0  0  0  0  0  0
    9.6266    2.4513    0.0000 H   0  0  0  0  0  0  0  0  0  0  0  0
   11.2416    1.2240    0.0000 H   0  0  0  0  0  0  0  0  0  0  0  0
    9.6266    4.6166    0.0000 H   0  0  0  0  0  0  0  0  0  0  0  0
    9.2281    3.9263    0.0000 H   0  0  0  0  0  0  0  0  0  0  0  0
    6.8747   -1.3288    0.0000 H   0  0  0  0  0  0  0  0  0  0  0  0
   11.1032    5.0089    0.0000 H   0  0  0  0  0  0  0  0  0  0  0  0
   10.3062    5.0089    0.0000 H   0  0  0  0  0  0  0  0  0  0  0  0
    5.7947   -0.4133    0.0000 H   0  0  0  0  0  0  0  0  0  0  0  0
    6.7961    0.3949    0.0000 H   0  0  0  0  0  0  0  0  0  0  0  0
    6.2628    0.9872    0.0000 H   0  0  0  0  0  0  0  0  0  0  0  0
   12.4575    1.8793    0.0000 H   0  0  0  0  0  0  0  0  0  0  0  0
   12.4575    5.1886    0.0000 H   0  0  0  0  0  0  0  0  0  0  0  0
    5.0516   -1.0825    0.0000 H   0  0  0  0  0  0  0  0  0  0  0  0
   13.9065    2.7011    0.0000 H   0  0  0  0  0  0  0  0  0  0  0  0
    8.1330   -2.0837    0.0000 H   0  0  0  0  0  0  0  0  0  0  0  0
   13.9065    4.3668    0.0000 H   0  0  0  0  0  0  0  0  0  0  0  0
    4.6112   -0.5933    0.0000 H   0  0  0  0  0  0  0  0  0  0  0  0
    5.4783    2.0752    0.0000 H   0  0  0  0  0  0  0  0  0  0  0  0
    3.0705   -0.0927    0.0000 H   0  0  0  0  0  0  0  0  0  0  0  0
    3.9375    2.5758    0.0000 H   0  0  0  0  0  0  0  0  0  0  0  0
    2.7336    1.4919    0.0000 H   0  0  0  0  0  0  0  0  0  0  0  0
    5.9036   -4.0911    0.0000 H   0  0  0  0  0  0  0  0  0  0  0  0
    4.5535   -1.5053    0.0000 H   0  0  0  0  0  0  0  0  0  0  0  0
    3.8181   -1.0277    0.0000 H   0  0  0  0  0  0  0  0  0  0  0  0
    3.3406   -1.7631    0.0000 H   0  0  0  0  0  0  0  0  0  0  0  0
    4.6997   -5.1751    0.0000 H   0  0  0  0  0  0  0  0  0  0  0  0
    3.1590   -4.6745    0.0000 H   0  0  0  0  0  0  0  0  0  0  0  0
    2.0000   -3.3873    0.0000 H   0  0  0  0  0  0  0  0  0  0  0  0
  1 13  1  0  0  0  0
  2 13  1  0  0  0  0
  3 16  2  0  0  0  0
 21  4  1  1  0  0  0
  4 65  1  0  0  0  0
  5 18  2  0  0  0  0
  6 31  2  0  0  0  0
  7 40  1  0  0  0  0
  7 78  1  0  0  0  0
  8 11  1  0  0  0  0
  8 14  1  0  0  0  0
  8 18  1  0  0  0  0
 15  9  1  1  0  0  0
  9 16  1  0  0  0  0
  9 52  1  0  0  0  0
 24 10  1  1  0  0  0
 10 31  1  0  0  0  0
 10 63  1  0  0  0  0
 11 12  1  0  0  0  0
 11 16  1  6  0  0  0
 11 44  1  0  0  0  0
 12 13  1  0  0  0  0
 12 45  1  0  0  0  0
 12 46  1  0  0  0  0
 13 14  1  0  0  0  0
 14 47  1  0  0  0  0
 14 48  1  0  0  0  0
 15 17  1  0  0  0  0
 15 19  1  0  0  0  0
 15 49  1  0  0  0  0
 17 20  1  0  0  0  0
 17 50  1  0  0  0  0
 17 51  1  0  0  0  0
 18 21  1  0  0  0  0
 19 23  1  0  0  0  0
 19 26  2  0  0  0  0
 20 22  1  0  0  0  0
 20 53  1  0  0  0  0
 20 54  1  0  0  0  0
 21 24  1  0  0  0  0
 21 55  1  0  0  0  0
 22 23  1  0  0  0  0
 22 56  1  0  0  0  0
 22 57  1  0  0  0  0
 23 27  2  0  0  0  0
 24 25  1  0  0  0  0
 24 58  1  0  0  0  0
 25 30  1  0  0  0  0
 25 59  1  0  0  0  0
 25 60  1  0  0  0  0
 26 28  1  0  0  0  0
 26 61  1  0  0  0  0
 27 29  1  0  0  0  0
 27 62  1  0  0  0  0
 28 29  2  0  0  0  0
 28 64  1  0  0  0  0
 29 66  1  0  0  0  0
 30 32  2  0  0  0  0
 30 33  1  0  0  0  0
 31 34  1  0  0  0  0
 32 35  1  0  0  0  0
 32 67  1  0  0  0  0
 33 36  2  0  0  0  0
 33 68  1  0  0  0  0
 34 37  2  0  0  0  0
 34 39  1  0  0  0  0
 35 38  2  0  0  0  0
 35 69  1  0  0  0  0
 36 38  1  0  0  0  0
 36 70  1  0  0  0  0
 37 40  1  0  0  0  0
 37 41  1  0  0  0  0
 38 71  1  0  0  0  0
 39 42  2  0  0  0  0
 39 72  1  0  0  0  0
 40 43  2  0  0  0  0
 41 73  1  0  0  0  0
 41 74  1  0  0  0  0
 41 75  1  0  0  0  0
 42 43  1  0  0  0  0
 42 76  1  0  0  0  0
 43 77  1  0  0  0  0
M  END
> <PUBCHEM_COMPOUND_CID>
514605
> <PUBCHEM_COMPOUND_CANONICALIZED>
1
> <PUBCHEM_CACTVS_COMPLEXITY>
992
> <PUBCHEM_CACTVS_HBOND_ACCEPTOR>
7
> <PUBCHEM_CACTVS_HBOND_DONOR>
4
> <PUBCHEM_CACTVS_ROTATABLE_BOND>
8
> <PUBCHEM_CACTVS_SUBSKEYS>
AAADcfB/OYAAAAAAAAAAAAAAAAAAAWAAAAAwYMGAAAAAAADBUAAAHwAQCAAADDzhmBYyBoPAAgCIAiFSEAKCAAAkIAAIiIHODMgKdjqC1TOUcQhk1hGYmYe6ybCOgAABAAAYAAAAAAKAADQAAAAAAAAAAA==
> <PUBCHEM_IUPAC_OPENEYE_NAME>
(2S)-4,4-difluoro-1-[(2S,3S)-2-hydroxy-3-[(3-hydroxy-2-methyl-benzoyl)amino]-4-phenyl-butanoyl]-N-[(1S)-tetralin-1-yl]pyrrolidine-2-carboxamide
> <PUBCHEM_IUPAC_CAS_NAME>
(2S)-4,4-difluoro-1-[(2S,3S)-2-hydroxy-3-[[(3-hydroxy-2-methylphenyl)-oxomethyl]amino]-1-oxo-4-phenylbutyl]-N-[(1S)-1,2,3,4-tetrahydronaphthalen-1-yl]-2-pyrrolidinecarboxamide
> <PUBCHEM_IUPAC_NAME_MARKUP>
(2<I>S</I>)-4,4-difluoro-1-[(2<I>S</I>,3<I>S</I>)-2-hydroxy-3-[(3-hydroxy-2-methylbenzoyl)amino]-4-phenylbutanoyl]-<I>N</I>-[(1<I>S</I>)-1,2,3,4-tetrahydronaphthalen-1-yl]pyrrolidine-2-carboxamide
> <PUBCHEM_IUPAC_NAME>
(2S)-4,4-difluoro-1-[(2S,3S)-2-hydroxy-3-[(3-hydroxy-2-methylbenzoyl)amino]-4-phenylbutanoyl]-N-[(1S)-1,2,3,4-tetrahydronaphthalen-1-yl]pyrrolidine-2-carboxamide
> <PUBCHEM_IUPAC_SYSTEMATIC_NAME>
(2S)-4,4-bis(fluoranyl)-1-[(2S,3S)-3-[(2-methyl-3-oxidanyl-phenyl)carbonylamino]-2-oxidanyl-4-phenyl-butanoyl]-N-[(1S)-1,2,3,4-tetrahydronaphthalen-1-yl]pyrrolidine-2-carboxamide
> <PUBCHEM_IUPAC_TRADITIONAL_NAME>
(2S)-4,4-difluoro-1-[(2S,3S)-2-hydroxy-3-[(3-hydroxy-2-methyl-benzoyl)amino]-4-phenyl-butanoyl]-N-[(1S)-tetralin-1-yl]pyrrolidine-2-carboxamide
> <PUBCHEM_IUPAC_INCHI>
InChI=1S/C33H35F2N3O5/c1-20-23(14-8-16-28(20)39)30(41)37-26(17-21-9-3-2-4-10-21)29(40)32(43)38-19-33(34,35)18-27(38)31(42)36-25-15-7-12-22-11-5-6-13-24(22)25/h2-6,8-11,13-14,16,25-27,29,39-40H,7,12,15,17-19H2,1H3,(H,36,42)(H,37,41)/t25-,26-,27-,29-/m0/s1
> <PUBCHEM_IUPAC_INCHIKEY>
CPPALJBLPOJMCP-QFVIIZQESA-N
> <PUBCHEM_XLOGP3_AA>
4.6
> <PUBCHEM_EXACT_MASS>
591.25447755
> <PUBCHEM_MOLECULAR_FORMULA>
C33H35F2N3O5
> <PUBCHEM_MOLECULAR_WEIGHT>
591.6
> <PUBCHEM_OPENEYE_CAN_SMILES>
CC1=C(C=CC=C1O)C(=O)NC(CC2=CC=CC=C2)C(C(=O)N3CC(CC3C(=O)NC4CCCC5=CC=CC=C45)(F)F)O
> <PUBCHEM_OPENEYE_ISO_SMILES>
CC1=C(C=CC=C1O)C(=O)N[C@@H](CC2=CC=CC=C2)[C@@H](C(=O)N3CC(C[C@H]3C(=O)N[C@H]4CCCC5=CC=CC=C45)(F)F)O
> <PUBCHEM_CACTVS_TPSA>
119
> <PUBCHEM_MONOISOTOPIC_WEIGHT>
591.25447755
> <PUBCHEM_TOTAL_CHARGE>
0
> <PUBCHEM_HEAVY_ATOM_COUNT>
43
> <PUBCHEM_ATOM_DEF_STEREO_COUNT>
4
> <PUBCHEM_ATOM_UDEF_STEREO_COUNT>
0
> <PUBCHEM_BOND_DEF_STEREO_COUNT>
0
> <PUBCHEM_BOND_UDEF_STEREO_COUNT>
0
> <PUBCHEM_ISOTOPIC_ATOM_COUNT>
0
> <PUBCHEM_COMPONENT_COUNT>
1
> <PUBCHEM_CACTVS_TAUTO_COUNT>
-1
> <PUBCHEM_COORDINATE_TYPE>
1
5
255
> <PUBCHEM_BONDANNOTATIONS>
24  10  5
11  16  6
19  23  8
19  26  8
23  27  8
26  28  8
27  29  8
28  29  8
30  32  8
30  33  8
32  35  8
33  36  8
34  37  8
34  39  8
35  38  8
36  38  8
37  40  8
39  42  8
21  4  5
40  43  8
42  43  8
15  9  5
$$$$
