514646
  -OEChem-10302200282D
 66 68  0     1  0  0  0  0  0999 V2000
    8.8881   -2.0567    0.0000 F   0  0  0  0  0  0  0  0  0  0  0  0
    9.0110   -0.8876    0.0000 F   0  0  0  0  0  0  0  0  0  0  0  0
    7.0826    1.2268    0.0000 O   0  0  0  0  0  0  0  0  0  0  0  0
    4.9726   -0.3694    0.0000 O   0  0  0  0  0  0  0  0  0  0  0  0
    4.8302   -1.7240    0.0000 O   0  0  0  0  0  0  0  0  0  0  0  0
    6.7553    3.8522    0.0000 O   0  0  0  0  0  0  0  0  0  0  0  0
    7.2905    2.2050    0.0000 O   0  0  0  0  0  0  0  0  0  0  0  0
    6.6668   -0.7295    0.0000 N   0  0  0  0  0  0  0  0  0  0  0  0
    5.6962   -3.2240    0.0000 N   0  0  0  0  0  0  0  0  0  0  0  0
    5.5963    2.5651    0.0000 N   0  0  0  0  0  0  0  0  0  0  0  0
    6.5622   -1.7240    0.0000 C   0  0  1  0  0  0  0  0  0  0  0  0
    7.4758   -2.1307    0.0000 C   0  0  0  0  0  0  0  0  0  0  0  0
    8.1449   -1.3876    0.0000 C   0  0  0  0  0  0  0  0  0  0  0  0
    7.6449   -0.5216    0.0000 C   0  0  0  0  0  0  0  0  0  0  0  0
    5.9236   -0.0604    0.0000 C   0  0  0  0  0  0  0  0  0  0  0  0
    6.1316    0.9178    0.0000 C   0  0  2  0  0  0  0  0  0  0  0  0
    5.6962   -2.2240    0.0000 C   0  0  0  0  0  0  0  0  0  0  0  0
    5.3884    1.5869    0.0000 C   0  0  2  0  0  0  0  0  0  0  0  0
    4.4374    1.2779    0.0000 C   0  0  0  0  0  0  0  0  0  0  0  0
    4.8302   -3.7240    0.0000 C   0  0  0  0  0  0  0  0  0  0  0  0
    3.6942    1.9470    0.0000 C   0  0  0  0  0  0  0  0  0  0  0  0
    4.8302   -4.7240    0.0000 C   0  0  0  0  0  0  0  0  0  0  0  0
    6.5474    2.8741    0.0000 C   0  0  0  0  0  0  0  0  0  0  0  0
    2.7431    1.6380    0.0000 C   0  0  0  0  0  0  0  0  0  0  0  0
    3.9021    2.9252    0.0000 C   0  0  0  0  0  0  0  0  0  0  0  0
    3.9642   -5.2240    0.0000 C   0  0  0  0  0  0  0  0  0  0  0  0
    5.6962   -5.2240    0.0000 C   0  0  0  0  0  0  0  0  0  0  0  0
    2.0000    2.3072    0.0000 C   0  0  0  0  0  0  0  0  0  0  0  0
    3.1590    3.5943    0.0000 C   0  0  0  0  0  0  0  0  0  0  0  0
    2.2079    3.2853    0.0000 C   0  0  0  0  0  0  0  0  0  0  0  0
    3.9642   -6.2240    0.0000 C   0  0  0  0  0  0  0  0  0  0  0  0
    3.0982   -4.7240    0.0000 C   0  0  0  0  0  0  0  0  0  0  0  0
    5.6962   -6.2240    0.0000 C   0  0  0  0  0  0  0  0  0  0  0  0
    4.8302   -6.7240    0.0000 C   0  0  0  0  0  0  0  0  0  0  0  0
    7.7063    4.1613    0.0000 C   0  0  0  0  0  0  0  0  0  0  0  0
    7.9142    5.1394    0.0000 C   0  0  0  0  0  0  0  0  0  0  0  0
    8.1222    6.1175    0.0000 C   0  0  0  0  0  0  0  0  0  0  0  0
    6.0423   -1.3863    0.0000 H   0  0  0  0  0  0  0  0  0  0  0  0
    7.1658   -2.6677    0.0000 H   0  0  0  0  0  0  0  0  0  0  0  0
    7.9774   -2.4952    0.0000 H   0  0  0  0  0  0  0  0  0  0  0  0
    8.2113   -0.2694    0.0000 H   0  0  0  0  0  0  0  0  0  0  0  0
    7.4533    0.0681    0.0000 H   0  0  0  0  0  0  0  0  0  0  0  0
    6.2604    1.5243    0.0000 H   0  0  0  0  0  0  0  0  0  0  0  0
    4.9276    2.0018    0.0000 H   0  0  0  0  0  0  0  0  0  0  0  0
    3.9488    0.8962    0.0000 H   0  0  0  0  0  0  0  0  0  0  0  0
    4.7284    0.7305    0.0000 H   0  0  0  0  0  0  0  0  0  0  0  0
    6.2332   -3.5340    0.0000 H   0  0  0  0  0  0  0  0  0  0  0  0
    5.1356    2.9799    0.0000 H   0  0  0  0  0  0  0  0  0  0  0  0
    4.6182   -3.1414    0.0000 H   0  0  0  0  0  0  0  0  0  0  0  0
    4.2196   -3.8317    0.0000 H   0  0  0  0  0  0  0  0  0  0  0  0
    7.5434    0.8120    0.0000 H   0  0  0  0  0  0  0  0  0  0  0  0
    2.6142    1.0316    0.0000 H   0  0  0  0  0  0  0  0  0  0  0  0
    4.4918    3.1168    0.0000 H   0  0  0  0  0  0  0  0  0  0  0  0
    6.2332   -4.9140    0.0000 H   0  0  0  0  0  0  0  0  0  0  0  0
    1.4103    2.1156    0.0000 H   0  0  0  0  0  0  0  0  0  0  0  0
    3.2879    4.2008    0.0000 H   0  0  0  0  0  0  0  0  0  0  0  0
    1.7472    3.7002    0.0000 H   0  0  0  0  0  0  0  0  0  0  0  0
    3.4272   -6.5340    0.0000 H   0  0  0  0  0  0  0  0  0  0  0  0
    3.4082   -4.1871    0.0000 H   0  0  0  0  0  0  0  0  0  0  0  0
    2.5612   -4.4140    0.0000 H   0  0  0  0  0  0  0  0  0  0  0  0
    2.7882   -5.2609    0.0000 H   0  0  0  0  0  0  0  0  0  0  0  0
    6.2332   -6.5340    0.0000 H   0  0  0  0  0  0  0  0  0  0  0  0
    4.8302   -7.3440    0.0000 H   0  0  0  0  0  0  0  0  0  0  0  0
    7.7926    3.5473    0.0000 H   0  0  0  0  0  0  0  0  0  0  0  0
    8.3260    4.1396    0.0000 H   0  0  0  0  0  0  0  0  0  0  0  0
    8.2511    6.7240    0.0000 H   0  0  0  0  0  0  0  0  0  0  0  0
  1 13  1  0  0  0  0
  2 13  1  0  0  0  0
 16  3  1  6  0  0  0
  3 51  1  0  0  0  0
  4 15  2  0  0  0  0
  5 17  2  0  0  0  0
  6 23  1  0  0  0  0
  6 35  1  0  0  0  0
  7 23  2  0  0  0  0
  8 11  1  0  0  0  0
  8 14  1  0  0  0  0
  8 15  1  0  0  0  0
  9 17  1  0  0  0  0
  9 20  1  0  0  0  0
  9 47  1  0  0  0  0
 18 10  1  6  0  0  0
 10 23  1  0  0  0  0
 10 48  1  0  0  0  0
 11 12  1  0  0  0  0
 11 17  1  1  0  0  0
 11 38  1  0  0  0  0
 12 13  1  0  0  0  0
 12 39  1  0  0  0  0
 12 40  1  0  0  0  0
 13 14  1  0  0  0  0
 14 41  1  0  0  0  0
 14 42  1  0  0  0  0
 15 16  1  0  0  0  0
 16 18  1  0  0  0  0
 16 43  1  0  0  0  0
 18 19  1  0  0  0  0
 18 44  1  0  0  0  0
 19 21  1  0  0  0  0
 19 45  1  0  0  0  0
 19 46  1  0  0  0  0
 20 22  1  0  0  0  0
 20 49  1  0  0  0  0
 20 50  1  0  0  0  0
 21 24  2  0  0  0  0
 21 25  1  0  0  0  0
 22 26  1  0  0  0  0
 22 27  2  0  0  0  0
 24 28  1  0  0  0  0
 24 52  1  0  0  0  0
 25 29  2  0  0  0  0
 25 53  1  0  0  0  0
 26 31  2  0  0  0  0
 26 32  1  0  0  0  0
 27 33  1  0  0  0  0
 27 54  1  0  0  0  0
 28 30  2  0  0  0  0
 28 55  1  0  0  0  0
 29 30  1  0  0  0  0
 29 56  1  0  0  0  0
 30 57  1  0  0  0  0
 31 34  1  0  0  0  0
 31 58  1  0  0  0  0
 32 59  1  0  0  0  0
 32 60  1  0  0  0  0
 32 61  1  0  0  0  0
 33 34  2  0  0  0  0
 33 62  1  0  0  0  0
 34 63  1  0  0  0  0
 35 36  1  0  0  0  0
 35 64  1  0  0  0  0
 35 65  1  0  0  0  0
 36 37  3  0  0  0  0
 37 66  1  0  0  0  0
M  END
> <PUBCHEM_COMPOUND_CID>
514646
> <PUBCHEM_COMPOUND_CANONICALIZED>
1
> <PUBCHEM_CACTVS_COMPLEXITY>
854
> <PUBCHEM_CACTVS_HBOND_ACCEPTOR>
7
> <PUBCHEM_CACTVS_HBOND_DONOR>
3
> <PUBCHEM_CACTVS_ROTATABLE_BOND>
10
> <PUBCHEM_CACTVS_SUBSKEYS>
AAADceB7OYAAAAAAAAAAAAAAAAAAAWAAAAAwYAAAAAAAAAABQAAAHwAQCAAADDzhmBYyCIPABgDIGiFSGAKCAAAgAAAIiIHIBIkKcDqA0TGcYAhklgCYiAeYyaCOgAAAAAAQAAAAAAAAACAAAAAAAAAAAA==
> <PUBCHEM_IUPAC_OPENEYE_NAME>
prop-2-ynyl N-[(1S,2S)-1-benzyl-3-[(2S)-4,4-difluoro-2-(o-tolylmethylcarbamoyl)pyrrolidin-1-yl]-2-hydroxy-3-oxo-propyl]carbamate
> <PUBCHEM_IUPAC_CAS_NAME>
N-[(2S,3S)-4-[(2S)-4,4-difluoro-2-[[(2-methylphenyl)methylamino]-oxomethyl]-1-pyrrolidinyl]-3-hydroxy-4-oxo-1-phenylbutan-2-yl]carbamic acid prop-2-ynyl ester
> <PUBCHEM_IUPAC_NAME_MARKUP>
prop-2-ynyl <I>N</I>-[(2<I>S</I>,3<I>S</I>)-4-[(2<I>S</I>)-4,4-difluoro-2-[(2-methylphenyl)methylcarbamoyl]pyrrolidin-1-yl]-3-hydroxy-4-oxo-1-phenylbutan-2-yl]carbamate
> <PUBCHEM_IUPAC_NAME>
prop-2-ynyl N-[(2S,3S)-4-[(2S)-4,4-difluoro-2-[(2-methylphenyl)methylcarbamoyl]pyrrolidin-1-yl]-3-hydroxy-4-oxo-1-phenylbutan-2-yl]carbamate
> <PUBCHEM_IUPAC_SYSTEMATIC_NAME>
prop-2-ynyl N-[(2S,3S)-4-[(2S)-4,4-bis(fluoranyl)-2-[(2-methylphenyl)methylcarbamoyl]pyrrolidin-1-yl]-3-oxidanyl-4-oxidanylidene-1-phenyl-butan-2-yl]carbamate
> <PUBCHEM_IUPAC_TRADITIONAL_NAME>
N-[(1S,2S)-1-benzyl-3-[(2S)-4,4-difluoro-2-[(2-methylbenzyl)carbamoyl]pyrrolidino]-2-hydroxy-3-keto-propyl]carbamic acid propargyl ester
> <PUBCHEM_IUPAC_INCHI>
InChI=1S/C27H29F2N3O5/c1-3-13-37-26(36)31-21(14-19-10-5-4-6-11-19)23(33)25(35)32-17-27(28,29)15-22(32)24(34)30-16-20-12-8-7-9-18(20)2/h1,4-12,21-23,33H,13-17H2,2H3,(H,30,34)(H,31,36)/t21-,22-,23-/m0/s1
> <PUBCHEM_IUPAC_INCHIKEY>
NNGPVNOVEAZDIV-VABKMULXSA-N
> <PUBCHEM_XLOGP3_AA>
3
> <PUBCHEM_EXACT_MASS>
513.20752736
> <PUBCHEM_MOLECULAR_FORMULA>
C27H29F2N3O5
> <PUBCHEM_MOLECULAR_WEIGHT>
513.5
> <PUBCHEM_OPENEYE_CAN_SMILES>
CC1=CC=CC=C1CNC(=O)C2CC(CN2C(=O)C(C(CC3=CC=CC=C3)NC(=O)OCC#C)O)(F)F
> <PUBCHEM_OPENEYE_ISO_SMILES>
CC1=CC=CC=C1CNC(=O)[C@@H]2CC(CN2C(=O)[C@H]([C@H](CC3=CC=CC=C3)NC(=O)OCC#C)O)(F)F
> <PUBCHEM_CACTVS_TPSA>
108
> <PUBCHEM_MONOISOTOPIC_WEIGHT>
513.20752736
> <PUBCHEM_TOTAL_CHARGE>
0
> <PUBCHEM_HEAVY_ATOM_COUNT>
37
> <PUBCHEM_ATOM_DEF_STEREO_COUNT>
3
> <PUBCHEM_ATOM_UDEF_STEREO_COUNT>
0
> <PUBCHEM_BOND_DEF_STEREO_COUNT>
0
> <PUBCHEM_BOND_UDEF_STEREO_COUNT>
0
> <PUBCHEM_ISOTOPIC_ATOM_COUNT>
0
> <PUBCHEM_COMPONENT_COUNT>
1
> <PUBCHEM_CACTVS_TAUTO_COUNT>
-1
> <PUBCHEM_COORDINATE_TYPE>
1
5
255
> <PUBCHEM_BONDANNOTATIONS>
18  10  6
11  17  5
21  24  8
21  25  8
22  26  8
22  27  8
24  28  8
25  29  8
26  31  8
27  33  8
28  30  8
29  30  8
16  3  6
31  34  8
33  34  8
$$$$
