514717
  -OEChem-10302200282D
 77 81  0     1  0  0  0  0  0999 V2000
    9.0154    1.6279    0.0000 S   0  0  0  0  0  0  0  0  0  0  0  0
    6.2200    2.0151    0.0000 O   0  0  0  0  0  0  0  0  0  0  0  0
    9.3814   -1.4109    0.0000 O   0  0  0  0  0  0  0  0  0  0  0  0
    6.5474   -0.6103    0.0000 O   0  0  0  0  0  0  0  0  0  0  0  0
    2.8046    2.8364    0.0000 O   0  0  0  0  0  0  0  0  0  0  0  0
    7.6493   -4.4109    0.0000 O   0  0  0  0  0  0  0  0  0  0  0  0
    5.4769    2.6842    0.0000 O   0  0  0  0  0  0  0  0  0  0  0  0
    7.7063    0.6768    0.0000 N   0  0  0  0  0  0  0  0  0  0  0  0
    7.6493   -1.4109    0.0000 N   0  0  0  0  0  0  0  0  0  0  0  0
    4.3179    1.3971    0.0000 N   0  0  0  0  0  0  0  0  0  0  0  0
    9.3244    0.6768    0.0000 C   0  0  0  0  0  0  0  0  0  0  0  0
    8.5154    0.0891    0.0000 C   0  0  1  0  0  0  0  0  0  0  0  0
    8.0154    1.6279    0.0000 C   0  0  0  0  0  0  0  0  0  0  0  0
   10.2754    0.9859    0.0000 C   0  0  0  0  0  0  0  0  0  0  0  0
    9.9122   -0.1322    0.0000 C   0  0  0  0  0  0  0  0  0  0  0  0
    8.5154   -0.9109    0.0000 C   0  0  0  0  0  0  0  0  0  0  0  0
    6.7553    0.3678    0.0000 C   0  0  0  0  0  0  0  0  0  0  0  0
    6.0121    1.0370    0.0000 C   0  0  2  0  0  0  0  0  0  0  0  0
    5.0611    0.7279    0.0000 C   0  0  2  0  0  0  0  0  0  0  0  0
    7.6493   -2.4109    0.0000 C   0  0  1  0  0  0  0  0  0  0  0  0
    8.5154   -2.9109    0.0000 C   0  0  0  0  0  0  0  0  0  0  0  0
    4.8532   -0.2502    0.0000 C   0  0  0  0  0  0  0  0  0  0  0  0
    6.7833   -2.9109    0.0000 C   0  0  0  0  0  0  0  0  0  0  0  0
    3.7827    3.0444    0.0000 C   0  0  1  0  0  0  0  0  0  0  0  0
    8.5154   -3.9109    0.0000 C   0  0  0  0  0  0  0  0  0  0  0  0
    3.8872    4.0389    0.0000 C   0  0  0  0  0  0  0  0  0  0  0  0
    4.5258    2.3752    0.0000 C   0  0  0  0  0  0  0  0  0  0  0  0
    2.9737    4.4456    0.0000 C   0  0  0  0  0  0  0  0  0  0  0  0
    6.7833   -3.9109    0.0000 C   0  0  0  0  0  0  0  0  0  0  0  0
    3.9021   -0.5592    0.0000 C   0  0  0  0  0  0  0  0  0  0  0  0
    2.3046    3.7025    0.0000 C   0  0  0  0  0  0  0  0  0  0  0  0
    5.8894   -2.3763    0.0000 C   0  0  0  0  0  0  0  0  0  0  0  0
    5.8894   -4.4456    0.0000 C   0  0  0  0  0  0  0  0  0  0  0  0
    3.6942   -1.5374    0.0000 C   0  0  0  0  0  0  0  0  0  0  0  0
    3.1590    0.1099    0.0000 C   0  0  0  0  0  0  0  0  0  0  0  0
    4.9833   -2.8901    0.0000 C   0  0  0  0  0  0  0  0  0  0  0  0
    4.9833   -3.9318    0.0000 C   0  0  0  0  0  0  0  0  0  0  0  0
    2.7431   -1.8464    0.0000 C   0  0  0  0  0  0  0  0  0  0  0  0
    2.2079   -0.1991    0.0000 C   0  0  0  0  0  0  0  0  0  0  0  0
    2.0000   -1.1773    0.0000 C   0  0  0  0  0  0  0  0  0  0  0  0
    7.9629   -0.1924    0.0000 H   0  0  0  0  0  0  0  0  0  0  0  0
    8.0802    2.2445    0.0000 H   0  0  0  0  0  0  0  0  0  0  0  0
    7.4089    1.7568    0.0000 H   0  0  0  0  0  0  0  0  0  0  0  0
   10.4670    0.3962    0.0000 H   0  0  0  0  0  0  0  0  0  0  0  0
   10.8651    1.1775    0.0000 H   0  0  0  0  0  0  0  0  0  0  0  0
   10.0838    1.5755    0.0000 H   0  0  0  0  0  0  0  0  0  0  0  0
    9.4106   -0.4966    0.0000 H   0  0  0  0  0  0  0  0  0  0  0  0
   10.2766   -0.6338    0.0000 H   0  0  0  0  0  0  0  0  0  0  0  0
   10.4137    0.2323    0.0000 H   0  0  0  0  0  0  0  0  0  0  0  0
    6.6018    1.2286    0.0000 H   0  0  0  0  0  0  0  0  0  0  0  0
    5.1900    1.3344    0.0000 H   0  0  0  0  0  0  0  0  0  0  0  0
    8.1863   -2.1009    0.0000 H   0  0  0  0  0  0  0  0  0  0  0  0
    7.1124   -1.1009    0.0000 H   0  0  0  0  0  0  0  0  0  0  0  0
    9.1259   -3.0186    0.0000 H   0  0  0  0  0  0  0  0  0  0  0  0
    8.7274   -2.3283    0.0000 H   0  0  0  0  0  0  0  0  0  0  0  0
    4.9395   -0.8642    0.0000 H   0  0  0  0  0  0  0  0  0  0  0  0
    5.4728   -0.2718    0.0000 H   0  0  0  0  0  0  0  0  0  0  0  0
    3.7283    1.2055    0.0000 H   0  0  0  0  0  0  0  0  0  0  0  0
    3.6222    2.4455    0.0000 H   0  0  0  0  0  0  0  0  0  0  0  0
    4.4937    3.9100    0.0000 H   0  0  0  0  0  0  0  0  0  0  0  0
    4.0788    4.6285    0.0000 H   0  0  0  0  0  0  0  0  0  0  0  0
    8.7274   -4.4936    0.0000 H   0  0  0  0  0  0  0  0  0  0  0  0
    9.1259   -3.8033    0.0000 H   0  0  0  0  0  0  0  0  0  0  0  0
    3.2837    4.9825    0.0000 H   0  0  0  0  0  0  0  0  0  0  0  0
    2.4721    4.8100    0.0000 H   0  0  0  0  0  0  0  0  0  0  0  0
    6.8097    2.2067    0.0000 H   0  0  0  0  0  0  0  0  0  0  0  0
    1.8897    4.1632    0.0000 H   0  0  0  0  0  0  0  0  0  0  0  0
    1.8030    3.3380    0.0000 H   0  0  0  0  0  0  0  0  0  0  0  0
    5.8965   -1.7563    0.0000 H   0  0  0  0  0  0  0  0  0  0  0  0
    5.8965   -5.0656    0.0000 H   0  0  0  0  0  0  0  0  0  0  0  0
    4.1550   -1.9522    0.0000 H   0  0  0  0  0  0  0  0  0  0  0  0
    3.2879    0.7164    0.0000 H   0  0  0  0  0  0  0  0  0  0  0  0
    4.4476   -2.5781    0.0000 H   0  0  0  0  0  0  0  0  0  0  0  0
    4.4476   -4.2438    0.0000 H   0  0  0  0  0  0  0  0  0  0  0  0
    2.6142   -2.4528    0.0000 H   0  0  0  0  0  0  0  0  0  0  0  0
    1.7472    0.2157    0.0000 H   0  0  0  0  0  0  0  0  0  0  0  0
    1.4103   -1.3688    0.0000 H   0  0  0  0  0  0  0  0  0  0  0  0
  1 11  1  0  0  0  0
  1 13  1  0  0  0  0
 18  2  1  6  0  0  0
  2 66  1  0  0  0  0
  3 16  2  0  0  0  0
  4 17  2  0  0  0  0
  5 24  1  0  0  0  0
  5 31  1  0  0  0  0
  6 25  1  0  0  0  0
  6 29  1  0  0  0  0
  7 27  2  0  0  0  0
  8 12  1  0  0  0  0
  8 13  1  0  0  0  0
  8 17  1  0  0  0  0
  9 16  1  0  0  0  0
 20  9  1  1  0  0  0
  9 53  1  0  0  0  0
 19 10  1  6  0  0  0
 10 27  1  0  0  0  0
 10 58  1  0  0  0  0
 11 12  1  0  0  0  0
 11 14  1  0  0  0  0
 11 15  1  0  0  0  0
 12 16  1  1  0  0  0
 12 41  1  0  0  0  0
 13 42  1  0  0  0  0
 13 43  1  0  0  0  0
 14 44  1  0  0  0  0
 14 45  1  0  0  0  0
 14 46  1  0  0  0  0
 15 47  1  0  0  0  0
 15 48  1  0  0  0  0
 15 49  1  0  0  0  0
 17 18  1  0  0  0  0
 18 19  1  0  0  0  0
 18 50  1  0  0  0  0
 19 22  1  0  0  0  0
 19 51  1  0  0  0  0
 20 21  1  0  0  0  0
 20 23  1  0  0  0  0
 20 52  1  0  0  0  0
 21 25  1  0  0  0  0
 21 54  1  0  0  0  0
 21 55  1  0  0  0  0
 22 30  1  0  0  0  0
 22 56  1  0  0  0  0
 22 57  1  0  0  0  0
 23 29  1  0  0  0  0
 23 32  2  0  0  0  0
 24 26  1  0  0  0  0
 24 27  1  1  0  0  0
 24 59  1  0  0  0  0
 25 62  1  0  0  0  0
 25 63  1  0  0  0  0
 26 28  1  0  0  0  0
 26 60  1  0  0  0  0
 26 61  1  0  0  0  0
 28 31  1  0  0  0  0
 28 64  1  0  0  0  0
 28 65  1  0  0  0  0
 29 33  2  0  0  0  0
 30 34  2  0  0  0  0
 30 35  1  0  0  0  0
 31 67  1  0  0  0  0
 31 68  1  0  0  0  0
 32 36  1  0  0  0  0
 32 69  1  0  0  0  0
 33 37  1  0  0  0  0
 33 70  1  0  0  0  0
 34 38  1  0  0  0  0
 34 71  1  0  0  0  0
 35 39  2  0  0  0  0
 35 72  1  0  0  0  0
 36 37  2  0  0  0  0
 36 73  1  0  0  0  0
 37 74  1  0  0  0  0
 38 40  2  0  0  0  0
 38 75  1  0  0  0  0
 39 40  1  0  0  0  0
 39 76  1  0  0  0  0
 40 77  1  0  0  0  0
M  END
> <PUBCHEM_COMPOUND_CID>
514717
> <PUBCHEM_COMPOUND_CANONICALIZED>
1
> <PUBCHEM_CACTVS_COMPLEXITY>
912
> <PUBCHEM_CACTVS_HBOND_ACCEPTOR>
7
> <PUBCHEM_CACTVS_HBOND_DONOR>
3
> <PUBCHEM_CACTVS_ROTATABLE_BOND>
8
> <PUBCHEM_CACTVS_SUBSKEYS>
AAADcfB7OABAAAAAAAAAAAAAAAAAAWJAAAA0YIAAAAAAAACRQAAAHgQQCAAADDzh2AayBoPABgiIAiFSEAKCCABgIBAIiIHODIgOdjqk8T+XeCjm1hGYqAeY3KKOAAAAAAAIAAAAAAAAABAAAAAAAAAAAA==
> <PUBCHEM_IUPAC_OPENEYE_NAME>
(4R)-N-[(4S)-chroman-4-yl]-3-[(2S,3S)-2-hydroxy-4-phenyl-3-[[(2S)-tetrahydrofuran-2-carbonyl]amino]butanoyl]-5,5-dimethyl-thiazolidine-4-carboxamide
> <PUBCHEM_IUPAC_CAS_NAME>
(4R)-N-[(4S)-3,4-dihydro-2H-1-benzopyran-4-yl]-3-[(2S,3S)-2-hydroxy-1-oxo-3-[[oxo-[(2S)-2-oxolanyl]methyl]amino]-4-phenylbutyl]-5,5-dimethyl-4-thiazolidinecarboxamide
> <PUBCHEM_IUPAC_NAME_MARKUP>
(4<I>R</I>)-<I>N</I>-[(4<I>S</I>)-3,4-dihydro-2<I>H</I>-chromen-4-yl]-3-[(2<I>S</I>,3<I>S</I>)-2-hydroxy-3-[[(2<I>S</I>)-oxolane-2-carbonyl]amino]-4-phenylbutanoyl]-5,5-dimethyl-1,3-thiazolidine-4-carboxamide
> <PUBCHEM_IUPAC_NAME>
(4R)-N-[(4S)-3,4-dihydro-2H-chromen-4-yl]-3-[(2S,3S)-2-hydroxy-3-[[(2S)-oxolane-2-carbonyl]amino]-4-phenylbutanoyl]-5,5-dimethyl-1,3-thiazolidine-4-carboxamide
> <PUBCHEM_IUPAC_SYSTEMATIC_NAME>
(4R)-N-[(4S)-3,4-dihydro-2H-chromen-4-yl]-5,5-dimethyl-3-[(2S,3S)-2-oxidanyl-3-[[(2S)-oxolan-2-yl]carbonylamino]-4-phenyl-butanoyl]-1,3-thiazolidine-4-carboxamide
> <PUBCHEM_IUPAC_TRADITIONAL_NAME>
(4R)-N-[(4S)-chroman-4-yl]-3-[(2S,3S)-2-hydroxy-4-phenyl-3-[[(2S)-tetrahydrofuran-2-carbonyl]amino]butanoyl]-5,5-dimethyl-thiazolidine-4-carboxamide
> <PUBCHEM_IUPAC_INCHI>
InChI=1S/C30H37N3O6S/c1-30(2)26(28(36)31-21-14-16-39-23-12-7-6-11-20(21)23)33(18-40-30)29(37)25(34)22(17-19-9-4-3-5-10-19)32-27(35)24-13-8-15-38-24/h3-7,9-12,21-22,24-26,34H,8,13-18H2,1-2H3,(H,31,36)(H,32,35)/t21-,22-,24-,25-,26+/m0/s1
> <PUBCHEM_IUPAC_INCHIKEY>
DPCBSJZWZDKDRC-SDIXAGHWSA-N
> <PUBCHEM_XLOGP3_AA>
3
> <PUBCHEM_EXACT_MASS>
567.24030708
> <PUBCHEM_MOLECULAR_FORMULA>
C30H37N3O6S
> <PUBCHEM_MOLECULAR_WEIGHT>
567.7
> <PUBCHEM_OPENEYE_CAN_SMILES>
CC1(C(N(CS1)C(=O)C(C(CC2=CC=CC=C2)NC(=O)C3CCCO3)O)C(=O)NC4CCOC5=CC=CC=C45)C
> <PUBCHEM_OPENEYE_ISO_SMILES>
CC1([C@H](N(CS1)C(=O)[C@H]([C@H](CC2=CC=CC=C2)NC(=O)[C@@H]3CCCO3)O)C(=O)N[C@H]4CCOC5=CC=CC=C45)C
> <PUBCHEM_CACTVS_TPSA>
143
> <PUBCHEM_MONOISOTOPIC_WEIGHT>
567.24030708
> <PUBCHEM_TOTAL_CHARGE>
0
> <PUBCHEM_HEAVY_ATOM_COUNT>
40
> <PUBCHEM_ATOM_DEF_STEREO_COUNT>
5
> <PUBCHEM_ATOM_UDEF_STEREO_COUNT>
0
> <PUBCHEM_BOND_DEF_STEREO_COUNT>
0
> <PUBCHEM_BOND_UDEF_STEREO_COUNT>
0
> <PUBCHEM_ISOTOPIC_ATOM_COUNT>
0
> <PUBCHEM_COMPONENT_COUNT>
1
> <PUBCHEM_CACTVS_TAUTO_COUNT>
-1
> <PUBCHEM_COORDINATE_TYPE>
1
5
255
> <PUBCHEM_BONDANNOTATIONS>
19  10  6
12  16  5
18  2  6
23  29  8
23  32  8
24  27  5
29  33  8
30  34  8
30  35  8
32  36  8
33  37  8
34  38  8
35  39  8
36  37  8
38  40  8
39  40  8
20  9  5
$$$$
