514770
  -OEChem-10302200282D
 79 82  0     1  0  0  0  0  0999 V2000
    8.9962   -0.5091    0.0000 S   0  0  0  0  0  0  0  0  0  0  0  0
    7.2641    2.4909    0.0000 O   0  0  0  0  0  0  0  0  0  0  0  0
    7.2641    1.4909    0.0000 O   0  0  0  0  0  0  0  0  0  0  0  0
    5.5321   -0.5091    0.0000 O   0  0  0  0  0  0  0  0  0  0  0  0
    8.9962   -1.5091    0.0000 O   0  0  0  0  0  0  0  0  0  0  0  0
    7.6301   -4.5479    0.0000 O   0  0  0  0  0  0  0  0  0  0  0  0
    5.5321    1.4909    0.0000 N   0  0  0  0  0  0  0  0  0  0  0  0
    6.3981    3.9909    0.0000 N   0  0  0  0  0  0  0  0  0  0  0  0
    7.2641   -1.5091    0.0000 N   0  0  0  0  0  0  0  0  0  0  0  0
    7.3211   -3.5969    0.0000 N   0  0  0  0  0  0  0  0  0  0  0  0
    3.8000    2.4909    0.0000 C   0  0  2  0  0  0  0  0  0  0  0  0
    3.8000    1.4909    0.0000 C   0  0  2  0  0  0  0  0  0  0  0  0
    4.6660    2.9909    0.0000 C   0  0  0  0  0  0  0  0  0  0  0  0
    2.9061    3.0256    0.0000 C   0  0  0  0  0  0  0  0  0  0  0  0
    2.9061    0.9563    0.0000 C   0  0  0  0  0  0  0  0  0  0  0  0
    4.6660    0.9909    0.0000 C   0  0  0  0  0  0  0  0  0  0  0  0
    5.5321    2.4909    0.0000 C   0  0  1  0  0  0  0  0  0  0  0  0
    2.0000    2.5117    0.0000 C   0  0  0  0  0  0  0  0  0  0  0  0
    2.0000    1.4701    0.0000 C   0  0  0  0  0  0  0  0  0  0  0  0
    6.3981    2.9909    0.0000 C   0  0  0  0  0  0  0  0  0  0  0  0
    6.3981    0.9909    0.0000 C   0  0  0  0  0  0  0  0  0  0  0  0
    6.3981   -0.0091    0.0000 C   0  0  2  0  0  0  0  0  0  0  0  0
    7.2641    4.4909    0.0000 C   0  0  0  0  0  0  0  0  0  0  0  0
    7.2641   -0.5091    0.0000 C   0  0  2  0  0  0  0  0  0  0  0  0
    8.1301    4.9909    0.0000 C   0  0  0  0  0  0  0  0  0  0  0  0
    6.7641    5.3569    0.0000 C   0  0  0  0  0  0  0  0  0  0  0  0
    7.7641    3.6249    0.0000 C   0  0  0  0  0  0  0  0  0  0  0  0
    8.1301   -0.0091    0.0000 C   0  0  0  0  0  0  0  0  0  0  0  0
    8.1301   -2.0091    0.0000 C   0  0  0  0  0  0  0  0  0  0  0  0
    9.8622   -0.0091    0.0000 C   0  0  0  0  0  0  0  0  0  0  0  0
    8.1301   -3.0091    0.0000 C   0  0  0  0  0  0  0  0  0  0  0  0
    8.9392   -3.5969    0.0000 C   0  0  0  0  0  0  0  0  0  0  0  0
    9.8622    0.9909    0.0000 C   0  0  0  0  0  0  0  0  0  0  0  0
   10.7282   -0.5091    0.0000 C   0  0  0  0  0  0  0  0  0  0  0  0
    8.6301   -4.5479    0.0000 C   0  0  0  0  0  0  0  0  0  0  0  0
   10.7282    1.4909    0.0000 C   0  0  0  0  0  0  0  0  0  0  0  0
   11.5942   -0.0091    0.0000 C   0  0  0  0  0  0  0  0  0  0  0  0
   11.5942    0.9909    0.0000 C   0  0  0  0  0  0  0  0  0  0  0  0
    9.2179   -5.3569    0.0000 C   0  0  0  0  0  0  0  0  0  0  0  0
    3.8066    3.3409    0.0000 H   0  0  0  0  0  0  0  0  0  0  0  0
    3.8066    0.6409    0.0000 H   0  0  0  0  0  0  0  0  0  0  0  0
    5.0646    3.4659    0.0000 H   0  0  0  0  0  0  0  0  0  0  0  0
    4.2675    3.4659    0.0000 H   0  0  0  0  0  0  0  0  0  0  0  0
    3.3107    3.4954    0.0000 H   0  0  0  0  0  0  0  0  0  0  0  0
    2.5124    3.5046    0.0000 H   0  0  0  0  0  0  0  0  0  0  0  0
    2.5124    0.4772    0.0000 H   0  0  0  0  0  0  0  0  0  0  0  0
    3.3107    0.4865    0.0000 H   0  0  0  0  0  0  0  0  0  0  0  0
    4.2675    0.5160    0.0000 H   0  0  0  0  0  0  0  0  0  0  0  0
    5.0646    0.5160    0.0000 H   0  0  0  0  0  0  0  0  0  0  0  0
    6.0690    2.1809    0.0000 H   0  0  0  0  0  0  0  0  0  0  0  0
    1.7909    3.0954    0.0000 H   0  0  0  0  0  0  0  0  0  0  0  0
    1.3891    2.4056    0.0000 H   0  0  0  0  0  0  0  0  0  0  0  0
    1.3891    1.5762    0.0000 H   0  0  0  0  0  0  0  0  0  0  0  0
    1.7909    0.8864    0.0000 H   0  0  0  0  0  0  0  0  0  0  0  0
    6.3981   -0.6291    0.0000 H   0  0  0  0  0  0  0  0  0  0  0  0
    5.8612    4.3009    0.0000 H   0  0  0  0  0  0  0  0  0  0  0  0
    7.8010   -0.8191    0.0000 H   0  0  0  0  0  0  0  0  0  0  0  0
    8.4401    4.4540    0.0000 H   0  0  0  0  0  0  0  0  0  0  0  0
    8.6671    5.3009    0.0000 H   0  0  0  0  0  0  0  0  0  0  0  0
    7.8201    5.5278    0.0000 H   0  0  0  0  0  0  0  0  0  0  0  0
    7.3010    5.6669    0.0000 H   0  0  0  0  0  0  0  0  0  0  0  0
    6.4541    5.8939    0.0000 H   0  0  0  0  0  0  0  0  0  0  0  0
    6.2272    5.0469    0.0000 H   0  0  0  0  0  0  0  0  0  0  0  0
    7.2272    3.3149    0.0000 H   0  0  0  0  0  0  0  0  0  0  0  0
    8.0741    3.0880    0.0000 H   0  0  0  0  0  0  0  0  0  0  0  0
    8.3010    3.9349    0.0000 H   0  0  0  0  0  0  0  0  0  0  0  0
    8.5287    0.4659    0.0000 H   0  0  0  0  0  0  0  0  0  0  0  0
    7.7316    0.4659    0.0000 H   0  0  0  0  0  0  0  0  0  0  0  0
    5.5321   -1.1291    0.0000 H   0  0  0  0  0  0  0  0  0  0  0  0
    6.7272   -1.8191    0.0000 H   0  0  0  0  0  0  0  0  0  0  0  0
    9.5288   -3.4053    0.0000 H   0  0  0  0  0  0  0  0  0  0  0  0
    9.3252    1.3009    0.0000 H   0  0  0  0  0  0  0  0  0  0  0  0
   10.7282   -1.1291    0.0000 H   0  0  0  0  0  0  0  0  0  0  0  0
   10.7282    2.1109    0.0000 H   0  0  0  0  0  0  0  0  0  0  0  0
   12.1312   -0.3191    0.0000 H   0  0  0  0  0  0  0  0  0  0  0  0
   12.1312    1.3009    0.0000 H   0  0  0  0  0  0  0  0  0  0  0  0
    8.7163   -5.7214    0.0000 H   0  0  0  0  0  0  0  0  0  0  0  0
    9.5824   -5.8585    0.0000 H   0  0  0  0  0  0  0  0  0  0  0  0
    9.7195   -4.9925    0.0000 H   0  0  0  0  0  0  0  0  0  0  0  0
  1 28  1  0  0  0  0
  1 30  1  0  0  0  0
  2 20  2  0  0  0  0
  3 21  2  0  0  0  0
 22  4  1  6  0  0  0
  4 69  1  0  0  0  0
  5 29  2  0  0  0  0
  6 10  1  0  0  0  0
  6 35  1  0  0  0  0
  7 16  1  0  0  0  0
  7 17  1  0  0  0  0
  7 21  1  0  0  0  0
  8 20  1  0  0  0  0
  8 23  1  0  0  0  0
  8 56  1  0  0  0  0
 24  9  1  6  0  0  0
  9 29  1  0  0  0  0
  9 70  1  0  0  0  0
 10 31  2  0  0  0  0
 11 12  1  0  0  0  0
 11 13  1  0  0  0  0
 11 14  1  0  0  0  0
 11 40  1  6  0  0  0
 12 15  1  0  0  0  0
 12 16  1  0  0  0  0
 12 41  1  6  0  0  0
 13 17  1  0  0  0  0
 13 42  1  0  0  0  0
 13 43  1  0  0  0  0
 14 18  1  0  0  0  0
 14 44  1  0  0  0  0
 14 45  1  0  0  0  0
 15 19  1  0  0  0  0
 15 46  1  0  0  0  0
 15 47  1  0  0  0  0
 16 48  1  0  0  0  0
 16 49  1  0  0  0  0
 17 20  1  1  0  0  0
 17 50  1  0  0  0  0
 18 19  1  0  0  0  0
 18 51  1  0  0  0  0
 18 52  1  0  0  0  0
 19 53  1  0  0  0  0
 19 54  1  0  0  0  0
 21 22  1  0  0  0  0
 22 24  1  0  0  0  0
 22 55  1  0  0  0  0
 23 25  1  0  0  0  0
 23 26  1  0  0  0  0
 23 27  1  0  0  0  0
 24 28  1  0  0  0  0
 24 57  1  0  0  0  0
 25 58  1  0  0  0  0
 25 59  1  0  0  0  0
 25 60  1  0  0  0  0
 26 61  1  0  0  0  0
 26 62  1  0  0  0  0
 26 63  1  0  0  0  0
 27 64  1  0  0  0  0
 27 65  1  0  0  0  0
 27 66  1  0  0  0  0
 28 67  1  0  0  0  0
 28 68  1  0  0  0  0
 29 31  1  0  0  0  0
 30 33  2  0  0  0  0
 30 34  1  0  0  0  0
 31 32  1  0  0  0  0
 32 35  2  0  0  0  0
 32 71  1  0  0  0  0
 33 36  1  0  0  0  0
 33 72  1  0  0  0  0
 34 37  2  0  0  0  0
 34 73  1  0  0  0  0
 35 39  1  0  0  0  0
 36 38  2  0  0  0  0
 36 74  1  0  0  0  0
 37 38  1  0  0  0  0
 37 75  1  0  0  0  0
 38 76  1  0  0  0  0
 39 77  1  0  0  0  0
 39 78  1  0  0  0  0
 39 79  1  0  0  0  0
M  END
> <PUBCHEM_COMPOUND_CID>
514770
> <PUBCHEM_COMPOUND_CANONICALIZED>
1
> <PUBCHEM_CACTVS_COMPLEXITY>
861
> <PUBCHEM_CACTVS_HBOND_ACCEPTOR>
7
> <PUBCHEM_CACTVS_HBOND_DONOR>
3
> <PUBCHEM_CACTVS_ROTATABLE_BOND>
9
> <PUBCHEM_CACTVS_SUBSKEYS>
AAADcfB7uABAAAAAAAAAAAAAAAAAAWAAAAA8YIAAAAAAAACxwAAAHgQUCAAADbzl1gayhZPQAgipAaVyUgKCAAAmKhAomLn+bNoKdjqg1bOUcYhmlhi4ycc/iICOgAAAAAAAAAAAAAAAACAAAAAAAAAAAA==
> <PUBCHEM_IUPAC_OPENEYE_NAME>
N-[(1R,2S)-3-[(3S,4aS,8aS)-3-(tert-butylcarbamoyl)-3,4,4a,5,6,7,8,8a-octahydro-1H-isoquinolin-2-yl]-2-hydroxy-3-oxo-1-(phenylsulfanylmethyl)propyl]-5-methyl-isoxazole-3-carboxamide
> <PUBCHEM_IUPAC_CAS_NAME>
N-[(2R,3S)-4-[(3S,4aS,8aS)-3-[(tert-butylamino)-oxomethyl]-3,4,4a,5,6,7,8,8a-octahydro-1H-isoquinolin-2-yl]-3-hydroxy-4-oxo-1-(phenylthio)butan-2-yl]-5-methyl-3-isoxazolecarboxamide
> <PUBCHEM_IUPAC_NAME_MARKUP>
<I>N</I>-[(2<I>R</I>,3<I>S</I>)-4-[(3<I>S</I>,4<I>a</I><I>S</I>,8<I>a</I><I>S</I>)-3-(<I>tert</I>-butylcarbamoyl)-3,4,4<I>a</I>,5,6,7,8,8<I>a</I>-octahydro-1<I>H</I>-isoquinolin-2-yl]-3-hydroxy-4-oxo-1-phenylsulfanylbutan-2-yl]-5-methyl-1,2-oxazole-3-carboxamide
> <PUBCHEM_IUPAC_NAME>
N-[(2R,3S)-4-[(3S,4aS,8aS)-3-(tert-butylcarbamoyl)-3,4,4a,5,6,7,8,8a-octahydro-1H-isoquinolin-2-yl]-3-hydroxy-4-oxo-1-phenylsulfanylbutan-2-yl]-5-methyl-1,2-oxazole-3-carboxamide
> <PUBCHEM_IUPAC_SYSTEMATIC_NAME>
N-[(2R,3S)-4-[(3S,4aS,8aS)-3-(tert-butylcarbamoyl)-3,4,4a,5,6,7,8,8a-octahydro-1H-isoquinolin-2-yl]-3-oxidanyl-4-oxidanylidene-1-phenylsulfanyl-butan-2-yl]-5-methyl-1,2-oxazole-3-carboxamide
> <PUBCHEM_IUPAC_TRADITIONAL_NAME>
N-[(1R,2S)-3-[(3S,4aS,8aS)-3-(tert-butylcarbamoyl)-3,4,4a,5,6,7,8,8a-octahydro-1H-isoquinolin-2-yl]-2-hydroxy-3-keto-1-[(phenylthio)methyl]propyl]-5-methyl-isoxazole-3-carboxamide
> <PUBCHEM_IUPAC_INCHI>
InChI=1S/C29H40N4O5S/c1-18-14-22(32-38-18)26(35)30-23(17-39-21-12-6-5-7-13-21)25(34)28(37)33-16-20-11-9-8-10-19(20)15-24(33)27(36)31-29(2,3)4/h5-7,12-14,19-20,23-25,34H,8-11,15-17H2,1-4H3,(H,30,35)(H,31,36)/t19-,20+,23-,24-,25-/m0/s1
> <PUBCHEM_IUPAC_INCHIKEY>
MGZGOQLQVLHYDM-TYCVKICSSA-N
> <PUBCHEM_XLOGP3_AA>
4.3
> <PUBCHEM_EXACT_MASS>
556.27194156
> <PUBCHEM_MOLECULAR_FORMULA>
C29H40N4O5S
> <PUBCHEM_MOLECULAR_WEIGHT>
556.7
> <PUBCHEM_OPENEYE_CAN_SMILES>
CC1=CC(=NO1)C(=O)NC(CSC2=CC=CC=C2)C(C(=O)N3CC4CCCCC4CC3C(=O)NC(C)(C)C)O
> <PUBCHEM_OPENEYE_ISO_SMILES>
CC1=CC(=NO1)C(=O)N[C@@H](CSC2=CC=CC=C2)[C@@H](C(=O)N3C[C@H]4CCCC[C@H]4C[C@H]3C(=O)NC(C)(C)C)O
> <PUBCHEM_CACTVS_TPSA>
150
> <PUBCHEM_MONOISOTOPIC_WEIGHT>
556.27194156
> <PUBCHEM_TOTAL_CHARGE>
0
> <PUBCHEM_HEAVY_ATOM_COUNT>
39
> <PUBCHEM_ATOM_DEF_STEREO_COUNT>
5
> <PUBCHEM_ATOM_UDEF_STEREO_COUNT>
0
> <PUBCHEM_BOND_DEF_STEREO_COUNT>
0
> <PUBCHEM_BOND_UDEF_STEREO_COUNT>
0
> <PUBCHEM_ISOTOPIC_ATOM_COUNT>
0
> <PUBCHEM_COMPONENT_COUNT>
1
> <PUBCHEM_CACTVS_TAUTO_COUNT>
-1
> <PUBCHEM_COORDINATE_TYPE>
1
5
255
> <PUBCHEM_BONDANNOTATIONS>
10  31  8
11  40  6
12  41  6
17  20  5
30  33  8
30  34  8
31  32  8
32  35  8
33  36  8
34  37  8
36  38  8
37  38  8
22  4  6
6  10  8
6  35  8
24  9  6
$$$$
