514708
  -OEChem-10302200282D
 86 90  0     1  0  0  0  0  0999 V2000
    6.0509    2.6832    0.0000 S   0  0  0  0  0  0  0  0  0  0  0  0
    8.8656    2.4807    0.0000 O   0  0  0  0  0  0  0  0  0  0  0  0
    7.9996   -0.0193    0.0000 O   0  0  0  0  0  0  0  0  0  0  0  0
    6.7553   -0.5733    0.0000 O   0  0  0  0  0  0  0  0  0  0  0  0
   11.4637   -0.0193    0.0000 O   0  0  0  0  0  0  0  0  0  0  0  0
    7.1336    1.4807    0.0000 N   0  0  0  0  0  0  0  0  0  0  0  0
    5.0611   -0.2132    0.0000 N   0  0  0  0  0  0  0  0  0  0  0  0
    9.7317   -0.0193    0.0000 N   0  0  0  0  0  0  0  0  0  0  0  0
   12.4099   -3.3240    0.0000 N   0  0  3  0  0  0  0  0  0  0  0  0
    5.5509    1.8171    0.0000 C   0  0  0  0  0  0  0  0  0  0  0  0
    6.2200    1.0740    0.0000 C   0  0  1  0  0  0  0  0  0  0  0  0
    7.0291    2.4753    0.0000 C   0  0  0  0  0  0  0  0  0  0  0  0
    4.6849    2.3171    0.0000 C   0  0  0  0  0  0  0  0  0  0  0  0
    4.8078    1.1480    0.0000 C   0  0  0  0  0  0  0  0  0  0  0  0
    7.9996    0.9807    0.0000 C   0  0  0  0  0  0  0  0  0  0  0  0
    6.0121    0.0959    0.0000 C   0  0  0  0  0  0  0  0  0  0  0  0
    8.8656    1.4807    0.0000 C   0  0  2  0  0  0  0  0  0  0  0  0
    9.7317    0.9807    0.0000 C   0  0  2  0  0  0  0  0  0  0  0  0
   10.5977    1.4807    0.0000 C   0  0  0  0  0  0  0  0  0  0  0  0
   11.4637   -2.0193    0.0000 C   0  0  0  0  0  0  0  0  0  0  0  0
   12.4099   -1.7145    0.0000 C   0  0  0  0  0  0  0  0  0  0  0  0
   12.9936   -2.5193    0.0000 C   0  0  0  0  0  0  0  0  0  0  0  0
   11.4637   -3.0193    0.0000 C   0  0  0  0  0  0  0  0  0  0  0  0
   10.5977   -1.5193    0.0000 C   0  0  0  0  0  0  0  0  0  0  0  0
   10.5977   -0.5193    0.0000 C   0  0  0  0  0  0  0  0  0  0  0  0
    4.8532   -1.1913    0.0000 C   0  0  0  0  0  0  0  0  0  0  0  0
   10.5977    2.4807    0.0000 C   0  0  0  0  0  0  0  0  0  0  0  0
   12.7206   -4.2745    0.0000 C   0  0  0  0  0  0  0  0  0  0  0  0
   10.5977   -3.5193    0.0000 C   0  0  0  0  0  0  0  0  0  0  0  0
    9.7317   -2.0193    0.0000 C   0  0  0  0  0  0  0  0  0  0  0  0
    3.9021   -1.5003    0.0000 C   0  0  0  0  0  0  0  0  0  0  0  0
    9.7317   -3.0193    0.0000 C   0  0  0  0  0  0  0  0  0  0  0  0
    9.7317    2.9807    0.0000 C   0  0  0  0  0  0  0  0  0  0  0  0
   11.4637    2.9807    0.0000 C   0  0  0  0  0  0  0  0  0  0  0  0
   13.6991   -4.4807    0.0000 C   0  0  0  0  0  0  0  0  0  0  0  0
    3.1590   -0.8312    0.0000 C   0  0  0  0  0  0  0  0  0  0  0  0
    3.6942   -2.4785    0.0000 C   0  0  0  0  0  0  0  0  0  0  0  0
    9.7317    3.9807    0.0000 C   0  0  0  0  0  0  0  0  0  0  0  0
   11.4637    3.9807    0.0000 C   0  0  0  0  0  0  0  0  0  0  0  0
   10.5977    4.4807    0.0000 C   0  0  0  0  0  0  0  0  0  0  0  0
    2.2079   -1.1402    0.0000 C   0  0  0  0  0  0  0  0  0  0  0  0
    3.3669    0.1469    0.0000 C   0  0  0  0  0  0  0  0  0  0  0  0
    2.7431   -2.7875    0.0000 C   0  0  0  0  0  0  0  0  0  0  0  0
    2.0000   -2.1184    0.0000 C   0  0  0  0  0  0  0  0  0  0  0  0
    6.7019    0.6838    0.0000 H   0  0  0  0  0  0  0  0  0  0  0  0
    7.6491    2.4753    0.0000 H   0  0  0  0  0  0  0  0  0  0  0  0
    7.0939    3.0919    0.0000 H   0  0  0  0  0  0  0  0  0  0  0  0
    4.9949    2.8541    0.0000 H   0  0  0  0  0  0  0  0  0  0  0  0
    4.1480    2.6271    0.0000 H   0  0  0  0  0  0  0  0  0  0  0  0
    4.3749    1.7802    0.0000 H   0  0  0  0  0  0  0  0  0  0  0  0
    4.3929    1.6088    0.0000 H   0  0  0  0  0  0  0  0  0  0  0  0
    4.3470    0.7332    0.0000 H   0  0  0  0  0  0  0  0  0  0  0  0
    5.2226    0.6873    0.0000 H   0  0  0  0  0  0  0  0  0  0  0  0
    8.3287    1.7907    0.0000 H   0  0  0  0  0  0  0  0  0  0  0  0
   10.2686    0.6707    0.0000 H   0  0  0  0  0  0  0  0  0  0  0  0
   10.8097    0.8981    0.0000 H   0  0  0  0  0  0  0  0  0  0  0  0
   11.2083    1.5884    0.0000 H   0  0  0  0  0  0  0  0  0  0  0  0
    4.6003    0.2017    0.0000 H   0  0  0  0  0  0  0  0  0  0  0  0
    9.1947   -0.3293    0.0000 H   0  0  0  0  0  0  0  0  0  0  0  0
   12.9473   -1.4053    0.0000 H   0  0  0  0  0  0  0  0  0  0  0  0
   12.1589   -1.1476    0.0000 H   0  0  0  0  0  0  0  0  0  0  0  0
   13.4544   -2.9340    0.0000 H   0  0  0  0  0  0  0  0  0  0  0  0
   13.4544   -2.1045    0.0000 H   0  0  0  0  0  0  0  0  0  0  0  0
    4.9395   -1.8053    0.0000 H   0  0  0  0  0  0  0  0  0  0  0  0
    5.4728   -1.2130    0.0000 H   0  0  0  0  0  0  0  0  0  0  0  0
    8.3287    2.7907    0.0000 H   0  0  0  0  0  0  0  0  0  0  0  0
   12.1068   -4.3619    0.0000 H   0  0  0  0  0  0  0  0  0  0  0  0
   12.7000   -4.8942    0.0000 H   0  0  0  0  0  0  0  0  0  0  0  0
   10.5977   -4.1393    0.0000 H   0  0  0  0  0  0  0  0  0  0  0  0
    9.1947   -1.7093    0.0000 H   0  0  0  0  0  0  0  0  0  0  0  0
    9.1947   -3.3293    0.0000 H   0  0  0  0  0  0  0  0  0  0  0  0
    9.1947    2.6707    0.0000 H   0  0  0  0  0  0  0  0  0  0  0  0
   12.0007    2.6707    0.0000 H   0  0  0  0  0  0  0  0  0  0  0  0
   13.5713   -5.0874    0.0000 H   0  0  0  0  0  0  0  0  0  0  0  0
   14.3058   -4.6086    0.0000 H   0  0  0  0  0  0  0  0  0  0  0  0
   13.8270   -3.8741    0.0000 H   0  0  0  0  0  0  0  0  0  0  0  0
    4.1550   -2.8933    0.0000 H   0  0  0  0  0  0  0  0  0  0  0  0
    9.1947    4.2907    0.0000 H   0  0  0  0  0  0  0  0  0  0  0  0
   12.0007    4.2907    0.0000 H   0  0  0  0  0  0  0  0  0  0  0  0
   10.5977    5.1007    0.0000 H   0  0  0  0  0  0  0  0  0  0  0  0
    1.7472   -0.7254    0.0000 H   0  0  0  0  0  0  0  0  0  0  0  0
    3.9733    0.0180    0.0000 H   0  0  0  0  0  0  0  0  0  0  0  0
    3.4958    0.7534    0.0000 H   0  0  0  0  0  0  0  0  0  0  0  0
    2.7604    0.2759    0.0000 H   0  0  0  0  0  0  0  0  0  0  0  0
    2.6142   -3.3940    0.0000 H   0  0  0  0  0  0  0  0  0  0  0  0
    1.4103   -2.3100    0.0000 H   0  0  0  0  0  0  0  0  0  0  0  0
  1 10  1  0  0  0  0
  1 12  1  0  0  0  0
 17  2  1  1  0  0  0
  2 66  1  0  0  0  0
  3 15  2  0  0  0  0
  4 16  2  0  0  0  0
  5 25  2  0  0  0  0
  6 11  1  0  0  0  0
  6 12  1  0  0  0  0
  6 15  1  0  0  0  0
  7 16  1  0  0  0  0
  7 26  1  0  0  0  0
  7 58  1  0  0  0  0
 18  8  1  6  0  0  0
  8 25  1  0  0  0  0
  8 59  1  0  0  0  0
  9 22  1  0  0  0  0
  9 23  1  0  0  0  0
  9 28  1  0  0  0  0
 10 11  1  0  0  0  0
 10 13  1  0  0  0  0
 10 14  1  0  0  0  0
 11 16  1  6  0  0  0
 11 45  1  0  0  0  0
 12 46  1  0  0  0  0
 12 47  1  0  0  0  0
 13 48  1  0  0  0  0
 13 49  1  0  0  0  0
 13 50  1  0  0  0  0
 14 51  1  0  0  0  0
 14 52  1  0  0  0  0
 14 53  1  0  0  0  0
 15 17  1  0  0  0  0
 17 18  1  0  0  0  0
 17 54  1  0  0  0  0
 18 19  1  0  0  0  0
 18 55  1  0  0  0  0
 19 27  1  0  0  0  0
 19 56  1  0  0  0  0
 19 57  1  0  0  0  0
 20 21  1  0  0  0  0
 20 23  1  0  0  0  0
 20 24  2  0  0  0  0
 21 22  1  0  0  0  0
 21 60  1  0  0  0  0
 21 61  1  0  0  0  0
 22 62  1  0  0  0  0
 22 63  1  0  0  0  0
 23 29  2  0  0  0  0
 24 25  1  0  0  0  0
 24 30  1  0  0  0  0
 26 31  1  0  0  0  0
 26 64  1  0  0  0  0
 26 65  1  0  0  0  0
 27 33  2  0  0  0  0
 27 34  1  0  0  0  0
 28 35  1  0  0  0  0
 28 67  1  0  0  0  0
 28 68  1  0  0  0  0
 29 32  1  0  0  0  0
 29 69  1  0  0  0  0
 30 32  2  0  0  0  0
 30 70  1  0  0  0  0
 31 36  1  0  0  0  0
 31 37  2  0  0  0  0
 32 71  1  0  0  0  0
 33 38  1  0  0  0  0
 33 72  1  0  0  0  0
 34 39  2  0  0  0  0
 34 73  1  0  0  0  0
 35 74  1  0  0  0  0
 35 75  1  0  0  0  0
 35 76  1  0  0  0  0
 36 41  2  0  0  0  0
 36 42  1  0  0  0  0
 37 43  1  0  0  0  0
 37 77  1  0  0  0  0
 38 40  2  0  0  0  0
 38 78  1  0  0  0  0
 39 40  1  0  0  0  0
 39 79  1  0  0  0  0
 40 80  1  0  0  0  0
 41 44  1  0  0  0  0
 41 81  1  0  0  0  0
 42 82  1  0  0  0  0
 42 83  1  0  0  0  0
 42 84  1  0  0  0  0
 43 44  2  0  0  0  0
 43 85  1  0  0  0  0
 44 86  1  0  0  0  0
M  END
> <PUBCHEM_COMPOUND_CID>
514708
> <PUBCHEM_COMPOUND_CANONICALIZED>
1
> <PUBCHEM_CACTVS_COMPLEXITY>
1000
> <PUBCHEM_CACTVS_HBOND_ACCEPTOR>
6
> <PUBCHEM_CACTVS_HBOND_DONOR>
3
> <PUBCHEM_CACTVS_ROTATABLE_BOND>
10
> <PUBCHEM_CACTVS_SUBSKEYS>
AAADcfB/uABAAAAAAAAAAAAAAAAAAWLAAAAwYMAAAAAAAFgBUAAAHgQQCAAADDzh2AaywIPAAgiIAiVSUAKCAABlAhAIiIHIZMgKcDrg1bGUYQhklgDYyYecyaCOgAAAQAASAAAAAACAACQAAAAAAAAAAA==
> <PUBCHEM_IUPAC_OPENEYE_NAME>
(4R)-3-[(2S,3S)-3-[(1-ethylindoline-4-carbonyl)amino]-2-hydroxy-4-phenyl-butanoyl]-5,5-dimethyl-N-(o-tolylmethyl)thiazolidine-4-carboxamide
> <PUBCHEM_IUPAC_CAS_NAME>
(4R)-3-[(2S,3S)-3-[[(1-ethyl-2,3-dihydroindol-4-yl)-oxomethyl]amino]-2-hydroxy-1-oxo-4-phenylbutyl]-5,5-dimethyl-N-[(2-methylphenyl)methyl]-4-thiazolidinecarboxamide
> <PUBCHEM_IUPAC_NAME_MARKUP>
(4<I>R</I>)-3-[(2<I>S</I>,3<I>S</I>)-3-[(1-ethyl-2,3-dihydroindole-4-carbonyl)amino]-2-hydroxy-4-phenylbutanoyl]-5,5-dimethyl-<I>N</I>-[(2-methylphenyl)methyl]-1,3-thiazolidine-4-carboxamide
> <PUBCHEM_IUPAC_NAME>
(4R)-3-[(2S,3S)-3-[(1-ethyl-2,3-dihydroindole-4-carbonyl)amino]-2-hydroxy-4-phenylbutanoyl]-5,5-dimethyl-N-[(2-methylphenyl)methyl]-1,3-thiazolidine-4-carboxamide
> <PUBCHEM_IUPAC_SYSTEMATIC_NAME>
(4R)-3-[(2S,3S)-3-[(1-ethyl-2,3-dihydroindol-4-yl)carbonylamino]-2-oxidanyl-4-phenyl-butanoyl]-5,5-dimethyl-N-[(2-methylphenyl)methyl]-1,3-thiazolidine-4-carboxamide
> <PUBCHEM_IUPAC_TRADITIONAL_NAME>
(4R)-3-[(2S,3S)-3-[(1-ethylindoline-4-carbonyl)amino]-2-hydroxy-4-phenyl-butanoyl]-5,5-dimethyl-N-(2-methylbenzyl)thiazolidine-4-carboxamide
> <PUBCHEM_IUPAC_INCHI>
InChI=1S/C35H42N4O4S/c1-5-38-19-18-26-27(16-11-17-29(26)38)32(41)37-28(20-24-13-7-6-8-14-24)30(40)34(43)39-22-44-35(3,4)31(39)33(42)36-21-25-15-10-9-12-23(25)2/h6-17,28,30-31,40H,5,18-22H2,1-4H3,(H,36,42)(H,37,41)/t28-,30-,31+/m0/s1
> <PUBCHEM_IUPAC_INCHIKEY>
MUYAQOBVRKTXRI-LHGWWSMPSA-N
> <PUBCHEM_XLOGP3_AA>
5
> <PUBCHEM_EXACT_MASS>
614.29267701
> <PUBCHEM_MOLECULAR_FORMULA>
C35H42N4O4S
> <PUBCHEM_MOLECULAR_WEIGHT>
614.8
> <PUBCHEM_OPENEYE_CAN_SMILES>
CCN1CCC2=C(C=CC=C21)C(=O)NC(CC3=CC=CC=C3)C(C(=O)N4CSC(C4C(=O)NCC5=CC=CC=C5C)(C)C)O
> <PUBCHEM_OPENEYE_ISO_SMILES>
CCN1CCC2=C(C=CC=C21)C(=O)N[C@@H](CC3=CC=CC=C3)[C@@H](C(=O)N4CSC([C@H]4C(=O)NCC5=CC=CC=C5C)(C)C)O
> <PUBCHEM_CACTVS_TPSA>
127
> <PUBCHEM_MONOISOTOPIC_WEIGHT>
614.29267701
> <PUBCHEM_TOTAL_CHARGE>
0
> <PUBCHEM_HEAVY_ATOM_COUNT>
44
> <PUBCHEM_ATOM_DEF_STEREO_COUNT>
3
> <PUBCHEM_ATOM_UDEF_STEREO_COUNT>
0
> <PUBCHEM_BOND_DEF_STEREO_COUNT>
0
> <PUBCHEM_BOND_UDEF_STEREO_COUNT>
0
> <PUBCHEM_ISOTOPIC_ATOM_COUNT>
0
> <PUBCHEM_COMPONENT_COUNT>
1
> <PUBCHEM_CACTVS_TAUTO_COUNT>
-1
> <PUBCHEM_COORDINATE_TYPE>
1
5
255
> <PUBCHEM_BONDANNOTATIONS>
11  16  6
17  2  5
20  23  8
20  24  8
23  29  8
24  30  8
27  33  8
27  34  8
29  32  8
30  32  8
31  36  8
31  37  8
33  38  8
34  39  8
36  41  8
37  43  8
38  40  8
39  40  8
41  44  8
43  44  8
18  8  6
$$$$
