514775
  -OEChem-10302200282D
 91 95  0     1  0  0  0  0  0999 V2000
    5.8301   -5.3112    0.0000 S   0  0  0  0  0  0  0  0  0  0  0  0
    4.5981   -2.7724    0.0000 O   0  0  0  0  0  0  0  0  0  0  0  0
    8.2981   -3.0730    0.0000 O   0  0  0  0  0  0  0  0  0  0  0  0
    7.1962   -2.2724    0.0000 O   0  0  0  0  0  0  0  0  0  0  0  0
    7.1962    1.7276    0.0000 O   0  0  0  0  0  0  0  0  0  0  0  0
    5.4641    0.7276    0.0000 O   0  0  0  0  0  0  0  0  0  0  0  0
    8.9282    6.7276    0.0000 O   0  0  0  0  0  0  0  0  0  0  0  0
    6.3301   -3.7724    0.0000 N   0  0  0  0  0  0  0  0  0  0  0  0
    8.8334   -4.7202    0.0000 N   0  0  0  0  0  0  0  0  0  0  0  0
    6.3301   -0.7724    0.0000 N   0  0  0  0  0  0  0  0  0  0  0  0
    8.9282    4.7276    0.0000 N   0  0  0  0  0  0  0  0  0  0  0  0
    6.8301   -5.3112    0.0000 C   0  0  0  0  0  0  0  0  0  0  0  0
    7.1391   -4.3601    0.0000 C   0  0  1  0  0  0  0  0  0  0  0  0
    5.5211   -4.3601    0.0000 C   0  0  0  0  0  0  0  0  0  0  0  0
    6.8301   -6.3112    0.0000 C   0  0  0  0  0  0  0  0  0  0  0  0
    7.7812   -5.6202    0.0000 C   0  0  0  0  0  0  0  0  0  0  0  0
    8.0902   -4.0511    0.0000 C   0  0  0  0  0  0  0  0  0  0  0  0
    6.3301   -2.7724    0.0000 C   0  0  0  0  0  0  0  0  0  0  0  0
    5.4641   -2.2724    0.0000 C   0  0  2  0  0  0  0  0  0  0  0  0
    5.4641   -1.2724    0.0000 C   0  0  2  0  0  0  0  0  0  0  0  0
    4.5981   -0.7724    0.0000 C   0  0  0  0  0  0  0  0  0  0  0  0
    9.7844   -4.4112    0.0000 C   0  0  0  0  0  0  0  0  0  0  0  0
    3.7320   -1.2724    0.0000 C   0  0  0  0  0  0  0  0  0  0  0  0
   10.5275   -5.0804    0.0000 C   0  0  0  0  0  0  0  0  0  0  0  0
    6.3301    0.2276    0.0000 C   0  0  0  0  0  0  0  0  0  0  0  0
    3.7320   -2.2724    0.0000 C   0  0  0  0  0  0  0  0  0  0  0  0
    2.8660   -0.7724    0.0000 C   0  0  0  0  0  0  0  0  0  0  0  0
   10.3196   -6.0585    0.0000 C   0  0  0  0  0  0  0  0  0  0  0  0
    7.1962    0.7276    0.0000 C   0  0  0  0  0  0  0  0  0  0  0  0
   11.4786   -4.7714    0.0000 C   0  0  0  0  0  0  0  0  0  0  0  0
    2.8660   -2.7724    0.0000 C   0  0  0  0  0  0  0  0  0  0  0  0
    2.0000   -1.2724    0.0000 C   0  0  0  0  0  0  0  0  0  0  0  0
    9.7942    5.2276    0.0000 C   0  0  0  0  0  0  0  0  0  0  0  0
    8.0622    5.2276    0.0000 C   0  0  0  0  0  0  0  0  0  0  0  0
   11.0628   -6.7276    0.0000 C   0  0  0  0  0  0  0  0  0  0  0  0
    2.0000   -2.2724    0.0000 C   0  0  0  0  0  0  0  0  0  0  0  0
    9.3686   -6.3675    0.0000 C   0  0  0  0  0  0  0  0  0  0  0  0
   12.2217   -5.4405    0.0000 C   0  0  0  0  0  0  0  0  0  0  0  0
    8.9282    3.7276    0.0000 C   0  0  0  0  0  0  0  0  0  0  0  0
    9.7942    6.2276    0.0000 C   0  0  0  0  0  0  0  0  0  0  0  0
    8.0622    6.2276    0.0000 C   0  0  0  0  0  0  0  0  0  0  0  0
   12.0138   -6.4186    0.0000 C   0  0  0  0  0  0  0  0  0  0  0  0
    8.0622    2.2276    0.0000 C   0  0  0  0  0  0  0  0  0  0  0  0
    8.0622    3.2276    0.0000 C   0  0  0  0  0  0  0  0  0  0  0  0
    9.7942    3.2276    0.0000 C   0  0  0  0  0  0  0  0  0  0  0  0
    8.9282    1.7276    0.0000 C   0  0  0  0  0  0  0  0  0  0  0  0
    9.7942    2.2276    0.0000 C   0  0  0  0  0  0  0  0  0  0  0  0
    7.2361   -3.7478    0.0000 H   0  0  0  0  0  0  0  0  0  0  0  0
    5.2111   -3.8232    0.0000 H   0  0  0  0  0  0  0  0  0  0  0  0
    4.9547   -4.6123    0.0000 H   0  0  0  0  0  0  0  0  0  0  0  0
    6.2101   -6.3112    0.0000 H   0  0  0  0  0  0  0  0  0  0  0  0
    6.8301   -6.9312    0.0000 H   0  0  0  0  0  0  0  0  0  0  0  0
    7.4501   -6.3112    0.0000 H   0  0  0  0  0  0  0  0  0  0  0  0
    7.5896   -6.2099    0.0000 H   0  0  0  0  0  0  0  0  0  0  0  0
    8.3708   -5.8118    0.0000 H   0  0  0  0  0  0  0  0  0  0  0  0
    7.9728   -5.0306    0.0000 H   0  0  0  0  0  0  0  0  0  0  0  0
    5.4641   -2.8924    0.0000 H   0  0  0  0  0  0  0  0  0  0  0  0
    5.4641   -0.6524    0.0000 H   0  0  0  0  0  0  0  0  0  0  0  0
    8.7044   -5.3267    0.0000 H   0  0  0  0  0  0  0  0  0  0  0  0
    4.9966   -0.2974    0.0000 H   0  0  0  0  0  0  0  0  0  0  0  0
    4.1996   -0.2974    0.0000 H   0  0  0  0  0  0  0  0  0  0  0  0
    6.8671   -1.0824    0.0000 H   0  0  0  0  0  0  0  0  0  0  0  0
   10.2730   -4.0295    0.0000 H   0  0  0  0  0  0  0  0  0  0  0  0
    9.4933   -3.8638    0.0000 H   0  0  0  0  0  0  0  0  0  0  0  0
    4.5981   -3.3924    0.0000 H   0  0  0  0  0  0  0  0  0  0  0  0
    4.2690   -2.5824    0.0000 H   0  0  0  0  0  0  0  0  0  0  0  0
    2.8660   -0.1524    0.0000 H   0  0  0  0  0  0  0  0  0  0  0  0
    7.4082    0.1450    0.0000 H   0  0  0  0  0  0  0  0  0  0  0  0
    7.8067    0.8353    0.0000 H   0  0  0  0  0  0  0  0  0  0  0  0
   11.6075   -4.1649    0.0000 H   0  0  0  0  0  0  0  0  0  0  0  0
    2.8660   -3.3924    0.0000 H   0  0  0  0  0  0  0  0  0  0  0  0
    1.4631   -0.9624    0.0000 H   0  0  0  0  0  0  0  0  0  0  0  0
   10.0063    4.6450    0.0000 H   0  0  0  0  0  0  0  0  0  0  0  0
   10.4048    5.3353    0.0000 H   0  0  0  0  0  0  0  0  0  0  0  0
    7.4516    5.3353    0.0000 H   0  0  0  0  0  0  0  0  0  0  0  0
    7.8501    4.6450    0.0000 H   0  0  0  0  0  0  0  0  0  0  0  0
   10.9339   -7.3341    0.0000 H   0  0  0  0  0  0  0  0  0  0  0  0
    1.4631   -2.5824    0.0000 H   0  0  0  0  0  0  0  0  0  0  0  0
    9.1770   -5.7779    0.0000 H   0  0  0  0  0  0  0  0  0  0  0  0
    8.7789   -6.5591    0.0000 H   0  0  0  0  0  0  0  0  0  0  0  0
    9.5602   -6.9572    0.0000 H   0  0  0  0  0  0  0  0  0  0  0  0
   12.8114   -5.2489    0.0000 H   0  0  0  0  0  0  0  0  0  0  0  0
   10.4048    6.1200    0.0000 H   0  0  0  0  0  0  0  0  0  0  0  0
   10.0063    6.8102    0.0000 H   0  0  0  0  0  0  0  0  0  0  0  0
    7.8501    6.8103    0.0000 H   0  0  0  0  0  0  0  0  0  0  0  0
    7.4516    6.1200    0.0000 H   0  0  0  0  0  0  0  0  0  0  0  0
   12.4746   -6.8335    0.0000 H   0  0  0  0  0  0  0  0  0  0  0  0
    7.5252    3.5376    0.0000 H   0  0  0  0  0  0  0  0  0  0  0  0
   10.3312    3.5376    0.0000 H   0  0  0  0  0  0  0  0  0  0  0  0
    8.9282    1.1076    0.0000 H   0  0  0  0  0  0  0  0  0  0  0  0
   10.3312    1.9176    0.0000 H   0  0  0  0  0  0  0  0  0  0  0  0
  1 12  1  0  0  0  0
  1 14  1  0  0  0  0
 19  2  1  1  0  0  0
  2 65  1  0  0  0  0
  3 17  2  0  0  0  0
  4 18  2  0  0  0  0
  5 29  1  0  0  0  0
  5 43  1  0  0  0  0
  6 25  2  0  0  0  0
  7 40  1  0  0  0  0
  7 41  1  0  0  0  0
  8 13  1  0  0  0  0
  8 14  1  0  0  0  0
  8 18  1  0  0  0  0
  9 17  1  0  0  0  0
  9 22  1  0  0  0  0
  9 59  1  0  0  0  0
 20 10  1  6  0  0  0
 10 25  1  0  0  0  0
 10 62  1  0  0  0  0
 11 33  1  0  0  0  0
 11 34  1  0  0  0  0
 11 39  1  0  0  0  0
 12 13  1  0  0  0  0
 12 15  1  0  0  0  0
 12 16  1  0  0  0  0
 13 17  1  6  0  0  0
 13 48  1  0  0  0  0
 14 49  1  0  0  0  0
 14 50  1  0  0  0  0
 15 51  1  0  0  0  0
 15 52  1  0  0  0  0
 15 53  1  0  0  0  0
 16 54  1  0  0  0  0
 16 55  1  0  0  0  0
 16 56  1  0  0  0  0
 18 19  1  0  0  0  0
 19 20  1  0  0  0  0
 19 57  1  0  0  0  0
 20 21  1  0  0  0  0
 20 58  1  0  0  0  0
 21 23  1  0  0  0  0
 21 60  1  0  0  0  0
 21 61  1  0  0  0  0
 22 24  1  0  0  0  0
 22 63  1  0  0  0  0
 22 64  1  0  0  0  0
 23 26  2  0  0  0  0
 23 27  1  0  0  0  0
 24 28  1  0  0  0  0
 24 30  2  0  0  0  0
 25 29  1  0  0  0  0
 26 31  1  0  0  0  0
 26 66  1  0  0  0  0
 27 32  2  0  0  0  0
 27 67  1  0  0  0  0
 28 35  2  0  0  0  0
 28 37  1  0  0  0  0
 29 68  1  0  0  0  0
 29 69  1  0  0  0  0
 30 38  1  0  0  0  0
 30 70  1  0  0  0  0
 31 36  2  0  0  0  0
 31 71  1  0  0  0  0
 32 36  1  0  0  0  0
 32 72  1  0  0  0  0
 33 40  1  0  0  0  0
 33 73  1  0  0  0  0
 33 74  1  0  0  0  0
 34 41  1  0  0  0  0
 34 75  1  0  0  0  0
 34 76  1  0  0  0  0
 35 42  1  0  0  0  0
 35 77  1  0  0  0  0
 36 78  1  0  0  0  0
 37 79  1  0  0  0  0
 37 80  1  0  0  0  0
 37 81  1  0  0  0  0
 38 42  2  0  0  0  0
 38 82  1  0  0  0  0
 39 44  2  0  0  0  0
 39 45  1  0  0  0  0
 40 83  1  0  0  0  0
 40 84  1  0  0  0  0
 41 85  1  0  0  0  0
 41 86  1  0  0  0  0
 42 87  1  0  0  0  0
 43 44  1  0  0  0  0
 43 46  2  0  0  0  0
 44 88  1  0  0  0  0
 45 47  2  0  0  0  0
 45 89  1  0  0  0  0
 46 47  1  0  0  0  0
 46 90  1  0  0  0  0
 47 91  1  0  0  0  0
M  END
> <PUBCHEM_COMPOUND_CID>
514775
> <PUBCHEM_COMPOUND_CANONICALIZED>
1
> <PUBCHEM_CACTVS_COMPLEXITY>
1030
> <PUBCHEM_CACTVS_HBOND_ACCEPTOR>
8
> <PUBCHEM_CACTVS_HBOND_DONOR>
3
> <PUBCHEM_CACTVS_ROTATABLE_BOND>
12
> <PUBCHEM_CACTVS_SUBSKEYS>
AAADcfB/uABAAAAAAAAAAAAAAAAAAWAAAAA8YMEAAAAAAAABUAAAHgQQCAAADDzh2AayxoPABgiIAiVSUAKCCABhIhAIiIHObIgOdjrk8b+XeCjm1hnY6AeY2KOOgAAAAgAQAAAAAAAEACAAAAAAAAAAAA==
> <PUBCHEM_IUPAC_OPENEYE_NAME>
(4R)-3-[(2S,3S)-2-hydroxy-3-[[2-(3-morpholinophenoxy)acetyl]amino]-4-phenyl-butanoyl]-5,5-dimethyl-N-(o-tolylmethyl)thiazolidine-4-carboxamide
> <PUBCHEM_IUPAC_CAS_NAME>
(4R)-3-[(2S,3S)-2-hydroxy-3-[[2-[3-(4-morpholinyl)phenoxy]-1-oxoethyl]amino]-1-oxo-4-phenylbutyl]-5,5-dimethyl-N-[(2-methylphenyl)methyl]-4-thiazolidinecarboxamide
> <PUBCHEM_IUPAC_NAME_MARKUP>
(4<I>R</I>)-3-[(2<I>S</I>,3<I>S</I>)-2-hydroxy-3-[[2-(3-morpholin-4-ylphenoxy)acetyl]amino]-4-phenylbutanoyl]-5,5-dimethyl-<I>N</I>-[(2-methylphenyl)methyl]-1,3-thiazolidine-4-carboxamide
> <PUBCHEM_IUPAC_NAME>
(4R)-3-[(2S,3S)-2-hydroxy-3-[[2-(3-morpholin-4-ylphenoxy)acetyl]amino]-4-phenylbutanoyl]-5,5-dimethyl-N-[(2-methylphenyl)methyl]-1,3-thiazolidine-4-carboxamide
> <PUBCHEM_IUPAC_SYSTEMATIC_NAME>
(4R)-5,5-dimethyl-N-[(2-methylphenyl)methyl]-3-[(2S,3S)-3-[2-(3-morpholin-4-ylphenoxy)ethanoylamino]-2-oxidanyl-4-phenyl-butanoyl]-1,3-thiazolidine-4-carboxamide
> <PUBCHEM_IUPAC_TRADITIONAL_NAME>
(4R)-3-[(2S,3S)-2-hydroxy-3-[[2-(3-morpholinophenoxy)acetyl]amino]-4-phenyl-butanoyl]-5,5-dimethyl-N-(2-methylbenzyl)thiazolidine-4-carboxamide
> <PUBCHEM_IUPAC_INCHI>
InChI=1S/C36H44N4O6S/c1-25-10-7-8-13-27(25)22-37-34(43)33-36(2,3)47-24-40(33)35(44)32(42)30(20-26-11-5-4-6-12-26)38-31(41)23-46-29-15-9-14-28(21-29)39-16-18-45-19-17-39/h4-15,21,30,32-33,42H,16-20,22-24H2,1-3H3,(H,37,43)(H,38,41)/t30-,32-,33+/m0/s1
> <PUBCHEM_IUPAC_INCHIKEY>
PMQKTKBSZBARPR-FLPLPDKSSA-N
> <PUBCHEM_XLOGP3_AA>
4.3
> <PUBCHEM_EXACT_MASS>
660.29815631
> <PUBCHEM_MOLECULAR_FORMULA>
C36H44N4O6S
> <PUBCHEM_MOLECULAR_WEIGHT>
660.8
> <PUBCHEM_OPENEYE_CAN_SMILES>
CC1=CC=CC=C1CNC(=O)C2C(SCN2C(=O)C(C(CC3=CC=CC=C3)NC(=O)COC4=CC=CC(=C4)N5CCOCC5)O)(C)C
> <PUBCHEM_OPENEYE_ISO_SMILES>
CC1=CC=CC=C1CNC(=O)[C@@H]2C(SCN2C(=O)[C@H]([C@H](CC3=CC=CC=C3)NC(=O)COC4=CC=CC(=C4)N5CCOCC5)O)(C)C
> <PUBCHEM_CACTVS_TPSA>
146
> <PUBCHEM_MONOISOTOPIC_WEIGHT>
660.29815631
> <PUBCHEM_TOTAL_CHARGE>
0
> <PUBCHEM_HEAVY_ATOM_COUNT>
47
> <PUBCHEM_ATOM_DEF_STEREO_COUNT>
3
> <PUBCHEM_ATOM_UDEF_STEREO_COUNT>
0
> <PUBCHEM_BOND_DEF_STEREO_COUNT>
0
> <PUBCHEM_BOND_UDEF_STEREO_COUNT>
0
> <PUBCHEM_ISOTOPIC_ATOM_COUNT>
0
> <PUBCHEM_COMPONENT_COUNT>
1
> <PUBCHEM_CACTVS_TAUTO_COUNT>
-1
> <PUBCHEM_COORDINATE_TYPE>
1
5
255
> <PUBCHEM_BONDANNOTATIONS>
20  10  6
13  17  6
19  2  5
23  26  8
23  27  8
24  28  8
24  30  8
26  31  8
27  32  8
28  35  8
30  38  8
31  36  8
32  36  8
35  42  8
38  42  8
39  44  8
39  45  8
43  44  8
43  46  8
45  47  8
46  47  8
$$$$
