514721
  -OEChem-10302200282D
 63 64  0     1  0  0  0  0  0999 V2000
    7.6485    3.2694    0.0000 S   0  0  0  0  0  0  0  0  0  0  0  0
    8.8805    0.7306    0.0000 O   0  0  0  0  0  0  0  0  0  0  0  0
    5.1805    1.0312    0.0000 O   0  0  0  0  0  0  0  0  0  0  0  0
    6.2824    0.2306    0.0000 O   0  0  0  0  0  0  0  0  0  0  0  0
   10.6126   -1.2694    0.0000 O   0  0  0  0  0  0  0  0  0  0  0  0
    9.7465    0.2306    0.0000 O   0  0  0  0  0  0  0  0  0  0  0  0
    7.1485    1.7306    0.0000 N   0  0  0  0  0  0  0  0  0  0  0  0
    4.6453    2.6785    0.0000 N   0  0  0  0  0  0  0  0  0  0  0  0
    8.8805   -1.2694    0.0000 N   0  0  0  0  0  0  0  0  0  0  0  0
    6.6485    3.2694    0.0000 C   0  0  0  0  0  0  0  0  0  0  0  0
    6.3395    2.3184    0.0000 C   0  0  1  0  0  0  0  0  0  0  0  0
    7.9575    2.3184    0.0000 C   0  0  0  0  0  0  0  0  0  0  0  0
    6.6485    4.2694    0.0000 C   0  0  0  0  0  0  0  0  0  0  0  0
    5.6974    3.5784    0.0000 C   0  0  0  0  0  0  0  0  0  0  0  0
    5.3884    2.0094    0.0000 C   0  0  0  0  0  0  0  0  0  0  0  0
    7.1485    0.7306    0.0000 C   0  0  0  0  0  0  0  0  0  0  0  0
    8.0145    0.2306    0.0000 C   0  0  2  0  0  0  0  0  0  0  0  0
    8.0145   -0.7694    0.0000 C   0  0  2  0  0  0  0  0  0  0  0  0
    7.1485   -1.2694    0.0000 C   0  0  0  0  0  0  0  0  0  0  0  0
    3.6942    2.3695    0.0000 C   0  0  0  0  0  0  0  0  0  0  0  0
    7.1485   -2.2694    0.0000 C   0  0  0  0  0  0  0  0  0  0  0  0
    2.9511    3.0386    0.0000 C   0  0  0  0  0  0  0  0  0  0  0  0
    9.7465   -0.7694    0.0000 C   0  0  0  0  0  0  0  0  0  0  0  0
    8.0145   -2.7694    0.0000 C   0  0  0  0  0  0  0  0  0  0  0  0
    6.2824   -2.7694    0.0000 C   0  0  0  0  0  0  0  0  0  0  0  0
    2.0000    2.7296    0.0000 C   0  0  0  0  0  0  0  0  0  0  0  0
    8.0145   -3.7694    0.0000 C   0  0  0  0  0  0  0  0  0  0  0  0
    6.2824   -3.7694    0.0000 C   0  0  0  0  0  0  0  0  0  0  0  0
    7.1485   -4.2694    0.0000 C   0  0  0  0  0  0  0  0  0  0  0  0
   11.4786   -0.7694    0.0000 C   0  0  0  0  0  0  0  0  0  0  0  0
   12.3446   -1.2694    0.0000 C   0  0  0  0  0  0  0  0  0  0  0  0
   13.2107   -1.7694    0.0000 C   0  0  0  0  0  0  0  0  0  0  0  0
    6.2425    1.7060    0.0000 H   0  0  0  0  0  0  0  0  0  0  0  0
    8.2675    1.7814    0.0000 H   0  0  0  0  0  0  0  0  0  0  0  0
    8.5239    2.5705    0.0000 H   0  0  0  0  0  0  0  0  0  0  0  0
    7.2685    4.2694    0.0000 H   0  0  0  0  0  0  0  0  0  0  0  0
    6.6485    4.8894    0.0000 H   0  0  0  0  0  0  0  0  0  0  0  0
    6.0285    4.2694    0.0000 H   0  0  0  0  0  0  0  0  0  0  0  0
    5.8890    4.1681    0.0000 H   0  0  0  0  0  0  0  0  0  0  0  0
    5.1078    3.7700    0.0000 H   0  0  0  0  0  0  0  0  0  0  0  0
    5.5058    2.9888    0.0000 H   0  0  0  0  0  0  0  0  0  0  0  0
    8.0145    0.8506    0.0000 H   0  0  0  0  0  0  0  0  0  0  0  0
    8.5514   -0.4594    0.0000 H   0  0  0  0  0  0  0  0  0  0  0  0
    4.7742    3.2849    0.0000 H   0  0  0  0  0  0  0  0  0  0  0  0
    6.9364   -0.6868    0.0000 H   0  0  0  0  0  0  0  0  0  0  0  0
    6.5379   -1.3771    0.0000 H   0  0  0  0  0  0  0  0  0  0  0  0
    3.2056    1.9878    0.0000 H   0  0  0  0  0  0  0  0  0  0  0  0
    3.9853    1.8220    0.0000 H   0  0  0  0  0  0  0  0  0  0  0  0
    8.8805   -1.8894    0.0000 H   0  0  0  0  0  0  0  0  0  0  0  0
    8.8805    1.3506    0.0000 H   0  0  0  0  0  0  0  0  0  0  0  0
    3.4396    3.4203    0.0000 H   0  0  0  0  0  0  0  0  0  0  0  0
    2.6600    3.5860    0.0000 H   0  0  0  0  0  0  0  0  0  0  0  0
    8.5514   -2.4594    0.0000 H   0  0  0  0  0  0  0  0  0  0  0  0
    5.7455   -2.4594    0.0000 H   0  0  0  0  0  0  0  0  0  0  0  0
    1.8084    3.3192    0.0000 H   0  0  0  0  0  0  0  0  0  0  0  0
    1.4103    2.5380    0.0000 H   0  0  0  0  0  0  0  0  0  0  0  0
    2.1916    2.1399    0.0000 H   0  0  0  0  0  0  0  0  0  0  0  0
    8.5514   -4.0794    0.0000 H   0  0  0  0  0  0  0  0  0  0  0  0
    5.7455   -4.0794    0.0000 H   0  0  0  0  0  0  0  0  0  0  0  0
    7.1485   -4.8894    0.0000 H   0  0  0  0  0  0  0  0  0  0  0  0
   11.8771   -0.2945    0.0000 H   0  0  0  0  0  0  0  0  0  0  0  0
   11.0801   -0.2945    0.0000 H   0  0  0  0  0  0  0  0  0  0  0  0
   13.7476   -2.0794    0.0000 H   0  0  0  0  0  0  0  0  0  0  0  0
  1 10  1  0  0  0  0
  1 12  1  0  0  0  0
 17  2  1  1  0  0  0
  2 50  1  0  0  0  0
  3 15  2  0  0  0  0
  4 16  2  0  0  0  0
  5 23  1  0  0  0  0
  5 30  1  0  0  0  0
  6 23  2  0  0  0  0
  7 11  1  0  0  0  0
  7 12  1  0  0  0  0
  7 16  1  0  0  0  0
  8 15  1  0  0  0  0
  8 20  1  0  0  0  0
  8 44  1  0  0  0  0
 18  9  1  1  0  0  0
  9 23  1  0  0  0  0
  9 49  1  0  0  0  0
 10 11  1  0  0  0  0
 10 13  1  0  0  0  0
 10 14  1  0  0  0  0
 11 15  1  6  0  0  0
 11 33  1  0  0  0  0
 12 34  1  0  0  0  0
 12 35  1  0  0  0  0
 13 36  1  0  0  0  0
 13 37  1  0  0  0  0
 13 38  1  0  0  0  0
 14 39  1  0  0  0  0
 14 40  1  0  0  0  0
 14 41  1  0  0  0  0
 16 17  1  0  0  0  0
 17 18  1  0  0  0  0
 17 42  1  0  0  0  0
 18 19  1  0  0  0  0
 18 43  1  0  0  0  0
 19 21  1  0  0  0  0
 19 45  1  0  0  0  0
 19 46  1  0  0  0  0
 20 22  1  0  0  0  0
 20 47  1  0  0  0  0
 20 48  1  0  0  0  0
 21 24  2  0  0  0  0
 21 25  1  0  0  0  0
 22 26  1  0  0  0  0
 22 51  1  0  0  0  0
 22 52  1  0  0  0  0
 24 27  1  0  0  0  0
 24 53  1  0  0  0  0
 25 28  2  0  0  0  0
 25 54  1  0  0  0  0
 26 55  1  0  0  0  0
 26 56  1  0  0  0  0
 26 57  1  0  0  0  0
 27 29  2  0  0  0  0
 27 58  1  0  0  0  0
 28 29  1  0  0  0  0
 28 59  1  0  0  0  0
 29 60  1  0  0  0  0
 30 31  1  0  0  0  0
 30 61  1  0  0  0  0
 30 62  1  0  0  0  0
 31 32  3  0  0  0  0
 32 63  1  0  0  0  0
M  END
> <PUBCHEM_COMPOUND_CID>
514721
> <PUBCHEM_COMPOUND_CANONICALIZED>
1
> <PUBCHEM_CACTVS_COMPLEXITY>
714
> <PUBCHEM_CACTVS_HBOND_ACCEPTOR>
6
> <PUBCHEM_CACTVS_HBOND_DONOR>
3
> <PUBCHEM_CACTVS_ROTATABLE_BOND>
10
> <PUBCHEM_CACTVS_SUBSKEYS>
AAADceB7OABAAAAAAAAAAAAAAAAAAWAAAAAwAAAAAAAAAAABAAAAHgQQCAAADDzh2AayCIPABgjIGiFSGAICAABgABAIiIHIAIkKcDqg0TGcYAAklgCYiAeYyKCOAAAAAAAAAAAAAAAAAAAAAAAAAAAAAA==
> <PUBCHEM_IUPAC_OPENEYE_NAME>
prop-2-ynyl N-[(1S,2S)-1-benzyl-3-[(4R)-5,5-dimethyl-4-(propylcarbamoyl)thiazolidin-3-yl]-2-hydroxy-3-oxo-propyl]carbamate
> <PUBCHEM_IUPAC_CAS_NAME>
N-[(2S,3S)-4-[(4R)-5,5-dimethyl-4-[oxo(propylamino)methyl]-3-thiazolidinyl]-3-hydroxy-4-oxo-1-phenylbutan-2-yl]carbamic acid prop-2-ynyl ester
> <PUBCHEM_IUPAC_NAME_MARKUP>
prop-2-ynyl <I>N</I>-[(2<I>S</I>,3<I>S</I>)-4-[(4<I>R</I>)-5,5-dimethyl-4-(propylcarbamoyl)-1,3-thiazolidin-3-yl]-3-hydroxy-4-oxo-1-phenylbutan-2-yl]carbamate
> <PUBCHEM_IUPAC_NAME>
prop-2-ynyl N-[(2S,3S)-4-[(4R)-5,5-dimethyl-4-(propylcarbamoyl)-1,3-thiazolidin-3-yl]-3-hydroxy-4-oxo-1-phenylbutan-2-yl]carbamate
> <PUBCHEM_IUPAC_SYSTEMATIC_NAME>
prop-2-ynyl N-[(2S,3S)-4-[(4R)-5,5-dimethyl-4-(propylcarbamoyl)-1,3-thiazolidin-3-yl]-3-oxidanyl-4-oxidanylidene-1-phenyl-butan-2-yl]carbamate
> <PUBCHEM_IUPAC_TRADITIONAL_NAME>
N-[(1S,2S)-1-benzyl-3-[(4R)-5,5-dimethyl-4-(propylcarbamoyl)thiazolidin-3-yl]-2-hydroxy-3-keto-propyl]carbamic acid propargyl ester
> <PUBCHEM_IUPAC_INCHI>
InChI=1S/C23H31N3O5S/c1-5-12-24-20(28)19-23(3,4)32-15-26(19)21(29)18(27)17(25-22(30)31-13-6-2)14-16-10-8-7-9-11-16/h2,7-11,17-19,27H,5,12-15H2,1,3-4H3,(H,24,28)(H,25,30)/t17-,18-,19+/m0/s1
> <PUBCHEM_IUPAC_INCHIKEY>
PWRZHZZYDHYSQE-GBESFXJTSA-N
> <PUBCHEM_XLOGP3_AA>
2.4
> <PUBCHEM_EXACT_MASS>
461.19844227
> <PUBCHEM_MOLECULAR_FORMULA>
C23H31N3O5S
> <PUBCHEM_MOLECULAR_WEIGHT>
461.6
> <PUBCHEM_OPENEYE_CAN_SMILES>
CCCNC(=O)C1C(SCN1C(=O)C(C(CC2=CC=CC=C2)NC(=O)OCC#C)O)(C)C
> <PUBCHEM_OPENEYE_ISO_SMILES>
CCCNC(=O)[C@@H]1C(SCN1C(=O)[C@H]([C@H](CC2=CC=CC=C2)NC(=O)OCC#C)O)(C)C
> <PUBCHEM_CACTVS_TPSA>
133
> <PUBCHEM_MONOISOTOPIC_WEIGHT>
461.19844227
> <PUBCHEM_TOTAL_CHARGE>
0
> <PUBCHEM_HEAVY_ATOM_COUNT>
32
> <PUBCHEM_ATOM_DEF_STEREO_COUNT>
3
> <PUBCHEM_ATOM_UDEF_STEREO_COUNT>
0
> <PUBCHEM_BOND_DEF_STEREO_COUNT>
0
> <PUBCHEM_BOND_UDEF_STEREO_COUNT>
0
> <PUBCHEM_ISOTOPIC_ATOM_COUNT>
0
> <PUBCHEM_COMPONENT_COUNT>
1
> <PUBCHEM_CACTVS_TAUTO_COUNT>
-1
> <PUBCHEM_COORDINATE_TYPE>
1
5
255
> <PUBCHEM_BONDANNOTATIONS>
11  15  6
17  2  5
21  24  8
21  25  8
24  27  8
25  28  8
27  29  8
28  29  8
18  9  5
$$$$
