514723
  -OEChem-10302200282D
 71 74  0     1  0  0  0  0  0999 V2000
    8.8881   -1.4254    0.0000 F   0  0  0  0  0  0  0  0  0  0  0  0
    9.0110   -0.2563    0.0000 F   0  0  0  0  0  0  0  0  0  0  0  0
    7.0826    1.8581    0.0000 O   0  0  0  0  0  0  0  0  0  0  0  0
    4.9726    0.2619    0.0000 O   0  0  0  0  0  0  0  0  0  0  0  0
    4.8302   -1.0927    0.0000 O   0  0  0  0  0  0  0  0  0  0  0  0
    7.2905    2.8363    0.0000 O   0  0  0  0  0  0  0  0  0  0  0  0
    6.6668   -0.0982    0.0000 N   0  0  0  0  0  0  0  0  0  0  0  0
    5.6962   -2.5927    0.0000 N   0  0  0  0  0  0  0  0  0  0  0  0
    5.5963    3.1964    0.0000 N   0  0  0  0  0  0  0  0  0  0  0  0
    6.0862    5.2267    0.0000 N   0  0  0  0  0  0  0  0  0  0  0  0
    6.5622   -1.0927    0.0000 C   0  0  1  0  0  0  0  0  0  0  0  0
    7.4758   -1.4994    0.0000 C   0  0  0  0  0  0  0  0  0  0  0  0
    8.1449   -0.7563    0.0000 C   0  0  0  0  0  0  0  0  0  0  0  0
    7.6449    0.1097    0.0000 C   0  0  0  0  0  0  0  0  0  0  0  0
    5.9236    0.5709    0.0000 C   0  0  0  0  0  0  0  0  0  0  0  0
    6.1316    1.5491    0.0000 C   0  0  2  0  0  0  0  0  0  0  0  0
    5.6962   -1.5927    0.0000 C   0  0  0  0  0  0  0  0  0  0  0  0
    5.3884    2.2182    0.0000 C   0  0  2  0  0  0  0  0  0  0  0  0
    4.4374    1.9092    0.0000 C   0  0  0  0  0  0  0  0  0  0  0  0
    4.8302   -3.0927    0.0000 C   0  0  0  0  0  0  0  0  0  0  0  0
    3.6942    2.5783    0.0000 C   0  0  0  0  0  0  0  0  0  0  0  0
    6.5474    3.5054    0.0000 C   0  0  0  0  0  0  0  0  0  0  0  0
    4.8302   -4.0927    0.0000 C   0  0  0  0  0  0  0  0  0  0  0  0
    3.9021    3.5565    0.0000 C   0  0  0  0  0  0  0  0  0  0  0  0
    2.7431    2.2693    0.0000 C   0  0  0  0  0  0  0  0  0  0  0  0
    6.7553    4.4835    0.0000 C   0  0  0  0  0  0  0  0  0  0  0  0
    3.9642   -4.5927    0.0000 C   0  0  0  0  0  0  0  0  0  0  0  0
    5.6962   -4.5927    0.0000 C   0  0  0  0  0  0  0  0  0  0  0  0
    3.1590    4.2256    0.0000 C   0  0  0  0  0  0  0  0  0  0  0  0
    2.0000    2.9384    0.0000 C   0  0  0  0  0  0  0  0  0  0  0  0
    7.6688    4.8903    0.0000 C   0  0  0  0  0  0  0  0  0  0  0  0
    2.2079    3.9166    0.0000 C   0  0  0  0  0  0  0  0  0  0  0  0
    3.9642   -5.5927    0.0000 C   0  0  0  0  0  0  0  0  0  0  0  0
    3.0982   -4.0927    0.0000 C   0  0  0  0  0  0  0  0  0  0  0  0
    6.5862    6.0927    0.0000 C   0  0  0  0  0  0  0  0  0  0  0  0
    5.6962   -5.5927    0.0000 C   0  0  0  0  0  0  0  0  0  0  0  0
    7.5643    5.8848    0.0000 C   0  0  0  0  0  0  0  0  0  0  0  0
    5.0916    5.1222    0.0000 C   0  0  0  0  0  0  0  0  0  0  0  0
    4.8302   -6.0927    0.0000 C   0  0  0  0  0  0  0  0  0  0  0  0
    6.0423   -0.7550    0.0000 H   0  0  0  0  0  0  0  0  0  0  0  0
    7.1658   -2.0364    0.0000 H   0  0  0  0  0  0  0  0  0  0  0  0
    7.9774   -1.8639    0.0000 H   0  0  0  0  0  0  0  0  0  0  0  0
    8.2113    0.3619    0.0000 H   0  0  0  0  0  0  0  0  0  0  0  0
    7.4533    0.6994    0.0000 H   0  0  0  0  0  0  0  0  0  0  0  0
    6.2604    2.1555    0.0000 H   0  0  0  0  0  0  0  0  0  0  0  0
    4.9276    2.6331    0.0000 H   0  0  0  0  0  0  0  0  0  0  0  0
    3.9488    1.5275    0.0000 H   0  0  0  0  0  0  0  0  0  0  0  0
    4.7284    1.3618    0.0000 H   0  0  0  0  0  0  0  0  0  0  0  0
    6.2332   -2.9027    0.0000 H   0  0  0  0  0  0  0  0  0  0  0  0
    5.1356    3.6112    0.0000 H   0  0  0  0  0  0  0  0  0  0  0  0
    7.5434    1.4432    0.0000 H   0  0  0  0  0  0  0  0  0  0  0  0
    4.6182   -2.5101    0.0000 H   0  0  0  0  0  0  0  0  0  0  0  0
    4.2196   -3.2004    0.0000 H   0  0  0  0  0  0  0  0  0  0  0  0
    4.4918    3.7481    0.0000 H   0  0  0  0  0  0  0  0  0  0  0  0
    2.6142    1.6629    0.0000 H   0  0  0  0  0  0  0  0  0  0  0  0
    6.2332   -4.2827    0.0000 H   0  0  0  0  0  0  0  0  0  0  0  0
    3.2879    4.8321    0.0000 H   0  0  0  0  0  0  0  0  0  0  0  0
    1.4103    2.7469    0.0000 H   0  0  0  0  0  0  0  0  0  0  0  0
    8.2058    4.5803    0.0000 H   0  0  0  0  0  0  0  0  0  0  0  0
    1.7472    4.3315    0.0000 H   0  0  0  0  0  0  0  0  0  0  0  0
    3.4272   -5.9027    0.0000 H   0  0  0  0  0  0  0  0  0  0  0  0
    6.3340    6.6591    0.0000 H   0  0  0  0  0  0  0  0  0  0  0  0
    3.4082   -3.5558    0.0000 H   0  0  0  0  0  0  0  0  0  0  0  0
    2.5612   -3.7827    0.0000 H   0  0  0  0  0  0  0  0  0  0  0  0
    2.7882   -4.6296    0.0000 H   0  0  0  0  0  0  0  0  0  0  0  0
    6.2332   -5.9027    0.0000 H   0  0  0  0  0  0  0  0  0  0  0  0
    8.0250    6.2997    0.0000 H   0  0  0  0  0  0  0  0  0  0  0  0
    5.0268    5.7388    0.0000 H   0  0  0  0  0  0  0  0  0  0  0  0
    4.4750    5.0573    0.0000 H   0  0  0  0  0  0  0  0  0  0  0  0
    5.1564    4.5056    0.0000 H   0  0  0  0  0  0  0  0  0  0  0  0
    4.8302   -6.7127    0.0000 H   0  0  0  0  0  0  0  0  0  0  0  0
  1 13  1  0  0  0  0
  2 13  1  0  0  0  0
 16  3  1  6  0  0  0
  3 51  1  0  0  0  0
  4 15  2  0  0  0  0
  5 17  2  0  0  0  0
  6 22  2  0  0  0  0
  7 11  1  0  0  0  0
  7 14  1  0  0  0  0
  7 15  1  0  0  0  0
  8 17  1  0  0  0  0
  8 20  1  0  0  0  0
  8 49  1  0  0  0  0
 18  9  1  6  0  0  0
  9 22  1  0  0  0  0
  9 50  1  0  0  0  0
 10 26  1  0  0  0  0
 10 35  1  0  0  0  0
 10 38  1  0  0  0  0
 11 12  1  0  0  0  0
 11 17  1  1  0  0  0
 11 40  1  0  0  0  0
 12 13  1  0  0  0  0
 12 41  1  0  0  0  0
 12 42  1  0  0  0  0
 13 14  1  0  0  0  0
 14 43  1  0  0  0  0
 14 44  1  0  0  0  0
 15 16  1  0  0  0  0
 16 18  1  0  0  0  0
 16 45  1  0  0  0  0
 18 19  1  0  0  0  0
 18 46  1  0  0  0  0
 19 21  1  0  0  0  0
 19 47  1  0  0  0  0
 19 48  1  0  0  0  0
 20 23  1  0  0  0  0
 20 52  1  0  0  0  0
 20 53  1  0  0  0  0
 21 24  2  0  0  0  0
 21 25  1  0  0  0  0
 22 26  1  0  0  0  0
 23 27  1  0  0  0  0
 23 28  2  0  0  0  0
 24 29  1  0  0  0  0
 24 54  1  0  0  0  0
 25 30  2  0  0  0  0
 25 55  1  0  0  0  0
 26 31  2  0  0  0  0
 27 33  2  0  0  0  0
 27 34  1  0  0  0  0
 28 36  1  0  0  0  0
 28 56  1  0  0  0  0
 29 32  2  0  0  0  0
 29 57  1  0  0  0  0
 30 32  1  0  0  0  0
 30 58  1  0  0  0  0
 31 37  1  0  0  0  0
 31 59  1  0  0  0  0
 32 60  1  0  0  0  0
 33 39  1  0  0  0  0
 33 61  1  0  0  0  0
 34 63  1  0  0  0  0
 34 64  1  0  0  0  0
 34 65  1  0  0  0  0
 35 37  2  0  0  0  0
 35 62  1  0  0  0  0
 36 39  2  0  0  0  0
 36 66  1  0  0  0  0
 37 67  1  0  0  0  0
 38 68  1  0  0  0  0
 38 69  1  0  0  0  0
 38 70  1  0  0  0  0
 39 71  1  0  0  0  0
M  END
> <PUBCHEM_COMPOUND_CID>
514723
> <PUBCHEM_COMPOUND_CANONICALIZED>
1
> <PUBCHEM_CACTVS_COMPLEXITY>
868
> <PUBCHEM_CACTVS_HBOND_ACCEPTOR>
6
> <PUBCHEM_CACTVS_HBOND_DONOR>
3
> <PUBCHEM_CACTVS_ROTATABLE_BOND>
9
> <PUBCHEM_CACTVS_SUBSKEYS>
AAADcfB7uYAAAAAAAAAAAAAAAAAAAWLAAAAwYAAAAAAAAAAB0AAAHwAQCAAADDzhnhY+gJPMEgCoAzV3VAKCgCA3AiAI2KH4ZNgKcPrA1bGUYQhklgDYyYeYyaCOgAAAAAAQAAAAAAAAACAAAAAAAAAAAA==
> <PUBCHEM_IUPAC_OPENEYE_NAME>
N-[(1S,2S)-1-benzyl-3-[(2S)-4,4-difluoro-2-(o-tolylmethylcarbamoyl)pyrrolidin-1-yl]-2-hydroxy-3-oxo-propyl]-1-methyl-pyrrole-2-carboxamide
> <PUBCHEM_IUPAC_CAS_NAME>
N-[(2S,3S)-4-[(2S)-4,4-difluoro-2-[[(2-methylphenyl)methylamino]-oxomethyl]-1-pyrrolidinyl]-3-hydroxy-4-oxo-1-phenylbutan-2-yl]-1-methyl-2-pyrrolecarboxamide
> <PUBCHEM_IUPAC_NAME_MARKUP>
<I>N</I>-[(2<I>S</I>,3<I>S</I>)-4-[(2<I>S</I>)-4,4-difluoro-2-[(2-methylphenyl)methylcarbamoyl]pyrrolidin-1-yl]-3-hydroxy-4-oxo-1-phenylbutan-2-yl]-1-methylpyrrole-2-carboxamide
> <PUBCHEM_IUPAC_NAME>
N-[(2S,3S)-4-[(2S)-4,4-difluoro-2-[(2-methylphenyl)methylcarbamoyl]pyrrolidin-1-yl]-3-hydroxy-4-oxo-1-phenylbutan-2-yl]-1-methylpyrrole-2-carboxamide
> <PUBCHEM_IUPAC_SYSTEMATIC_NAME>
N-[(2S,3S)-4-[(2S)-4,4-bis(fluoranyl)-2-[(2-methylphenyl)methylcarbamoyl]pyrrolidin-1-yl]-3-oxidanyl-4-oxidanylidene-1-phenyl-butan-2-yl]-1-methyl-pyrrole-2-carboxamide
> <PUBCHEM_IUPAC_TRADITIONAL_NAME>
N-[(1S,2S)-1-benzyl-3-[(2S)-4,4-difluoro-2-[(2-methylbenzyl)carbamoyl]pyrrolidino]-2-hydroxy-3-keto-propyl]-1-methyl-pyrrole-2-carboxamide
> <PUBCHEM_IUPAC_INCHI>
InChI=1S/C29H32F2N4O4/c1-19-9-6-7-12-21(19)17-32-26(37)24-16-29(30,31)18-35(24)28(39)25(36)22(15-20-10-4-3-5-11-20)33-27(38)23-13-8-14-34(23)2/h3-14,22,24-25,36H,15-18H2,1-2H3,(H,32,37)(H,33,38)/t22-,24-,25-/m0/s1
> <PUBCHEM_IUPAC_INCHIKEY>
VCNPFMYBYDJSCF-HVCNVCAESA-N
> <PUBCHEM_XLOGP3_AA>
3.2
> <PUBCHEM_EXACT_MASS>
538.23916184
> <PUBCHEM_MOLECULAR_FORMULA>
C29H32F2N4O4
> <PUBCHEM_MOLECULAR_WEIGHT>
538.6
> <PUBCHEM_OPENEYE_CAN_SMILES>
CC1=CC=CC=C1CNC(=O)C2CC(CN2C(=O)C(C(CC3=CC=CC=C3)NC(=O)C4=CC=CN4C)O)(F)F
> <PUBCHEM_OPENEYE_ISO_SMILES>
CC1=CC=CC=C1CNC(=O)[C@@H]2CC(CN2C(=O)[C@H]([C@H](CC3=CC=CC=C3)NC(=O)C4=CC=CN4C)O)(F)F
> <PUBCHEM_CACTVS_TPSA>
104
> <PUBCHEM_MONOISOTOPIC_WEIGHT>
538.23916184
> <PUBCHEM_TOTAL_CHARGE>
0
> <PUBCHEM_HEAVY_ATOM_COUNT>
39
> <PUBCHEM_ATOM_DEF_STEREO_COUNT>
3
> <PUBCHEM_ATOM_UDEF_STEREO_COUNT>
0
> <PUBCHEM_BOND_DEF_STEREO_COUNT>
0
> <PUBCHEM_BOND_UDEF_STEREO_COUNT>
0
> <PUBCHEM_ISOTOPIC_ATOM_COUNT>
0
> <PUBCHEM_COMPONENT_COUNT>
1
> <PUBCHEM_CACTVS_TAUTO_COUNT>
-1
> <PUBCHEM_COORDINATE_TYPE>
1
5
255
> <PUBCHEM_BONDANNOTATIONS>
10  26  8
10  35  8
11  17  5
21  24  8
21  25  8
23  27  8
23  28  8
24  29  8
25  30  8
26  31  8
27  33  8
28  36  8
29  32  8
16  3  6
30  32  8
31  37  8
33  39  8
35  37  8
36  39  8
18  9  6
$$$$
