514745
  -OEChem-10302200282D
 84 87  0     1  0  0  0  0  0999 V2000
    3.4635    2.8234    0.0000 S   0  0  0  0  0  0  0  0  0  0  0  0
    9.3763    5.6598    0.0000 F   0  0  0  0  0  0  0  0  0  0  0  0
   10.3763    4.6598    0.0000 F   0  0  0  0  0  0  0  0  0  0  0  0
    8.3763    4.6598    0.0000 F   0  0  0  0  0  0  0  0  0  0  0  0
    4.5258    0.2090    0.0000 O   0  0  0  0  0  0  0  0  0  0  0  0
    5.9122    4.6598    0.0000 O   0  0  0  0  0  0  0  0  0  0  0  0
    6.6359    1.8052    0.0000 O   0  0  0  0  0  0  0  0  0  0  0  0
    4.3179   -0.7691    0.0000 O   0  0  0  0  0  0  0  0  0  0  0  0
    3.9021   -2.7254    0.0000 O   0  0  0  0  0  0  0  0  0  0  0  0
    4.9417    2.1653    0.0000 N   0  0  0  0  0  0  0  0  0  0  0  0
    6.7782    3.1598    0.0000 N   0  0  0  0  0  0  0  0  0  0  0  0
    6.0121   -1.1292    0.0000 N   0  0  0  0  0  0  0  0  0  0  0  0
    4.1326    3.5666    0.0000 C   0  0  0  0  0  0  0  0  0  0  0  0
    5.0462    3.1598    0.0000 C   0  0  1  0  0  0  0  0  0  0  0  0
    3.9635    1.9574    0.0000 C   0  0  0  0  0  0  0  0  0  0  0  0
    3.3895    4.2357    0.0000 C   0  0  0  0  0  0  0  0  0  0  0  0
    4.5394    4.4801    0.0000 C   0  0  0  0  0  0  0  0  0  0  0  0
    5.9122    3.6598    0.0000 C   0  0  0  0  0  0  0  0  0  0  0  0
    5.6848    1.4962    0.0000 C   0  0  0  0  0  0  0  0  0  0  0  0
    5.4769    0.5181    0.0000 C   0  0  2  0  0  0  0  0  0  0  0  0
    6.2200   -0.1511    0.0000 C   0  0  2  0  0  0  0  0  0  0  0  0
    7.1711    0.1579    0.0000 C   0  0  0  0  0  0  0  0  0  0  0  0
    7.6443    3.6598    0.0000 C   0  0  0  0  0  0  0  0  0  0  0  0
    7.9142   -0.5112    0.0000 C   0  0  0  0  0  0  0  0  0  0  0  0
    8.5103    3.1598    0.0000 C   0  0  0  0  0  0  0  0  0  0  0  0
    5.0611   -1.4382    0.0000 C   0  0  0  0  0  0  0  0  0  0  0  0
    8.8653   -0.2022    0.0000 C   0  0  0  0  0  0  0  0  0  0  0  0
    7.7063   -1.4893    0.0000 C   0  0  0  0  0  0  0  0  0  0  0  0
    9.3763    3.6598    0.0000 C   0  0  0  0  0  0  0  0  0  0  0  0
    4.8532   -2.4164    0.0000 C   0  0  0  0  0  0  0  0  0  0  0  0
    8.5103    2.1598    0.0000 C   0  0  0  0  0  0  0  0  0  0  0  0
    9.6084   -0.8713    0.0000 C   0  0  0  0  0  0  0  0  0  0  0  0
    8.4495   -2.1585    0.0000 C   0  0  0  0  0  0  0  0  0  0  0  0
   10.2424    3.1598    0.0000 C   0  0  0  0  0  0  0  0  0  0  0  0
    9.4005   -1.8494    0.0000 C   0  0  0  0  0  0  0  0  0  0  0  0
    9.3763    4.6598    0.0000 C   0  0  0  0  0  0  0  0  0  0  0  0
    9.3763    1.6598    0.0000 C   0  0  0  0  0  0  0  0  0  0  0  0
   10.2424    2.1598    0.0000 C   0  0  0  0  0  0  0  0  0  0  0  0
    3.6942   -3.7036    0.0000 C   0  0  0  0  0  0  0  0  0  0  0  0
    4.4374   -4.3727    0.0000 C   0  0  0  0  0  0  0  0  0  0  0  0
    2.7431   -4.0126    0.0000 C   0  0  0  0  0  0  0  0  0  0  0  0
    4.2294   -5.3508    0.0000 C   0  0  0  0  0  0  0  0  0  0  0  0
    2.5352   -4.9907    0.0000 C   0  0  0  0  0  0  0  0  0  0  0  0
    5.3884   -4.0637    0.0000 C   0  0  0  0  0  0  0  0  0  0  0  0
    2.0000   -3.3434    0.0000 C   0  0  0  0  0  0  0  0  0  0  0  0
    3.2784   -5.6598    0.0000 C   0  0  0  0  0  0  0  0  0  0  0  0
    5.5662    2.8222    0.0000 H   0  0  0  0  0  0  0  0  0  0  0  0
    3.3971    1.7052    0.0000 H   0  0  0  0  0  0  0  0  0  0  0  0
    4.1551    1.3678    0.0000 H   0  0  0  0  0  0  0  0  0  0  0  0
    3.8044    4.6965    0.0000 H   0  0  0  0  0  0  0  0  0  0  0  0
    2.9288    4.6506    0.0000 H   0  0  0  0  0  0  0  0  0  0  0  0
    2.9746    3.7750    0.0000 H   0  0  0  0  0  0  0  0  0  0  0  0
    5.1058    4.2280    0.0000 H   0  0  0  0  0  0  0  0  0  0  0  0
    4.7916    5.0465    0.0000 H   0  0  0  0  0  0  0  0  0  0  0  0
    3.9730    4.7323    0.0000 H   0  0  0  0  0  0  0  0  0  0  0  0
    5.0162    0.9329    0.0000 H   0  0  0  0  0  0  0  0  0  0  0  0
    5.6304   -0.3427    0.0000 H   0  0  0  0  0  0  0  0  0  0  0  0
    6.7782    2.5398    0.0000 H   0  0  0  0  0  0  0  0  0  0  0  0
    7.6597    0.5396    0.0000 H   0  0  0  0  0  0  0  0  0  0  0  0
    6.8800    0.7054    0.0000 H   0  0  0  0  0  0  0  0  0  0  0  0
    6.4729   -1.5441    0.0000 H   0  0  0  0  0  0  0  0  0  0  0  0
    8.0428    4.1348    0.0000 H   0  0  0  0  0  0  0  0  0  0  0  0
    7.2458    4.1348    0.0000 H   0  0  0  0  0  0  0  0  0  0  0  0
    4.0651    0.6239    0.0000 H   0  0  0  0  0  0  0  0  0  0  0  0
    8.9942    0.4043    0.0000 H   0  0  0  0  0  0  0  0  0  0  0  0
    7.1167   -1.6809    0.0000 H   0  0  0  0  0  0  0  0  0  0  0  0
    4.9395   -3.0304    0.0000 H   0  0  0  0  0  0  0  0  0  0  0  0
    5.4728   -2.4380    0.0000 H   0  0  0  0  0  0  0  0  0  0  0  0
    7.9734    1.8498    0.0000 H   0  0  0  0  0  0  0  0  0  0  0  0
   10.1981   -0.6797    0.0000 H   0  0  0  0  0  0  0  0  0  0  0  0
    8.3206   -2.7649    0.0000 H   0  0  0  0  0  0  0  0  0  0  0  0
   10.7793    3.4698    0.0000 H   0  0  0  0  0  0  0  0  0  0  0  0
    9.8613   -2.2643    0.0000 H   0  0  0  0  0  0  0  0  0  0  0  0
    9.3763    1.0398    0.0000 H   0  0  0  0  0  0  0  0  0  0  0  0
   10.7793    1.8498    0.0000 H   0  0  0  0  0  0  0  0  0  0  0  0
    4.6902   -5.7657    0.0000 H   0  0  0  0  0  0  0  0  0  0  0  0
    1.9456   -5.1823    0.0000 H   0  0  0  0  0  0  0  0  0  0  0  0
    5.5800   -4.6533    0.0000 H   0  0  0  0  0  0  0  0  0  0  0  0
    5.9781   -3.8721    0.0000 H   0  0  0  0  0  0  0  0  0  0  0  0
    5.1968   -3.4740    0.0000 H   0  0  0  0  0  0  0  0  0  0  0  0
    2.4149   -2.8827    0.0000 H   0  0  0  0  0  0  0  0  0  0  0  0
    1.5392   -2.9286    0.0000 H   0  0  0  0  0  0  0  0  0  0  0  0
    1.5851   -3.8042    0.0000 H   0  0  0  0  0  0  0  0  0  0  0  0
    3.1495   -6.2663    0.0000 H   0  0  0  0  0  0  0  0  0  0  0  0
  1 13  1  0  0  0  0
  1 15  1  0  0  0  0
  2 36  1  0  0  0  0
  3 36  1  0  0  0  0
  4 36  1  0  0  0  0
 20  5  1  6  0  0  0
  5 64  1  0  0  0  0
  6 18  2  0  0  0  0
  7 19  2  0  0  0  0
  8 26  2  0  0  0  0
  9 30  1  0  0  0  0
  9 39  1  0  0  0  0
 10 14  1  0  0  0  0
 10 15  1  0  0  0  0
 10 19  1  0  0  0  0
 11 18  1  0  0  0  0
 11 23  1  0  0  0  0
 11 58  1  0  0  0  0
 21 12  1  6  0  0  0
 12 26  1  0  0  0  0
 12 61  1  0  0  0  0
 13 14  1  0  0  0  0
 13 16  1  0  0  0  0
 13 17  1  0  0  0  0
 14 18  1  1  0  0  0
 14 47  1  0  0  0  0
 15 48  1  0  0  0  0
 15 49  1  0  0  0  0
 16 50  1  0  0  0  0
 16 51  1  0  0  0  0
 16 52  1  0  0  0  0
 17 53  1  0  0  0  0
 17 54  1  0  0  0  0
 17 55  1  0  0  0  0
 19 20  1  0  0  0  0
 20 21  1  0  0  0  0
 20 56  1  0  0  0  0
 21 22  1  0  0  0  0
 21 57  1  0  0  0  0
 22 24  1  0  0  0  0
 22 59  1  0  0  0  0
 22 60  1  0  0  0  0
 23 25  1  0  0  0  0
 23 62  1  0  0  0  0
 23 63  1  0  0  0  0
 24 27  2  0  0  0  0
 24 28  1  0  0  0  0
 25 29  1  0  0  0  0
 25 31  2  0  0  0  0
 26 30  1  0  0  0  0
 27 32  1  0  0  0  0
 27 65  1  0  0  0  0
 28 33  2  0  0  0  0
 28 66  1  0  0  0  0
 29 34  2  0  0  0  0
 29 36  1  0  0  0  0
 30 67  1  0  0  0  0
 30 68  1  0  0  0  0
 31 37  1  0  0  0  0
 31 69  1  0  0  0  0
 32 35  2  0  0  0  0
 32 70  1  0  0  0  0
 33 35  1  0  0  0  0
 33 71  1  0  0  0  0
 34 38  1  0  0  0  0
 34 72  1  0  0  0  0
 35 73  1  0  0  0  0
 37 38  2  0  0  0  0
 37 74  1  0  0  0  0
 38 75  1  0  0  0  0
 39 40  2  0  0  0  0
 39 41  1  0  0  0  0
 40 42  1  0  0  0  0
 40 44  1  0  0  0  0
 41 43  2  0  0  0  0
 41 45  1  0  0  0  0
 42 46  2  0  0  0  0
 42 76  1  0  0  0  0
 43 46  1  0  0  0  0
 43 77  1  0  0  0  0
 44 78  1  0  0  0  0
 44 79  1  0  0  0  0
 44 80  1  0  0  0  0
 45 81  1  0  0  0  0
 45 82  1  0  0  0  0
 45 83  1  0  0  0  0
 46 84  1  0  0  0  0
M  END
> <PUBCHEM_COMPOUND_CID>
514745
> <PUBCHEM_COMPOUND_CANONICALIZED>
1
> <PUBCHEM_CACTVS_COMPLEXITY>
1030
> <PUBCHEM_CACTVS_HBOND_ACCEPTOR>
9
> <PUBCHEM_CACTVS_HBOND_DONOR>
3
> <PUBCHEM_CACTVS_ROTATABLE_BOND>
11
> <PUBCHEM_CACTVS_SUBSKEYS>
AAADcfB/OYBAAAAAAAAAAAAAAAAAAWAAAAAwYMAAAAAAAAABUAAAHwQQCAAADDzh2BayBoPABgiIAiFSEAKCCABgIBAIiIHMDIgOdjqk8T+XeCjk1hGYqAeYyOCOgAACAAAYAAAAAAQAADAAAAAAAAAAAA==
> <PUBCHEM_IUPAC_OPENEYE_NAME>
(4R)-3-[(2S,3S)-3-[[2-(2,6-dimethylphenoxy)acetyl]amino]-2-hydroxy-4-phenyl-butanoyl]-5,5-dimethyl-N-[[2-(trifluoromethyl)phenyl]methyl]thiazolidine-4-carboxamide
> <PUBCHEM_IUPAC_CAS_NAME>
(4R)-3-[(2S,3S)-3-[[2-(2,6-dimethylphenoxy)-1-oxoethyl]amino]-2-hydroxy-1-oxo-4-phenylbutyl]-5,5-dimethyl-N-[[2-(trifluoromethyl)phenyl]methyl]-4-thiazolidinecarboxamide
> <PUBCHEM_IUPAC_NAME_MARKUP>
(4<I>R</I>)-3-[(2<I>S</I>,3<I>S</I>)-3-[[2-(2,6-dimethylphenoxy)acetyl]amino]-2-hydroxy-4-phenylbutanoyl]-5,5-dimethyl-<I>N</I>-[[2-(trifluoromethyl)phenyl]methyl]-1,3-thiazolidine-4-carboxamide
> <PUBCHEM_IUPAC_NAME>
(4R)-3-[(2S,3S)-3-[[2-(2,6-dimethylphenoxy)acetyl]amino]-2-hydroxy-4-phenylbutanoyl]-5,5-dimethyl-N-[[2-(trifluoromethyl)phenyl]methyl]-1,3-thiazolidine-4-carboxamide
> <PUBCHEM_IUPAC_SYSTEMATIC_NAME>
(4R)-3-[(2S,3S)-3-[2-(2,6-dimethylphenoxy)ethanoylamino]-2-oxidanyl-4-phenyl-butanoyl]-5,5-dimethyl-N-[[2-(trifluoromethyl)phenyl]methyl]-1,3-thiazolidine-4-carboxamide
> <PUBCHEM_IUPAC_TRADITIONAL_NAME>
(4R)-3-[(2S,3S)-3-[[2-(2,6-dimethylphenoxy)acetyl]amino]-2-hydroxy-4-phenyl-butanoyl]-5,5-dimethyl-N-[2-(trifluoromethyl)benzyl]thiazolidine-4-carboxamide
> <PUBCHEM_IUPAC_INCHI>
InChI=1S/C34H38F3N3O5S/c1-21-11-10-12-22(2)29(21)45-19-27(41)39-26(17-23-13-6-5-7-14-23)28(42)32(44)40-20-46-33(3,4)30(40)31(43)38-18-24-15-8-9-16-25(24)34(35,36)37/h5-16,26,28,30,42H,17-20H2,1-4H3,(H,38,43)(H,39,41)/t26-,28-,30+/m0/s1
> <PUBCHEM_IUPAC_INCHIKEY>
QESDQGNPBDJCFX-BTIIJPOSSA-N
> <PUBCHEM_XLOGP3_AA>
5.8
> <PUBCHEM_EXACT_MASS>
657.24842698
> <PUBCHEM_MOLECULAR_FORMULA>
C34H38F3N3O5S
> <PUBCHEM_MOLECULAR_WEIGHT>
657.7
> <PUBCHEM_OPENEYE_CAN_SMILES>
CC1=C(C(=CC=C1)C)OCC(=O)NC(CC2=CC=CC=C2)C(C(=O)N3CSC(C3C(=O)NCC4=CC=CC=C4C(F)(F)F)(C)C)O
> <PUBCHEM_OPENEYE_ISO_SMILES>
CC1=C(C(=CC=C1)C)OCC(=O)N[C@@H](CC2=CC=CC=C2)[C@@H](C(=O)N3CSC([C@H]3C(=O)NCC4=CC=CC=C4C(F)(F)F)(C)C)O
> <PUBCHEM_CACTVS_TPSA>
133
> <PUBCHEM_MONOISOTOPIC_WEIGHT>
657.24842698
> <PUBCHEM_TOTAL_CHARGE>
0
> <PUBCHEM_HEAVY_ATOM_COUNT>
46
> <PUBCHEM_ATOM_DEF_STEREO_COUNT>
3
> <PUBCHEM_ATOM_UDEF_STEREO_COUNT>
0
> <PUBCHEM_BOND_DEF_STEREO_COUNT>
0
> <PUBCHEM_BOND_UDEF_STEREO_COUNT>
0
> <PUBCHEM_ISOTOPIC_ATOM_COUNT>
0
> <PUBCHEM_COMPONENT_COUNT>
1
> <PUBCHEM_CACTVS_TAUTO_COUNT>
-1
> <PUBCHEM_COORDINATE_TYPE>
1
5
255
> <PUBCHEM_BONDANNOTATIONS>
21  12  6
14  18  5
24  27  8
24  28  8
25  29  8
25  31  8
27  32  8
28  33  8
29  34  8
31  37  8
32  35  8
33  35  8
34  38  8
37  38  8
39  40  8
39  41  8
40  42  8
41  43  8
42  46  8
43  46  8
20  5  6
$$$$
