514759
  -OEChem-10302200282D
 92 96  0     1  0  0  0  0  0999 V2000
    4.1870   -3.3563    0.0000 S   0  0  0  0  0  0  0  0  0  0  0  0
   10.8148    3.5264    0.0000 O   0  0  0  0  0  0  0  0  0  0  0  0
    9.2450    4.2584    0.0000 O   0  0  0  0  0  0  0  0  0  0  0  0
    4.1434   -0.5346    0.0000 O   0  0  0  0  0  0  0  0  0  0  0  0
    6.7093   -1.1794    0.0000 O   0  0  0  0  0  0  0  0  0  0  0  0
    7.3697   -2.3708    0.0000 O   0  0  0  0  0  0  0  0  0  0  0  0
    6.4074    2.2715    0.0000 O   0  0  0  0  0  0  0  0  0  0  0  0
    9.3960    2.5330    0.0000 N   0  0  0  0  0  0  0  0  0  0  0  0
    5.2905   -2.1729    0.0000 N   0  0  0  0  0  0  0  0  0  0  0  0
    6.5584    0.5460    0.0000 N   0  0  0  0  0  0  0  0  0  0  0  0
    7.1586   -4.0899    0.0000 N   0  0  0  0  0  0  0  0  0  0  0  0
   12.6101    5.0247    0.0000 C   0  0  3  0  0  0  0  0  0  0  0  0
   12.8689    5.9907    0.0000 C   0  0  3  0  0  0  0  0  0  0  0  0
   12.1323    6.9733    0.0000 C   0  0  0  0  0  0  0  0  0  0  0  0
   11.2374    4.4327    0.0000 C   0  0  3  0  0  0  0  0  0  0  0  0
   10.8954    5.3724    0.0000 C   0  0  0  0  0  0  0  0  0  0  0  0
   14.0091    4.5159    0.0000 C   0  0  0  0  0  0  0  0  0  0  0  0
   14.2679    5.4818    0.0000 C   0  0  0  0  0  0  0  0  0  0  0  0
    9.8186    3.4393    0.0000 C   0  0  0  0  0  0  0  0  0  0  0  0
    8.3998    2.4458    0.0000 C   0  0  0  0  0  0  0  0  0  0  0  0
    5.0933   -3.7789    0.0000 C   0  0  0  0  0  0  0  0  0  0  0  0
    5.7753   -3.0475    0.0000 C   0  0  1  0  0  0  0  0  0  0  0  0
    7.9772    1.5395    0.0000 C   0  0  0  0  0  0  0  0  0  0  0  0
    4.3089   -2.3637    0.0000 C   0  0  0  0  0  0  0  0  0  0  0  0
    4.6707   -4.6852    0.0000 C   0  0  0  0  0  0  0  0  0  0  0  0
    5.8247   -4.4609    0.0000 C   0  0  0  0  0  0  0  0  0  0  0  0
    5.7131   -1.2666    0.0000 C   0  0  0  0  0  0  0  0  0  0  0  0
    5.1395   -0.4474    0.0000 C   0  0  2  0  0  0  0  0  0  0  0  0
    5.5622    0.4589    0.0000 C   0  0  2  0  0  0  0  0  0  0  0  0
    6.7679   -3.1694    0.0000 C   0  0  0  0  0  0  0  0  0  0  0  0
    6.9810    1.4523    0.0000 C   0  0  0  0  0  0  0  0  0  0  0  0
    4.9886    1.2780    0.0000 C   0  0  0  0  0  0  0  0  0  0  0  0
    8.1511   -4.2118    0.0000 C   0  0  0  0  0  0  0  0  0  0  0  0
    3.9924    1.1909    0.0000 C   0  0  0  0  0  0  0  0  0  0  0  0
    8.5419   -5.1323    0.0000 C   0  0  0  0  0  0  0  0  0  0  0  0
    3.5698    0.2846    0.0000 C   0  0  0  0  0  0  0  0  0  0  0  0
    3.4188    2.0100    0.0000 C   0  0  0  0  0  0  0  0  0  0  0  0
    7.9400   -5.9309    0.0000 C   0  0  0  0  0  0  0  0  0  0  0  0
    9.5344   -5.2541    0.0000 C   0  0  0  0  0  0  0  0  0  0  0  0
    2.5736    0.1974    0.0000 C   0  0  0  0  0  0  0  0  0  0  0  0
    2.4226    1.9229    0.0000 C   0  0  0  0  0  0  0  0  0  0  0  0
    2.0000    1.0166    0.0000 C   0  0  0  0  0  0  0  0  0  0  0  0
    8.3308   -6.8514    0.0000 C   0  0  0  0  0  0  0  0  0  0  0  0
    6.9475   -5.8090    0.0000 C   0  0  0  0  0  0  0  0  0  0  0  0
    9.9251   -6.1746    0.0000 C   0  0  0  0  0  0  0  0  0  0  0  0
    9.3233   -6.9733    0.0000 C   0  0  0  0  0  0  0  0  0  0  0  0
   12.6282    4.4050    0.0000 H   0  0  0  0  0  0  0  0  0  0  0  0
   12.8549    5.3708    0.0000 H   0  0  0  0  0  0  0  0  0  0  0  0
   12.4501    7.5056    0.0000 H   0  0  0  0  0  0  0  0  0  0  0  0
   11.5192    7.0652    0.0000 H   0  0  0  0  0  0  0  0  0  0  0  0
   11.6694    3.9880    0.0000 H   0  0  0  0  0  0  0  0  0  0  0  0
   10.7011    5.9612    0.0000 H   0  0  0  0  0  0  0  0  0  0  0  0
   10.3096    5.1692    0.0000 H   0  0  0  0  0  0  0  0  0  0  0  0
   13.8141    3.9274    0.0000 H   0  0  0  0  0  0  0  0  0  0  0  0
   14.6030    4.3382    0.0000 H   0  0  0  0  0  0  0  0  0  0  0  0
   14.8618    5.3041    0.0000 H   0  0  0  0  0  0  0  0  0  0  0  0
   14.4628    6.0704    0.0000 H   0  0  0  0  0  0  0  0  0  0  0  0
    9.7516    2.0251    0.0000 H   0  0  0  0  0  0  0  0  0  0  0  0
    8.4538    3.0634    0.0000 H   0  0  0  0  0  0  0  0  0  0  0  0
    7.8009    2.6063    0.0000 H   0  0  0  0  0  0  0  0  0  0  0  0
    6.1220   -2.5335    0.0000 H   0  0  0  0  0  0  0  0  0  0  0  0
    7.9231    0.9218    0.0000 H   0  0  0  0  0  0  0  0  0  0  0  0
    8.5760    1.3790    0.0000 H   0  0  0  0  0  0  0  0  0  0  0  0
    4.2548   -1.7461    0.0000 H   0  0  0  0  0  0  0  0  0  0  0  0
    3.6890   -2.3529    0.0000 H   0  0  0  0  0  0  0  0  0  0  0  0
    4.1088   -4.4232    0.0000 H   0  0  0  0  0  0  0  0  0  0  0  0
    4.4087   -5.2471    0.0000 H   0  0  0  0  0  0  0  0  0  0  0  0
    5.2326   -4.9472    0.0000 H   0  0  0  0  0  0  0  0  0  0  0  0
    5.4018   -4.9143    0.0000 H   0  0  0  0  0  0  0  0  0  0  0  0
    6.2781   -4.8837    0.0000 H   0  0  0  0  0  0  0  0  0  0  0  0
    6.2475   -4.0074    0.0000 H   0  0  0  0  0  0  0  0  0  0  0  0
    4.7839    0.0604    0.0000 H   0  0  0  0  0  0  0  0  0  0  0  0
    5.9178   -0.0490    0.0000 H   0  0  0  0  0  0  0  0  0  0  0  0
    6.9140    0.0381    0.0000 H   0  0  0  0  0  0  0  0  0  0  0  0
    5.5505    1.5400    0.0000 H   0  0  0  0  0  0  0  0  0  0  0  0
    4.8281    1.8769    0.0000 H   0  0  0  0  0  0  0  0  0  0  0  0
    6.7855   -4.5850    0.0000 H   0  0  0  0  0  0  0  0  0  0  0  0
    8.7552   -4.0723    0.0000 H   0  0  0  0  0  0  0  0  0  0  0  0
    8.1187   -3.5926    0.0000 H   0  0  0  0  0  0  0  0  0  0  0  0
    3.8813   -1.0965    0.0000 H   0  0  0  0  0  0  0  0  0  0  0  0
    3.9254   -0.2233    0.0000 H   0  0  0  0  0  0  0  0  0  0  0  0
    3.6808    2.5719    0.0000 H   0  0  0  0  0  0  0  0  0  0  0  0
    9.9075   -4.7590    0.0000 H   0  0  0  0  0  0  0  0  0  0  0  0
    2.3116   -0.3645    0.0000 H   0  0  0  0  0  0  0  0  0  0  0  0
    2.0670    2.4307    0.0000 H   0  0  0  0  0  0  0  0  0  0  0  0
    1.3824    0.9625    0.0000 H   0  0  0  0  0  0  0  0  0  0  0  0
    7.9577   -7.3466    0.0000 H   0  0  0  0  0  0  0  0  0  0  0  0
    7.0231   -5.1937    0.0000 H   0  0  0  0  0  0  0  0  0  0  0  0
    6.3321   -5.7335    0.0000 H   0  0  0  0  0  0  0  0  0  0  0  0
    6.8719   -6.4244    0.0000 H   0  0  0  0  0  0  0  0  0  0  0  0
   10.5405   -6.2502    0.0000 H   0  0  0  0  0  0  0  0  0  0  0  0
    9.5656   -7.5440    0.0000 H   0  0  0  0  0  0  0  0  0  0  0  0
  1 21  1  0  0  0  0
  1 24  1  0  0  0  0
  2 15  1  0  0  0  0
  2 19  1  0  0  0  0
  3 19  2  0  0  0  0
 28  4  1  1  0  0  0
  4 80  1  0  0  0  0
  5 27  2  0  0  0  0
  6 30  2  0  0  0  0
  7 31  2  0  0  0  0
  8 19  1  0  0  0  0
  8 20  1  0  0  0  0
  8 58  1  0  0  0  0
  9 22  1  0  0  0  0
  9 24  1  0  0  0  0
  9 27  1  0  0  0  0
 29 10  1  6  0  0  0
 10 31  1  0  0  0  0
 10 74  1  0  0  0  0
 11 30  1  0  0  0  0
 11 33  1  0  0  0  0
 11 77  1  0  0  0  0
 12 14  1  0  0  0  0
 12 15  1  0  0  0  0
 12 17  1  0  0  0  0
 12 47  1  0  0  0  0
 13 14  1  0  0  0  0
 13 16  1  0  0  0  0
 13 18  1  0  0  0  0
 13 48  1  0  0  0  0
 14 49  1  0  0  0  0
 14 50  1  0  0  0  0
 15 16  1  0  0  0  0
 15 51  1  0  0  0  0
 16 52  1  0  0  0  0
 16 53  1  0  0  0  0
 17 18  1  0  0  0  0
 17 54  1  0  0  0  0
 17 55  1  0  0  0  0
 18 56  1  0  0  0  0
 18 57  1  0  0  0  0
 20 23  1  0  0  0  0
 20 59  1  0  0  0  0
 20 60  1  0  0  0  0
 21 22  1  0  0  0  0
 21 25  1  0  0  0  0
 21 26  1  0  0  0  0
 22 30  1  6  0  0  0
 22 61  1  0  0  0  0
 23 31  1  0  0  0  0
 23 62  1  0  0  0  0
 23 63  1  0  0  0  0
 24 64  1  0  0  0  0
 24 65  1  0  0  0  0
 25 66  1  0  0  0  0
 25 67  1  0  0  0  0
 25 68  1  0  0  0  0
 26 69  1  0  0  0  0
 26 70  1  0  0  0  0
 26 71  1  0  0  0  0
 27 28  1  0  0  0  0
 28 29  1  0  0  0  0
 28 72  1  0  0  0  0
 29 32  1  0  0  0  0
 29 73  1  0  0  0  0
 32 34  1  0  0  0  0
 32 75  1  0  0  0  0
 32 76  1  0  0  0  0
 33 35  1  0  0  0  0
 33 78  1  0  0  0  0
 33 79  1  0  0  0  0
 34 36  2  0  0  0  0
 34 37  1  0  0  0  0
 35 38  1  0  0  0  0
 35 39  2  0  0  0  0
 36 40  1  0  0  0  0
 36 81  1  0  0  0  0
 37 41  2  0  0  0  0
 37 82  1  0  0  0  0
 38 43  2  0  0  0  0
 38 44  1  0  0  0  0
 39 45  1  0  0  0  0
 39 83  1  0  0  0  0
 40 42  2  0  0  0  0
 40 84  1  0  0  0  0
 41 42  1  0  0  0  0
 41 85  1  0  0  0  0
 42 86  1  0  0  0  0
 43 46  1  0  0  0  0
 43 87  1  0  0  0  0
 44 88  1  0  0  0  0
 44 89  1  0  0  0  0
 44 90  1  0  0  0  0
 45 46  2  0  0  0  0
 45 91  1  0  0  0  0
 46 92  1  0  0  0  0
M  END
> <PUBCHEM_COMPOUND_CID>
514759
> <PUBCHEM_COMPOUND_CANONICALIZED>
1
> <PUBCHEM_CACTVS_COMPLEXITY>
1080
> <PUBCHEM_CACTVS_HBOND_ACCEPTOR>
7
> <PUBCHEM_CACTVS_HBOND_DONOR>
4
> <PUBCHEM_CACTVS_ROTATABLE_BOND>
13
> <PUBCHEM_CACTVS_SUBSKEYS>
AAADcfB/uABAAAAAAAAAAAAAAAAAAeMEAAAwYMAAAAAAAAABQAAAHgQQCAAADTzh2AayCIPABgiIAiFSGAKCAABgABAIiIHIBIkKcDqg0TGcYAhklgCYiAeYyLCOgAAAAAAQAAAAAAIAADAAAYAABAAAAA==
> <PUBCHEM_IUPAC_OPENEYE_NAME>
norbornan-2-yl N-[3-[[(1S,2S)-1-benzyl-3-[(4R)-5,5-dimethyl-4-(o-tolylmethylcarbamoyl)thiazolidin-3-yl]-2-hydroxy-3-oxo-propyl]amino]-3-oxo-propyl]carbamate
> <PUBCHEM_IUPAC_CAS_NAME>
N-[3-[[(2S,3S)-4-[(4R)-5,5-dimethyl-4-[[(2-methylphenyl)methylamino]-oxomethyl]-3-thiazolidinyl]-3-hydroxy-4-oxo-1-phenylbutan-2-yl]amino]-3-oxopropyl]carbamic acid 2-bicyclo[2.2.1]heptanyl ester
> <PUBCHEM_IUPAC_NAME_MARKUP>
2-bicyclo[2.2.1]heptanyl <I>N</I>-[3-[[(2<I>S</I>,3<I>S</I>)-4-[(4<I>R</I>)-5,5-dimethyl-4-[(2-methylphenyl)methylcarbamoyl]-1,3-thiazolidin-3-yl]-3-hydroxy-4-oxo-1-phenylbutan-2-yl]amino]-3-oxopropyl]carbamate
> <PUBCHEM_IUPAC_NAME>
2-bicyclo[2.2.1]heptanyl N-[3-[[(2S,3S)-4-[(4R)-5,5-dimethyl-4-[(2-methylphenyl)methylcarbamoyl]-1,3-thiazolidin-3-yl]-3-hydroxy-4-oxo-1-phenylbutan-2-yl]amino]-3-oxopropyl]carbamate
> <PUBCHEM_IUPAC_SYSTEMATIC_NAME>
2-bicyclo[2.2.1]heptanyl N-[3-[[(2S,3S)-4-[(4R)-5,5-dimethyl-4-[(2-methylphenyl)methylcarbamoyl]-1,3-thiazolidin-3-yl]-3-oxidanyl-4-oxidanylidene-1-phenyl-butan-2-yl]amino]-3-oxidanylidene-propyl]carbamate
> <PUBCHEM_IUPAC_TRADITIONAL_NAME>
N-[3-[[(1S,2S)-1-benzyl-3-[(4R)-5,5-dimethyl-4-[(2-methylbenzyl)carbamoyl]thiazolidin-3-yl]-2-hydroxy-3-keto-propyl]amino]-3-keto-propyl]carbamic acid 2-norbornyl ester
> <PUBCHEM_IUPAC_INCHI>
InChI=1S/C35H46N4O6S/c1-22-9-7-8-12-26(22)20-37-32(42)31-35(2,3)46-21-39(31)33(43)30(41)27(18-23-10-5-4-6-11-23)38-29(40)15-16-36-34(44)45-28-19-24-13-14-25(28)17-24/h4-12,24-25,27-28,30-31,41H,13-21H2,1-3H3,(H,36,44)(H,37,42)(H,38,40)/t24?,25?,27-,28?,30-,31+/m0/s1
> <PUBCHEM_IUPAC_INCHIKEY>
KOTGBEAGHRMVSG-KSZPPHTQSA-N
> <PUBCHEM_XLOGP3_AA>
4.2
> <PUBCHEM_EXACT_MASS>
650.31380637
> <PUBCHEM_MOLECULAR_FORMULA>
C35H46N4O6S
> <PUBCHEM_MOLECULAR_WEIGHT>
650.8
> <PUBCHEM_OPENEYE_CAN_SMILES>
CC1=CC=CC=C1CNC(=O)C2C(SCN2C(=O)C(C(CC3=CC=CC=C3)NC(=O)CCNC(=O)OC4CC5CCC4C5)O)(C)C
> <PUBCHEM_OPENEYE_ISO_SMILES>
CC1=CC=CC=C1CNC(=O)[C@@H]2C(SCN2C(=O)[C@H]([C@H](CC3=CC=CC=C3)NC(=O)CCNC(=O)OC4CC5CCC4C5)O)(C)C
> <PUBCHEM_CACTVS_TPSA>
162
> <PUBCHEM_MONOISOTOPIC_WEIGHT>
650.31380637
> <PUBCHEM_TOTAL_CHARGE>
0
> <PUBCHEM_HEAVY_ATOM_COUNT>
46
> <PUBCHEM_ATOM_DEF_STEREO_COUNT>
3
> <PUBCHEM_ATOM_UDEF_STEREO_COUNT>
3
> <PUBCHEM_BOND_DEF_STEREO_COUNT>
0
> <PUBCHEM_BOND_UDEF_STEREO_COUNT>
0
> <PUBCHEM_ISOTOPIC_ATOM_COUNT>
0
> <PUBCHEM_COMPONENT_COUNT>
1
> <PUBCHEM_CACTVS_TAUTO_COUNT>
-1
> <PUBCHEM_COORDINATE_TYPE>
1
5
255
> <PUBCHEM_BONDANNOTATIONS>
29  10  6
12  17  3
13  18  3
15  2  3
22  30  6
34  36  8
34  37  8
35  38  8
35  39  8
36  40  8
37  41  8
38  43  8
39  45  8
28  4  5
40  42  8
41  42  8
43  46  8
45  46  8
$$$$
