514776
  -OEChem-10302200282D
 81 85  0     1  0  0  0  0  0999 V2000
    8.3009    1.0140    0.0000 O   0  0  0  0  0  0  0  0  0  0  0  0
    7.8100   -0.8179    0.0000 O   0  0  0  0  0  0  0  0  0  0  0  0
    5.3100   -1.6839    0.0000 O   0  0  0  0  0  0  0  0  0  0  0  0
    4.8100   -2.5500    0.0000 O   0  0  0  0  0  0  0  0  0  0  0  0
    2.3100   -5.1480    0.0000 O   0  0  0  0  0  0  0  0  0  0  0  0
    6.3100    0.0481    0.0000 N   0  0  0  0  0  0  0  0  0  0  0  0
    7.4348    2.5140    0.0000 N   0  0  0  0  0  0  0  0  0  0  0  0
    6.3100   -3.4160    0.0000 N   0  0  0  0  0  0  0  0  0  0  0  0
    5.1699    1.5229    0.0000 C   0  0  0  0  0  0  0  0  0  0  0  0
    4.9111    0.5569    0.0000 C   0  0  0  0  0  0  0  0  0  0  0  0
    6.5688    1.0140    0.0000 C   0  0  1  0  0  0  0  0  0  0  0  0
    4.7993    2.8715    0.0000 C   0  0  0  0  0  0  0  0  0  0  0  0
    3.1963    0.9046    0.0000 C   0  0  0  0  0  0  0  0  0  0  0  0
    3.9333    2.3715    0.0000 C   0  0  0  0  0  0  0  0  0  0  0  0
    3.5384   -0.0351    0.0000 C   0  0  0  0  0  0  0  0  0  0  0  0
    7.4348    1.5140    0.0000 C   0  0  0  0  0  0  0  0  0  0  0  0
    6.8100   -0.8179    0.0000 C   0  0  0  0  0  0  0  0  0  0  0  0
    6.3100   -1.6839    0.0000 C   0  0  2  0  0  0  0  0  0  0  0  0
    6.8100   -2.5500    0.0000 C   0  0  2  0  0  0  0  0  0  0  0  0
    8.3009    3.0140    0.0000 C   0  0  0  0  0  0  0  0  0  0  0  0
    7.8100   -2.5500    0.0000 C   0  0  0  0  0  0  0  0  0  0  0  0
    8.3009    4.0140    0.0000 C   0  0  0  0  0  0  0  0  0  0  0  0
    8.3100   -3.4160    0.0000 C   0  0  0  0  0  0  0  0  0  0  0  0
    5.3100   -3.4160    0.0000 C   0  0  0  0  0  0  0  0  0  0  0  0
    9.1669    4.5140    0.0000 C   0  0  0  0  0  0  0  0  0  0  0  0
    7.4348    4.5140    0.0000 C   0  0  0  0  0  0  0  0  0  0  0  0
    7.8100   -4.2820    0.0000 C   0  0  0  0  0  0  0  0  0  0  0  0
    9.3100   -3.4160    0.0000 C   0  0  0  0  0  0  0  0  0  0  0  0
    4.8100   -4.2820    0.0000 C   0  0  0  0  0  0  0  0  0  0  0  0
    9.1669    5.5140    0.0000 C   0  0  0  0  0  0  0  0  0  0  0  0
   10.0329    4.0140    0.0000 C   0  0  0  0  0  0  0  0  0  0  0  0
    7.4348    5.5140    0.0000 C   0  0  0  0  0  0  0  0  0  0  0  0
    8.3100   -5.1480    0.0000 C   0  0  0  0  0  0  0  0  0  0  0  0
    9.8100   -4.2820    0.0000 C   0  0  0  0  0  0  0  0  0  0  0  0
    8.3009    6.0140    0.0000 C   0  0  0  0  0  0  0  0  0  0  0  0
    3.8100   -4.2820    0.0000 C   0  0  0  0  0  0  0  0  0  0  0  0
    9.3100   -5.1480    0.0000 C   0  0  0  0  0  0  0  0  0  0  0  0
    5.3100   -5.1480    0.0000 C   0  0  0  0  0  0  0  0  0  0  0  0
    3.3100   -5.1480    0.0000 C   0  0  0  0  0  0  0  0  0  0  0  0
    3.3100   -3.4160    0.0000 C   0  0  0  0  0  0  0  0  0  0  0  0
    4.8100   -6.0140    0.0000 C   0  0  0  0  0  0  0  0  0  0  0  0
    3.8100   -6.0140    0.0000 C   0  0  0  0  0  0  0  0  0  0  0  0
    5.1558    0.9030    0.0000 H   0  0  0  0  0  0  0  0  0  0  0  0
    4.9291   -0.0628    0.0000 H   0  0  0  0  0  0  0  0  0  0  0  0
    7.0607    0.6366    0.0000 H   0  0  0  0  0  0  0  0  0  0  0  0
    5.3810    3.0860    0.0000 H   0  0  0  0  0  0  0  0  0  0  0  0
    4.5361    3.4329    0.0000 H   0  0  0  0  0  0  0  0  0  0  0  0
    3.0020    1.4934    0.0000 H   0  0  0  0  0  0  0  0  0  0  0  0
    2.6106    0.7014    0.0000 H   0  0  0  0  0  0  0  0  0  0  0  0
    3.6285    2.9114    0.0000 H   0  0  0  0  0  0  0  0  0  0  0  0
    3.3904    2.0721    0.0000 H   0  0  0  0  0  0  0  0  0  0  0  0
    2.9600   -0.2584    0.0000 H   0  0  0  0  0  0  0  0  0  0  0  0
    3.7728   -0.6090    0.0000 H   0  0  0  0  0  0  0  0  0  0  0  0
    6.0000   -1.1470    0.0000 H   0  0  0  0  0  0  0  0  0  0  0  0
    6.8979    2.8240    0.0000 H   0  0  0  0  0  0  0  0  0  0  0  0
    6.1900   -2.5500    0.0000 H   0  0  0  0  0  0  0  0  0  0  0  0
    8.5129    2.4314    0.0000 H   0  0  0  0  0  0  0  0  0  0  0  0
    8.9114    3.1217    0.0000 H   0  0  0  0  0  0  0  0  0  0  0  0
    8.3926   -2.3379    0.0000 H   0  0  0  0  0  0  0  0  0  0  0  0
    7.7023   -1.9394    0.0000 H   0  0  0  0  0  0  0  0  0  0  0  0
    5.0000   -1.1470    0.0000 H   0  0  0  0  0  0  0  0  0  0  0  0
    6.6200   -3.9529    0.0000 H   0  0  0  0  0  0  0  0  0  0  0  0
    6.8979    4.2040    0.0000 H   0  0  0  0  0  0  0  0  0  0  0  0
    7.1900   -4.2820    0.0000 H   0  0  0  0  0  0  0  0  0  0  0  0
    9.6200   -2.8790    0.0000 H   0  0  0  0  0  0  0  0  0  0  0  0
    9.7038    5.8240    0.0000 H   0  0  0  0  0  0  0  0  0  0  0  0
    9.7229    3.4771    0.0000 H   0  0  0  0  0  0  0  0  0  0  0  0
   10.5699    3.7040    0.0000 H   0  0  0  0  0  0  0  0  0  0  0  0
   10.3429    4.5510    0.0000 H   0  0  0  0  0  0  0  0  0  0  0  0
    6.8979    5.8240    0.0000 H   0  0  0  0  0  0  0  0  0  0  0  0
    8.0000   -5.6850    0.0000 H   0  0  0  0  0  0  0  0  0  0  0  0
   10.4300   -4.2820    0.0000 H   0  0  0  0  0  0  0  0  0  0  0  0
    8.3009    6.6340    0.0000 H   0  0  0  0  0  0  0  0  0  0  0  0
    9.6200   -5.6850    0.0000 H   0  0  0  0  0  0  0  0  0  0  0  0
    5.9300   -5.1480    0.0000 H   0  0  0  0  0  0  0  0  0  0  0  0
    3.8469   -3.1060    0.0000 H   0  0  0  0  0  0  0  0  0  0  0  0
    3.0000   -2.8790    0.0000 H   0  0  0  0  0  0  0  0  0  0  0  0
    2.7731   -3.7260    0.0000 H   0  0  0  0  0  0  0  0  0  0  0  0
    5.1200   -6.5510    0.0000 H   0  0  0  0  0  0  0  0  0  0  0  0
    3.5000   -6.5510    0.0000 H   0  0  0  0  0  0  0  0  0  0  0  0
    2.0000   -5.6850    0.0000 H   0  0  0  0  0  0  0  0  0  0  0  0
  1 16  2  0  0  0  0
  2 17  2  0  0  0  0
 18  3  1  6  0  0  0
  3 61  1  0  0  0  0
  4 24  2  0  0  0  0
  5 39  1  0  0  0  0
  5 81  1  0  0  0  0
  6 10  1  0  0  0  0
  6 11  1  0  0  0  0
  6 17  1  0  0  0  0
  7 16  1  0  0  0  0
  7 20  1  0  0  0  0
  7 55  1  0  0  0  0
 19  8  1  6  0  0  0
  8 24  1  0  0  0  0
  8 62  1  0  0  0  0
  9 11  1  0  0  0  0
  9 12  1  0  0  0  0
  9 13  1  0  0  0  0
  9 43  1  0  0  0  0
 10 14  1  0  0  0  0
 10 15  1  0  0  0  0
 10 44  1  0  0  0  0
 11 16  1  1  0  0  0
 11 45  1  0  0  0  0
 12 14  1  0  0  0  0
 12 46  1  0  0  0  0
 12 47  1  0  0  0  0
 13 15  1  0  0  0  0
 13 48  1  0  0  0  0
 13 49  1  0  0  0  0
 14 50  1  0  0  0  0
 14 51  1  0  0  0  0
 15 52  1  0  0  0  0
 15 53  1  0  0  0  0
 17 18  1  0  0  0  0
 18 19  1  0  0  0  0
 18 54  1  0  0  0  0
 19 21  1  0  0  0  0
 19 56  1  0  0  0  0
 20 22  1  0  0  0  0
 20 57  1  0  0  0  0
 20 58  1  0  0  0  0
 21 23  1  0  0  0  0
 21 59  1  0  0  0  0
 21 60  1  0  0  0  0
 22 25  1  0  0  0  0
 22 26  2  0  0  0  0
 23 27  2  0  0  0  0
 23 28  1  0  0  0  0
 24 29  1  0  0  0  0
 25 30  2  0  0  0  0
 25 31  1  0  0  0  0
 26 32  1  0  0  0  0
 26 63  1  0  0  0  0
 27 33  1  0  0  0  0
 27 64  1  0  0  0  0
 28 34  2  0  0  0  0
 28 65  1  0  0  0  0
 29 36  2  0  0  0  0
 29 38  1  0  0  0  0
 30 35  1  0  0  0  0
 30 66  1  0  0  0  0
 31 67  1  0  0  0  0
 31 68  1  0  0  0  0
 31 69  1  0  0  0  0
 32 35  2  0  0  0  0
 32 70  1  0  0  0  0
 33 37  2  0  0  0  0
 33 71  1  0  0  0  0
 34 37  1  0  0  0  0
 34 72  1  0  0  0  0
 35 73  1  0  0  0  0
 36 39  1  0  0  0  0
 36 40  1  0  0  0  0
 37 74  1  0  0  0  0
 38 41  2  0  0  0  0
 38 75  1  0  0  0  0
 39 42  2  0  0  0  0
 40 76  1  0  0  0  0
 40 77  1  0  0  0  0
 40 78  1  0  0  0  0
 41 42  1  0  0  0  0
 41 79  1  0  0  0  0
 42 80  1  0  0  0  0
M  END
> <PUBCHEM_COMPOUND_CID>
514776
> <PUBCHEM_COMPOUND_CANONICALIZED>
1
> <PUBCHEM_CACTVS_COMPLEXITY>
930
> <PUBCHEM_CACTVS_HBOND_ACCEPTOR>
5
> <PUBCHEM_CACTVS_HBOND_DONOR>
4
> <PUBCHEM_CACTVS_ROTATABLE_BOND>
9
> <PUBCHEM_CACTVS_SUBSKEYS>
AAADcfB/OAAAAAAAAAAAAAAAAAAAAAAAAAA8eMGCAAAAAAABUAAAHgAQCAAADTzhmAYyBoPAAgCIAiFSEAKCAAAkIAAIiIHODMgKdjqC1TOUcQhk1hGYmYe6yLCOgAABAAAYAAAQAAIAADAAAAAAAAAAAA==
> <PUBCHEM_IUPAC_OPENEYE_NAME>
(3S)-2-[(2S,3S)-2-hydroxy-3-[(3-hydroxy-2-methyl-benzoyl)amino]-4-phenyl-butanoyl]-N-(o-tolylmethyl)-2-azabicyclo[2.2.2]octane-3-carboxamide
> <PUBCHEM_IUPAC_CAS_NAME>
(3S)-2-[(2S,3S)-2-hydroxy-3-[[(3-hydroxy-2-methylphenyl)-oxomethyl]amino]-1-oxo-4-phenylbutyl]-N-[(2-methylphenyl)methyl]-2-azabicyclo[2.2.2]octane-3-carboxamide
> <PUBCHEM_IUPAC_NAME_MARKUP>
(3<I>S</I>)-2-[(2<I>S</I>,3<I>S</I>)-2-hydroxy-3-[(3-hydroxy-2-methylbenzoyl)amino]-4-phenylbutanoyl]-<I>N</I>-[(2-methylphenyl)methyl]-2-azabicyclo[2.2.2]octane-3-carboxamide
> <PUBCHEM_IUPAC_NAME>
(3S)-2-[(2S,3S)-2-hydroxy-3-[(3-hydroxy-2-methylbenzoyl)amino]-4-phenylbutanoyl]-N-[(2-methylphenyl)methyl]-2-azabicyclo[2.2.2]octane-3-carboxamide
> <PUBCHEM_IUPAC_SYSTEMATIC_NAME>
(3S)-2-[(2S,3S)-3-[(2-methyl-3-oxidanyl-phenyl)carbonylamino]-2-oxidanyl-4-phenyl-butanoyl]-N-[(2-methylphenyl)methyl]-2-azabicyclo[2.2.2]octane-3-carboxamide
> <PUBCHEM_IUPAC_TRADITIONAL_NAME>
(3S)-2-[(2S,3S)-2-hydroxy-3-[(3-hydroxy-2-methyl-benzoyl)amino]-4-phenyl-butanoyl]-N-(2-methylbenzyl)-2-azabicyclo[2.2.2]octane-3-carboxamide
> <PUBCHEM_IUPAC_INCHI>
InChI=1S/C34H39N3O5/c1-21-9-6-7-12-25(21)20-35-33(41)30-24-15-17-26(18-16-24)37(30)34(42)31(39)28(19-23-10-4-3-5-11-23)36-32(40)27-13-8-14-29(38)22(27)2/h3-14,24,26,28,30-31,38-39H,15-20H2,1-2H3,(H,35,41)(H,36,40)/t24?,26?,28-,30-,31-/m0/s1
> <PUBCHEM_IUPAC_INCHIKEY>
RUDHBEBGGMBBKO-TZJBNTBHSA-N
> <PUBCHEM_XLOGP3_AA>
4.6
> <PUBCHEM_EXACT_MASS>
569.28897135
> <PUBCHEM_MOLECULAR_FORMULA>
C34H39N3O5
> <PUBCHEM_MOLECULAR_WEIGHT>
569.7
> <PUBCHEM_OPENEYE_CAN_SMILES>
CC1=CC=CC=C1CNC(=O)C2C3CCC(N2C(=O)C(C(CC4=CC=CC=C4)NC(=O)C5=C(C(=CC=C5)O)C)O)CC3
> <PUBCHEM_OPENEYE_ISO_SMILES>
CC1=CC=CC=C1CNC(=O)[C@@H]2C3CCC(N2C(=O)[C@H]([C@H](CC4=CC=CC=C4)NC(=O)C5=C(C(=CC=C5)O)C)O)CC3
> <PUBCHEM_CACTVS_TPSA>
119
> <PUBCHEM_MONOISOTOPIC_WEIGHT>
569.28897135
> <PUBCHEM_TOTAL_CHARGE>
0
> <PUBCHEM_HEAVY_ATOM_COUNT>
42
> <PUBCHEM_ATOM_DEF_STEREO_COUNT>
3
> <PUBCHEM_ATOM_UDEF_STEREO_COUNT>
0
> <PUBCHEM_BOND_DEF_STEREO_COUNT>
0
> <PUBCHEM_BOND_UDEF_STEREO_COUNT>
0
> <PUBCHEM_ISOTOPIC_ATOM_COUNT>
0
> <PUBCHEM_COMPONENT_COUNT>
1
> <PUBCHEM_CACTVS_TAUTO_COUNT>
-1
> <PUBCHEM_COORDINATE_TYPE>
1
5
255
> <PUBCHEM_BONDANNOTATIONS>
11  16  5
22  25  8
22  26  8
23  27  8
23  28  8
25  30  8
26  32  8
27  33  8
28  34  8
29  36  8
29  38  8
18  3  6
30  35  8
32  35  8
33  37  8
34  37  8
36  39  8
38  41  8
39  42  8
41  42  8
19  8  6
$$$$
