514707
  -OEChem-10302200282D
 79 83  0     1  0  0  0  0  0999 V2000
   11.4449    0.2863    0.0000 S   0  0  0  0  0  0  0  0  0  0  0  0
    9.8622    2.6227    0.0000 O   0  0  0  0  0  0  0  0  0  0  0  0
    8.2725   -0.7319    0.0000 O   0  0  0  0  0  0  0  0  0  0  0  0
    8.1301    0.6227    0.0000 O   0  0  0  0  0  0  0  0  0  0  0  0
    6.3981    3.6227    0.0000 O   0  0  0  0  0  0  0  0  0  0  0  0
    9.8622    0.6227    0.0000 N   0  0  0  0  0  0  0  0  0  0  0  0
    9.4315   -2.0191    0.0000 N   0  0  0  0  0  0  0  0  0  0  0  0
    7.2641    2.1227    0.0000 N   0  0  0  0  0  0  0  0  0  0  0  0
    4.6660    0.6227    0.0000 N   0  0  0  0  0  0  0  0  0  0  0  0
   10.9449   -0.5797    0.0000 C   0  0  0  0  0  0  0  0  0  0  0  0
    9.9667   -0.3718    0.0000 C   0  0  3  0  0  0  0  0  0  0  0  0
   10.7757    1.0294    0.0000 C   0  0  0  0  0  0  0  0  0  0  0  0
   11.8109   -1.0798    0.0000 C   0  0  0  0  0  0  0  0  0  0  0  0
   10.7370   -1.5579    0.0000 C   0  0  0  0  0  0  0  0  0  0  0  0
    9.2236   -1.0410    0.0000 C   0  0  0  0  0  0  0  0  0  0  0  0
    8.9962    1.1227    0.0000 C   0  0  0  0  0  0  0  0  0  0  0  0
    8.9962    2.1227    0.0000 C   0  0  2  0  0  0  0  0  0  0  0  0
    8.1301    2.6227    0.0000 C   0  0  3  0  0  0  0  0  0  0  0  0
    8.1301    3.6227    0.0000 C   0  0  0  0  0  0  0  0  0  0  0  0
    8.6883   -2.6882    0.0000 C   0  0  0  0  0  0  0  0  0  0  0  0
    8.9962    4.1227    0.0000 C   0  0  0  0  0  0  0  0  0  0  0  0
    8.8962   -3.6664    0.0000 C   0  0  0  0  0  0  0  0  0  0  0  0
    6.3981    2.6227    0.0000 C   0  0  0  0  0  0  0  0  0  0  0  0
    9.8622    3.6227    0.0000 C   0  0  0  0  0  0  0  0  0  0  0  0
    8.9962    5.1227    0.0000 C   0  0  0  0  0  0  0  0  0  0  0  0
    9.8473   -3.9754    0.0000 C   0  0  0  0  0  0  0  0  0  0  0  0
    5.5321    2.1227    0.0000 C   0  0  0  0  0  0  0  0  0  0  0  0
    8.1531   -4.3355    0.0000 C   0  0  0  0  0  0  0  0  0  0  0  0
   10.7282    4.1227    0.0000 C   0  0  0  0  0  0  0  0  0  0  0  0
    9.8622    5.6227    0.0000 C   0  0  0  0  0  0  0  0  0  0  0  0
   10.0552   -4.9536    0.0000 C   0  0  0  0  0  0  0  0  0  0  0  0
   10.7282    5.1227    0.0000 C   0  0  0  0  0  0  0  0  0  0  0  0
   10.5905   -3.3063    0.0000 C   0  0  0  0  0  0  0  0  0  0  0  0
    8.3610   -5.3137    0.0000 C   0  0  0  0  0  0  0  0  0  0  0  0
    4.6660    2.6227    0.0000 C   0  0  0  0  0  0  0  0  0  0  0  0
    5.5321    1.1227    0.0000 C   0  0  0  0  0  0  0  0  0  0  0  0
    9.3121   -5.6227    0.0000 C   0  0  0  0  0  0  0  0  0  0  0  0
    3.8000    2.1227    0.0000 C   0  0  0  0  0  0  0  0  0  0  0  0
    3.8000    1.1227    0.0000 C   0  0  0  0  0  0  0  0  0  0  0  0
    2.9061    2.6574    0.0000 C   0  0  0  0  0  0  0  0  0  0  0  0
    2.9061    0.5880    0.0000 C   0  0  0  0  0  0  0  0  0  0  0  0
    2.0000    2.1435    0.0000 C   0  0  0  0  0  0  0  0  0  0  0  0
    2.0000    1.1019    0.0000 C   0  0  0  0  0  0  0  0  0  0  0  0
    9.3879   -0.1496    0.0000 H   0  0  0  0  0  0  0  0  0  0  0  0
   11.2773    1.3938    0.0000 H   0  0  0  0  0  0  0  0  0  0  0  0
   10.4657    1.5664    0.0000 H   0  0  0  0  0  0  0  0  0  0  0  0
   11.5009   -1.6167    0.0000 H   0  0  0  0  0  0  0  0  0  0  0  0
   12.3478   -1.3898    0.0000 H   0  0  0  0  0  0  0  0  0  0  0  0
   12.1209   -0.5428    0.0000 H   0  0  0  0  0  0  0  0  0  0  0  0
   10.1305   -1.4290    0.0000 H   0  0  0  0  0  0  0  0  0  0  0  0
   10.6080   -2.1644    0.0000 H   0  0  0  0  0  0  0  0  0  0  0  0
   11.3434   -1.6868    0.0000 H   0  0  0  0  0  0  0  0  0  0  0  0
    9.5331    1.8127    0.0000 H   0  0  0  0  0  0  0  0  0  0  0  0
    7.5932    2.9327    0.0000 H   0  0  0  0  0  0  0  0  0  0  0  0
   10.0211   -2.2107    0.0000 H   0  0  0  0  0  0  0  0  0  0  0  0
    7.9181    4.2053    0.0000 H   0  0  0  0  0  0  0  0  0  0  0  0
    7.5196    3.5150    0.0000 H   0  0  0  0  0  0  0  0  0  0  0  0
    7.2641    1.5027    0.0000 H   0  0  0  0  0  0  0  0  0  0  0  0
    8.3598   -2.1625    0.0000 H   0  0  0  0  0  0  0  0  0  0  0  0
    8.1135   -2.9205    0.0000 H   0  0  0  0  0  0  0  0  0  0  0  0
   10.3991    2.3127    0.0000 H   0  0  0  0  0  0  0  0  0  0  0  0
    9.8622    3.0027    0.0000 H   0  0  0  0  0  0  0  0  0  0  0  0
    8.4592    5.4327    0.0000 H   0  0  0  0  0  0  0  0  0  0  0  0
    7.5634   -4.1439    0.0000 H   0  0  0  0  0  0  0  0  0  0  0  0
   11.2651    3.8127    0.0000 H   0  0  0  0  0  0  0  0  0  0  0  0
    9.8622    6.2427    0.0000 H   0  0  0  0  0  0  0  0  0  0  0  0
   10.6449   -5.1452    0.0000 H   0  0  0  0  0  0  0  0  0  0  0  0
   11.2651    5.4327    0.0000 H   0  0  0  0  0  0  0  0  0  0  0  0
   11.0053   -3.7670    0.0000 H   0  0  0  0  0  0  0  0  0  0  0  0
   11.0512   -2.8914    0.0000 H   0  0  0  0  0  0  0  0  0  0  0  0
   10.1756   -2.8455    0.0000 H   0  0  0  0  0  0  0  0  0  0  0  0
    7.9003   -5.7285    0.0000 H   0  0  0  0  0  0  0  0  0  0  0  0
    4.6660    3.2427    0.0000 H   0  0  0  0  0  0  0  0  0  0  0  0
    6.0690    0.8127    0.0000 H   0  0  0  0  0  0  0  0  0  0  0  0
    9.4410   -6.2291    0.0000 H   0  0  0  0  0  0  0  0  0  0  0  0
    2.9132    3.2773    0.0000 H   0  0  0  0  0  0  0  0  0  0  0  0
    2.9132   -0.0319    0.0000 H   0  0  0  0  0  0  0  0  0  0  0  0
    1.4643    2.4556    0.0000 H   0  0  0  0  0  0  0  0  0  0  0  0
    1.4643    0.7898    0.0000 H   0  0  0  0  0  0  0  0  0  0  0  0
  1 10  1  0  0  0  0
  1 12  1  0  0  0  0
 17  2  1  6  0  0  0
  2 61  1  0  0  0  0
  3 15  2  0  0  0  0
  4 16  2  0  0  0  0
  5 23  2  0  0  0  0
  6 11  1  0  0  0  0
  6 12  1  0  0  0  0
  6 16  1  0  0  0  0
  7 15  1  0  0  0  0
  7 20  1  0  0  0  0
  7 55  1  0  0  0  0
  8 18  1  0  0  0  0
  8 23  1  0  0  0  0
  8 58  1  0  0  0  0
  9 36  2  0  0  0  0
  9 39  1  0  0  0  0
 10 11  1  0  0  0  0
 10 13  1  0  0  0  0
 10 14  1  0  0  0  0
 11 15  1  0  0  0  0
 11 44  1  0  0  0  0
 12 45  1  0  0  0  0
 12 46  1  0  0  0  0
 13 47  1  0  0  0  0
 13 48  1  0  0  0  0
 13 49  1  0  0  0  0
 14 50  1  0  0  0  0
 14 51  1  0  0  0  0
 14 52  1  0  0  0  0
 16 17  1  0  0  0  0
 17 18  1  0  0  0  0
 17 53  1  0  0  0  0
 18 19  1  0  0  0  0
 18 54  1  0  0  0  0
 19 21  1  0  0  0  0
 19 56  1  0  0  0  0
 19 57  1  0  0  0  0
 20 22  1  0  0  0  0
 20 59  1  0  0  0  0
 20 60  1  0  0  0  0
 21 24  2  0  0  0  0
 21 25  1  0  0  0  0
 22 26  1  0  0  0  0
 22 28  2  0  0  0  0
 23 27  1  0  0  0  0
 24 29  1  0  0  0  0
 24 62  1  0  0  0  0
 25 30  2  0  0  0  0
 25 63  1  0  0  0  0
 26 31  2  0  0  0  0
 26 33  1  0  0  0  0
 27 35  2  0  0  0  0
 27 36  1  0  0  0  0
 28 34  1  0  0  0  0
 28 64  1  0  0  0  0
 29 32  2  0  0  0  0
 29 65  1  0  0  0  0
 30 32  1  0  0  0  0
 30 66  1  0  0  0  0
 31 37  1  0  0  0  0
 31 67  1  0  0  0  0
 32 68  1  0  0  0  0
 33 69  1  0  0  0  0
 33 70  1  0  0  0  0
 33 71  1  0  0  0  0
 34 37  2  0  0  0  0
 34 72  1  0  0  0  0
 35 38  1  0  0  0  0
 35 73  1  0  0  0  0
 36 74  1  0  0  0  0
 37 75  1  0  0  0  0
 38 39  1  0  0  0  0
 38 40  2  0  0  0  0
 39 41  2  0  0  0  0
 40 42  1  0  0  0  0
 40 76  1  0  0  0  0
 41 43  1  0  0  0  0
 41 77  1  0  0  0  0
 42 43  2  0  0  0  0
 42 78  1  0  0  0  0
 43 79  1  0  0  0  0
M  END
> <PUBCHEM_COMPOUND_CID>
514707
> <PUBCHEM_COMPOUND_CANONICALIZED>
1
> <PUBCHEM_CACTVS_COMPLEXITY>
972
> <PUBCHEM_CACTVS_HBOND_ACCEPTOR>
6
> <PUBCHEM_CACTVS_HBOND_DONOR>
3
> <PUBCHEM_CACTVS_ROTATABLE_BOND>
9
> <PUBCHEM_CACTVS_SUBSKEYS>
AAADcfB/uABAAAAAAAAAAAAAAAAAAWAAAAA8YMEAAAAAAACx9AAAHgQQCAAADDzh3ga+wPPIEgioAzV3VAKCgCB1AjAI2KH4ZNgKcPrg1bGUYYhklgDYyceYyeCegAAAAAASAAAAAAAAACQAAAAAAAAAAA==
> <PUBCHEM_IUPAC_OPENEYE_NAME>
3-[(2S)-2-hydroxy-4-phenyl-3-(quinoline-3-carbonylamino)butanoyl]-5,5-dimethyl-N-(o-tolylmethyl)thiazolidine-4-carboxamide
> <PUBCHEM_IUPAC_CAS_NAME>
3-[(2S)-2-hydroxy-1-oxo-3-[[oxo(3-quinolinyl)methyl]amino]-4-phenylbutyl]-5,5-dimethyl-N-[(2-methylphenyl)methyl]-4-thiazolidinecarboxamide
> <PUBCHEM_IUPAC_NAME_MARKUP>
3-[(2<I>S</I>)-2-hydroxy-4-phenyl-3-(quinoline-3-carbonylamino)butanoyl]-5,5-dimethyl-<I>N</I>-[(2-methylphenyl)methyl]-1,3-thiazolidine-4-carboxamide
> <PUBCHEM_IUPAC_NAME>
3-[(2S)-2-hydroxy-4-phenyl-3-(quinoline-3-carbonylamino)butanoyl]-5,5-dimethyl-N-[(2-methylphenyl)methyl]-1,3-thiazolidine-4-carboxamide
> <PUBCHEM_IUPAC_SYSTEMATIC_NAME>
5,5-dimethyl-N-[(2-methylphenyl)methyl]-3-[(2S)-2-oxidanyl-4-phenyl-3-(quinolin-3-ylcarbonylamino)butanoyl]-1,3-thiazolidine-4-carboxamide
> <PUBCHEM_IUPAC_TRADITIONAL_NAME>
3-[(2S)-2-hydroxy-4-phenyl-3-(quinoline-3-carbonylamino)butanoyl]-5,5-dimethyl-N-(2-methylbenzyl)thiazolidine-4-carboxamide
> <PUBCHEM_IUPAC_INCHI>
InChI=1S/C34H36N4O4S/c1-22-11-7-8-15-25(22)19-36-32(41)30-34(2,3)43-21-38(30)33(42)29(39)28(17-23-12-5-4-6-13-23)37-31(40)26-18-24-14-9-10-16-27(24)35-20-26/h4-16,18,20,28-30,39H,17,19,21H2,1-3H3,(H,36,41)(H,37,40)/t28?,29-,30?/m0/s1
> <PUBCHEM_IUPAC_INCHIKEY>
JVAPXQFQUTZASL-GBYJYRDPSA-N
> <PUBCHEM_XLOGP3_AA>
4.7
> <PUBCHEM_EXACT_MASS>
596.24572682
> <PUBCHEM_MOLECULAR_FORMULA>
C34H36N4O4S
> <PUBCHEM_MOLECULAR_WEIGHT>
596.7
> <PUBCHEM_OPENEYE_CAN_SMILES>
CC1=CC=CC=C1CNC(=O)C2C(SCN2C(=O)C(C(CC3=CC=CC=C3)NC(=O)C4=CC5=CC=CC=C5N=C4)O)(C)C
> <PUBCHEM_OPENEYE_ISO_SMILES>
CC1=CC=CC=C1CNC(=O)C2C(SCN2C(=O)[C@H](C(CC3=CC=CC=C3)NC(=O)C4=CC5=CC=CC=C5N=C4)O)(C)C
> <PUBCHEM_CACTVS_TPSA>
137
> <PUBCHEM_MONOISOTOPIC_WEIGHT>
596.24572682
> <PUBCHEM_TOTAL_CHARGE>
0
> <PUBCHEM_HEAVY_ATOM_COUNT>
43
> <PUBCHEM_ATOM_DEF_STEREO_COUNT>
1
> <PUBCHEM_ATOM_UDEF_STEREO_COUNT>
2
> <PUBCHEM_BOND_DEF_STEREO_COUNT>
0
> <PUBCHEM_BOND_UDEF_STEREO_COUNT>
0
> <PUBCHEM_ISOTOPIC_ATOM_COUNT>
0
> <PUBCHEM_COMPONENT_COUNT>
1
> <PUBCHEM_CACTVS_TAUTO_COUNT>
-1
> <PUBCHEM_COORDINATE_TYPE>
1
5
255
> <PUBCHEM_BONDANNOTATIONS>
11  15  3
18  19  3
17  2  6
21  24  8
21  25  8
22  26  8
22  28  8
24  29  8
25  30  8
26  31  8
27  35  8
27  36  8
28  34  8
29  32  8
30  32  8
31  37  8
34  37  8
35  38  8
38  39  8
38  40  8
39  41  8
40  42  8
41  43  8
42  43  8
9  36  8
9  39  8
$$$$
