514764
  -OEChem-10302200282D
 76 79  0     1  0  0  0  0  0999 V2000
    8.2788    2.7024    0.0000 S   0  0  0  0  0  0  0  0  0  0  0  0
    3.7320   -4.5000    0.0000 F   0  0  0  0  0  0  0  0  0  0  0  0
    7.5745   -0.5540    0.0000 O   0  0  0  0  0  0  0  0  0  0  0  0
    5.4641    2.5000    0.0000 O   0  0  0  0  0  0  0  0  0  0  0  0
    6.3301    0.0000    0.0000 O   0  0  0  0  0  0  0  0  0  0  0  0
    2.8660    0.0000    0.0000 O   0  0  0  0  0  0  0  0  0  0  0  0
    2.0000   -3.5000    0.0000 O   0  0  0  0  0  0  0  0  0  0  0  0
    7.1962    1.5000    0.0000 N   0  0  0  0  0  0  0  0  0  0  0  0
    9.2687   -0.1939    0.0000 N   0  0  0  0  0  0  0  0  0  0  0  0
    4.5981    0.0000    0.0000 N   0  0  0  0  0  0  0  0  0  0  0  0
    8.7788    1.8364    0.0000 C   0  0  0  0  0  0  0  0  0  0  0  0
    8.1097    1.0933    0.0000 C   0  0  1  0  0  0  0  0  0  0  0  0
    7.3007    2.4945    0.0000 C   0  0  0  0  0  0  0  0  0  0  0  0
    9.6448    2.3364    0.0000 C   0  0  0  0  0  0  0  0  0  0  0  0
    9.5220    1.1673    0.0000 C   0  0  0  0  0  0  0  0  0  0  0  0
    8.3176    0.1151    0.0000 C   0  0  0  0  0  0  0  0  0  0  0  0
    6.3301    1.0000    0.0000 C   0  0  0  0  0  0  0  0  0  0  0  0
    5.4641    1.5000    0.0000 C   0  0  2  0  0  0  0  0  0  0  0  0
    9.4766   -1.1720    0.0000 C   0  0  1  0  0  0  0  0  0  0  0  0
    4.5981    1.0000    0.0000 C   0  0  2  0  0  0  0  0  0  0  0  0
    8.7334   -1.8412    0.0000 C   0  0  0  0  0  0  0  0  0  0  0  0
    8.9413   -2.8193    0.0000 C   0  0  0  0  0  0  0  0  0  0  0  0
    3.7320    1.5000    0.0000 C   0  0  0  0  0  0  0  0  0  0  0  0
   10.4276   -1.4811    0.0000 C   0  0  0  0  0  0  0  0  0  0  0  0
    9.8924   -3.1283    0.0000 C   0  0  0  0  0  0  0  0  0  0  0  0
   10.6355   -2.4592    0.0000 C   0  0  0  0  0  0  0  0  0  0  0  0
    3.7320    2.5000    0.0000 C   0  0  0  0  0  0  0  0  0  0  0  0
    3.7320   -0.5000    0.0000 C   0  0  0  0  0  0  0  0  0  0  0  0
    2.8660    3.0000    0.0000 C   0  0  0  0  0  0  0  0  0  0  0  0
    4.5981    3.0000    0.0000 C   0  0  0  0  0  0  0  0  0  0  0  0
    3.7320   -1.5000    0.0000 C   0  0  0  0  0  0  0  0  0  0  0  0
    2.8660    4.0000    0.0000 C   0  0  0  0  0  0  0  0  0  0  0  0
    4.5981    4.0000    0.0000 C   0  0  0  0  0  0  0  0  0  0  0  0
    2.8660   -2.0000    0.0000 C   0  0  0  0  0  0  0  0  0  0  0  0
    3.7320    4.5000    0.0000 C   0  0  0  0  0  0  0  0  0  0  0  0
    4.5981   -2.0000    0.0000 C   0  0  0  0  0  0  0  0  0  0  0  0
    2.8660   -3.0000    0.0000 C   0  0  0  0  0  0  0  0  0  0  0  0
    2.0000   -1.5000    0.0000 C   0  0  0  0  0  0  0  0  0  0  0  0
    4.5981   -3.0000    0.0000 C   0  0  0  0  0  0  0  0  0  0  0  0
    3.7320   -3.5000    0.0000 C   0  0  0  0  0  0  0  0  0  0  0  0
    7.6279    0.7031    0.0000 H   0  0  0  0  0  0  0  0  0  0  0  0
    7.2359    3.1111    0.0000 H   0  0  0  0  0  0  0  0  0  0  0  0
    6.6807    2.4945    0.0000 H   0  0  0  0  0  0  0  0  0  0  0  0
    9.9548    1.7995    0.0000 H   0  0  0  0  0  0  0  0  0  0  0  0
   10.1818    2.6464    0.0000 H   0  0  0  0  0  0  0  0  0  0  0  0
    9.3348    2.8733    0.0000 H   0  0  0  0  0  0  0  0  0  0  0  0
    9.1071    0.7065    0.0000 H   0  0  0  0  0  0  0  0  0  0  0  0
    9.9827    0.7524    0.0000 H   0  0  0  0  0  0  0  0  0  0  0  0
    9.9368    1.6280    0.0000 H   0  0  0  0  0  0  0  0  0  0  0  0
    6.0010    1.8100    0.0000 H   0  0  0  0  0  0  0  0  0  0  0  0
    8.8869   -0.9805    0.0000 H   0  0  0  0  0  0  0  0  0  0  0  0
    9.7294    0.2210    0.0000 H   0  0  0  0  0  0  0  0  0  0  0  0
    5.1350    0.6900    0.0000 H   0  0  0  0  0  0  0  0  0  0  0  0
    8.4049   -1.3154    0.0000 H   0  0  0  0  0  0  0  0  0  0  0  0
    8.1586   -2.0734    0.0000 H   0  0  0  0  0  0  0  0  0  0  0  0
    8.3217   -2.8410    0.0000 H   0  0  0  0  0  0  0  0  0  0  0  0
    8.8551   -3.4333    0.0000 H   0  0  0  0  0  0  0  0  0  0  0  0
    3.1215    1.6077    0.0000 H   0  0  0  0  0  0  0  0  0  0  0  0
    3.5200    0.9174    0.0000 H   0  0  0  0  0  0  0  0  0  0  0  0
   10.8884   -1.0662    0.0000 H   0  0  0  0  0  0  0  0  0  0  0  0
    9.6013   -3.6758    0.0000 H   0  0  0  0  0  0  0  0  0  0  0  0
   10.3810   -3.5100    0.0000 H   0  0  0  0  0  0  0  0  0  0  0  0
   11.2252   -2.6508    0.0000 H   0  0  0  0  0  0  0  0  0  0  0  0
    5.1350   -0.3100    0.0000 H   0  0  0  0  0  0  0  0  0  0  0  0
    6.0010    2.8100    0.0000 H   0  0  0  0  0  0  0  0  0  0  0  0
    2.3291    2.6900    0.0000 H   0  0  0  0  0  0  0  0  0  0  0  0
    5.1350    2.6900    0.0000 H   0  0  0  0  0  0  0  0  0  0  0  0
    2.3291    4.3100    0.0000 H   0  0  0  0  0  0  0  0  0  0  0  0
    5.1350    4.3100    0.0000 H   0  0  0  0  0  0  0  0  0  0  0  0
    3.7320    5.1200    0.0000 H   0  0  0  0  0  0  0  0  0  0  0  0
    5.1350   -1.6900    0.0000 H   0  0  0  0  0  0  0  0  0  0  0  0
    2.3100   -0.9631    0.0000 H   0  0  0  0  0  0  0  0  0  0  0  0
    1.4631   -1.1900    0.0000 H   0  0  0  0  0  0  0  0  0  0  0  0
    1.6900   -2.0369    0.0000 H   0  0  0  0  0  0  0  0  0  0  0  0
    5.1350   -3.3100    0.0000 H   0  0  0  0  0  0  0  0  0  0  0  0
    2.0000   -4.1200    0.0000 H   0  0  0  0  0  0  0  0  0  0  0  0
  1 11  1  0  0  0  0
  1 13  1  0  0  0  0
  2 40  1  0  0  0  0
  3 16  2  0  0  0  0
 18  4  1  6  0  0  0
  4 65  1  0  0  0  0
  5 17  2  0  0  0  0
  6 28  2  0  0  0  0
  7 37  1  0  0  0  0
  7 76  1  0  0  0  0
  8 12  1  0  0  0  0
  8 13  1  0  0  0  0
  8 17  1  0  0  0  0
  9 16  1  0  0  0  0
 19  9  1  6  0  0  0
  9 52  1  0  0  0  0
 20 10  1  1  0  0  0
 10 28  1  0  0  0  0
 10 64  1  0  0  0  0
 11 12  1  0  0  0  0
 11 14  1  0  0  0  0
 11 15  1  0  0  0  0
 12 16  1  1  0  0  0
 12 41  1  0  0  0  0
 13 42  1  0  0  0  0
 13 43  1  0  0  0  0
 14 44  1  0  0  0  0
 14 45  1  0  0  0  0
 14 46  1  0  0  0  0
 15 47  1  0  0  0  0
 15 48  1  0  0  0  0
 15 49  1  0  0  0  0
 17 18  1  0  0  0  0
 18 20  1  0  0  0  0
 18 50  1  0  0  0  0
 19 21  1  0  0  0  0
 19 24  1  0  0  0  0
 19 51  1  0  0  0  0
 20 23  1  0  0  0  0
 20 53  1  0  0  0  0
 21 22  1  0  0  0  0
 21 54  1  0  0  0  0
 21 55  1  0  0  0  0
 22 25  1  0  0  0  0
 22 56  1  0  0  0  0
 22 57  1  0  0  0  0
 23 27  1  0  0  0  0
 23 58  1  0  0  0  0
 23 59  1  0  0  0  0
 24 26  2  0  0  0  0
 24 60  1  0  0  0  0
 25 26  1  0  0  0  0
 25 61  1  0  0  0  0
 25 62  1  0  0  0  0
 26 63  1  0  0  0  0
 27 29  2  0  0  0  0
 27 30  1  0  0  0  0
 28 31  1  0  0  0  0
 29 32  1  0  0  0  0
 29 66  1  0  0  0  0
 30 33  2  0  0  0  0
 30 67  1  0  0  0  0
 31 34  2  0  0  0  0
 31 36  1  0  0  0  0
 32 35  2  0  0  0  0
 32 68  1  0  0  0  0
 33 35  1  0  0  0  0
 33 69  1  0  0  0  0
 34 37  1  0  0  0  0
 34 38  1  0  0  0  0
 35 70  1  0  0  0  0
 36 39  2  0  0  0  0
 36 71  1  0  0  0  0
 37 40  2  0  0  0  0
 38 72  1  0  0  0  0
 38 73  1  0  0  0  0
 38 74  1  0  0  0  0
 39 40  1  0  0  0  0
 39 75  1  0  0  0  0
M  END
> <PUBCHEM_COMPOUND_CID>
514764
> <PUBCHEM_COMPOUND_CANONICALIZED>
1
> <PUBCHEM_CACTVS_COMPLEXITY>
942
> <PUBCHEM_CACTVS_HBOND_ACCEPTOR>
7
> <PUBCHEM_CACTVS_HBOND_DONOR>
4
> <PUBCHEM_CACTVS_ROTATABLE_BOND>
8
> <PUBCHEM_CACTVS_SUBSKEYS>
AAADcfB7OQBAAAAAAAAAAAAAAAAAAWAAAAAwYIAAAAAAAAABQAAAHwQQCAAADDzh2A6yBoPAAgiIAiFSEAKCAABkIBAIiIHMDMgKdjqi1TOUcQhk1hGYmYe6yLCOgAABAAAYAAAAAAIAADAAAAAAAAAAAA==
> <PUBCHEM_IUPAC_OPENEYE_NAME>
(4R)-N-[(1S)-cyclohex-2-en-1-yl]-3-[(2S,3S)-3-[(4-fluoro-3-hydroxy-2-methyl-benzoyl)amino]-2-hydroxy-4-phenyl-butanoyl]-5,5-dimethyl-thiazolidine-4-carboxamide
> <PUBCHEM_IUPAC_CAS_NAME>
(4R)-N-[(1S)-1-cyclohex-2-enyl]-3-[(2S,3S)-3-[[(4-fluoro-3-hydroxy-2-methylphenyl)-oxomethyl]amino]-2-hydroxy-1-oxo-4-phenylbutyl]-5,5-dimethyl-4-thiazolidinecarboxamide
> <PUBCHEM_IUPAC_NAME_MARKUP>
(4<I>R</I>)-<I>N</I>-[(1<I>S</I>)-cyclohex-2-en-1-yl]-3-[(2<I>S</I>,3<I>S</I>)-3-[(4-fluoro-3-hydroxy-2-methylbenzoyl)amino]-2-hydroxy-4-phenylbutanoyl]-5,5-dimethyl-1,3-thiazolidine-4-carboxamide
> <PUBCHEM_IUPAC_NAME>
(4R)-N-[(1S)-cyclohex-2-en-1-yl]-3-[(2S,3S)-3-[(4-fluoro-3-hydroxy-2-methylbenzoyl)amino]-2-hydroxy-4-phenylbutanoyl]-5,5-dimethyl-1,3-thiazolidine-4-carboxamide
> <PUBCHEM_IUPAC_SYSTEMATIC_NAME>
(4R)-N-[(1S)-cyclohex-2-en-1-yl]-3-[(2S,3S)-3-[(4-fluoranyl-2-methyl-3-oxidanyl-phenyl)carbonylamino]-2-oxidanyl-4-phenyl-butanoyl]-5,5-dimethyl-1,3-thiazolidine-4-carboxamide
> <PUBCHEM_IUPAC_TRADITIONAL_NAME>
(4R)-N-[(1S)-cyclohex-2-en-1-yl]-3-[(2S,3S)-3-[(4-fluoro-3-hydroxy-2-methyl-benzoyl)amino]-2-hydroxy-4-phenyl-butanoyl]-5,5-dimethyl-thiazolidine-4-carboxamide
> <PUBCHEM_IUPAC_INCHI>
InChI=1S/C30H36FN3O5S/c1-18-21(14-15-22(31)24(18)35)27(37)33-23(16-19-10-6-4-7-11-19)25(36)29(39)34-17-40-30(2,3)26(34)28(38)32-20-12-8-5-9-13-20/h4,6-8,10-12,14-15,20,23,25-26,35-36H,5,9,13,16-17H2,1-3H3,(H,32,38)(H,33,37)/t20-,23+,25+,26-/m1/s1
> <PUBCHEM_IUPAC_INCHIKEY>
IOYFZIOHSACQJX-RTOPKKFASA-N
> <PUBCHEM_XLOGP3_AA>
4.2
> <PUBCHEM_EXACT_MASS>
569.23597059
> <PUBCHEM_MOLECULAR_FORMULA>
C30H36FN3O5S
> <PUBCHEM_MOLECULAR_WEIGHT>
569.7
> <PUBCHEM_OPENEYE_CAN_SMILES>
CC1=C(C=CC(=C1O)F)C(=O)NC(CC2=CC=CC=C2)C(C(=O)N3CSC(C3C(=O)NC4CCCC=C4)(C)C)O
> <PUBCHEM_OPENEYE_ISO_SMILES>
CC1=C(C=CC(=C1O)F)C(=O)N[C@@H](CC2=CC=CC=C2)[C@@H](C(=O)N3CSC([C@H]3C(=O)N[C@H]4CCCC=C4)(C)C)O
> <PUBCHEM_CACTVS_TPSA>
144
> <PUBCHEM_MONOISOTOPIC_WEIGHT>
569.23597059
> <PUBCHEM_TOTAL_CHARGE>
0
> <PUBCHEM_HEAVY_ATOM_COUNT>
40
> <PUBCHEM_ATOM_DEF_STEREO_COUNT>
4
> <PUBCHEM_ATOM_UDEF_STEREO_COUNT>
0
> <PUBCHEM_BOND_DEF_STEREO_COUNT>
0
> <PUBCHEM_BOND_UDEF_STEREO_COUNT>
0
> <PUBCHEM_ISOTOPIC_ATOM_COUNT>
0
> <PUBCHEM_COMPONENT_COUNT>
1
> <PUBCHEM_CACTVS_TAUTO_COUNT>
-1
> <PUBCHEM_COORDINATE_TYPE>
1
5
255
> <PUBCHEM_BONDANNOTATIONS>
20  10  5
12  16  5
27  29  8
27  30  8
29  32  8
30  33  8
31  34  8
31  36  8
32  35  8
33  35  8
34  37  8
36  39  8
37  40  8
39  40  8
18  4  6
19  9  6
$$$$
