514820
  -OEChem-10302200282D
 36 37  0     1  0  0  0  0  0999 V2000
    8.4124   -3.0694    0.0000 Cl  0  0  0  0  0  0  0  0  0  0  0  0
    2.0000    1.6739    0.0000 Cl  0  0  0  0  0  0  0  0  0  0  0  0
    7.1391   -1.4139    0.0000 O   0  0  0  0  0  0  0  0  0  0  0  0
    5.2423   -3.1739    0.0000 O   0  0  0  0  0  0  0  0  0  0  0  0
    8.0622    0.1739    0.0000 O   0  0  0  0  0  0  0  0  0  0  0  0
    6.3301    3.1739    0.0000 O   0  0  0  0  0  0  0  0  0  0  0  0
    6.3301    0.1739    0.0000 N   0  0  0  0  0  0  0  0  0  0  0  0
    7.1962    1.6739    0.0000 N   0  0  0  0  0  0  0  0  0  0  0  0
    6.3301   -0.8261    0.0000 C   0  0  1  0  0  0  0  0  0  0  0  0
    5.8301   -2.3649    0.0000 C   0  0  1  0  0  0  0  0  0  0  0  0
    5.5211   -1.4139    0.0000 C   0  0  0  0  0  0  0  0  0  0  0  0
    6.8301   -2.3649    0.0000 C   0  0  1  0  0  0  0  0  0  0  0  0
    7.4179   -3.1739    0.0000 C   0  0  0  0  0  0  0  0  0  0  0  0
    5.4641    0.6739    0.0000 C   0  0  0  0  0  0  0  0  0  0  0  0
    7.1962    0.6739    0.0000 C   0  0  0  0  0  0  0  0  0  0  0  0
    5.4641    1.6739    0.0000 C   0  0  0  0  0  0  0  0  0  0  0  0
    4.5981    2.1739    0.0000 C   0  0  0  0  0  0  0  0  0  0  0  0
    6.3301    2.1739    0.0000 C   0  0  0  0  0  0  0  0  0  0  0  0
    3.7320    1.6739    0.0000 C   0  0  0  0  0  0  0  0  0  0  0  0
    2.8660    2.1739    0.0000 C   0  0  0  0  0  0  0  0  0  0  0  0
    6.8826   -0.5446    0.0000 H   0  0  0  0  0  0  0  0  0  0  0  0
    5.2111   -0.8769    0.0000 H   0  0  0  0  0  0  0  0  0  0  0  0
    4.9547   -1.6660    0.0000 H   0  0  0  0  0  0  0  0  0  0  0  0
    5.2178   -2.2679    0.0000 H   0  0  0  0  0  0  0  0  0  0  0  0
    7.4425   -2.2679    0.0000 H   0  0  0  0  0  0  0  0  0  0  0  0
    6.8607   -3.4457    0.0000 H   0  0  0  0  0  0  0  0  0  0  0  0
    7.5888   -3.7699    0.0000 H   0  0  0  0  0  0  0  0  0  0  0  0
    4.9272    0.3639    0.0000 H   0  0  0  0  0  0  0  0  0  0  0  0
    4.6257   -3.1091    0.0000 H   0  0  0  0  0  0  0  0  0  0  0  0
    4.9966    2.6489    0.0000 H   0  0  0  0  0  0  0  0  0  0  0  0
    4.1996    2.6489    0.0000 H   0  0  0  0  0  0  0  0  0  0  0  0
    7.7331    1.9839    0.0000 H   0  0  0  0  0  0  0  0  0  0  0  0
    3.3335    1.1990    0.0000 H   0  0  0  0  0  0  0  0  0  0  0  0
    4.1306    1.1990    0.0000 H   0  0  0  0  0  0  0  0  0  0  0  0
    3.2646    2.6489    0.0000 H   0  0  0  0  0  0  0  0  0  0  0  0
    2.4675    2.6489    0.0000 H   0  0  0  0  0  0  0  0  0  0  0  0
  1 13  1  0  0  0  0
  2 20  1  0  0  0  0
  3  9  1  0  0  0  0
  3 12  1  0  0  0  0
 10  4  1  1  0  0  0
  4 29  1  0  0  0  0
  5 15  2  0  0  0  0
  6 18  2  0  0  0  0
  9  7  1  6  0  0  0
  7 14  1  0  0  0  0
  7 15  1  0  0  0  0
  8 15  1  0  0  0  0
  8 18  1  0  0  0  0
  8 32  1  0  0  0  0
  9 11  1  0  0  0  0
  9 21  1  0  0  0  0
 10 11  1  0  0  0  0
 10 12  1  0  0  0  0
 10 24  1  0  0  0  0
 11 22  1  0  0  0  0
 11 23  1  0  0  0  0
 12 13  1  6  0  0  0
 12 25  1  0  0  0  0
 13 26  1  0  0  0  0
 13 27  1  0  0  0  0
 14 16  2  0  0  0  0
 14 28  1  0  0  0  0
 16 17  1  0  0  0  0
 16 18  1  0  0  0  0
 17 19  1  0  0  0  0
 17 30  1  0  0  0  0
 17 31  1  0  0  0  0
 19 20  1  0  0  0  0
 19 33  1  0  0  0  0
 19 34  1  0  0  0  0
 20 35  1  0  0  0  0
 20 36  1  0  0  0  0
M  END
> <PUBCHEM_COMPOUND_CID>
514820
> <PUBCHEM_COMPOUND_CANONICALIZED>
1
> <PUBCHEM_CACTVS_COMPLEXITY>
430
> <PUBCHEM_CACTVS_HBOND_ACCEPTOR>
4
> <PUBCHEM_CACTVS_HBOND_DONOR>
2
> <PUBCHEM_CACTVS_ROTATABLE_BOND>
5
> <PUBCHEM_CACTVS_SUBSKEYS>
AAADceBzOAAGAAAAAAAAAAAAAAAAASAAAAAgAAAAAAAAAAAAAAAAHgIQCAAADBfhgEYBAAPABgCIAgFWUACAAAAgAAAAAAEIA0iBEBIBgQAOQAAPhyIDAMC4AAAAAAAAAAAAAAAAAAAAAAAAAAAAAAAAAA==
> <PUBCHEM_IUPAC_OPENEYE_NAME>
1-[(2R,4S,5S)-5-(chloromethyl)-4-hydroxy-tetrahydrofuran-2-yl]-5-(3-chloropropyl)pyrimidine-2,4-dione
> <PUBCHEM_IUPAC_CAS_NAME>
1-[(2R,4S,5S)-5-(chloromethyl)-4-hydroxy-2-oxolanyl]-5-(3-chloropropyl)pyrimidine-2,4-dione
> <PUBCHEM_IUPAC_NAME_MARKUP>
1-[(2<I>R</I>,4<I>S</I>,5<I>S</I>)-5-(chloromethyl)-4-hydroxyoxolan-2-yl]-5-(3-chloropropyl)pyrimidine-2,4-dione
> <PUBCHEM_IUPAC_NAME>
1-[(2R,4S,5S)-5-(chloromethyl)-4-hydroxyoxolan-2-yl]-5-(3-chloropropyl)pyrimidine-2,4-dione
> <PUBCHEM_IUPAC_SYSTEMATIC_NAME>
5-(3-chloranylpropyl)-1-[(2R,4S,5S)-5-(chloromethyl)-4-oxidanyl-oxolan-2-yl]pyrimidine-2,4-dione
> <PUBCHEM_IUPAC_TRADITIONAL_NAME>
1-[(2R,4S,5S)-5-(chloromethyl)-4-hydroxy-tetrahydrofuran-2-yl]-5-(3-chloropropyl)pyrimidine-2,4-quinone
> <PUBCHEM_IUPAC_INCHI>
InChI=1S/C12H16Cl2N2O4/c13-3-1-2-7-6-16(12(19)15-11(7)18)10-4-8(17)9(5-14)20-10/h6,8-10,17H,1-5H2,(H,15,18,19)/t8-,9+,10+/m0/s1
> <PUBCHEM_IUPAC_INCHIKEY>
YKUKQBOEZCQEEQ-IVZWLZJFSA-N
> <PUBCHEM_XLOGP3>
0.4
> <PUBCHEM_EXACT_MASS>
322.0487124
> <PUBCHEM_MOLECULAR_FORMULA>
C12H16Cl2N2O4
> <PUBCHEM_MOLECULAR_WEIGHT>
323.17
> <PUBCHEM_OPENEYE_CAN_SMILES>
C1C(C(OC1N2C=C(C(=O)NC2=O)CCCCl)CCl)O
> <PUBCHEM_OPENEYE_ISO_SMILES>
C1[C@@H]([C@H](O[C@H]1N2C=C(C(=O)NC2=O)CCCCl)CCl)O
> <PUBCHEM_CACTVS_TPSA>
78.9
> <PUBCHEM_MONOISOTOPIC_WEIGHT>
322.0487124
> <PUBCHEM_TOTAL_CHARGE>
0
> <PUBCHEM_HEAVY_ATOM_COUNT>
20
> <PUBCHEM_ATOM_DEF_STEREO_COUNT>
3
> <PUBCHEM_ATOM_UDEF_STEREO_COUNT>
0
> <PUBCHEM_BOND_DEF_STEREO_COUNT>
0
> <PUBCHEM_BOND_UDEF_STEREO_COUNT>
0
> <PUBCHEM_ISOTOPIC_ATOM_COUNT>
0
> <PUBCHEM_COMPONENT_COUNT>
1
> <PUBCHEM_CACTVS_TAUTO_COUNT>
-1
> <PUBCHEM_COORDINATE_TYPE>
1
5
255
> <PUBCHEM_BONDANNOTATIONS>
12  13  6
14  16  8
16  18  8
10  4  5
7  14  8
7  15  8
9  7  6
8  15  8
8  18  8
$$$$
