514803
  -OEChem-10302200282D
 33 34  0     1  0  0  0  0  0999 V2000
    2.8380   -0.9766    0.0000 F   0  0  0  0  0  0  0  0  0  0  0  0
    5.4071   -1.2857    0.0000 O   0  0  0  0  0  0  0  0  0  0  0  0
    3.5103   -3.0457    0.0000 O   0  0  0  0  0  0  0  0  0  0  0  0
    6.6804   -2.9412    0.0000 O   0  0  0  0  0  0  0  0  0  0  0  0
    6.3301    0.3021    0.0000 O   0  0  0  0  0  0  0  0  0  0  0  0
    4.5981    0.3021    0.0000 N   0  0  0  0  0  0  0  0  0  0  0  0
    5.4641    1.8021    0.0000 N   0  0  0  0  0  0  0  0  0  0  0  0
    4.5981    3.3021    0.0000 N   0  0  0  0  0  0  0  0  0  0  0  0
    4.0981   -2.2367    0.0000 C   0  0  1  0  0  0  0  0  0  0  0  0
    3.7891   -1.2857    0.0000 C   0  0  1  0  0  0  0  0  0  0  0  0
    4.5981   -0.6979    0.0000 C   0  0  1  0  0  0  0  0  0  0  0  0
    5.0981   -2.2367    0.0000 C   0  0  1  0  0  0  0  0  0  0  0  0
    5.6859   -3.0457    0.0000 C   0  0  0  0  0  0  0  0  0  0  0  0
    3.7320    0.8021    0.0000 C   0  0  0  0  0  0  0  0  0  0  0  0
    5.4641    0.8021    0.0000 C   0  0  0  0  0  0  0  0  0  0  0  0
    3.7320    1.8021    0.0000 C   0  0  0  0  0  0  0  0  0  0  0  0
    4.5981    2.3021    0.0000 C   0  0  0  0  0  0  0  0  0  0  0  0
    2.8660    2.3021    0.0000 C   0  0  0  0  0  0  0  0  0  0  0  0
    2.0000    1.8021    0.0000 C   0  0  0  0  0  0  0  0  0  0  0  0
    4.3796   -2.7891    0.0000 H   0  0  0  0  0  0  0  0  0  0  0  0
    3.3506   -1.7241    0.0000 H   0  0  0  0  0  0  0  0  0  0  0  0
    5.1505   -0.4164    0.0000 H   0  0  0  0  0  0  0  0  0  0  0  0
    5.7104   -2.1397    0.0000 H   0  0  0  0  0  0  0  0  0  0  0  0
    5.1286   -3.3175    0.0000 H   0  0  0  0  0  0  0  0  0  0  0  0
    5.8568   -3.6417    0.0000 H   0  0  0  0  0  0  0  0  0  0  0  0
    3.7625   -3.6121    0.0000 H   0  0  0  0  0  0  0  0  0  0  0  0
    3.1951    0.4921    0.0000 H   0  0  0  0  0  0  0  0  0  0  0  0
    7.0448   -3.4428    0.0000 H   0  0  0  0  0  0  0  0  0  0  0  0
    2.8660    2.9221    0.0000 H   0  0  0  0  0  0  0  0  0  0  0  0
    5.1350    3.6121    0.0000 H   0  0  0  0  0  0  0  0  0  0  0  0
    4.0611    3.6121    0.0000 H   0  0  0  0  0  0  0  0  0  0  0  0
    1.4631    2.1121    0.0000 H   0  0  0  0  0  0  0  0  0  0  0  0
    2.0000    1.1821    0.0000 H   0  0  0  0  0  0  0  0  0  0  0  0
 10  1  1  6  0  0  0
  2 11  1  0  0  0  0
  2 12  1  0  0  0  0
  9  3  1  1  0  0  0
  3 26  1  0  0  0  0
  4 13  1  0  0  0  0
  4 28  1  0  0  0  0
  5 15  2  0  0  0  0
 11  6  1  6  0  0  0
  6 14  1  0  0  0  0
  6 15  1  0  0  0  0
  7 15  1  0  0  0  0
  7 17  2  0  0  0  0
  8 17  1  0  0  0  0
  8 30  1  0  0  0  0
  8 31  1  0  0  0  0
  9 10  1  0  0  0  0
  9 12  1  0  0  0  0
  9 20  1  0  0  0  0
 10 11  1  0  0  0  0
 10 21  1  0  0  0  0
 11 22  1  0  0  0  0
 12 13  1  6  0  0  0
 12 23  1  0  0  0  0
 13 24  1  0  0  0  0
 13 25  1  0  0  0  0
 14 16  2  0  0  0  0
 14 27  1  0  0  0  0
 16 17  1  0  0  0  0
 16 18  1  0  0  0  0
 18 19  2  0  0  0  0
 18 29  1  0  0  0  0
 19 32  1  0  0  0  0
 19 33  1  0  0  0  0
M  END
> <PUBCHEM_COMPOUND_CID>
514803
> <PUBCHEM_COMPOUND_CANONICALIZED>
1
> <PUBCHEM_CACTVS_COMPLEXITY>
465
> <PUBCHEM_CACTVS_HBOND_ACCEPTOR>
5
> <PUBCHEM_CACTVS_HBOND_DONOR>
3
> <PUBCHEM_CACTVS_ROTATABLE_BOND>
3
> <PUBCHEM_CACTVS_SUBSKEYS>
AAADccBzOQAAAAAAAAAAAAAAAAAAASAAAAAgAAAAAAAAAAAAAAAAHwAQCAAADBThgAYBAANABgCoAiJmdACAAAEgAAAIAAAoABiJEAIAgQAOQAAHBgIDAACwMAIAAAAAAAAAAAAAAAAAAAAAAAAAAAAAAA==
> <PUBCHEM_IUPAC_OPENEYE_NAME>
4-amino-1-[(2R,3S,4R,5R)-3-fluoro-4-hydroxy-5-(hydroxymethyl)tetrahydrofuran-2-yl]-5-vinyl-pyrimidin-2-one
> <PUBCHEM_IUPAC_CAS_NAME>
4-amino-5-ethenyl-1-[(2R,3S,4R,5R)-3-fluoro-4-hydroxy-5-(hydroxymethyl)-2-oxolanyl]-2-pyrimidinone
> <PUBCHEM_IUPAC_NAME_MARKUP>
4-amino-5-ethenyl-1-[(2<I>R</I>,3<I>S</I>,4<I>R</I>,5<I>R</I>)-3-fluoro-4-hydroxy-5-(hydroxymethyl)oxolan-2-yl]pyrimidin-2-one
> <PUBCHEM_IUPAC_NAME>
4-amino-5-ethenyl-1-[(2R,3S,4R,5R)-3-fluoro-4-hydroxy-5-(hydroxymethyl)oxolan-2-yl]pyrimidin-2-one
> <PUBCHEM_IUPAC_SYSTEMATIC_NAME>
4-azanyl-5-ethenyl-1-[(2R,3S,4R,5R)-3-fluoranyl-5-(hydroxymethyl)-4-oxidanyl-oxolan-2-yl]pyrimidin-2-one
> <PUBCHEM_IUPAC_TRADITIONAL_NAME>
4-amino-1-[(2R,3S,4R,5R)-3-fluoro-4-hydroxy-5-methylol-tetrahydrofuran-2-yl]-5-vinyl-pyrimidin-2-one
> <PUBCHEM_IUPAC_INCHI>
InChI=1S/C11H14FN3O4/c1-2-5-3-15(11(18)14-9(5)13)10-7(12)8(17)6(4-16)19-10/h2-3,6-8,10,16-17H,1,4H2,(H2,13,14,18)/t6-,7+,8-,10-/m1/s1
> <PUBCHEM_IUPAC_INCHIKEY>
JGMINUKHOITSQF-IBCQBUCCSA-N
> <PUBCHEM_XLOGP3>
-0.6
> <PUBCHEM_EXACT_MASS>
271.09683410
> <PUBCHEM_MOLECULAR_FORMULA>
C11H14FN3O4
> <PUBCHEM_MOLECULAR_WEIGHT>
271.24
> <PUBCHEM_OPENEYE_CAN_SMILES>
C=CC1=CN(C(=O)N=C1N)C2C(C(C(O2)CO)O)F
> <PUBCHEM_OPENEYE_ISO_SMILES>
C=CC1=CN(C(=O)N=C1N)[C@H]2[C@H]([C@@H]([C@H](O2)CO)O)F
> <PUBCHEM_CACTVS_TPSA>
108
> <PUBCHEM_MONOISOTOPIC_WEIGHT>
271.09683410
> <PUBCHEM_TOTAL_CHARGE>
0
> <PUBCHEM_HEAVY_ATOM_COUNT>
19
> <PUBCHEM_ATOM_DEF_STEREO_COUNT>
4
> <PUBCHEM_ATOM_UDEF_STEREO_COUNT>
0
> <PUBCHEM_BOND_DEF_STEREO_COUNT>
0
> <PUBCHEM_BOND_UDEF_STEREO_COUNT>
0
> <PUBCHEM_ISOTOPIC_ATOM_COUNT>
0
> <PUBCHEM_COMPONENT_COUNT>
1
> <PUBCHEM_CACTVS_TAUTO_COUNT>
3
> <PUBCHEM_COORDINATE_TYPE>
1
5
255
> <PUBCHEM_BONDANNOTATIONS>
10  1  6
12  13  6
14  16  8
16  17  8
9  3  5
11  6  6
6  14  8
6  15  8
7  15  8
7  17  8
$$$$
