514919
  -OEChem-10302200282D
 76 76  0     1  0  0  0  0  0999 V2000
    4.2690   -4.8450    0.0000 O   0  0  0  0  0  0  0  0  0  0  0  0
    6.0010   -4.8450    0.0000 O   0  0  0  0  0  0  0  0  0  0  0  0
    4.2690   -7.8450    0.0000 O   0  0  0  0  0  0  0  0  0  0  0  0
    2.5369   -6.8450    0.0000 O   0  0  0  0  0  0  0  0  0  0  0  0
    6.0010   -6.8450    0.0000 O   0  0  0  0  0  0  0  0  0  0  0  0
    2.5369   -3.8450    0.0000 O   0  0  0  0  0  0  0  0  0  0  0  0
    8.5991   -2.3450    0.0000 O   0  0  0  0  0  0  0  0  0  0  0  0
    8.5991   -3.3450    0.0000 O   0  0  0  0  0  0  0  0  0  0  0  0
    7.7331   -4.8450    0.0000 O   0  0  0  0  0  0  0  0  0  0  0  0
    6.8671   -2.3450    0.0000 N   0  0  0  0  0  0  0  0  0  0  0  0
    4.2690   -6.8450    0.0000 C   0  0  1  0  0  0  0  0  0  0  0  0
    3.4030   -6.3450    0.0000 C   0  0  2  0  0  0  0  0  0  0  0  0
    5.1350   -6.3450    0.0000 C   0  0  2  0  0  0  0  0  0  0  0  0
    3.4030   -5.3450    0.0000 C   0  0  1  0  0  0  0  0  0  0  0  0
    5.1350   -5.3450    0.0000 C   0  0  1  0  0  0  0  0  0  0  0  0
    2.5369   -4.8450    0.0000 C   0  0  0  0  0  0  0  0  0  0  0  0
    6.0010   -3.8450    0.0000 C   0  0  0  0  0  0  0  0  0  0  0  0
   10.3312    2.6550    0.0000 C   0  0  0  0  0  0  0  0  0  0  0  0
    9.4651    2.1550    0.0000 C   0  0  0  0  0  0  0  0  0  0  0  0
   10.3312    3.6550    0.0000 C   0  0  0  0  0  0  0  0  0  0  0  0
    9.4651    1.1550    0.0000 C   0  0  0  0  0  0  0  0  0  0  0  0
   11.1972    4.1550    0.0000 C   0  0  0  0  0  0  0  0  0  0  0  0
    6.8671   -3.3450    0.0000 C   0  0  1  0  0  0  0  0  0  0  0  0
    8.5991    0.6550    0.0000 C   0  0  0  0  0  0  0  0  0  0  0  0
   11.1972    5.1550    0.0000 C   0  0  0  0  0  0  0  0  0  0  0  0
    8.5991   -0.3450    0.0000 C   0  0  0  0  0  0  0  0  0  0  0  0
   12.0632    5.6550    0.0000 C   0  0  0  0  0  0  0  0  0  0  0  0
    7.7331   -0.8450    0.0000 C   0  0  0  0  0  0  0  0  0  0  0  0
   12.0632    6.6550    0.0000 C   0  0  0  0  0  0  0  0  0  0  0  0
    7.7331   -1.8450    0.0000 C   0  0  0  0  0  0  0  0  0  0  0  0
    7.7331   -3.8450    0.0000 C   0  0  0  0  0  0  0  0  0  0  0  0
   12.9292    7.1550    0.0000 C   0  0  0  0  0  0  0  0  0  0  0  0
   12.9292    8.1550    0.0000 C   0  0  0  0  0  0  0  0  0  0  0  0
    3.7320   -7.1550    0.0000 H   0  0  0  0  0  0  0  0  0  0  0  0
    3.4030   -6.9650    0.0000 H   0  0  0  0  0  0  0  0  0  0  0  0
    5.1350   -6.9650    0.0000 H   0  0  0  0  0  0  0  0  0  0  0  0
    3.4030   -4.7250    0.0000 H   0  0  0  0  0  0  0  0  0  0  0  0
    5.1350   -4.7250    0.0000 H   0  0  0  0  0  0  0  0  0  0  0  0
    1.9264   -4.7373    0.0000 H   0  0  0  0  0  0  0  0  0  0  0  0
    2.3249   -5.4276    0.0000 H   0  0  0  0  0  0  0  0  0  0  0  0
    3.7320   -8.1550    0.0000 H   0  0  0  0  0  0  0  0  0  0  0  0
    2.0000   -6.5350    0.0000 H   0  0  0  0  0  0  0  0  0  0  0  0
    5.7890   -3.2624    0.0000 H   0  0  0  0  0  0  0  0  0  0  0  0
    5.3905   -3.9527    0.0000 H   0  0  0  0  0  0  0  0  0  0  0  0
    6.5380   -6.5350    0.0000 H   0  0  0  0  0  0  0  0  0  0  0  0
   10.5432    2.0724    0.0000 H   0  0  0  0  0  0  0  0  0  0  0  0
   10.9417    2.7627    0.0000 H   0  0  0  0  0  0  0  0  0  0  0  0
    9.2531    2.7376    0.0000 H   0  0  0  0  0  0  0  0  0  0  0  0
    8.8546    2.0473    0.0000 H   0  0  0  0  0  0  0  0  0  0  0  0
   10.1191    4.2376    0.0000 H   0  0  0  0  0  0  0  0  0  0  0  0
    9.7206    3.5473    0.0000 H   0  0  0  0  0  0  0  0  0  0  0  0
    9.6772    0.5724    0.0000 H   0  0  0  0  0  0  0  0  0  0  0  0
   10.0757    1.2627    0.0000 H   0  0  0  0  0  0  0  0  0  0  0  0
   11.4092    3.5724    0.0000 H   0  0  0  0  0  0  0  0  0  0  0  0
   11.8078    4.2627    0.0000 H   0  0  0  0  0  0  0  0  0  0  0  0
    7.4040   -3.0350    0.0000 H   0  0  0  0  0  0  0  0  0  0  0  0
    8.3871    1.2376    0.0000 H   0  0  0  0  0  0  0  0  0  0  0  0
    7.9885    0.5473    0.0000 H   0  0  0  0  0  0  0  0  0  0  0  0
   10.9851    5.7376    0.0000 H   0  0  0  0  0  0  0  0  0  0  0  0
   10.5866    5.0473    0.0000 H   0  0  0  0  0  0  0  0  0  0  0  0
    8.8112   -0.9276    0.0000 H   0  0  0  0  0  0  0  0  0  0  0  0
    9.2097   -0.2373    0.0000 H   0  0  0  0  0  0  0  0  0  0  0  0
   12.2753    5.0724    0.0000 H   0  0  0  0  0  0  0  0  0  0  0  0
   12.6738    5.7627    0.0000 H   0  0  0  0  0  0  0  0  0  0  0  0
    7.5210   -0.2624    0.0000 H   0  0  0  0  0  0  0  0  0  0  0  0
    7.1225   -0.9527    0.0000 H   0  0  0  0  0  0  0  0  0  0  0  0
    2.0000   -3.5350    0.0000 H   0  0  0  0  0  0  0  0  0  0  0  0
    6.3301   -2.0350    0.0000 H   0  0  0  0  0  0  0  0  0  0  0  0
   11.8512    7.2376    0.0000 H   0  0  0  0  0  0  0  0  0  0  0  0
   11.4526    6.5473    0.0000 H   0  0  0  0  0  0  0  0  0  0  0  0
   13.1413    6.5724    0.0000 H   0  0  0  0  0  0  0  0  0  0  0  0
   13.5398    7.2627    0.0000 H   0  0  0  0  0  0  0  0  0  0  0  0
   13.5492    8.1550    0.0000 H   0  0  0  0  0  0  0  0  0  0  0  0
   12.9292    8.7750    0.0000 H   0  0  0  0  0  0  0  0  0  0  0  0
   12.3092    8.1550    0.0000 H   0  0  0  0  0  0  0  0  0  0  0  0
    9.1360   -3.6550    0.0000 H   0  0  0  0  0  0  0  0  0  0  0  0
  1 14  1  0  0  0  0
  1 15  1  0  0  0  0
 15  2  1  1  0  0  0
  2 17  1  0  0  0  0
 11  3  1  1  0  0  0
  3 41  1  0  0  0  0
 12  4  1  1  0  0  0
  4 42  1  0  0  0  0
 13  5  1  6  0  0  0
  5 45  1  0  0  0  0
  6 16  1  0  0  0  0
  6 67  1  0  0  0  0
  7 30  2  0  0  0  0
  8 31  1  0  0  0  0
  8 76  1  0  0  0  0
  9 31  2  0  0  0  0
 23 10  1  6  0  0  0
 10 30  1  0  0  0  0
 10 68  1  0  0  0  0
 11 12  1  0  0  0  0
 11 13  1  0  0  0  0
 11 34  1  0  0  0  0
 12 14  1  0  0  0  0
 12 35  1  0  0  0  0
 13 15  1  0  0  0  0
 13 36  1  0  0  0  0
 14 16  1  1  0  0  0
 14 37  1  0  0  0  0
 15 38  1  0  0  0  0
 16 39  1  0  0  0  0
 16 40  1  0  0  0  0
 17 23  1  0  0  0  0
 17 43  1  0  0  0  0
 17 44  1  0  0  0  0
 18 19  1  0  0  0  0
 18 20  1  0  0  0  0
 18 46  1  0  0  0  0
 18 47  1  0  0  0  0
 19 21  1  0  0  0  0
 19 48  1  0  0  0  0
 19 49  1  0  0  0  0
 20 22  1  0  0  0  0
 20 50  1  0  0  0  0
 20 51  1  0  0  0  0
 21 24  1  0  0  0  0
 21 52  1  0  0  0  0
 21 53  1  0  0  0  0
 22 25  1  0  0  0  0
 22 54  1  0  0  0  0
 22 55  1  0  0  0  0
 23 31  1  0  0  0  0
 23 56  1  0  0  0  0
 24 26  1  0  0  0  0
 24 57  1  0  0  0  0
 24 58  1  0  0  0  0
 25 27  1  0  0  0  0
 25 59  1  0  0  0  0
 25 60  1  0  0  0  0
 26 28  1  0  0  0  0
 26 61  1  0  0  0  0
 26 62  1  0  0  0  0
 27 29  1  0  0  0  0
 27 63  1  0  0  0  0
 27 64  1  0  0  0  0
 28 30  1  0  0  0  0
 28 65  1  0  0  0  0
 28 66  1  0  0  0  0
 29 32  1  0  0  0  0
 29 69  1  0  0  0  0
 29 70  1  0  0  0  0
 32 33  1  0  0  0  0
 32 71  1  0  0  0  0
 32 72  1  0  0  0  0
 33 73  1  0  0  0  0
 33 74  1  0  0  0  0
 33 75  1  0  0  0  0
M  END
> <PUBCHEM_COMPOUND_CID>
514919
> <PUBCHEM_COMPOUND_CANONICALIZED>
1
> <PUBCHEM_CACTVS_COMPLEXITY>
548
> <PUBCHEM_CACTVS_HBOND_ACCEPTOR>
9
> <PUBCHEM_CACTVS_HBOND_DONOR>
6
> <PUBCHEM_CACTVS_ROTATABLE_BOND>
18
> <PUBCHEM_CACTVS_SUBSKEYS>
AAADcfB6PAAAAAAAAAAAAAAAAAAAAAAAAAAkAAAAAAAAAAAAAAAAHgAQCAAACDzxgAcCCALABgAIAAGQGAAAAAAAAAAAAIGIAAATEBYAgCAnQAAFNgCXAAHY6IyAAAAAAAAAAAAAAAAAAAAAAAAAAAAAAA==
> <PUBCHEM_IUPAC_OPENEYE_NAME>
(2S)-2-(tetradecanoylamino)-3-[(2R,3R,4S,5R,6R)-3,4,5-trihydroxy-6-(hydroxymethyl)tetrahydropyran-2-yl]oxy-propanoic acid
> <PUBCHEM_IUPAC_CAS_NAME>
(2S)-2-(1-oxotetradecylamino)-3-[[(2R,3R,4S,5R,6R)-3,4,5-trihydroxy-6-(hydroxymethyl)-2-oxanyl]oxy]propanoic acid
> <PUBCHEM_IUPAC_NAME_MARKUP>
(2<I>S</I>)-2-(tetradecanoylamino)-3-[(2<I>R</I>,3<I>R</I>,4<I>S</I>,5<I>R</I>,6<I>R</I>)-3,4,5-trihydroxy-6-(hydroxymethyl)oxan-2-yl]oxypropanoic acid
> <PUBCHEM_IUPAC_NAME>
(2S)-2-(tetradecanoylamino)-3-[(2R,3R,4S,5R,6R)-3,4,5-trihydroxy-6-(hydroxymethyl)oxan-2-yl]oxypropanoic acid
> <PUBCHEM_IUPAC_SYSTEMATIC_NAME>
(2S)-3-[(2R,3R,4S,5R,6R)-6-(hydroxymethyl)-3,4,5-tris(oxidanyl)oxan-2-yl]oxy-2-(tetradecanoylamino)propanoic acid
> <PUBCHEM_IUPAC_TRADITIONAL_NAME>
(2S)-2-(tetradecanoylamino)-3-[(2R,3R,4S,5R,6R)-3,4,5-trihydroxy-6-methylol-tetrahydropyran-2-yl]oxy-propionic acid
> <PUBCHEM_IUPAC_INCHI>
InChI=1S/C23H43NO9/c1-2-3-4-5-6-7-8-9-10-11-12-13-18(26)24-16(22(30)31)15-32-23-21(29)20(28)19(27)17(14-25)33-23/h16-17,19-21,23,25,27-29H,2-15H2,1H3,(H,24,26)(H,30,31)/t16-,17+,19-,20-,21+,23+/m0/s1
> <PUBCHEM_IUPAC_INCHIKEY>
OWCLTFSGQKRODN-GYWAETMMSA-N
> <PUBCHEM_XLOGP3_AA>
3.1
> <PUBCHEM_EXACT_MASS>
477.29378195
> <PUBCHEM_MOLECULAR_FORMULA>
C23H43NO9
> <PUBCHEM_MOLECULAR_WEIGHT>
477.6
> <PUBCHEM_OPENEYE_CAN_SMILES>
CCCCCCCCCCCCCC(=O)NC(COC1C(C(C(C(O1)CO)O)O)O)C(=O)O
> <PUBCHEM_OPENEYE_ISO_SMILES>
CCCCCCCCCCCCCC(=O)N[C@@H](CO[C@H]1[C@@H]([C@H]([C@H]([C@H](O1)CO)O)O)O)C(=O)O
> <PUBCHEM_CACTVS_TPSA>
166
> <PUBCHEM_MONOISOTOPIC_WEIGHT>
477.29378195
> <PUBCHEM_TOTAL_CHARGE>
0
> <PUBCHEM_HEAVY_ATOM_COUNT>
33
> <PUBCHEM_ATOM_DEF_STEREO_COUNT>
6
> <PUBCHEM_ATOM_UDEF_STEREO_COUNT>
0
> <PUBCHEM_BOND_DEF_STEREO_COUNT>
0
> <PUBCHEM_BOND_UDEF_STEREO_COUNT>
0
> <PUBCHEM_ISOTOPIC_ATOM_COUNT>
0
> <PUBCHEM_COMPONENT_COUNT>
1
> <PUBCHEM_CACTVS_TAUTO_COUNT>
-1
> <PUBCHEM_COORDINATE_TYPE>
1
5
255
> <PUBCHEM_BONDANNOTATIONS>
23  10  6
14  16  5
15  2  5
11  3  5
12  4  5
13  5  6
$$$$
