514979
  -OEChem-10302200282D
 70 73  0     1  0  0  0  0  0999 V2000
   12.3923   -0.4239    0.0000 O   0  0  0  0  0  0  0  0  0  0  0  0
   10.4385    3.4239    0.0000 O   0  0  0  0  0  0  0  0  0  0  0  0
    7.1962   -0.4239    0.0000 N   0  0  0  0  0  0  0  0  0  0  0  0
   10.6603   -0.4239    0.0000 N   0  0  0  0  0  0  0  0  0  0  0  0
   12.0263    2.6149    0.0000 N   0  0  0  0  0  0  0  0  0  0  0  0
    5.4641   -1.4239    0.0000 C   0  0  0  0  0  0  0  0  0  0  0  0
    5.4641   -0.4239    0.0000 C   0  0  0  0  0  0  0  0  0  0  0  0
    6.3301   -1.9239    0.0000 C   0  0  0  0  0  0  0  0  0  0  0  0
    6.3301    0.0761    0.0000 C   0  0  0  0  0  0  0  0  0  0  0  0
    7.1962   -1.4239    0.0000 C   0  0  0  0  0  0  0  0  0  0  0  0
    4.5981   -1.9239    0.0000 C   0  0  0  0  0  0  0  0  0  0  0  0
    8.0622    0.0761    0.0000 C   0  0  0  0  0  0  0  0  0  0  0  0
    8.9282   -0.4239    0.0000 C   0  0  0  0  0  0  0  0  0  0  0  0
   11.5263    1.0761    0.0000 C   0  0  3  0  0  0  0  0  0  0  0  0
    9.7942    0.0761    0.0000 C   0  0  0  0  0  0  0  0  0  0  0  0
    3.7320   -1.4239    0.0000 C   0  0  0  0  0  0  0  0  0  0  0  0
   12.3353    1.6639    0.0000 C   0  0  0  0  0  0  0  0  0  0  0  0
   10.7173    1.6639    0.0000 C   0  0  0  0  0  0  0  0  0  0  0  0
   11.5263    0.0761    0.0000 C   0  0  0  0  0  0  0  0  0  0  0  0
   11.0263    2.6149    0.0000 C   0  0  0  0  0  0  0  0  0  0  0  0
   10.6603   -1.4239    0.0000 C   0  0  0  0  0  0  0  0  0  0  0  0
    2.8660   -1.9239    0.0000 C   0  0  0  0  0  0  0  0  0  0  0  0
    3.7320   -0.4239    0.0000 C   0  0  0  0  0  0  0  0  0  0  0  0
   12.6141    3.4239    0.0000 C   0  0  0  0  0  0  0  0  0  0  0  0
    9.7942   -1.9239    0.0000 C   0  0  0  0  0  0  0  0  0  0  0  0
    2.0000   -1.4239    0.0000 C   0  0  0  0  0  0  0  0  0  0  0  0
    2.8660    0.0761    0.0000 C   0  0  0  0  0  0  0  0  0  0  0  0
   11.5263   -1.9239    0.0000 C   0  0  0  0  0  0  0  0  0  0  0  0
    2.0000   -0.4239    0.0000 C   0  0  0  0  0  0  0  0  0  0  0  0
    9.7942   -2.9239    0.0000 C   0  0  0  0  0  0  0  0  0  0  0  0
    8.9282   -1.4239    0.0000 C   0  0  0  0  0  0  0  0  0  0  0  0
   11.5263   -2.9239    0.0000 C   0  0  0  0  0  0  0  0  0  0  0  0
   10.6603   -3.4239    0.0000 C   0  0  0  0  0  0  0  0  0  0  0  0
    5.4641   -2.0439    0.0000 H   0  0  0  0  0  0  0  0  0  0  0  0
    5.2520    0.1587    0.0000 H   0  0  0  0  0  0  0  0  0  0  0  0
    4.8535   -0.5316    0.0000 H   0  0  0  0  0  0  0  0  0  0  0  0
    5.9316   -2.3989    0.0000 H   0  0  0  0  0  0  0  0  0  0  0  0
    6.7287   -2.3989    0.0000 H   0  0  0  0  0  0  0  0  0  0  0  0
    6.7287    0.5510    0.0000 H   0  0  0  0  0  0  0  0  0  0  0  0
    5.9316    0.5510    0.0000 H   0  0  0  0  0  0  0  0  0  0  0  0
    7.4082   -2.0065    0.0000 H   0  0  0  0  0  0  0  0  0  0  0  0
    7.8067   -1.3163    0.0000 H   0  0  0  0  0  0  0  0  0  0  0  0
    4.1996   -2.3989    0.0000 H   0  0  0  0  0  0  0  0  0  0  0  0
    4.9966   -2.3989    0.0000 H   0  0  0  0  0  0  0  0  0  0  0  0
    8.4607    0.5510    0.0000 H   0  0  0  0  0  0  0  0  0  0  0  0
    7.6636    0.5510    0.0000 H   0  0  0  0  0  0  0  0  0  0  0  0
    8.5297   -0.8989    0.0000 H   0  0  0  0  0  0  0  0  0  0  0  0
    9.3267   -0.8989    0.0000 H   0  0  0  0  0  0  0  0  0  0  0  0
   12.0787    0.7946    0.0000 H   0  0  0  0  0  0  0  0  0  0  0  0
   10.1928    0.5510    0.0000 H   0  0  0  0  0  0  0  0  0  0  0  0
    9.3957    0.5510    0.0000 H   0  0  0  0  0  0  0  0  0  0  0  0
   12.6453    1.1269    0.0000 H   0  0  0  0  0  0  0  0  0  0  0  0
   12.9017    1.9160    0.0000 H   0  0  0  0  0  0  0  0  0  0  0  0
   10.1509    1.9160    0.0000 H   0  0  0  0  0  0  0  0  0  0  0  0
   10.4073    1.1269    0.0000 H   0  0  0  0  0  0  0  0  0  0  0  0
    2.8660   -2.5439    0.0000 H   0  0  0  0  0  0  0  0  0  0  0  0
    4.2690   -0.1139    0.0000 H   0  0  0  0  0  0  0  0  0  0  0  0
   13.1157    3.0595    0.0000 H   0  0  0  0  0  0  0  0  0  0  0  0
   12.9785    3.9255    0.0000 H   0  0  0  0  0  0  0  0  0  0  0  0
   12.1125    3.7884    0.0000 H   0  0  0  0  0  0  0  0  0  0  0  0
   12.0632   -1.6139    0.0000 H   0  0  0  0  0  0  0  0  0  0  0  0
    1.4631   -1.7339    0.0000 H   0  0  0  0  0  0  0  0  0  0  0  0
    2.8660    0.6961    0.0000 H   0  0  0  0  0  0  0  0  0  0  0  0
    1.4631   -0.1139    0.0000 H   0  0  0  0  0  0  0  0  0  0  0  0
    9.2573   -3.2339    0.0000 H   0  0  0  0  0  0  0  0  0  0  0  0
    9.2382   -0.8870    0.0000 H   0  0  0  0  0  0  0  0  0  0  0  0
    8.3913   -1.1139    0.0000 H   0  0  0  0  0  0  0  0  0  0  0  0
    8.6182   -1.9609    0.0000 H   0  0  0  0  0  0  0  0  0  0  0  0
   12.0632   -3.2339    0.0000 H   0  0  0  0  0  0  0  0  0  0  0  0
   10.6603   -4.0439    0.0000 H   0  0  0  0  0  0  0  0  0  0  0  0
  1 19  2  0  0  0  0
  2 20  2  0  0  0  0
  3  9  1  0  0  0  0
  3 10  1  0  0  0  0
  3 12  1  0  0  0  0
  4 15  1  0  0  0  0
  4 19  1  0  0  0  0
  4 21  1  0  0  0  0
  5 17  1  0  0  0  0
  5 20  1  0  0  0  0
  5 24  1  0  0  0  0
  6  7  1  0  0  0  0
  6  8  1  0  0  0  0
  6 11  1  0  0  0  0
  6 34  1  0  0  0  0
  7  9  1  0  0  0  0
  7 35  1  0  0  0  0
  7 36  1  0  0  0  0
  8 10  1  0  0  0  0
  8 37  1  0  0  0  0
  8 38  1  0  0  0  0
  9 39  1  0  0  0  0
  9 40  1  0  0  0  0
 10 41  1  0  0  0  0
 10 42  1  0  0  0  0
 11 16  1  0  0  0  0
 11 43  1  0  0  0  0
 11 44  1  0  0  0  0
 12 13  1  0  0  0  0
 12 45  1  0  0  0  0
 12 46  1  0  0  0  0
 13 15  1  0  0  0  0
 13 47  1  0  0  0  0
 13 48  1  0  0  0  0
 14 17  1  0  0  0  0
 14 18  1  0  0  0  0
 14 19  1  0  0  0  0
 14 49  1  0  0  0  0
 15 50  1  0  0  0  0
 15 51  1  0  0  0  0
 16 22  2  0  0  0  0
 16 23  1  0  0  0  0
 17 52  1  0  0  0  0
 17 53  1  0  0  0  0
 18 20  1  0  0  0  0
 18 54  1  0  0  0  0
 18 55  1  0  0  0  0
 21 25  1  0  0  0  0
 21 28  2  0  0  0  0
 22 26  1  0  0  0  0
 22 56  1  0  0  0  0
 23 27  2  0  0  0  0
 23 57  1  0  0  0  0
 24 58  1  0  0  0  0
 24 59  1  0  0  0  0
 24 60  1  0  0  0  0
 25 30  2  0  0  0  0
 25 31  1  0  0  0  0
 26 29  2  0  0  0  0
 26 62  1  0  0  0  0
 27 29  1  0  0  0  0
 27 63  1  0  0  0  0
 28 32  1  0  0  0  0
 28 61  1  0  0  0  0
 29 64  1  0  0  0  0
 30 33  1  0  0  0  0
 30 65  1  0  0  0  0
 31 66  1  0  0  0  0
 31 67  1  0  0  0  0
 31 68  1  0  0  0  0
 32 33  2  0  0  0  0
 32 69  1  0  0  0  0
 33 70  1  0  0  0  0
M  END
> <PUBCHEM_COMPOUND_CID>
514979
> <PUBCHEM_COMPOUND_CANONICALIZED>
1
> <PUBCHEM_CACTVS_COMPLEXITY>
639
> <PUBCHEM_CACTVS_HBOND_ACCEPTOR>
3
> <PUBCHEM_CACTVS_HBOND_DONOR>
0
> <PUBCHEM_CACTVS_ROTATABLE_BOND>
8
> <PUBCHEM_CACTVS_SUBSKEYS>
AAADcfB7MAAAAAAAAAAAAAAAAAAAAWAAAAA8YIAAAAAAAAABQAAAHgAAAAAADQjBmAQywIMAAACIAiVSUACCAAAhAgAIiAEIZIgIIDrA0ZGEIAhghgDIyAcVgMAOAAAAAAACAAAAAAAAAAQAAAAAAAAAAA==
> <PUBCHEM_IUPAC_OPENEYE_NAME>
N-[3-(4-benzyl-1-piperidyl)propyl]-1-methyl-N-(o-tolyl)-5-oxo-pyrrolidine-3-carboxamide
> <PUBCHEM_IUPAC_CAS_NAME>
1-methyl-N-(2-methylphenyl)-5-oxo-N-[3-[4-(phenylmethyl)-1-piperidinyl]propyl]-3-pyrrolidinecarboxamide
> <PUBCHEM_IUPAC_NAME_MARKUP>
<I>N</I>-[3-(4-benzylpiperidin-1-yl)propyl]-1-methyl-<I>N</I>-(2-methylphenyl)-5-oxopyrrolidine-3-carboxamide
> <PUBCHEM_IUPAC_NAME>
N-[3-(4-benzylpiperidin-1-yl)propyl]-1-methyl-N-(2-methylphenyl)-5-oxopyrrolidine-3-carboxamide
> <PUBCHEM_IUPAC_SYSTEMATIC_NAME>
1-methyl-N-(2-methylphenyl)-5-oxidanylidene-N-[3-[4-(phenylmethyl)piperidin-1-yl]propyl]pyrrolidine-3-carboxamide
> <PUBCHEM_IUPAC_TRADITIONAL_NAME>
N-[3-(4-benzylpiperidino)propyl]-5-keto-1-methyl-N-(o-tolyl)pyrrolidine-3-carboxamide
> <PUBCHEM_IUPAC_INCHI>
InChI=1S/C28H37N3O2/c1-22-9-6-7-12-26(22)31(28(33)25-20-27(32)29(2)21-25)16-8-15-30-17-13-24(14-18-30)19-23-10-4-3-5-11-23/h3-7,9-12,24-25H,8,13-21H2,1-2H3
> <PUBCHEM_IUPAC_INCHIKEY>
STLJQZNBGWHMMS-UHFFFAOYSA-N
> <PUBCHEM_XLOGP3_AA>
3.9
> <PUBCHEM_EXACT_MASS>
447.28857743
> <PUBCHEM_MOLECULAR_FORMULA>
C28H37N3O2
> <PUBCHEM_MOLECULAR_WEIGHT>
447.6
> <PUBCHEM_OPENEYE_CAN_SMILES>
CC1=CC=CC=C1N(CCCN2CCC(CC2)CC3=CC=CC=C3)C(=O)C4CC(=O)N(C4)C
> <PUBCHEM_OPENEYE_ISO_SMILES>
CC1=CC=CC=C1N(CCCN2CCC(CC2)CC3=CC=CC=C3)C(=O)C4CC(=O)N(C4)C
> <PUBCHEM_CACTVS_TPSA>
43.9
> <PUBCHEM_MONOISOTOPIC_WEIGHT>
447.28857743
> <PUBCHEM_TOTAL_CHARGE>
0
> <PUBCHEM_HEAVY_ATOM_COUNT>
33
> <PUBCHEM_ATOM_DEF_STEREO_COUNT>
0
> <PUBCHEM_ATOM_UDEF_STEREO_COUNT>
1
> <PUBCHEM_BOND_DEF_STEREO_COUNT>
0
> <PUBCHEM_BOND_UDEF_STEREO_COUNT>
0
> <PUBCHEM_ISOTOPIC_ATOM_COUNT>
0
> <PUBCHEM_COMPONENT_COUNT>
1
> <PUBCHEM_CACTVS_TAUTO_COUNT>
-1
> <PUBCHEM_COORDINATE_TYPE>
1
5
255
> <PUBCHEM_BONDANNOTATIONS>
14  19  3
16  22  8
16  23  8
21  25  8
21  28  8
22  26  8
23  27  8
25  30  8
26  29  8
27  29  8
28  32  8
30  33  8
32  33  8
$$$$
