514990
  -OEChem-10302200282D
 70 73  0     1  0  0  0  0  0999 V2000
    9.4282   -3.8569    0.0000 F   0  0  0  0  0  0  0  0  0  0  0  0
    8.0622   -3.4909    0.0000 F   0  0  0  0  0  0  0  0  0  0  0  0
    8.4282   -2.1249    0.0000 F   0  0  0  0  0  0  0  0  0  0  0  0
   12.3923    0.0091    0.0000 O   0  0  0  0  0  0  0  0  0  0  0  0
   10.4385    3.8569    0.0000 O   0  0  0  0  0  0  0  0  0  0  0  0
    7.1962    0.0091    0.0000 N   0  0  0  0  0  0  0  0  0  0  0  0
   10.6603    0.0091    0.0000 N   0  0  0  0  0  0  0  0  0  0  0  0
   12.0263    3.0479    0.0000 N   0  0  0  0  0  0  0  0  0  0  0  0
    5.4641   -0.9909    0.0000 C   0  0  0  0  0  0  0  0  0  0  0  0
    5.4641    0.0091    0.0000 C   0  0  0  0  0  0  0  0  0  0  0  0
    6.3301   -1.4909    0.0000 C   0  0  0  0  0  0  0  0  0  0  0  0
    6.3301    0.5091    0.0000 C   0  0  0  0  0  0  0  0  0  0  0  0
    7.1962   -0.9909    0.0000 C   0  0  0  0  0  0  0  0  0  0  0  0
    4.5981   -1.4909    0.0000 C   0  0  0  0  0  0  0  0  0  0  0  0
    8.0622    0.5091    0.0000 C   0  0  0  0  0  0  0  0  0  0  0  0
    8.9282    0.0091    0.0000 C   0  0  0  0  0  0  0  0  0  0  0  0
   11.5263    1.5091    0.0000 C   0  0  3  0  0  0  0  0  0  0  0  0
    9.7942    0.5091    0.0000 C   0  0  0  0  0  0  0  0  0  0  0  0
    3.7320   -0.9909    0.0000 C   0  0  0  0  0  0  0  0  0  0  0  0
   12.3353    2.0969    0.0000 C   0  0  0  0  0  0  0  0  0  0  0  0
   10.7173    2.0969    0.0000 C   0  0  0  0  0  0  0  0  0  0  0  0
   11.5263    0.5091    0.0000 C   0  0  0  0  0  0  0  0  0  0  0  0
   11.0263    3.0479    0.0000 C   0  0  0  0  0  0  0  0  0  0  0  0
   10.6603   -0.9909    0.0000 C   0  0  0  0  0  0  0  0  0  0  0  0
    2.8660   -1.4909    0.0000 C   0  0  0  0  0  0  0  0  0  0  0  0
    3.7320    0.0091    0.0000 C   0  0  0  0  0  0  0  0  0  0  0  0
   12.6141    3.8569    0.0000 C   0  0  0  0  0  0  0  0  0  0  0  0
    2.0000   -0.9909    0.0000 C   0  0  0  0  0  0  0  0  0  0  0  0
    2.8660    0.5091    0.0000 C   0  0  0  0  0  0  0  0  0  0  0  0
    9.7942   -1.4909    0.0000 C   0  0  0  0  0  0  0  0  0  0  0  0
   11.5263   -1.4909    0.0000 C   0  0  0  0  0  0  0  0  0  0  0  0
    2.0000    0.0091    0.0000 C   0  0  0  0  0  0  0  0  0  0  0  0
    9.7942   -2.4909    0.0000 C   0  0  0  0  0  0  0  0  0  0  0  0
   11.5263   -2.4909    0.0000 C   0  0  0  0  0  0  0  0  0  0  0  0
   10.6603   -2.9909    0.0000 C   0  0  0  0  0  0  0  0  0  0  0  0
    8.9282   -2.9909    0.0000 C   0  0  0  0  0  0  0  0  0  0  0  0
    4.9272   -0.6809    0.0000 H   0  0  0  0  0  0  0  0  0  0  0  0
    5.2520    0.5917    0.0000 H   0  0  0  0  0  0  0  0  0  0  0  0
    4.8535   -0.0986    0.0000 H   0  0  0  0  0  0  0  0  0  0  0  0
    5.9316   -1.9659    0.0000 H   0  0  0  0  0  0  0  0  0  0  0  0
    6.7287   -1.9659    0.0000 H   0  0  0  0  0  0  0  0  0  0  0  0
    6.7287    0.9840    0.0000 H   0  0  0  0  0  0  0  0  0  0  0  0
    5.9316    0.9840    0.0000 H   0  0  0  0  0  0  0  0  0  0  0  0
    7.4082   -1.5735    0.0000 H   0  0  0  0  0  0  0  0  0  0  0  0
    7.8067   -0.8833    0.0000 H   0  0  0  0  0  0  0  0  0  0  0  0
    4.1996   -1.9659    0.0000 H   0  0  0  0  0  0  0  0  0  0  0  0
    4.9966   -1.9659    0.0000 H   0  0  0  0  0  0  0  0  0  0  0  0
    8.4607    0.9840    0.0000 H   0  0  0  0  0  0  0  0  0  0  0  0
    7.6636    0.9840    0.0000 H   0  0  0  0  0  0  0  0  0  0  0  0
    8.5297   -0.4659    0.0000 H   0  0  0  0  0  0  0  0  0  0  0  0
    9.3267   -0.4659    0.0000 H   0  0  0  0  0  0  0  0  0  0  0  0
   12.0787    1.2276    0.0000 H   0  0  0  0  0  0  0  0  0  0  0  0
   10.1928    0.9840    0.0000 H   0  0  0  0  0  0  0  0  0  0  0  0
    9.3957    0.9840    0.0000 H   0  0  0  0  0  0  0  0  0  0  0  0
   12.6453    1.5599    0.0000 H   0  0  0  0  0  0  0  0  0  0  0  0
   12.9017    2.3490    0.0000 H   0  0  0  0  0  0  0  0  0  0  0  0
   10.1509    2.3490    0.0000 H   0  0  0  0  0  0  0  0  0  0  0  0
   10.4073    1.5599    0.0000 H   0  0  0  0  0  0  0  0  0  0  0  0
    2.8660   -2.1109    0.0000 H   0  0  0  0  0  0  0  0  0  0  0  0
    4.2690    0.3191    0.0000 H   0  0  0  0  0  0  0  0  0  0  0  0
   13.1157    3.4925    0.0000 H   0  0  0  0  0  0  0  0  0  0  0  0
   12.9785    4.3585    0.0000 H   0  0  0  0  0  0  0  0  0  0  0  0
   12.1125    4.2214    0.0000 H   0  0  0  0  0  0  0  0  0  0  0  0
    1.4631   -1.3009    0.0000 H   0  0  0  0  0  0  0  0  0  0  0  0
    2.8660    1.1291    0.0000 H   0  0  0  0  0  0  0  0  0  0  0  0
    9.2573   -1.1809    0.0000 H   0  0  0  0  0  0  0  0  0  0  0  0
   12.0632   -1.1809    0.0000 H   0  0  0  0  0  0  0  0  0  0  0  0
    1.4631    0.3191    0.0000 H   0  0  0  0  0  0  0  0  0  0  0  0
   12.0632   -2.8009    0.0000 H   0  0  0  0  0  0  0  0  0  0  0  0
   10.6603   -3.6109    0.0000 H   0  0  0  0  0  0  0  0  0  0  0  0
  1 36  1  0  0  0  0
  2 36  1  0  0  0  0
  3 36  1  0  0  0  0
  4 22  2  0  0  0  0
  5 23  2  0  0  0  0
  6 12  1  0  0  0  0
  6 13  1  0  0  0  0
  6 15  1  0  0  0  0
  7 18  1  0  0  0  0
  7 22  1  0  0  0  0
  7 24  1  0  0  0  0
  8 20  1  0  0  0  0
  8 23  1  0  0  0  0
  8 27  1  0  0  0  0
  9 10  1  0  0  0  0
  9 11  1  0  0  0  0
  9 14  1  0  0  0  0
  9 37  1  0  0  0  0
 10 12  1  0  0  0  0
 10 38  1  0  0  0  0
 10 39  1  0  0  0  0
 11 13  1  0  0  0  0
 11 40  1  0  0  0  0
 11 41  1  0  0  0  0
 12 42  1  0  0  0  0
 12 43  1  0  0  0  0
 13 44  1  0  0  0  0
 13 45  1  0  0  0  0
 14 19  1  0  0  0  0
 14 46  1  0  0  0  0
 14 47  1  0  0  0  0
 15 16  1  0  0  0  0
 15 48  1  0  0  0  0
 15 49  1  0  0  0  0
 16 18  1  0  0  0  0
 16 50  1  0  0  0  0
 16 51  1  0  0  0  0
 17 20  1  0  0  0  0
 17 21  1  0  0  0  0
 17 22  1  0  0  0  0
 17 52  1  0  0  0  0
 18 53  1  0  0  0  0
 18 54  1  0  0  0  0
 19 25  2  0  0  0  0
 19 26  1  0  0  0  0
 20 55  1  0  0  0  0
 20 56  1  0  0  0  0
 21 23  1  0  0  0  0
 21 57  1  0  0  0  0
 21 58  1  0  0  0  0
 24 30  1  0  0  0  0
 24 31  2  0  0  0  0
 25 28  1  0  0  0  0
 25 59  1  0  0  0  0
 26 29  2  0  0  0  0
 26 60  1  0  0  0  0
 27 61  1  0  0  0  0
 27 62  1  0  0  0  0
 27 63  1  0  0  0  0
 28 32  2  0  0  0  0
 28 64  1  0  0  0  0
 29 32  1  0  0  0  0
 29 65  1  0  0  0  0
 30 33  2  0  0  0  0
 30 66  1  0  0  0  0
 31 34  1  0  0  0  0
 31 67  1  0  0  0  0
 32 68  1  0  0  0  0
 33 35  1  0  0  0  0
 33 36  1  0  0  0  0
 34 35  2  0  0  0  0
 34 69  1  0  0  0  0
 35 70  1  0  0  0  0
M  END
> <PUBCHEM_COMPOUND_CID>
514990
> <PUBCHEM_COMPOUND_CANONICALIZED>
1
> <PUBCHEM_CACTVS_COMPLEXITY>
732
> <PUBCHEM_CACTVS_HBOND_ACCEPTOR>
6
> <PUBCHEM_CACTVS_HBOND_DONOR>
0
> <PUBCHEM_CACTVS_ROTATABLE_BOND>
8
> <PUBCHEM_CACTVS_SUBSKEYS>
AAADcfB7MYAAAAAAAAAAAAAAAAAAAWAAAAA8YIAAAAAAAAABQAAAHwAAAAAADQjBmBQywIMAAACIAiVSUACCAAAhAgAIiAEIZIgIIDrA0ZGEIAhghgDIyAcVgMAOAAAAQAAAAAAAAACAAAAAAAAAAAAAAA==
> <PUBCHEM_IUPAC_OPENEYE_NAME>
N-[3-(4-benzyl-1-piperidyl)propyl]-1-methyl-5-oxo-N-[3-(trifluoromethyl)phenyl]pyrrolidine-3-carboxamide
> <PUBCHEM_IUPAC_CAS_NAME>
1-methyl-5-oxo-N-[3-[4-(phenylmethyl)-1-piperidinyl]propyl]-N-[3-(trifluoromethyl)phenyl]-3-pyrrolidinecarboxamide
> <PUBCHEM_IUPAC_NAME_MARKUP>
<I>N</I>-[3-(4-benzylpiperidin-1-yl)propyl]-1-methyl-5-oxo-<I>N</I>-[3-(trifluoromethyl)phenyl]pyrrolidine-3-carboxamide
> <PUBCHEM_IUPAC_NAME>
N-[3-(4-benzylpiperidin-1-yl)propyl]-1-methyl-5-oxo-N-[3-(trifluoromethyl)phenyl]pyrrolidine-3-carboxamide
> <PUBCHEM_IUPAC_SYSTEMATIC_NAME>
1-methyl-5-oxidanylidene-N-[3-[4-(phenylmethyl)piperidin-1-yl]propyl]-N-[3-(trifluoromethyl)phenyl]pyrrolidine-3-carboxamide
> <PUBCHEM_IUPAC_TRADITIONAL_NAME>
N-[3-(4-benzylpiperidino)propyl]-5-keto-1-methyl-N-[3-(trifluoromethyl)phenyl]pyrrolidine-3-carboxamide
> <PUBCHEM_IUPAC_INCHI>
InChI=1S/C28H34F3N3O2/c1-32-20-23(18-26(32)35)27(36)34(25-10-5-9-24(19-25)28(29,30)31)14-6-13-33-15-11-22(12-16-33)17-21-7-3-2-4-8-21/h2-5,7-10,19,22-23H,6,11-18,20H2,1H3
> <PUBCHEM_IUPAC_INCHIKEY>
VXVXLWIBTMNBDB-UHFFFAOYSA-N
> <PUBCHEM_XLOGP3_AA>
4.4
> <PUBCHEM_EXACT_MASS>
501.26031182
> <PUBCHEM_MOLECULAR_FORMULA>
C28H34F3N3O2
> <PUBCHEM_MOLECULAR_WEIGHT>
501.6
> <PUBCHEM_OPENEYE_CAN_SMILES>
CN1CC(CC1=O)C(=O)N(CCCN2CCC(CC2)CC3=CC=CC=C3)C4=CC=CC(=C4)C(F)(F)F
> <PUBCHEM_OPENEYE_ISO_SMILES>
CN1CC(CC1=O)C(=O)N(CCCN2CCC(CC2)CC3=CC=CC=C3)C4=CC=CC(=C4)C(F)(F)F
> <PUBCHEM_CACTVS_TPSA>
43.9
> <PUBCHEM_MONOISOTOPIC_WEIGHT>
501.26031182
> <PUBCHEM_TOTAL_CHARGE>
0
> <PUBCHEM_HEAVY_ATOM_COUNT>
36
> <PUBCHEM_ATOM_DEF_STEREO_COUNT>
0
> <PUBCHEM_ATOM_UDEF_STEREO_COUNT>
1
> <PUBCHEM_BOND_DEF_STEREO_COUNT>
0
> <PUBCHEM_BOND_UDEF_STEREO_COUNT>
0
> <PUBCHEM_ISOTOPIC_ATOM_COUNT>
0
> <PUBCHEM_COMPONENT_COUNT>
1
> <PUBCHEM_CACTVS_TAUTO_COUNT>
-1
> <PUBCHEM_COORDINATE_TYPE>
1
5
255
> <PUBCHEM_BONDANNOTATIONS>
17  22  3
19  25  8
19  26  8
24  30  8
24  31  8
25  28  8
26  29  8
28  32  8
29  32  8
30  33  8
31  34  8
33  35  8
34  35  8
$$$$
