514901
  -OEChem-10302200282D
 35 37  0     1  0  0  0  0  0999 V2000
    2.8660    1.3307    0.0000 S   0  0  0  0  0  0  0  0  0  0  0  0
    6.3580   -0.7039    0.0000 O   0  0  0  0  0  0  0  0  0  0  0  0
    2.3660    0.4647    0.0000 O   0  0  0  0  0  0  0  0  0  0  0  0
    3.3660    2.1968    0.0000 O   0  0  0  0  0  0  0  0  0  0  0  0
    4.5981   -0.6693    0.0000 N   0  0  0  0  0  0  0  0  0  0  0  0
    7.2641   -0.1901    0.0000 C   0  0  3  0  0  0  0  0  0  0  0  0
    7.2641    0.8515    0.0000 C   0  0  0  0  0  0  0  0  0  0  0  0
    6.3580    1.3654    0.0000 C   0  0  0  0  0  0  0  0  0  0  0  0
    5.4641    0.8307    0.0000 C   0  0  0  0  0  0  0  0  0  0  0  0
    5.4641   -0.1693    0.0000 C   0  0  0  0  0  0  0  0  0  0  0  0
    8.1282   -0.6934    0.0000 C   0  0  0  0  0  0  0  0  0  0  0  0
    4.5981    1.3307    0.0000 C   0  0  0  0  0  0  0  0  0  0  0  0
    3.7320    0.8307    0.0000 C   0  0  0  0  0  0  0  0  0  0  0  0
    8.9962   -0.1968    0.0000 C   0  0  0  0  0  0  0  0  0  0  0  0
    8.1244   -1.6934    0.0000 C   0  0  0  0  0  0  0  0  0  0  0  0
    3.7320   -0.1693    0.0000 C   0  0  0  0  0  0  0  0  0  0  0  0
    9.8602   -0.7001    0.0000 C   0  0  0  0  0  0  0  0  0  0  0  0
    8.9884   -2.1968    0.0000 C   0  0  0  0  0  0  0  0  0  0  0  0
    2.0000    1.8307    0.0000 C   0  0  0  0  0  0  0  0  0  0  0  0
    9.8564   -1.7001    0.0000 C   0  0  0  0  0  0  0  0  0  0  0  0
    7.2605   -0.8101    0.0000 H   0  0  0  0  0  0  0  0  0  0  0  0
    7.8750    0.7454    0.0000 H   0  0  0  0  0  0  0  0  0  0  0  0
    7.4732    1.4352    0.0000 H   0  0  0  0  0  0  0  0  0  0  0  0
    6.7517    1.8444    0.0000 H   0  0  0  0  0  0  0  0  0  0  0  0
    5.9534    1.8352    0.0000 H   0  0  0  0  0  0  0  0  0  0  0  0
    4.5981    1.9507    0.0000 H   0  0  0  0  0  0  0  0  0  0  0  0
    8.9985    0.4232    0.0000 H   0  0  0  0  0  0  0  0  0  0  0  0
    7.5862   -2.0013    0.0000 H   0  0  0  0  0  0  0  0  0  0  0  0
    3.1951   -0.4793    0.0000 H   0  0  0  0  0  0  0  0  0  0  0  0
   10.3984   -0.3922    0.0000 H   0  0  0  0  0  0  0  0  0  0  0  0
    8.9860   -2.8168    0.0000 H   0  0  0  0  0  0  0  0  0  0  0  0
    2.3100    2.3677    0.0000 H   0  0  0  0  0  0  0  0  0  0  0  0
    1.4631    2.1407    0.0000 H   0  0  0  0  0  0  0  0  0  0  0  0
    1.6900    1.2938    0.0000 H   0  0  0  0  0  0  0  0  0  0  0  0
   10.3921   -2.0122    0.0000 H   0  0  0  0  0  0  0  0  0  0  0  0
  1  3  2  0  0  0  0
  1  4  2  0  0  0  0
  1 13  1  0  0  0  0
  1 19  1  0  0  0  0
  2  6  1  0  0  0  0
  2 10  1  0  0  0  0
  5 10  1  0  0  0  0
  5 16  2  0  0  0  0
  6  7  1  0  0  0  0
  6 11  1  0  0  0  0
  6 21  1  0  0  0  0
  7  8  1  0  0  0  0
  7 22  1  0  0  0  0
  7 23  1  0  0  0  0
  8  9  1  0  0  0  0
  8 24  1  0  0  0  0
  8 25  1  0  0  0  0
  9 10  2  0  0  0  0
  9 12  1  0  0  0  0
 11 14  2  0  0  0  0
 11 15  1  0  0  0  0
 12 13  2  0  0  0  0
 12 26  1  0  0  0  0
 13 16  1  0  0  0  0
 14 17  1  0  0  0  0
 14 27  1  0  0  0  0
 15 18  2  0  0  0  0
 15 28  1  0  0  0  0
 16 29  1  0  0  0  0
 17 20  2  0  0  0  0
 17 30  1  0  0  0  0
 18 20  1  0  0  0  0
 18 31  1  0  0  0  0
 19 32  1  0  0  0  0
 19 33  1  0  0  0  0
 19 34  1  0  0  0  0
 20 35  1  0  0  0  0
M  END
> <PUBCHEM_COMPOUND_CID>
514901
> <PUBCHEM_COMPOUND_CANONICALIZED>
1
> <PUBCHEM_CACTVS_COMPLEXITY>
425
> <PUBCHEM_CACTVS_HBOND_ACCEPTOR>
4
> <PUBCHEM_CACTVS_HBOND_DONOR>
0
> <PUBCHEM_CACTVS_ROTATABLE_BOND>
2
> <PUBCHEM_CACTVS_SUBSKEYS>
AAADccByMABAAAAAAAAAAAAAAAAAAAAAAAA8SIAAAAAAAACxwAAAHgQAAAAADBTh2ga+hZIIFAqgAjBnRHDCiCAxKDAI2DwsTJgMJuLksZuOOCjkwBHI6AeQ0OIOAAAAAAAAAAAAAAAAAAAAAAAAAAAAAA==
> <PUBCHEM_IUPAC_OPENEYE_NAME>
6-methylsulfonyl-2-phenyl-3,4-dihydro-2H-pyrano[2,3-b]pyridine
> <PUBCHEM_IUPAC_CAS_NAME>
6-methylsulfonyl-2-phenyl-3,4-dihydro-2H-pyrano[2,3-b]pyridine
> <PUBCHEM_IUPAC_NAME_MARKUP>
6-methylsulfonyl-2-phenyl-3,4-dihydro-2<I>H</I>-pyrano[2,3-b]pyridine
> <PUBCHEM_IUPAC_NAME>
6-methylsulfonyl-2-phenyl-3,4-dihydro-2H-pyrano[2,3-b]pyridine
> <PUBCHEM_IUPAC_SYSTEMATIC_NAME>
6-methylsulfonyl-2-phenyl-3,4-dihydro-2H-pyrano[2,3-b]pyridine
> <PUBCHEM_IUPAC_TRADITIONAL_NAME>
6-mesyl-2-phenyl-3,4-dihydro-2H-pyrano[2,3-b]pyridine
> <PUBCHEM_IUPAC_INCHI>
InChI=1S/C15H15NO3S/c1-20(17,18)13-9-12-7-8-14(19-15(12)16-10-13)11-5-3-2-4-6-11/h2-6,9-10,14H,7-8H2,1H3
> <PUBCHEM_IUPAC_INCHIKEY>
AWCZUACANNUUIL-UHFFFAOYSA-N
> <PUBCHEM_XLOGP3_AA>
2.3
> <PUBCHEM_EXACT_MASS>
289.07726451
> <PUBCHEM_MOLECULAR_FORMULA>
C15H15NO3S
> <PUBCHEM_MOLECULAR_WEIGHT>
289.4
> <PUBCHEM_OPENEYE_CAN_SMILES>
CS(=O)(=O)C1=CC2=C(N=C1)OC(CC2)C3=CC=CC=C3
> <PUBCHEM_OPENEYE_ISO_SMILES>
CS(=O)(=O)C1=CC2=C(N=C1)OC(CC2)C3=CC=CC=C3
> <PUBCHEM_CACTVS_TPSA>
64.6
> <PUBCHEM_MONOISOTOPIC_WEIGHT>
289.07726451
> <PUBCHEM_TOTAL_CHARGE>
0
> <PUBCHEM_HEAVY_ATOM_COUNT>
20
> <PUBCHEM_ATOM_DEF_STEREO_COUNT>
0
> <PUBCHEM_ATOM_UDEF_STEREO_COUNT>
1
> <PUBCHEM_BOND_DEF_STEREO_COUNT>
0
> <PUBCHEM_BOND_UDEF_STEREO_COUNT>
0
> <PUBCHEM_ISOTOPIC_ATOM_COUNT>
0
> <PUBCHEM_COMPONENT_COUNT>
1
> <PUBCHEM_CACTVS_TAUTO_COUNT>
1
> <PUBCHEM_COORDINATE_TYPE>
1
5
255
> <PUBCHEM_BONDANNOTATIONS>
11  14  8
11  15  8
12  13  8
13  16  8
14  17  8
15  18  8
17  20  8
18  20  8
5  10  8
5  16  8
6  11  3
9  10  8
9  12  8
$$$$
