514912
  -OEChem-10302200282D
102105  0     1  0  0  0  0  0999 V2000
    6.0509   -4.4524    0.0000 S   0  0  0  0  0  0  0  0  0  0  0  0
    8.8656   -4.2500    0.0000 O   0  0  0  0  0  0  0  0  0  0  0  0
    7.9996   -1.7500    0.0000 O   0  0  0  0  0  0  0  0  0  0  0  0
    6.7553   -1.1960    0.0000 O   0  0  0  0  0  0  0  0  0  0  0  0
   11.4637   -1.7500    0.0000 O   0  0  0  0  0  0  0  0  0  0  0  0
   10.5977    1.7500    0.0000 O   0  0  0  0  0  0  0  0  0  0  0  0
   12.3297    2.7500    0.0000 O   0  0  0  0  0  0  0  0  0  0  0  0
    7.1336   -3.2500    0.0000 N   0  0  0  0  0  0  0  0  0  0  0  0
    5.0611   -1.5561    0.0000 N   0  0  0  0  0  0  0  0  0  0  0  0
    9.7317   -1.7500    0.0000 N   0  0  0  0  0  0  0  0  0  0  0  0
   11.4637    0.2500    0.0000 N   0  0  0  0  0  0  0  0  0  0  0  0
   14.0618    5.7500    0.0000 N   0  0  0  0  0  0  0  0  0  0  0  0
    5.5509   -3.5864    0.0000 C   0  0  0  0  0  0  0  0  0  0  0  0
    6.2200   -2.8433    0.0000 C   0  0  1  0  0  0  0  0  0  0  0  0
    7.0291   -4.2445    0.0000 C   0  0  0  0  0  0  0  0  0  0  0  0
    4.6849   -4.0864    0.0000 C   0  0  0  0  0  0  0  0  0  0  0  0
    4.8078   -2.9173    0.0000 C   0  0  0  0  0  0  0  0  0  0  0  0
    7.9996   -2.7500    0.0000 C   0  0  0  0  0  0  0  0  0  0  0  0
    6.0121   -1.8651    0.0000 C   0  0  0  0  0  0  0  0  0  0  0  0
    8.8656   -3.2500    0.0000 C   0  0  2  0  0  0  0  0  0  0  0  0
    9.7317   -2.7500    0.0000 C   0  0  2  0  0  0  0  0  0  0  0  0
   10.5977   -3.2500    0.0000 C   0  0  0  0  0  0  0  0  0  0  0  0
    4.8532   -0.5780    0.0000 C   0  0  0  0  0  0  0  0  0  0  0  0
   10.5977   -0.2500    0.0000 C   0  0  2  0  0  0  0  0  0  0  0  0
   10.5977   -1.2500    0.0000 C   0  0  0  0  0  0  0  0  0  0  0  0
   10.5977   -4.2500    0.0000 C   0  0  0  0  0  0  0  0  0  0  0  0
    9.7317    0.2500    0.0000 C   0  0  0  0  0  0  0  0  0  0  0  0
    3.9021   -0.2689    0.0000 C   0  0  0  0  0  0  0  0  0  0  0  0
   11.4637   -4.7500    0.0000 C   0  0  0  0  0  0  0  0  0  0  0  0
    9.7317   -4.7500    0.0000 C   0  0  0  0  0  0  0  0  0  0  0  0
    8.8656   -0.2500    0.0000 C   0  0  0  0  0  0  0  0  0  0  0  0
    9.7317    1.2500    0.0000 C   0  0  0  0  0  0  0  0  0  0  0  0
    3.6942    0.7092    0.0000 C   0  0  0  0  0  0  0  0  0  0  0  0
    3.1590   -0.9381    0.0000 C   0  0  0  0  0  0  0  0  0  0  0  0
   11.4637   -5.7500    0.0000 C   0  0  0  0  0  0  0  0  0  0  0  0
    9.7317   -5.7500    0.0000 C   0  0  0  0  0  0  0  0  0  0  0  0
   11.4637    1.2500    0.0000 C   0  0  0  0  0  0  0  0  0  0  0  0
   10.5977   -6.2500    0.0000 C   0  0  0  0  0  0  0  0  0  0  0  0
    2.7431    1.0182    0.0000 C   0  0  0  0  0  0  0  0  0  0  0  0
    4.4374    1.3783    0.0000 C   0  0  0  0  0  0  0  0  0  0  0  0
    2.2079   -0.6290    0.0000 C   0  0  0  0  0  0  0  0  0  0  0  0
   12.3297    1.7500    0.0000 C   0  0  0  0  0  0  0  0  0  0  0  0
    2.0000    0.3491    0.0000 C   0  0  0  0  0  0  0  0  0  0  0  0
   13.1958    3.2500    0.0000 C   0  0  0  0  0  0  0  0  0  0  0  0
   13.1958    4.2500    0.0000 C   0  0  0  0  0  0  0  0  0  0  0  0
   14.0618    2.7500    0.0000 C   0  0  0  0  0  0  0  0  0  0  0  0
   14.0618    4.7500    0.0000 C   0  0  0  0  0  0  0  0  0  0  0  0
   14.9278    3.2500    0.0000 C   0  0  0  0  0  0  0  0  0  0  0  0
   14.9278    4.2500    0.0000 C   0  0  0  0  0  0  0  0  0  0  0  0
   14.9278    6.2500    0.0000 C   0  0  0  0  0  0  0  0  0  0  0  0
   13.1958    6.2500    0.0000 C   0  0  0  0  0  0  0  0  0  0  0  0
    6.7019   -2.4531    0.0000 H   0  0  0  0  0  0  0  0  0  0  0  0
    7.0939   -4.8611    0.0000 H   0  0  0  0  0  0  0  0  0  0  0  0
    7.6491   -4.2445    0.0000 H   0  0  0  0  0  0  0  0  0  0  0  0
    4.3749   -3.5495    0.0000 H   0  0  0  0  0  0  0  0  0  0  0  0
    4.1480   -4.3964    0.0000 H   0  0  0  0  0  0  0  0  0  0  0  0
    4.9949   -4.6233    0.0000 H   0  0  0  0  0  0  0  0  0  0  0  0
    5.2226   -2.4565    0.0000 H   0  0  0  0  0  0  0  0  0  0  0  0
    4.3470   -2.5024    0.0000 H   0  0  0  0  0  0  0  0  0  0  0  0
    4.3929   -3.3780    0.0000 H   0  0  0  0  0  0  0  0  0  0  0  0
    8.3287   -3.5600    0.0000 H   0  0  0  0  0  0  0  0  0  0  0  0
   10.2686   -2.4400    0.0000 H   0  0  0  0  0  0  0  0  0  0  0  0
   11.2083   -3.3577    0.0000 H   0  0  0  0  0  0  0  0  0  0  0  0
   10.8097   -2.6674    0.0000 H   0  0  0  0  0  0  0  0  0  0  0  0
    4.6003   -1.9710    0.0000 H   0  0  0  0  0  0  0  0  0  0  0  0
    9.1947   -1.4400    0.0000 H   0  0  0  0  0  0  0  0  0  0  0  0
    5.4728   -0.5563    0.0000 H   0  0  0  0  0  0  0  0  0  0  0  0
    4.9395    0.0360    0.0000 H   0  0  0  0  0  0  0  0  0  0  0  0
   11.1346   -0.5600    0.0000 H   0  0  0  0  0  0  0  0  0  0  0  0
    8.3287   -4.5600    0.0000 H   0  0  0  0  0  0  0  0  0  0  0  0
   10.2686    0.5600    0.0000 H   0  0  0  0  0  0  0  0  0  0  0  0
   12.0007   -0.0600    0.0000 H   0  0  0  0  0  0  0  0  0  0  0  0
   12.0007   -4.4400    0.0000 H   0  0  0  0  0  0  0  0  0  0  0  0
    9.1947   -4.4400    0.0000 H   0  0  0  0  0  0  0  0  0  0  0  0
    8.5556    0.2869    0.0000 H   0  0  0  0  0  0  0  0  0  0  0  0
    8.3287   -0.5600    0.0000 H   0  0  0  0  0  0  0  0  0  0  0  0
    9.1756   -0.7869    0.0000 H   0  0  0  0  0  0  0  0  0  0  0  0
   10.3517    1.2500    0.0000 H   0  0  0  0  0  0  0  0  0  0  0  0
    9.7317    1.8700    0.0000 H   0  0  0  0  0  0  0  0  0  0  0  0
    9.1117    1.2500    0.0000 H   0  0  0  0  0  0  0  0  0  0  0  0
    3.2879   -1.5445    0.0000 H   0  0  0  0  0  0  0  0  0  0  0  0
   12.0007   -6.0600    0.0000 H   0  0  0  0  0  0  0  0  0  0  0  0
    9.1947   -6.0600    0.0000 H   0  0  0  0  0  0  0  0  0  0  0  0
   10.5977   -6.8700    0.0000 H   0  0  0  0  0  0  0  0  0  0  0  0
    2.6142    1.6247    0.0000 H   0  0  0  0  0  0  0  0  0  0  0  0
    4.8522    0.9176    0.0000 H   0  0  0  0  0  0  0  0  0  0  0  0
    4.8981    1.7932    0.0000 H   0  0  0  0  0  0  0  0  0  0  0  0
    4.0225    1.8391    0.0000 H   0  0  0  0  0  0  0  0  0  0  0  0
    1.7472   -1.0439    0.0000 H   0  0  0  0  0  0  0  0  0  0  0  0
   12.5418    1.1674    0.0000 H   0  0  0  0  0  0  0  0  0  0  0  0
   12.9403    1.8577    0.0000 H   0  0  0  0  0  0  0  0  0  0  0  0
    1.4103    0.5407    0.0000 H   0  0  0  0  0  0  0  0  0  0  0  0
   12.6588    4.5600    0.0000 H   0  0  0  0  0  0  0  0  0  0  0  0
   14.0618    2.1300    0.0000 H   0  0  0  0  0  0  0  0  0  0  0  0
   15.4648    2.9400    0.0000 H   0  0  0  0  0  0  0  0  0  0  0  0
   15.4648    4.5600    0.0000 H   0  0  0  0  0  0  0  0  0  0  0  0
   15.2378    5.7131    0.0000 H   0  0  0  0  0  0  0  0  0  0  0  0
   15.4648    6.5600    0.0000 H   0  0  0  0  0  0  0  0  0  0  0  0
   14.6178    6.7869    0.0000 H   0  0  0  0  0  0  0  0  0  0  0  0
   13.5058    6.7869    0.0000 H   0  0  0  0  0  0  0  0  0  0  0  0
   12.6588    6.5600    0.0000 H   0  0  0  0  0  0  0  0  0  0  0  0
   12.8858    5.7131    0.0000 H   0  0  0  0  0  0  0  0  0  0  0  0
  1 13  1  0  0  0  0
  1 15  1  0  0  0  0
 20  2  1  6  0  0  0
  2 70  1  0  0  0  0
  3 18  2  0  0  0  0
  4 19  2  0  0  0  0
  5 25  2  0  0  0  0
  6 37  2  0  0  0  0
  7 42  1  0  0  0  0
  7 44  1  0  0  0  0
  8 14  1  0  0  0  0
  8 15  1  0  0  0  0
  8 18  1  0  0  0  0
  9 19  1  0  0  0  0
  9 23  1  0  0  0  0
  9 65  1  0  0  0  0
 21 10  1  1  0  0  0
 10 25  1  0  0  0  0
 10 66  1  0  0  0  0
 24 11  1  6  0  0  0
 11 37  1  0  0  0  0
 11 72  1  0  0  0  0
 12 47  1  0  0  0  0
 12 50  1  0  0  0  0
 12 51  1  0  0  0  0
 13 14  1  0  0  0  0
 13 16  1  0  0  0  0
 13 17  1  0  0  0  0
 14 19  1  1  0  0  0
 14 52  1  0  0  0  0
 15 53  1  0  0  0  0
 15 54  1  0  0  0  0
 16 55  1  0  0  0  0
 16 56  1  0  0  0  0
 16 57  1  0  0  0  0
 17 58  1  0  0  0  0
 17 59  1  0  0  0  0
 17 60  1  0  0  0  0
 18 20  1  0  0  0  0
 20 21  1  0  0  0  0
 20 61  1  0  0  0  0
 21 22  1  0  0  0  0
 21 62  1  0  0  0  0
 22 26  1  0  0  0  0
 22 63  1  0  0  0  0
 22 64  1  0  0  0  0
 23 28  1  0  0  0  0
 23 67  1  0  0  0  0
 23 68  1  0  0  0  0
 24 25  1  0  0  0  0
 24 27  1  0  0  0  0
 24 69  1  0  0  0  0
 26 29  2  0  0  0  0
 26 30  1  0  0  0  0
 27 31  1  0  0  0  0
 27 32  1  0  0  0  0
 27 71  1  0  0  0  0
 28 33  1  0  0  0  0
 28 34  2  0  0  0  0
 29 35  1  0  0  0  0
 29 73  1  0  0  0  0
 30 36  2  0  0  0  0
 30 74  1  0  0  0  0
 31 75  1  0  0  0  0
 31 76  1  0  0  0  0
 31 77  1  0  0  0  0
 32 78  1  0  0  0  0
 32 79  1  0  0  0  0
 32 80  1  0  0  0  0
 33 39  2  0  0  0  0
 33 40  1  0  0  0  0
 34 41  1  0  0  0  0
 34 81  1  0  0  0  0
 35 38  2  0  0  0  0
 35 82  1  0  0  0  0
 36 38  1  0  0  0  0
 36 83  1  0  0  0  0
 37 42  1  0  0  0  0
 38 84  1  0  0  0  0
 39 43  1  0  0  0  0
 39 85  1  0  0  0  0
 40 86  1  0  0  0  0
 40 87  1  0  0  0  0
 40 88  1  0  0  0  0
 41 43  2  0  0  0  0
 41 89  1  0  0  0  0
 42 90  1  0  0  0  0
 42 91  1  0  0  0  0
 43 92  1  0  0  0  0
 44 45  1  0  0  0  0
 44 46  2  0  0  0  0
 45 47  2  0  0  0  0
 45 93  1  0  0  0  0
 46 48  1  0  0  0  0
 46 94  1  0  0  0  0
 47 49  1  0  0  0  0
 48 49  2  0  0  0  0
 48 95  1  0  0  0  0
 49 96  1  0  0  0  0
 50 97  1  0  0  0  0
 50 98  1  0  0  0  0
 50 99  1  0  0  0  0
 51100  1  0  0  0  0
 51101  1  0  0  0  0
 51102  1  0  0  0  0
M  END
> <PUBCHEM_COMPOUND_CID>
514912
> <PUBCHEM_COMPOUND_CANONICALIZED>
1
> <PUBCHEM_CACTVS_COMPLEXITY>
1160
> <PUBCHEM_CACTVS_HBOND_ACCEPTOR>
8
> <PUBCHEM_CACTVS_HBOND_DONOR>
4
> <PUBCHEM_CACTVS_ROTATABLE_BOND>
15
> <PUBCHEM_CACTVS_SUBSKEYS>
AAADcfB/uABAAAAAAAAAAAAAAAAAAWAAAAAwYMAAAAAAAAABUAAAHgQQCAAADTzh2AayxoPABgiIAiVSUAKCCABhIhAIiIHObIgOdjrk8b+XeCjm1hnY6AeY2KOOgAAAAgAQAAAAAAAEACAAAAAAAAAAAA==
> <PUBCHEM_IUPAC_OPENEYE_NAME>
(4R)-3-[(2S,3S)-3-[[(2S)-2-[[2-[3-(dimethylamino)phenoxy]acetyl]amino]-3-methyl-butanoyl]amino]-2-hydroxy-4-phenyl-butanoyl]-5,5-dimethyl-N-(o-tolylmethyl)thiazolidine-4-carboxamide
> <PUBCHEM_IUPAC_CAS_NAME>
(4R)-3-[(2S,3S)-3-[[(2S)-2-[[2-[3-(dimethylamino)phenoxy]-1-oxoethyl]amino]-3-methyl-1-oxobutyl]amino]-2-hydroxy-1-oxo-4-phenylbutyl]-5,5-dimethyl-N-[(2-methylphenyl)methyl]-4-thiazolidinecarboxamide
> <PUBCHEM_IUPAC_NAME_MARKUP>
(4<I>R</I>)-3-[(2<I>S</I>,3<I>S</I>)-3-[[(2<I>S</I>)-2-[[2-[3-(dimethylamino)phenoxy]acetyl]amino]-3-methylbutanoyl]amino]-2-hydroxy-4-phenylbutanoyl]-5,5-dimethyl-<I>N</I>-[(2-methylphenyl)methyl]-1,3-thiazolidine-4-carboxamide
> <PUBCHEM_IUPAC_NAME>
(4R)-3-[(2S,3S)-3-[[(2S)-2-[[2-[3-(dimethylamino)phenoxy]acetyl]amino]-3-methylbutanoyl]amino]-2-hydroxy-4-phenylbutanoyl]-5,5-dimethyl-N-[(2-methylphenyl)methyl]-1,3-thiazolidine-4-carboxamide
> <PUBCHEM_IUPAC_SYSTEMATIC_NAME>
(4R)-3-[(2S,3S)-3-[[(2S)-2-[2-[3-(dimethylamino)phenoxy]ethanoylamino]-3-methyl-butanoyl]amino]-2-oxidanyl-4-phenyl-butanoyl]-5,5-dimethyl-N-[(2-methylphenyl)methyl]-1,3-thiazolidine-4-carboxamide
> <PUBCHEM_IUPAC_TRADITIONAL_NAME>
(4R)-3-[(2S,3S)-3-[[(2S)-2-[[2-[3-(dimethylamino)phenoxy]acetyl]amino]-3-methyl-butanoyl]amino]-2-hydroxy-4-phenyl-butanoyl]-5,5-dimethyl-N-(2-methylbenzyl)thiazolidine-4-carboxamide
> <PUBCHEM_IUPAC_INCHI>
InChI=1S/C39H51N5O6S/c1-25(2)33(42-32(45)23-50-30-19-13-18-29(21-30)43(6)7)36(47)41-31(20-27-15-9-8-10-16-27)34(46)38(49)44-24-51-39(4,5)35(44)37(48)40-22-28-17-12-11-14-26(28)3/h8-19,21,25,31,33-35,46H,20,22-24H2,1-7H3,(H,40,48)(H,41,47)(H,42,45)/t31-,33-,34-,35+/m0/s1
> <PUBCHEM_IUPAC_INCHIKEY>
RPICWAIXNFFYST-HPSGNIKNSA-N
> <PUBCHEM_XLOGP3_AA>
5.4
> <PUBCHEM_EXACT_MASS>
717.35600554
> <PUBCHEM_MOLECULAR_FORMULA>
C39H51N5O6S
> <PUBCHEM_MOLECULAR_WEIGHT>
717.9
> <PUBCHEM_OPENEYE_CAN_SMILES>
CC1=CC=CC=C1CNC(=O)C2C(SCN2C(=O)C(C(CC3=CC=CC=C3)NC(=O)C(C(C)C)NC(=O)COC4=CC=CC(=C4)N(C)C)O)(C)C
> <PUBCHEM_OPENEYE_ISO_SMILES>
CC1=CC=CC=C1CNC(=O)[C@@H]2C(SCN2C(=O)[C@H]([C@H](CC3=CC=CC=C3)NC(=O)[C@H](C(C)C)NC(=O)COC4=CC=CC(=C4)N(C)C)O)(C)C
> <PUBCHEM_CACTVS_TPSA>
166
> <PUBCHEM_MONOISOTOPIC_WEIGHT>
717.35600554
> <PUBCHEM_TOTAL_CHARGE>
0
> <PUBCHEM_HEAVY_ATOM_COUNT>
51
> <PUBCHEM_ATOM_DEF_STEREO_COUNT>
4
> <PUBCHEM_ATOM_UDEF_STEREO_COUNT>
0
> <PUBCHEM_BOND_DEF_STEREO_COUNT>
0
> <PUBCHEM_BOND_UDEF_STEREO_COUNT>
0
> <PUBCHEM_ISOTOPIC_ATOM_COUNT>
0
> <PUBCHEM_COMPONENT_COUNT>
1
> <PUBCHEM_CACTVS_TAUTO_COUNT>
-1
> <PUBCHEM_COORDINATE_TYPE>
1
5
255
> <PUBCHEM_BONDANNOTATIONS>
21  10  5
24  11  6
14  19  5
20  2  6
26  29  8
26  30  8
28  33  8
28  34  8
29  35  8
30  36  8
33  39  8
34  41  8
35  38  8
36  38  8
39  43  8
41  43  8
44  45  8
44  46  8
45  47  8
46  48  8
47  49  8
48  49  8
$$$$
