514977
  -OEChem-10302200282D
 68 71  0     1  0  0  0  0  0999 V2000
    8.0413    2.7500    0.0000 O   0  0  0  0  0  0  0  0  0  0  0  0
    5.4432   -1.7500    0.0000 O   0  0  0  0  0  0  0  0  0  0  0  0
    3.0878   -5.3660    0.0000 O   0  0  0  0  0  0  0  0  0  0  0  0
    8.0413   -0.2500    0.0000 N   0  0  0  0  0  0  0  0  0  0  0  0
    6.3092   -3.2500    0.0000 N   0  0  0  0  0  0  0  0  0  0  0  0
    2.9945   -3.5864    0.0000 N   0  0  0  0  0  0  0  0  0  0  0  0
    8.0413    1.7500    0.0000 C   0  0  0  0  0  0  0  0  0  0  0  0
    8.9073    1.2500    0.0000 C   0  0  0  0  0  0  0  0  0  0  0  0
    7.1753    1.2500    0.0000 C   0  0  0  0  0  0  0  0  0  0  0  0
    8.9073    0.2500    0.0000 C   0  0  0  0  0  0  0  0  0  0  0  0
    7.1753    0.2500    0.0000 C   0  0  0  0  0  0  0  0  0  0  0  0
    8.0413   -1.2500    0.0000 C   0  0  0  0  0  0  0  0  0  0  0  0
    7.1753   -1.7500    0.0000 C   0  0  0  0  0  0  0  0  0  0  0  0
    4.5772   -3.2500    0.0000 C   0  0  3  0  0  0  0  0  0  0  0  0
    7.1753   -2.7500    0.0000 C   0  0  0  0  0  0  0  0  0  0  0  0
    3.6636   -2.8433    0.0000 C   0  0  0  0  0  0  0  0  0  0  0  0
    4.4727   -4.2445    0.0000 C   0  0  0  0  0  0  0  0  0  0  0  0
    5.4432   -2.7500    0.0000 C   0  0  0  0  0  0  0  0  0  0  0  0
    3.4945   -4.4524    0.0000 C   0  0  0  0  0  0  0  0  0  0  0  0
    8.9073    3.2500    0.0000 C   0  0  0  0  0  0  0  0  0  0  0  0
    6.3092   -4.2500    0.0000 C   0  0  0  0  0  0  0  0  0  0  0  0
    2.0000   -3.4819    0.0000 C   0  0  0  0  0  0  0  0  0  0  0  0
    8.9073    4.2500    0.0000 C   0  0  0  0  0  0  0  0  0  0  0  0
    5.4432   -4.7500    0.0000 C   0  0  0  0  0  0  0  0  0  0  0  0
    7.1753   -4.7500    0.0000 C   0  0  0  0  0  0  0  0  0  0  0  0
    5.4432   -5.7500    0.0000 C   0  0  0  0  0  0  0  0  0  0  0  0
    7.1753   -5.7500    0.0000 C   0  0  0  0  0  0  0  0  0  0  0  0
    9.7734    4.7500    0.0000 C   0  0  0  0  0  0  0  0  0  0  0  0
    8.0413    4.7500    0.0000 C   0  0  0  0  0  0  0  0  0  0  0  0
    6.3092   -6.2500    0.0000 C   0  0  0  0  0  0  0  0  0  0  0  0
    9.7734    5.7500    0.0000 C   0  0  0  0  0  0  0  0  0  0  0  0
    8.0413    5.7500    0.0000 C   0  0  0  0  0  0  0  0  0  0  0  0
    8.9073    6.2500    0.0000 C   0  0  0  0  0  0  0  0  0  0  0  0
    8.5782    2.0600    0.0000 H   0  0  0  0  0  0  0  0  0  0  0  0
    9.5179    1.1423    0.0000 H   0  0  0  0  0  0  0  0  0  0  0  0
    9.1194    1.8326    0.0000 H   0  0  0  0  0  0  0  0  0  0  0  0
    6.9632    1.8326    0.0000 H   0  0  0  0  0  0  0  0  0  0  0  0
    6.5647    1.1423    0.0000 H   0  0  0  0  0  0  0  0  0  0  0  0
    9.1194   -0.3326    0.0000 H   0  0  0  0  0  0  0  0  0  0  0  0
    9.5179    0.3577    0.0000 H   0  0  0  0  0  0  0  0  0  0  0  0
    6.5647    0.3577    0.0000 H   0  0  0  0  0  0  0  0  0  0  0  0
    6.9632   -0.3326    0.0000 H   0  0  0  0  0  0  0  0  0  0  0  0
    8.2534   -1.8326    0.0000 H   0  0  0  0  0  0  0  0  0  0  0  0
    8.6519   -1.1423    0.0000 H   0  0  0  0  0  0  0  0  0  0  0  0
    6.9632   -1.1674    0.0000 H   0  0  0  0  0  0  0  0  0  0  0  0
    6.5647   -1.8577    0.0000 H   0  0  0  0  0  0  0  0  0  0  0  0
    4.5447   -2.6308    0.0000 H   0  0  0  0  0  0  0  0  0  0  0  0
    7.3873   -3.3326    0.0000 H   0  0  0  0  0  0  0  0  0  0  0  0
    7.7859   -2.6423    0.0000 H   0  0  0  0  0  0  0  0  0  0  0  0
    3.9736   -2.3063    0.0000 H   0  0  0  0  0  0  0  0  0  0  0  0
    3.1621   -2.4788    0.0000 H   0  0  0  0  0  0  0  0  0  0  0  0
    4.5375   -4.8611    0.0000 H   0  0  0  0  0  0  0  0  0  0  0  0
    5.0927   -4.2445    0.0000 H   0  0  0  0  0  0  0  0  0  0  0  0
    9.1194    2.6674    0.0000 H   0  0  0  0  0  0  0  0  0  0  0  0
    9.5179    3.3577    0.0000 H   0  0  0  0  0  0  0  0  0  0  0  0
    2.0648   -2.8653    0.0000 H   0  0  0  0  0  0  0  0  0  0  0  0
    1.3834   -3.4171    0.0000 H   0  0  0  0  0  0  0  0  0  0  0  0
    1.9352   -4.0985    0.0000 H   0  0  0  0  0  0  0  0  0  0  0  0
    4.9063   -4.4400    0.0000 H   0  0  0  0  0  0  0  0  0  0  0  0
    7.7122   -4.4400    0.0000 H   0  0  0  0  0  0  0  0  0  0  0  0
    4.9063   -6.0600    0.0000 H   0  0  0  0  0  0  0  0  0  0  0  0
    7.7122   -6.0600    0.0000 H   0  0  0  0  0  0  0  0  0  0  0  0
   10.3103    4.4400    0.0000 H   0  0  0  0  0  0  0  0  0  0  0  0
    7.5044    4.4400    0.0000 H   0  0  0  0  0  0  0  0  0  0  0  0
    6.3092   -6.8700    0.0000 H   0  0  0  0  0  0  0  0  0  0  0  0
   10.3103    6.0600    0.0000 H   0  0  0  0  0  0  0  0  0  0  0  0
    7.5044    6.0600    0.0000 H   0  0  0  0  0  0  0  0  0  0  0  0
    8.9073    6.8700    0.0000 H   0  0  0  0  0  0  0  0  0  0  0  0
  1  7  1  0  0  0  0
  1 20  1  0  0  0  0
  2 18  2  0  0  0  0
  3 19  2  0  0  0  0
  4 10  1  0  0  0  0
  4 11  1  0  0  0  0
  4 12  1  0  0  0  0
  5 15  1  0  0  0  0
  5 18  1  0  0  0  0
  5 21  1  0  0  0  0
  6 16  1  0  0  0  0
  6 19  1  0  0  0  0
  6 22  1  0  0  0  0
  7  8  1  0  0  0  0
  7  9  1  0  0  0  0
  7 34  1  0  0  0  0
  8 10  1  0  0  0  0
  8 35  1  0  0  0  0
  8 36  1  0  0  0  0
  9 11  1  0  0  0  0
  9 37  1  0  0  0  0
  9 38  1  0  0  0  0
 10 39  1  0  0  0  0
 10 40  1  0  0  0  0
 11 41  1  0  0  0  0
 11 42  1  0  0  0  0
 12 13  1  0  0  0  0
 12 43  1  0  0  0  0
 12 44  1  0  0  0  0
 13 15  1  0  0  0  0
 13 45  1  0  0  0  0
 13 46  1  0  0  0  0
 14 16  1  0  0  0  0
 14 17  1  0  0  0  0
 14 18  1  0  0  0  0
 14 47  1  0  0  0  0
 15 48  1  0  0  0  0
 15 49  1  0  0  0  0
 16 50  1  0  0  0  0
 16 51  1  0  0  0  0
 17 19  1  0  0  0  0
 17 52  1  0  0  0  0
 17 53  1  0  0  0  0
 20 23  1  0  0  0  0
 20 54  1  0  0  0  0
 20 55  1  0  0  0  0
 21 24  2  0  0  0  0
 21 25  1  0  0  0  0
 22 56  1  0  0  0  0
 22 57  1  0  0  0  0
 22 58  1  0  0  0  0
 23 28  2  0  0  0  0
 23 29  1  0  0  0  0
 24 26  1  0  0  0  0
 24 59  1  0  0  0  0
 25 27  2  0  0  0  0
 25 60  1  0  0  0  0
 26 30  2  0  0  0  0
 26 61  1  0  0  0  0
 27 30  1  0  0  0  0
 27 62  1  0  0  0  0
 28 31  1  0  0  0  0
 28 63  1  0  0  0  0
 29 32  2  0  0  0  0
 29 64  1  0  0  0  0
 30 65  1  0  0  0  0
 31 33  2  0  0  0  0
 31 66  1  0  0  0  0
 32 33  1  0  0  0  0
 32 67  1  0  0  0  0
 33 68  1  0  0  0  0
M  END
> <PUBCHEM_COMPOUND_CID>
514977
> <PUBCHEM_COMPOUND_CANONICALIZED>
1
> <PUBCHEM_CACTVS_COMPLEXITY>
622
> <PUBCHEM_CACTVS_HBOND_ACCEPTOR>
4
> <PUBCHEM_CACTVS_HBOND_DONOR>
0
> <PUBCHEM_CACTVS_ROTATABLE_BOND>
9
> <PUBCHEM_CACTVS_SUBSKEYS>
AAADcfB7MAAAAAAAAAAAAAAAAAAAAWAAAAA8YIAAAAAAAAABQAAAHgAAAAAADRzhmAYywIMABACIAiVSUACCAAAhAgAIiAEIbIgIJjrA8ZmGMAhmxgHI6AeVwCAOAAAAAAAAAAAAAAAAAAAAAAAAAAAAAA==
> <PUBCHEM_IUPAC_OPENEYE_NAME>
N-[3-(4-benzyloxy-1-piperidyl)propyl]-1-methyl-5-oxo-N-phenyl-pyrrolidine-3-carboxamide
> <PUBCHEM_IUPAC_CAS_NAME>
1-methyl-5-oxo-N-phenyl-N-[3-(4-phenylmethoxy-1-piperidinyl)propyl]-3-pyrrolidinecarboxamide
> <PUBCHEM_IUPAC_NAME_MARKUP>
1-methyl-5-oxo-<I>N</I>-phenyl-<I>N</I>-[3-(4-phenylmethoxypiperidin-1-yl)propyl]pyrrolidine-3-carboxamide
> <PUBCHEM_IUPAC_NAME>
1-methyl-5-oxo-N-phenyl-N-[3-(4-phenylmethoxypiperidin-1-yl)propyl]pyrrolidine-3-carboxamide
> <PUBCHEM_IUPAC_SYSTEMATIC_NAME>
1-methyl-5-oxidanylidene-N-phenyl-N-[3-(4-phenylmethoxypiperidin-1-yl)propyl]pyrrolidine-3-carboxamide
> <PUBCHEM_IUPAC_TRADITIONAL_NAME>
N-[3-(4-benzoxypiperidino)propyl]-5-keto-1-methyl-N-phenyl-pyrrolidine-3-carboxamide
> <PUBCHEM_IUPAC_INCHI>
InChI=1S/C27H35N3O3/c1-28-20-23(19-26(28)31)27(32)30(24-11-6-3-7-12-24)16-8-15-29-17-13-25(14-18-29)33-21-22-9-4-2-5-10-22/h2-7,9-12,23,25H,8,13-21H2,1H3
> <PUBCHEM_IUPAC_INCHIKEY>
PPMMAUPTVUQFDX-UHFFFAOYSA-N
> <PUBCHEM_XLOGP3_AA>
2.8
> <PUBCHEM_EXACT_MASS>
449.26784199
> <PUBCHEM_MOLECULAR_FORMULA>
C27H35N3O3
> <PUBCHEM_MOLECULAR_WEIGHT>
449.6
> <PUBCHEM_OPENEYE_CAN_SMILES>
CN1CC(CC1=O)C(=O)N(CCCN2CCC(CC2)OCC3=CC=CC=C3)C4=CC=CC=C4
> <PUBCHEM_OPENEYE_ISO_SMILES>
CN1CC(CC1=O)C(=O)N(CCCN2CCC(CC2)OCC3=CC=CC=C3)C4=CC=CC=C4
> <PUBCHEM_CACTVS_TPSA>
53.1
> <PUBCHEM_MONOISOTOPIC_WEIGHT>
449.26784199
> <PUBCHEM_TOTAL_CHARGE>
0
> <PUBCHEM_HEAVY_ATOM_COUNT>
33
> <PUBCHEM_ATOM_DEF_STEREO_COUNT>
0
> <PUBCHEM_ATOM_UDEF_STEREO_COUNT>
1
> <PUBCHEM_BOND_DEF_STEREO_COUNT>
0
> <PUBCHEM_BOND_UDEF_STEREO_COUNT>
0
> <PUBCHEM_ISOTOPIC_ATOM_COUNT>
0
> <PUBCHEM_COMPONENT_COUNT>
1
> <PUBCHEM_CACTVS_TAUTO_COUNT>
-1
> <PUBCHEM_COORDINATE_TYPE>
1
5
255
> <PUBCHEM_BONDANNOTATIONS>
14  18  3
21  24  8
21  25  8
23  28  8
23  29  8
24  26  8
25  27  8
26  30  8
27  30  8
28  31  8
29  32  8
31  33  8
32  33  8
$$$$
