514968
  -OEChem-10302200282D
 65 68  0     1  0  0  0  0  0999 V2000
   10.0413    5.7320    0.0000 Cl  0  0  0  0  0  0  0  0  0  0  0  0
    7.5413    3.1340    0.0000 O   0  0  0  0  0  0  0  0  0  0  0  0
    5.4432   -1.2320    0.0000 O   0  0  0  0  0  0  0  0  0  0  0  0
    3.0878   -4.8480    0.0000 O   0  0  0  0  0  0  0  0  0  0  0  0
    8.0413    0.2679    0.0000 N   0  0  0  0  0  0  0  0  0  0  0  0
    6.3092   -2.7320    0.0000 N   0  0  0  0  0  0  0  0  0  0  0  0
    2.9945   -3.0685    0.0000 N   0  0  0  0  0  0  0  0  0  0  0  0
    8.0413    2.2680    0.0000 C   0  0  0  0  0  0  0  0  0  0  0  0
    7.1753    1.7680    0.0000 C   0  0  0  0  0  0  0  0  0  0  0  0
    8.9073    1.7680    0.0000 C   0  0  0  0  0  0  0  0  0  0  0  0
    7.1753    0.7679    0.0000 C   0  0  0  0  0  0  0  0  0  0  0  0
    8.9073    0.7679    0.0000 C   0  0  0  0  0  0  0  0  0  0  0  0
    8.0413   -0.7321    0.0000 C   0  0  0  0  0  0  0  0  0  0  0  0
    8.5413    3.1340    0.0000 C   0  0  0  0  0  0  0  0  0  0  0  0
    7.1753   -1.2320    0.0000 C   0  0  0  0  0  0  0  0  0  0  0  0
    4.5772   -2.7320    0.0000 C   0  0  3  0  0  0  0  0  0  0  0  0
    7.1753   -2.2320    0.0000 C   0  0  0  0  0  0  0  0  0  0  0  0
    3.6636   -2.3253    0.0000 C   0  0  0  0  0  0  0  0  0  0  0  0
    4.4727   -3.7266    0.0000 C   0  0  0  0  0  0  0  0  0  0  0  0
    5.4432   -2.2320    0.0000 C   0  0  0  0  0  0  0  0  0  0  0  0
    8.0413    4.0000    0.0000 C   0  0  0  0  0  0  0  0  0  0  0  0
    9.5413    3.1340    0.0000 C   0  0  0  0  0  0  0  0  0  0  0  0
    3.4945   -3.9345    0.0000 C   0  0  0  0  0  0  0  0  0  0  0  0
    6.3092   -3.7320    0.0000 C   0  0  0  0  0  0  0  0  0  0  0  0
    8.5413    4.8660    0.0000 C   0  0  0  0  0  0  0  0  0  0  0  0
   10.0413    4.0000    0.0000 C   0  0  0  0  0  0  0  0  0  0  0  0
    2.0000   -2.9639    0.0000 C   0  0  0  0  0  0  0  0  0  0  0  0
    9.5413    4.8660    0.0000 C   0  0  0  0  0  0  0  0  0  0  0  0
    7.1753   -4.2320    0.0000 C   0  0  0  0  0  0  0  0  0  0  0  0
    5.4432   -4.2320    0.0000 C   0  0  0  0  0  0  0  0  0  0  0  0
    7.1753   -5.2320    0.0000 C   0  0  0  0  0  0  0  0  0  0  0  0
    5.4432   -5.2320    0.0000 C   0  0  0  0  0  0  0  0  0  0  0  0
    6.3092   -5.7320    0.0000 C   0  0  0  0  0  0  0  0  0  0  0  0
    6.9632    2.3506    0.0000 H   0  0  0  0  0  0  0  0  0  0  0  0
    6.5647    1.6603    0.0000 H   0  0  0  0  0  0  0  0  0  0  0  0
    9.5179    1.6603    0.0000 H   0  0  0  0  0  0  0  0  0  0  0  0
    9.1194    2.3506    0.0000 H   0  0  0  0  0  0  0  0  0  0  0  0
    6.5647    0.8756    0.0000 H   0  0  0  0  0  0  0  0  0  0  0  0
    6.9632    0.1853    0.0000 H   0  0  0  0  0  0  0  0  0  0  0  0
    9.1194    0.1853    0.0000 H   0  0  0  0  0  0  0  0  0  0  0  0
    9.5179    0.8756    0.0000 H   0  0  0  0  0  0  0  0  0  0  0  0
    8.2534   -1.3147    0.0000 H   0  0  0  0  0  0  0  0  0  0  0  0
    8.6519   -0.6244    0.0000 H   0  0  0  0  0  0  0  0  0  0  0  0
    6.9632   -0.6494    0.0000 H   0  0  0  0  0  0  0  0  0  0  0  0
    6.5647   -1.3397    0.0000 H   0  0  0  0  0  0  0  0  0  0  0  0
    4.5447   -2.1129    0.0000 H   0  0  0  0  0  0  0  0  0  0  0  0
    7.3873   -2.8147    0.0000 H   0  0  0  0  0  0  0  0  0  0  0  0
    7.7859   -2.1244    0.0000 H   0  0  0  0  0  0  0  0  0  0  0  0
    6.9213    3.1340    0.0000 H   0  0  0  0  0  0  0  0  0  0  0  0
    3.9736   -1.7884    0.0000 H   0  0  0  0  0  0  0  0  0  0  0  0
    3.1621   -1.9609    0.0000 H   0  0  0  0  0  0  0  0  0  0  0  0
    4.5375   -4.3432    0.0000 H   0  0  0  0  0  0  0  0  0  0  0  0
    5.0927   -3.7266    0.0000 H   0  0  0  0  0  0  0  0  0  0  0  0
    7.4213    4.0000    0.0000 H   0  0  0  0  0  0  0  0  0  0  0  0
    9.8513    2.5970    0.0000 H   0  0  0  0  0  0  0  0  0  0  0  0
    8.2313    5.4030    0.0000 H   0  0  0  0  0  0  0  0  0  0  0  0
   10.6613    4.0000    0.0000 H   0  0  0  0  0  0  0  0  0  0  0  0
    2.0648   -2.3473    0.0000 H   0  0  0  0  0  0  0  0  0  0  0  0
    1.3834   -2.8991    0.0000 H   0  0  0  0  0  0  0  0  0  0  0  0
    1.9352   -3.5805    0.0000 H   0  0  0  0  0  0  0  0  0  0  0  0
    7.7122   -3.9220    0.0000 H   0  0  0  0  0  0  0  0  0  0  0  0
    4.9063   -3.9220    0.0000 H   0  0  0  0  0  0  0  0  0  0  0  0
    7.7122   -5.5420    0.0000 H   0  0  0  0  0  0  0  0  0  0  0  0
    4.9063   -5.5420    0.0000 H   0  0  0  0  0  0  0  0  0  0  0  0
    6.3092   -6.3520    0.0000 H   0  0  0  0  0  0  0  0  0  0  0  0
  1 28  1  0  0  0  0
  2  8  1  0  0  0  0
  2 49  1  0  0  0  0
  3 20  2  0  0  0  0
  4 23  2  0  0  0  0
  5 11  1  0  0  0  0
  5 12  1  0  0  0  0
  5 13  1  0  0  0  0
  6 17  1  0  0  0  0
  6 20  1  0  0  0  0
  6 24  1  0  0  0  0
  7 18  1  0  0  0  0
  7 23  1  0  0  0  0
  7 27  1  0  0  0  0
  8  9  1  0  0  0  0
  8 10  1  0  0  0  0
  8 14  1  0  0  0  0
  9 11  1  0  0  0  0
  9 34  1  0  0  0  0
  9 35  1  0  0  0  0
 10 12  1  0  0  0  0
 10 36  1  0  0  0  0
 10 37  1  0  0  0  0
 11 38  1  0  0  0  0
 11 39  1  0  0  0  0
 12 40  1  0  0  0  0
 12 41  1  0  0  0  0
 13 15  1  0  0  0  0
 13 42  1  0  0  0  0
 13 43  1  0  0  0  0
 14 21  2  0  0  0  0
 14 22  1  0  0  0  0
 15 17  1  0  0  0  0
 15 44  1  0  0  0  0
 15 45  1  0  0  0  0
 16 18  1  0  0  0  0
 16 19  1  0  0  0  0
 16 20  1  0  0  0  0
 16 46  1  0  0  0  0
 17 47  1  0  0  0  0
 17 48  1  0  0  0  0
 18 50  1  0  0  0  0
 18 51  1  0  0  0  0
 19 23  1  0  0  0  0
 19 52  1  0  0  0  0
 19 53  1  0  0  0  0
 21 25  1  0  0  0  0
 21 54  1  0  0  0  0
 22 26  2  0  0  0  0
 22 55  1  0  0  0  0
 24 29  2  0  0  0  0
 24 30  1  0  0  0  0
 25 28  2  0  0  0  0
 25 56  1  0  0  0  0
 26 28  1  0  0  0  0
 26 57  1  0  0  0  0
 27 58  1  0  0  0  0
 27 59  1  0  0  0  0
 27 60  1  0  0  0  0
 29 31  1  0  0  0  0
 29 61  1  0  0  0  0
 30 32  2  0  0  0  0
 30 62  1  0  0  0  0
 31 33  2  0  0  0  0
 31 63  1  0  0  0  0
 32 33  1  0  0  0  0
 32 64  1  0  0  0  0
 33 65  1  0  0  0  0
M  END
> <PUBCHEM_COMPOUND_CID>
514968
> <PUBCHEM_COMPOUND_CANONICALIZED>
1
> <PUBCHEM_CACTVS_COMPLEXITY>
668
> <PUBCHEM_CACTVS_HBOND_ACCEPTOR>
4
> <PUBCHEM_CACTVS_HBOND_DONOR>
1
> <PUBCHEM_CACTVS_ROTATABLE_BOND>
7
> <PUBCHEM_CACTVS_SUBSKEYS>
AAADcfB7MAAEAAAAAAAAAAAAAAAAAWAAAAA8YIAAAAAAAAABQAAAHgIACAAADU7BmCQywIMAAgCIAiVSUACCAAAhBwAIiAEIbogIJjrB05GEcAhmxgHI2AeVwOAOhAAAAAAAAAAIAAAAAAAAAAAAAAAAAA==
> <PUBCHEM_IUPAC_OPENEYE_NAME>
N-[3-[4-(4-chlorophenyl)-4-hydroxy-1-piperidyl]propyl]-1-methyl-5-oxo-N-phenyl-pyrrolidine-3-carboxamide
> <PUBCHEM_IUPAC_CAS_NAME>
N-[3-[4-(4-chlorophenyl)-4-hydroxy-1-piperidinyl]propyl]-1-methyl-5-oxo-N-phenyl-3-pyrrolidinecarboxamide
> <PUBCHEM_IUPAC_NAME_MARKUP>
<I>N</I>-[3-[4-(4-chlorophenyl)-4-hydroxypiperidin-1-yl]propyl]-1-methyl-5-oxo-<I>N</I>-phenylpyrrolidine-3-carboxamide
> <PUBCHEM_IUPAC_NAME>
N-[3-[4-(4-chlorophenyl)-4-hydroxypiperidin-1-yl]propyl]-1-methyl-5-oxo-N-phenylpyrrolidine-3-carboxamide
> <PUBCHEM_IUPAC_SYSTEMATIC_NAME>
N-[3-[4-(4-chlorophenyl)-4-oxidanyl-piperidin-1-yl]propyl]-1-methyl-5-oxidanylidene-N-phenyl-pyrrolidine-3-carboxamide
> <PUBCHEM_IUPAC_TRADITIONAL_NAME>
N-[3-[4-(4-chlorophenyl)-4-hydroxy-piperidino]propyl]-5-keto-1-methyl-N-phenyl-pyrrolidine-3-carboxamide
> <PUBCHEM_IUPAC_INCHI>
InChI=1S/C26H32ClN3O3/c1-28-19-20(18-24(28)31)25(32)30(23-6-3-2-4-7-23)15-5-14-29-16-12-26(33,13-17-29)21-8-10-22(27)11-9-21/h2-4,6-11,20,33H,5,12-19H2,1H3
> <PUBCHEM_IUPAC_INCHIKEY>
ZRGNWBQFLHMKKL-UHFFFAOYSA-N
> <PUBCHEM_XLOGP3_AA>
2.6
> <PUBCHEM_EXACT_MASS>
469.2132196
> <PUBCHEM_MOLECULAR_FORMULA>
C26H32ClN3O3
> <PUBCHEM_MOLECULAR_WEIGHT>
470.0
> <PUBCHEM_OPENEYE_CAN_SMILES>
CN1CC(CC1=O)C(=O)N(CCCN2CCC(CC2)(C3=CC=C(C=C3)Cl)O)C4=CC=CC=C4
> <PUBCHEM_OPENEYE_ISO_SMILES>
CN1CC(CC1=O)C(=O)N(CCCN2CCC(CC2)(C3=CC=C(C=C3)Cl)O)C4=CC=CC=C4
> <PUBCHEM_CACTVS_TPSA>
64.1
> <PUBCHEM_MONOISOTOPIC_WEIGHT>
469.2132196
> <PUBCHEM_TOTAL_CHARGE>
0
> <PUBCHEM_HEAVY_ATOM_COUNT>
33
> <PUBCHEM_ATOM_DEF_STEREO_COUNT>
0
> <PUBCHEM_ATOM_UDEF_STEREO_COUNT>
1
> <PUBCHEM_BOND_DEF_STEREO_COUNT>
0
> <PUBCHEM_BOND_UDEF_STEREO_COUNT>
0
> <PUBCHEM_ISOTOPIC_ATOM_COUNT>
0
> <PUBCHEM_COMPONENT_COUNT>
1
> <PUBCHEM_CACTVS_TAUTO_COUNT>
-1
> <PUBCHEM_COORDINATE_TYPE>
1
5
255
> <PUBCHEM_BONDANNOTATIONS>
14  21  8
14  22  8
16  20  3
21  25  8
22  26  8
24  29  8
24  30  8
25  28  8
26  28  8
29  31  8
30  32  8
31  33  8
32  33  8
$$$$
