514918
  -OEChem-10302200282D
199202  0     1  0  0  0  0  0999 V2000
    3.5385    9.9014    0.0000 O   0  0  0  0  0  0  0  0  0  0  0  0
    2.0000   10.6969    0.0000 O   0  0  0  0  0  0  0  0  0  0  0  0
    4.9165   12.5662    0.0000 O   0  0  0  0  0  0  0  0  0  0  0  0
    5.9957   10.8823    0.0000 O   0  0  0  0  0  0  0  0  0  0  0  0
    2.9186   12.4735    0.0000 O   0  0  0  0  0  0  0  0  0  0  0  0
    6.2553    9.7264    0.0000 O   0  0  0  0  0  0  0  0  0  0  0  0
    4.0817    8.0251    0.0000 O   0  0  0  0  0  0  0  0  0  0  0  0
    7.6798    9.0251    0.0000 O   0  0  0  0  0  0  0  0  0  0  0  0
    4.9477    6.5251    0.0000 O   0  0  0  0  0  0  0  0  0  0  0  0
   10.2778    6.5251    0.0000 O   0  0  0  0  0  0  0  0  0  0  0  0
   12.0099    3.5251    0.0000 O   0  0  0  0  0  0  0  0  0  0  0  0
   12.8759   -0.9749    0.0000 N   0  0  3  0  0  0  0  0  0  0  0  0
    6.6798    7.5251    0.0000 N   0  0  0  0  0  0  0  0  0  0  0  0
   13.7419   -4.4749    0.0000 N   0  0  3  0  0  0  0  0  0  0  0  0
   11.1439   -2.9749    0.0000 N   0  0  0  0  0  0  0  0  0  0  0  0
    9.4118    8.0251    0.0000 N   0  0  0  0  0  0  0  0  0  0  0  0
   15.4740   -2.4749    0.0000 N   0  0  0  0  0  0  0  0  0  0  0  0
   17.2060   -8.4749    0.0000 N   0  0  3  0  0  0  0  0  0  0  0  0
   10.2778    3.5251    0.0000 N   0  0  0  0  0  0  0  0  0  0  0  0
   15.4740  -10.4749    0.0000 N   0  0  0  0  0  0  0  0  0  0  0  0
   19.8041   -9.9749    0.0000 N   0  0  0  0  0  0  0  0  0  0  0  0
   18.0721  -11.9749    0.0000 N   0  0  0  0  0  0  0  0  0  0  0  0
    4.4572   11.6779    0.0000 C   0  0  1  0  0  0  0  0  0  0  0  0
    4.9968   10.8360    0.0000 C   0  0  2  0  0  0  0  0  0  0  0  0
    3.4582   11.6316    0.0000 C   0  0  2  0  0  0  0  0  0  0  0  0
    4.5374    9.9477    0.0000 C   0  0  1  0  0  0  0  0  0  0  0  0
    2.9989   10.7433    0.0000 C   0  0  1  0  0  0  0  0  0  0  0  0
    5.3324    9.3412    0.0000 C   0  0  0  0  0  0  0  0  0  0  0  0
    5.8137    9.0251    0.0000 C   0  0  0  0  0  0  0  0  0  0  0  0
    5.8137    8.0251    0.0000 C   0  0  1  0  0  0  0  0  0  0  0  0
    8.5458    7.5251    0.0000 C   0  0  1  0  0  0  0  0  0  0  0  0
   13.7419   -1.4749    0.0000 C   0  0  0  0  0  0  0  0  0  0  0  0
   12.8759    0.0251    0.0000 C   0  0  0  0  0  0  0  0  0  0  0  0
   12.0099   -1.4749    0.0000 C   0  0  0  0  0  0  0  0  0  0  0  0
    8.5458    6.5251    0.0000 C   0  0  0  0  0  0  0  0  0  0  0  0
   14.6080   -0.9749    0.0000 C   0  0  0  0  0  0  0  0  0  0  0  0
    7.6798    8.0251    0.0000 C   0  0  0  0  0  0  0  0  0  0  0  0
   12.0099    0.5251    0.0000 C   0  0  0  0  0  0  0  0  0  0  0  0
   12.8759   -3.9749    0.0000 C   0  0  0  0  0  0  0  0  0  0  0  0
   14.6080   -3.9749    0.0000 C   0  0  0  0  0  0  0  0  0  0  0  0
   12.0099   -2.4749    0.0000 C   0  0  0  0  0  0  0  0  0  0  0  0
   12.0099   -4.4749    0.0000 C   0  0  0  0  0  0  0  0  0  0  0  0
    4.9477    7.5251    0.0000 C   0  0  0  0  0  0  0  0  0  0  0  0
    9.4118    6.0251    0.0000 C   0  0  0  0  0  0  0  0  0  0  0  0
   15.4740   -1.4749    0.0000 C   0  0  0  0  0  0  0  0  0  0  0  0
   11.1439   -3.9749    0.0000 C   0  0  0  0  0  0  0  0  0  0  0  0
   14.6080   -2.9749    0.0000 C   0  0  0  0  0  0  0  0  0  0  0  0
   13.7419   -5.4749    0.0000 C   0  0  0  0  0  0  0  0  0  0  0  0
   12.0099    1.5251    0.0000 C   0  0  0  0  0  0  0  0  0  0  0  0
    9.4118    5.0251    0.0000 C   0  0  0  0  0  0  0  0  0  0  0  0
   14.6080    8.0251    0.0000 C   0  0  0  0  0  0  0  0  0  0  0  0
   13.7419    7.5251    0.0000 C   0  0  0  0  0  0  0  0  0  0  0  0
   15.4740    7.5251    0.0000 C   0  0  0  0  0  0  0  0  0  0  0  0
   12.8759    8.0251    0.0000 C   0  0  0  0  0  0  0  0  0  0  0  0
   16.3400    8.0251    0.0000 C   0  0  0  0  0  0  0  0  0  0  0  0
   12.0099    7.5251    0.0000 C   0  0  0  0  0  0  0  0  0  0  0  0
   11.1439    2.0251    0.0000 C   0  0  0  0  0  0  0  0  0  0  0  0
   11.1439    8.0251    0.0000 C   0  0  0  0  0  0  0  0  0  0  0  0
   17.2060    7.5251    0.0000 C   0  0  0  0  0  0  0  0  0  0  0  0
   14.6080   -5.9749    0.0000 C   0  0  0  0  0  0  0  0  0  0  0  0
   10.2778    4.5251    0.0000 C   0  0  0  0  0  0  0  0  0  0  0  0
   10.2778    7.5251    0.0000 C   0  0  0  0  0  0  0  0  0  0  0  0
   18.0721    8.0251    0.0000 C   0  0  0  0  0  0  0  0  0  0  0  0
   17.2060   -7.4749    0.0000 C   0  0  0  0  0  0  0  0  0  0  0  0
   18.0721   -8.9749    0.0000 C   0  0  0  0  0  0  0  0  0  0  0  0
   16.3400   -8.9749    0.0000 C   0  0  0  0  0  0  0  0  0  0  0  0
   16.3400   -6.9749    0.0000 C   0  0  0  0  0  0  0  0  0  0  0  0
   18.9381    7.5251    0.0000 C   0  0  0  0  0  0  0  0  0  0  0  0
   11.1439    3.0251    0.0000 C   0  0  0  0  0  0  0  0  0  0  0  0
   18.9381   -8.4749    0.0000 C   0  0  0  0  0  0  0  0  0  0  0  0
   14.6080   -6.9749    0.0000 C   0  0  0  0  0  0  0  0  0  0  0  0
   15.4740   -5.4749    0.0000 C   0  0  0  0  0  0  0  0  0  0  0  0
   16.3400   -9.9749    0.0000 C   0  0  0  0  0  0  0  0  0  0  0  0
   15.4740   -7.4749    0.0000 C   0  0  0  0  0  0  0  0  0  0  0  0
   16.3400   -5.9749    0.0000 C   0  0  0  0  0  0  0  0  0  0  0  0
   19.8041    8.0251    0.0000 C   0  0  0  0  0  0  0  0  0  0  0  0
   19.8041   -8.9749    0.0000 C   0  0  0  0  0  0  0  0  0  0  0  0
   20.6701    7.5251    0.0000 C   0  0  0  0  0  0  0  0  0  0  0  0
   15.4740  -11.4749    0.0000 C   0  0  0  0  0  0  0  0  0  0  0  0
   16.3400  -11.9749    0.0000 C   0  0  0  0  0  0  0  0  0  0  0  0
   18.9381  -10.4749    0.0000 C   0  0  0  0  0  0  0  0  0  0  0  0
   17.2060  -11.4749    0.0000 C   0  0  0  0  0  0  0  0  0  0  0  0
   18.9381  -11.4749    0.0000 C   0  0  0  0  0  0  0  0  0  0  0  0
   21.5362    8.0251    0.0000 C   0  0  0  0  0  0  0  0  0  0  0  0
    5.0765   11.7067    0.0000 H   0  0  0  0  0  0  0  0  0  0  0  0
    5.2816   11.3867    0.0000 H   0  0  0  0  0  0  0  0  0  0  0  0
    3.7430   12.1823    0.0000 H   0  0  0  0  0  0  0  0  0  0  0  0
    4.3526    9.3559    0.0000 H   0  0  0  0  0  0  0  0  0  0  0  0
    2.6644   11.2653    0.0000 H   0  0  0  0  0  0  0  0  0  0  0  0
    4.8765    8.9211    0.0000 H   0  0  0  0  0  0  0  0  0  0  0  0
    5.6670    8.8192    0.0000 H   0  0  0  0  0  0  0  0  0  0  0  0
    5.5358   12.5949    0.0000 H   0  0  0  0  0  0  0  0  0  0  0  0
    6.2805   11.4331    0.0000 H   0  0  0  0  0  0  0  0  0  0  0  0
    2.2993   12.4447    0.0000 H   0  0  0  0  0  0  0  0  0  0  0  0
    6.4279    8.9400    0.0000 H   0  0  0  0  0  0  0  0  0  0  0  0
    5.9824    9.6217    0.0000 H   0  0  0  0  0  0  0  0  0  0  0  0
    6.3507    8.3351    0.0000 H   0  0  0  0  0  0  0  0  0  0  0  0
    6.3345   10.3413    0.0000 H   0  0  0  0  0  0  0  0  0  0  0  0
    9.0827    7.2151    0.0000 H   0  0  0  0  0  0  0  0  0  0  0  0
    7.2167    7.2151    0.0000 H   0  0  0  0  0  0  0  0  0  0  0  0
   13.3434   -1.9499    0.0000 H   0  0  0  0  0  0  0  0  0  0  0  0
   14.1405   -1.9499    0.0000 H   0  0  0  0  0  0  0  0  0  0  0  0
   13.4865   -0.0826    0.0000 H   0  0  0  0  0  0  0  0  0  0  0  0
   13.0880    0.6077    0.0000 H   0  0  0  0  0  0  0  0  0  0  0  0
   11.7978   -0.8923    0.0000 H   0  0  0  0  0  0  0  0  0  0  0  0
   11.3993   -1.5826    0.0000 H   0  0  0  0  0  0  0  0  0  0  0  0
    7.9352    6.6327    0.0000 H   0  0  0  0  0  0  0  0  0  0  0  0
    8.3337    5.9425    0.0000 H   0  0  0  0  0  0  0  0  0  0  0  0
   15.0065   -0.5000    0.0000 H   0  0  0  0  0  0  0  0  0  0  0  0
   14.2094   -0.5000    0.0000 H   0  0  0  0  0  0  0  0  0  0  0  0
   11.3993    0.6327    0.0000 H   0  0  0  0  0  0  0  0  0  0  0  0
   11.7978   -0.0575    0.0000 H   0  0  0  0  0  0  0  0  0  0  0  0
   13.2744   -3.5000    0.0000 H   0  0  0  0  0  0  0  0  0  0  0  0
   12.4774   -3.5000    0.0000 H   0  0  0  0  0  0  0  0  0  0  0  0
   14.8200   -4.5575    0.0000 H   0  0  0  0  0  0  0  0  0  0  0  0
   15.2185   -3.8673    0.0000 H   0  0  0  0  0  0  0  0  0  0  0  0
   12.2219   -3.0575    0.0000 H   0  0  0  0  0  0  0  0  0  0  0  0
   12.6205   -2.3673    0.0000 H   0  0  0  0  0  0  0  0  0  0  0  0
   11.6114   -4.9499    0.0000 H   0  0  0  0  0  0  0  0  0  0  0  0
   12.4084   -4.9499    0.0000 H   0  0  0  0  0  0  0  0  0  0  0  0
   10.0224    5.9174    0.0000 H   0  0  0  0  0  0  0  0  0  0  0  0
    9.6239    6.6077    0.0000 H   0  0  0  0  0  0  0  0  0  0  0  0
   16.0846   -1.5826    0.0000 H   0  0  0  0  0  0  0  0  0  0  0  0
   15.6860   -0.8923    0.0000 H   0  0  0  0  0  0  0  0  0  0  0  0
   10.5333   -3.8673    0.0000 H   0  0  0  0  0  0  0  0  0  0  0  0
   10.9318   -4.5575    0.0000 H   0  0  0  0  0  0  0  0  0  0  0  0
   14.3959   -2.3923    0.0000 H   0  0  0  0  0  0  0  0  0  0  0  0
   13.9974   -3.0826    0.0000 H   0  0  0  0  0  0  0  0  0  0  0  0
   13.1314   -5.3673    0.0000 H   0  0  0  0  0  0  0  0  0  0  0  0
   13.5299   -6.0575    0.0000 H   0  0  0  0  0  0  0  0  0  0  0  0
   12.6205    1.4174    0.0000 H   0  0  0  0  0  0  0  0  0  0  0  0
   12.2219    2.1077    0.0000 H   0  0  0  0  0  0  0  0  0  0  0  0
   10.6069   -2.6649    0.0000 H   0  0  0  0  0  0  0  0  0  0  0  0
    8.8012    5.1327    0.0000 H   0  0  0  0  0  0  0  0  0  0  0  0
    9.1998    4.4425    0.0000 H   0  0  0  0  0  0  0  0  0  0  0  0
   16.0109   -2.7849    0.0000 H   0  0  0  0  0  0  0  0  0  0  0  0
    9.4118    8.6451    0.0000 H   0  0  0  0  0  0  0  0  0  0  0  0
   15.0065    8.5000    0.0000 H   0  0  0  0  0  0  0  0  0  0  0  0
   14.2094    8.5000    0.0000 H   0  0  0  0  0  0  0  0  0  0  0  0
   13.3434    7.0501    0.0000 H   0  0  0  0  0  0  0  0  0  0  0  0
   14.1405    7.0501    0.0000 H   0  0  0  0  0  0  0  0  0  0  0  0
   15.0755    7.0501    0.0000 H   0  0  0  0  0  0  0  0  0  0  0  0
   15.8725    7.0501    0.0000 H   0  0  0  0  0  0  0  0  0  0  0  0
   13.2744    8.5000    0.0000 H   0  0  0  0  0  0  0  0  0  0  0  0
   12.4774    8.5000    0.0000 H   0  0  0  0  0  0  0  0  0  0  0  0
   16.7385    8.5000    0.0000 H   0  0  0  0  0  0  0  0  0  0  0  0
   15.9415    8.5000    0.0000 H   0  0  0  0  0  0  0  0  0  0  0  0
   11.6114    7.0501    0.0000 H   0  0  0  0  0  0  0  0  0  0  0  0
   12.4084    7.0501    0.0000 H   0  0  0  0  0  0  0  0  0  0  0  0
   10.5333    2.1327    0.0000 H   0  0  0  0  0  0  0  0  0  0  0  0
   10.9318    1.4425    0.0000 H   0  0  0  0  0  0  0  0  0  0  0  0
   11.5424    8.5000    0.0000 H   0  0  0  0  0  0  0  0  0  0  0  0
   10.7453    8.5000    0.0000 H   0  0  0  0  0  0  0  0  0  0  0  0
   16.8075    7.0501    0.0000 H   0  0  0  0  0  0  0  0  0  0  0  0
   17.6046    7.0501    0.0000 H   0  0  0  0  0  0  0  0  0  0  0  0
   10.8884    4.4174    0.0000 H   0  0  0  0  0  0  0  0  0  0  0  0
   10.4899    5.1077    0.0000 H   0  0  0  0  0  0  0  0  0  0  0  0
   18.4706    8.5000    0.0000 H   0  0  0  0  0  0  0  0  0  0  0  0
   17.6735    8.5000    0.0000 H   0  0  0  0  0  0  0  0  0  0  0  0
   17.8166   -7.5826    0.0000 H   0  0  0  0  0  0  0  0  0  0  0  0
   17.4181   -6.8923    0.0000 H   0  0  0  0  0  0  0  0  0  0  0  0
   17.6735   -9.4499    0.0000 H   0  0  0  0  0  0  0  0  0  0  0  0
   18.4706   -9.4499    0.0000 H   0  0  0  0  0  0  0  0  0  0  0  0
   16.1280   -8.3923    0.0000 H   0  0  0  0  0  0  0  0  0  0  0  0
   15.7294   -9.0826    0.0000 H   0  0  0  0  0  0  0  0  0  0  0  0
   18.5396    7.0501    0.0000 H   0  0  0  0  0  0  0  0  0  0  0  0
   19.3366    7.0501    0.0000 H   0  0  0  0  0  0  0  0  0  0  0  0
    9.7409    3.2151    0.0000 H   0  0  0  0  0  0  0  0  0  0  0  0
   19.3366   -8.0000    0.0000 H   0  0  0  0  0  0  0  0  0  0  0  0
   18.5396   -8.0000    0.0000 H   0  0  0  0  0  0  0  0  0  0  0  0
   14.0710   -7.2849    0.0000 H   0  0  0  0  0  0  0  0  0  0  0  0
   15.4740   -4.8549    0.0000 H   0  0  0  0  0  0  0  0  0  0  0  0
   16.5521  -10.5575    0.0000 H   0  0  0  0  0  0  0  0  0  0  0  0
   16.9506   -9.8673    0.0000 H   0  0  0  0  0  0  0  0  0  0  0  0
   15.4740   -8.0949    0.0000 H   0  0  0  0  0  0  0  0  0  0  0  0
   16.8770   -5.6649    0.0000 H   0  0  0  0  0  0  0  0  0  0  0  0
   20.2026    8.5000    0.0000 H   0  0  0  0  0  0  0  0  0  0  0  0
   19.4056    8.5000    0.0000 H   0  0  0  0  0  0  0  0  0  0  0  0
    3.5448    7.7151    0.0000 H   0  0  0  0  0  0  0  0  0  0  0  0
   20.4147   -9.0826    0.0000 H   0  0  0  0  0  0  0  0  0  0  0  0
   20.0162   -8.3923    0.0000 H   0  0  0  0  0  0  0  0  0  0  0  0
   14.9371  -10.1649    0.0000 H   0  0  0  0  0  0  0  0  0  0  0  0
   20.2716    7.0501    0.0000 H   0  0  0  0  0  0  0  0  0  0  0  0
   21.0687    7.0501    0.0000 H   0  0  0  0  0  0  0  0  0  0  0  0
   14.8634  -11.3673    0.0000 H   0  0  0  0  0  0  0  0  0  0  0  0
   15.2619  -12.0575    0.0000 H   0  0  0  0  0  0  0  0  0  0  0  0
   15.9415  -12.4499    0.0000 H   0  0  0  0  0  0  0  0  0  0  0  0
   16.7385  -12.4499    0.0000 H   0  0  0  0  0  0  0  0  0  0  0  0
   20.3411  -10.2849    0.0000 H   0  0  0  0  0  0  0  0  0  0  0  0
   18.7260   -9.8923    0.0000 H   0  0  0  0  0  0  0  0  0  0  0  0
   18.3275  -10.5826    0.0000 H   0  0  0  0  0  0  0  0  0  0  0  0
   17.6046  -11.0000    0.0000 H   0  0  0  0  0  0  0  0  0  0  0  0
   16.8075  -11.0000    0.0000 H   0  0  0  0  0  0  0  0  0  0  0  0
   19.1501  -12.0575    0.0000 H   0  0  0  0  0  0  0  0  0  0  0  0
   19.5487  -11.3673    0.0000 H   0  0  0  0  0  0  0  0  0  0  0  0
   18.0721  -12.5949    0.0000 H   0  0  0  0  0  0  0  0  0  0  0  0
   21.8462    7.4881    0.0000 H   0  0  0  0  0  0  0  0  0  0  0  0
   22.0731    8.3351    0.0000 H   0  0  0  0  0  0  0  0  0  0  0  0
   21.2262    8.5620    0.0000 H   0  0  0  0  0  0  0  0  0  0  0  0
  1 26  1  0  0  0  0
  1 27  1  0  0  0  0
 27  2  1  1  0  0  0
  2 29  1  0  0  0  0
 23  3  1  1  0  0  0
  3 92  1  0  0  0  0
 24  4  1  1  0  0  0
  4 93  1  0  0  0  0
 25  5  1  6  0  0  0
  5 94  1  0  0  0  0
  6 28  1  0  0  0  0
  6 98  1  0  0  0  0
  7 43  1  0  0  0  0
  7179  1  0  0  0  0
  8 37  2  0  0  0  0
  9 43  2  0  0  0  0
 10 62  2  0  0  0  0
 11 69  2  0  0  0  0
 12 32  1  0  0  0  0
 12 33  1  0  0  0  0
 12 34  1  0  0  0  0
 30 13  1  6  0  0  0
 13 37  1  0  0  0  0
 13100  1  0  0  0  0
 14 39  1  0  0  0  0
 14 40  1  0  0  0  0
 14 48  1  0  0  0  0
 15 41  1  0  0  0  0
 15 46  1  0  0  0  0
 15133  1  0  0  0  0
 31 16  1  1  0  0  0
 16 62  1  0  0  0  0
 16137  1  0  0  0  0
 17 45  1  0  0  0  0
 17 47  1  0  0  0  0
 17136  1  0  0  0  0
 18 64  1  0  0  0  0
 18 65  1  0  0  0  0
 18 66  1  0  0  0  0
 19 61  1  0  0  0  0
 19 69  1  0  0  0  0
 19168  1  0  0  0  0
 20 73  1  0  0  0  0
 20 79  1  0  0  0  0
 20182  1  0  0  0  0
 21 77  1  0  0  0  0
 21 81  1  0  0  0  0
 21189  1  0  0  0  0
 22 82  1  0  0  0  0
 22 83  1  0  0  0  0
 22196  1  0  0  0  0
 23 24  1  0  0  0  0
 23 25  1  0  0  0  0
 23 85  1  0  0  0  0
 24 26  1  0  0  0  0
 24 86  1  0  0  0  0
 25 27  1  0  0  0  0
 25 87  1  0  0  0  0
 26 28  1  1  0  0  0
 26 88  1  0  0  0  0
 27 89  1  0  0  0  0
 28 90  1  0  0  0  0
 28 91  1  0  0  0  0
 29 30  1  0  0  0  0
 29 95  1  0  0  0  0
 29 96  1  0  0  0  0
 30 43  1  0  0  0  0
 30 97  1  0  0  0  0
 31 35  1  0  0  0  0
 31 37  1  0  0  0  0
 31 99  1  0  0  0  0
 32 36  1  0  0  0  0
 32101  1  0  0  0  0
 32102  1  0  0  0  0
 33 38  1  0  0  0  0
 33103  1  0  0  0  0
 33104  1  0  0  0  0
 34 41  1  0  0  0  0
 34105  1  0  0  0  0
 34106  1  0  0  0  0
 35 44  1  0  0  0  0
 35107  1  0  0  0  0
 35108  1  0  0  0  0
 36 45  1  0  0  0  0
 36109  1  0  0  0  0
 36110  1  0  0  0  0
 38 49  1  0  0  0  0
 38111  1  0  0  0  0
 38112  1  0  0  0  0
 39 42  1  0  0  0  0
 39113  1  0  0  0  0
 39114  1  0  0  0  0
 40 47  1  0  0  0  0
 40115  1  0  0  0  0
 40116  1  0  0  0  0
 41117  1  0  0  0  0
 41118  1  0  0  0  0
 42 46  1  0  0  0  0
 42119  1  0  0  0  0
 42120  1  0  0  0  0
 44 50  1  0  0  0  0
 44121  1  0  0  0  0
 44122  1  0  0  0  0
 45123  1  0  0  0  0
 45124  1  0  0  0  0
 46125  1  0  0  0  0
 46126  1  0  0  0  0
 47127  1  0  0  0  0
 47128  1  0  0  0  0
 48 60  1  0  0  0  0
 48129  1  0  0  0  0
 48130  1  0  0  0  0
 49 57  1  0  0  0  0
 49131  1  0  0  0  0
 49132  1  0  0  0  0
 50 61  1  0  0  0  0
 50134  1  0  0  0  0
 50135  1  0  0  0  0
 51 52  1  0  0  0  0
 51 53  1  0  0  0  0
 51138  1  0  0  0  0
 51139  1  0  0  0  0
 52 54  1  0  0  0  0
 52140  1  0  0  0  0
 52141  1  0  0  0  0
 53 55  1  0  0  0  0
 53142  1  0  0  0  0
 53143  1  0  0  0  0
 54 56  1  0  0  0  0
 54144  1  0  0  0  0
 54145  1  0  0  0  0
 55 59  1  0  0  0  0
 55146  1  0  0  0  0
 55147  1  0  0  0  0
 56 58  1  0  0  0  0
 56148  1  0  0  0  0
 56149  1  0  0  0  0
 57 69  1  0  0  0  0
 57150  1  0  0  0  0
 57151  1  0  0  0  0
 58 62  1  0  0  0  0
 58152  1  0  0  0  0
 58153  1  0  0  0  0
 59 63  1  0  0  0  0
 59154  1  0  0  0  0
 59155  1  0  0  0  0
 60 71  2  0  0  0  0
 60 72  1  0  0  0  0
 61156  1  0  0  0  0
 61157  1  0  0  0  0
 63 68  1  0  0  0  0
 63158  1  0  0  0  0
 63159  1  0  0  0  0
 64 67  1  0  0  0  0
 64160  1  0  0  0  0
 64161  1  0  0  0  0
 65 70  1  0  0  0  0
 65162  1  0  0  0  0
 65163  1  0  0  0  0
 66 73  1  0  0  0  0
 66164  1  0  0  0  0
 66165  1  0  0  0  0
 67 74  2  0  0  0  0
 67 75  1  0  0  0  0
 68 76  1  0  0  0  0
 68166  1  0  0  0  0
 68167  1  0  0  0  0
 70 77  1  0  0  0  0
 70169  1  0  0  0  0
 70170  1  0  0  0  0
 71 74  1  0  0  0  0
 71171  1  0  0  0  0
 72 75  2  0  0  0  0
 72172  1  0  0  0  0
 73173  1  0  0  0  0
 73174  1  0  0  0  0
 74175  1  0  0  0  0
 75176  1  0  0  0  0
 76 78  1  0  0  0  0
 76177  1  0  0  0  0
 76178  1  0  0  0  0
 77180  1  0  0  0  0
 77181  1  0  0  0  0
 78 84  1  0  0  0  0
 78183  1  0  0  0  0
 78184  1  0  0  0  0
 79 80  1  0  0  0  0
 79185  1  0  0  0  0
 79186  1  0  0  0  0
 80 82  1  0  0  0  0
 80187  1  0  0  0  0
 80188  1  0  0  0  0
 81 83  1  0  0  0  0
 81190  1  0  0  0  0
 81191  1  0  0  0  0
 82192  1  0  0  0  0
 82193  1  0  0  0  0
 83194  1  0  0  0  0
 83195  1  0  0  0  0
 84197  1  0  0  0  0
 84198  1  0  0  0  0
 84199  1  0  0  0  0
M  END
> <PUBCHEM_COMPOUND_CID>
514918
> <PUBCHEM_COMPOUND_CANONICALIZED>
1
> <PUBCHEM_CACTVS_COMPLEXITY>
1690
> <PUBCHEM_CACTVS_HBOND_ACCEPTOR>
19
> <PUBCHEM_CACTVS_HBOND_DONOR>
13
> <PUBCHEM_CACTVS_ROTATABLE_BOND>
34
> <PUBCHEM_CACTVS_SUBSKEYS>
AAADcfB//AAAAAAAAAAAAAAAAAAAAAAAAAA0QAAAAAAAAAABAAAAHgAQCAAADDzxmAcyCIPABgCIAiHSGACCAAAgAAAIiIGIBIgbcDaA0TG3YAhltgCfiAfY6YyOQAAAAAAAAACAAAAAAAAAAAAAAAAAAA==
> <PUBCHEM_IUPAC_OPENEYE_NAME>
(2S)-2-[[(2S)-2-(tetradecanoylamino)-6-[5-[8-[[4-(1,4,8,11-tetrazacyclotetradec-1-ylmethyl)phenyl]methyl]-1,4,8,11-tetrazacyclotetradec-1-yl]pentanoylamino]hexanoyl]amino]-3-[(2R,3R,4S,5R,6R)-3,4,5-trihydroxy-6-(hydroxymethyl)tetrahydropyran-2-yl]oxy-propanoic acid
> <PUBCHEM_IUPAC_CAS_NAME>
(2S)-2-[[(2S)-1-oxo-2-(1-oxotetradecylamino)-6-[[1-oxo-5-[8-[[4-(1,4,8,11-tetrazacyclotetradec-1-ylmethyl)phenyl]methyl]-1,4,8,11-tetrazacyclotetradec-1-yl]pentyl]amino]hexyl]amino]-3-[[(2R,3R,4S,5R,6R)-3,4,5-trihydroxy-6-(hydroxymethyl)-2-oxanyl]oxy]propanoic acid
> <PUBCHEM_IUPAC_NAME_MARKUP>
(2<I>S</I>)-2-[[(2<I>S</I>)-2-(tetradecanoylamino)-6-[5-[8-[[4-(1,4,8,11-tetrazacyclotetradec-1-ylmethyl)phenyl]methyl]-1,4,8,11-tetrazacyclotetradec-1-yl]pentanoylamino]hexanoyl]amino]-3-[(2<I>R</I>,3<I>R</I>,4<I>S</I>,5<I>R</I>,6<I>R</I>)-3,4,5-trihydroxy-6-(hydroxymethyl)oxan-2-yl]oxypropanoic acid
> <PUBCHEM_IUPAC_NAME>
(2S)-2-[[(2S)-2-(tetradecanoylamino)-6-[5-[8-[[4-(1,4,8,11-tetrazacyclotetradec-1-ylmethyl)phenyl]methyl]-1,4,8,11-tetrazacyclotetradec-1-yl]pentanoylamino]hexanoyl]amino]-3-[(2R,3R,4S,5R,6R)-3,4,5-trihydroxy-6-(hydroxymethyl)oxan-2-yl]oxypropanoic acid
> <PUBCHEM_IUPAC_SYSTEMATIC_NAME>
(2S)-3-[(2R,3R,4S,5R,6R)-6-(hydroxymethyl)-3,4,5-tris(oxidanyl)oxan-2-yl]oxy-2-[[(2S)-2-(tetradecanoylamino)-6-[5-[8-[[4-(1,4,8,11-tetrazacyclotetradec-1-ylmethyl)phenyl]methyl]-1,4,8,11-tetrazacyclotetradec-1-yl]pentanoylamino]hexanoyl]amino]propanoic acid
> <PUBCHEM_IUPAC_TRADITIONAL_NAME>
(2S)-2-[[(2S)-2-(tetradecanoylamino)-6-[5-[8-[4-(1,4,8,11-tetrazacyclotetradec-1-ylmethyl)benzyl]-1,4,8,11-tetrazacyclotetradec-1-yl]pentanoylamino]hexanoyl]amino]-3-[(2R,3R,4S,5R,6R)-3,4,5-trihydroxy-6-methylol-tetrahydropyran-2-yl]oxy-propionic acid
> <PUBCHEM_IUPAC_INCHI>
InChI=1S/C62H115N11O11/c1-2-3-4-5-6-7-8-9-10-11-12-23-56(76)69-52(60(80)70-53(61(81)82)49-83-62-59(79)58(78)57(77)54(48-74)84-62)21-13-15-33-68-55(75)22-14-16-39-71-40-18-31-67-38-45-73(42-20-32-66-36-43-71)47-51-26-24-50(25-27-51)46-72-41-19-30-64-35-34-63-28-17-29-65-37-44-72/h24-27,52-54,57-59,62-67,74,77-79H,2-23,28-49H2,1H3,(H,68,75)(H,69,76)(H,70,80)(H,81,82)/t52-,53-,54+,57-,58-,59+,62+/m0/s1
> <PUBCHEM_IUPAC_INCHIKEY>
ZXGYSCCWVLSRJA-FKCTUZENSA-N
> <PUBCHEM_XLOGP3_AA>
1.5
> <PUBCHEM_EXACT_MASS>
1189.87775353
> <PUBCHEM_MOLECULAR_FORMULA>
C62H115N11O11
> <PUBCHEM_MOLECULAR_WEIGHT>
1190.6
> <PUBCHEM_OPENEYE_CAN_SMILES>
CCCCCCCCCCCCCC(=O)NC(CCCCNC(=O)CCCCN1CCCNCCN(CCCNCC1)CC2=CC=C(C=C2)CN3CCCNCCNCCCNCC3)C(=O)NC(COC4C(C(C(C(O4)CO)O)O)O)C(=O)O
> <PUBCHEM_OPENEYE_ISO_SMILES>
CCCCCCCCCCCCCC(=O)N[C@@H](CCCCNC(=O)CCCCN1CCCNCCN(CCCNCC1)CC2=CC=C(C=C2)CN3CCCNCCNCCCNCC3)C(=O)N[C@@H](CO[C@H]4[C@@H]([C@H]([C@H]([C@H](O4)CO)O)O)O)C(=O)O
> <PUBCHEM_CACTVS_TPSA>
294
> <PUBCHEM_MONOISOTOPIC_WEIGHT>
1189.87775353
> <PUBCHEM_TOTAL_CHARGE>
0
> <PUBCHEM_HEAVY_ATOM_COUNT>
84
> <PUBCHEM_ATOM_DEF_STEREO_COUNT>
7
> <PUBCHEM_ATOM_UDEF_STEREO_COUNT>
0
> <PUBCHEM_BOND_DEF_STEREO_COUNT>
0
> <PUBCHEM_BOND_UDEF_STEREO_COUNT>
0
> <PUBCHEM_ISOTOPIC_ATOM_COUNT>
0
> <PUBCHEM_COMPONENT_COUNT>
1
> <PUBCHEM_CACTVS_TAUTO_COUNT>
-1
> <PUBCHEM_COORDINATE_TYPE>
1
5
255
> <PUBCHEM_BONDANNOTATIONS>
30  13  6
31  16  5
27  2  5
26  28  5
23  3  5
24  4  5
25  5  6
60  71  8
60  72  8
67  74  8
67  75  8
71  74  8
72  75  8
$$$$
