514992
  -OEChem-10302200282D
 73 76  0     1  0  0  0  0  0999 V2000
    5.5981    0.8080    0.0000 F   0  0  0  0  0  0  0  0  0  0  0  0
    4.5981    1.8080    0.0000 F   0  0  0  0  0  0  0  0  0  0  0  0
    3.8321    1.4508    0.0000 F   0  0  0  0  0  0  0  0  0  0  0  0
    2.0000    0.3080    0.0000 F   0  0  0  0  0  0  0  0  0  0  0  0
    2.3660   -1.0580    0.0000 F   0  0  0  0  0  0  0  0  0  0  0  0
    2.6924    0.7928    0.0000 F   0  0  0  0  0  0  0  0  0  0  0  0
    5.4641   -3.6920    0.0000 O   0  0  0  0  0  0  0  0  0  0  0  0
    9.7734   -3.9239    0.0000 O   0  0  0  0  0  0  0  0  0  0  0  0
    8.0622    0.8080    0.0000 N   0  0  0  0  0  0  0  0  0  0  0  0
    6.3301   -2.1920    0.0000 N   0  0  0  0  0  0  0  0  0  0  0  0
    8.2788   -4.8944    0.0000 N   0  0  0  0  0  0  0  0  0  0  0  0
    8.0622    2.8080    0.0000 C   0  0  0  0  0  0  0  0  0  0  0  0
    8.9282    2.3080    0.0000 C   0  0  0  0  0  0  0  0  0  0  0  0
    7.1962    2.3080    0.0000 C   0  0  0  0  0  0  0  0  0  0  0  0
    8.9282    1.3080    0.0000 C   0  0  0  0  0  0  0  0  0  0  0  0
    7.1962    1.3080    0.0000 C   0  0  0  0  0  0  0  0  0  0  0  0
    8.0622    3.8080    0.0000 C   0  0  0  0  0  0  0  0  0  0  0  0
    8.0622   -0.1920    0.0000 C   0  0  0  0  0  0  0  0  0  0  0  0
    7.1962   -0.6920    0.0000 C   0  0  0  0  0  0  0  0  0  0  0  0
    7.1962   -3.6920    0.0000 C   0  0  3  0  0  0  0  0  0  0  0  0
    7.1962   -1.6920    0.0000 C   0  0  0  0  0  0  0  0  0  0  0  0
    8.9282    4.3080    0.0000 C   0  0  0  0  0  0  0  0  0  0  0  0
    7.3007   -4.6865    0.0000 C   0  0  0  0  0  0  0  0  0  0  0  0
    8.1097   -3.2853    0.0000 C   0  0  0  0  0  0  0  0  0  0  0  0
    6.3301   -3.1920    0.0000 C   0  0  0  0  0  0  0  0  0  0  0  0
    8.7788   -4.0284    0.0000 C   0  0  0  0  0  0  0  0  0  0  0  0
    5.4641   -1.6920    0.0000 C   0  0  0  0  0  0  0  0  0  0  0  0
    8.9282    5.3080    0.0000 C   0  0  0  0  0  0  0  0  0  0  0  0
    9.7942    3.8080    0.0000 C   0  0  0  0  0  0  0  0  0  0  0  0
    8.6856   -5.8080    0.0000 C   0  0  0  0  0  0  0  0  0  0  0  0
    5.4641   -0.6920    0.0000 C   0  0  0  0  0  0  0  0  0  0  0  0
    4.5981   -2.1920    0.0000 C   0  0  0  0  0  0  0  0  0  0  0  0
    9.7942    5.8080    0.0000 C   0  0  0  0  0  0  0  0  0  0  0  0
   10.6603    4.3080    0.0000 C   0  0  0  0  0  0  0  0  0  0  0  0
    4.5981   -0.1920    0.0000 C   0  0  0  0  0  0  0  0  0  0  0  0
   10.6603    5.3080    0.0000 C   0  0  0  0  0  0  0  0  0  0  0  0
    3.7320   -1.6920    0.0000 C   0  0  0  0  0  0  0  0  0  0  0  0
    3.7320   -0.6920    0.0000 C   0  0  0  0  0  0  0  0  0  0  0  0
    4.5981    0.8080    0.0000 C   0  0  0  0  0  0  0  0  0  0  0  0
    2.8660   -0.1920    0.0000 C   0  0  0  0  0  0  0  0  0  0  0  0
    7.5252    3.1180    0.0000 H   0  0  0  0  0  0  0  0  0  0  0  0
    9.5388    2.2003    0.0000 H   0  0  0  0  0  0  0  0  0  0  0  0
    9.1403    2.8906    0.0000 H   0  0  0  0  0  0  0  0  0  0  0  0
    6.9841    2.8906    0.0000 H   0  0  0  0  0  0  0  0  0  0  0  0
    6.5856    2.2003    0.0000 H   0  0  0  0  0  0  0  0  0  0  0  0
    9.1403    0.7254    0.0000 H   0  0  0  0  0  0  0  0  0  0  0  0
    9.5388    1.4156    0.0000 H   0  0  0  0  0  0  0  0  0  0  0  0
    6.5856    1.4156    0.0000 H   0  0  0  0  0  0  0  0  0  0  0  0
    6.9841    0.7254    0.0000 H   0  0  0  0  0  0  0  0  0  0  0  0
    7.8501    4.3906    0.0000 H   0  0  0  0  0  0  0  0  0  0  0  0
    7.4516    3.7003    0.0000 H   0  0  0  0  0  0  0  0  0  0  0  0
    8.2742   -0.7746    0.0000 H   0  0  0  0  0  0  0  0  0  0  0  0
    8.6728   -0.0843    0.0000 H   0  0  0  0  0  0  0  0  0  0  0  0
    6.9841   -0.1094    0.0000 H   0  0  0  0  0  0  0  0  0  0  0  0
    6.5856   -0.7997    0.0000 H   0  0  0  0  0  0  0  0  0  0  0  0
    6.6762   -4.0297    0.0000 H   0  0  0  0  0  0  0  0  0  0  0  0
    7.4082   -2.2746    0.0000 H   0  0  0  0  0  0  0  0  0  0  0  0
    7.8067   -1.5844    0.0000 H   0  0  0  0  0  0  0  0  0  0  0  0
    6.6807   -4.6865    0.0000 H   0  0  0  0  0  0  0  0  0  0  0  0
    7.2359   -5.3031    0.0000 H   0  0  0  0  0  0  0  0  0  0  0  0
    8.6113   -2.9208    0.0000 H   0  0  0  0  0  0  0  0  0  0  0  0
    7.7997   -2.7483    0.0000 H   0  0  0  0  0  0  0  0  0  0  0  0
    8.3913    5.6180    0.0000 H   0  0  0  0  0  0  0  0  0  0  0  0
    9.7942    3.1880    0.0000 H   0  0  0  0  0  0  0  0  0  0  0  0
    8.1192   -6.0602    0.0000 H   0  0  0  0  0  0  0  0  0  0  0  0
    8.9377   -6.3744    0.0000 H   0  0  0  0  0  0  0  0  0  0  0  0
    9.2520   -5.5558    0.0000 H   0  0  0  0  0  0  0  0  0  0  0  0
    6.0010   -0.3820    0.0000 H   0  0  0  0  0  0  0  0  0  0  0  0
    4.5981   -2.8120    0.0000 H   0  0  0  0  0  0  0  0  0  0  0  0
    9.7942    6.4280    0.0000 H   0  0  0  0  0  0  0  0  0  0  0  0
   11.1972    3.9980    0.0000 H   0  0  0  0  0  0  0  0  0  0  0  0
   11.1972    5.6180    0.0000 H   0  0  0  0  0  0  0  0  0  0  0  0
    3.1951   -2.0020    0.0000 H   0  0  0  0  0  0  0  0  0  0  0  0
  1 39  1  0  0  0  0
  2 39  1  0  0  0  0
  3 39  1  0  0  0  0
  4 40  1  0  0  0  0
  5 40  1  0  0  0  0
  6 40  1  0  0  0  0
  7 25  2  0  0  0  0
  8 26  2  0  0  0  0
  9 15  1  0  0  0  0
  9 16  1  0  0  0  0
  9 18  1  0  0  0  0
 10 21  1  0  0  0  0
 10 25  1  0  0  0  0
 10 27  1  0  0  0  0
 11 23  1  0  0  0  0
 11 26  1  0  0  0  0
 11 30  1  0  0  0  0
 12 13  1  0  0  0  0
 12 14  1  0  0  0  0
 12 17  1  0  0  0  0
 12 41  1  0  0  0  0
 13 15  1  0  0  0  0
 13 42  1  0  0  0  0
 13 43  1  0  0  0  0
 14 16  1  0  0  0  0
 14 44  1  0  0  0  0
 14 45  1  0  0  0  0
 15 46  1  0  0  0  0
 15 47  1  0  0  0  0
 16 48  1  0  0  0  0
 16 49  1  0  0  0  0
 17 22  1  0  0  0  0
 17 50  1  0  0  0  0
 17 51  1  0  0  0  0
 18 19  1  0  0  0  0
 18 52  1  0  0  0  0
 18 53  1  0  0  0  0
 19 21  1  0  0  0  0
 19 54  1  0  0  0  0
 19 55  1  0  0  0  0
 20 23  1  0  0  0  0
 20 24  1  0  0  0  0
 20 25  1  0  0  0  0
 20 56  1  0  0  0  0
 21 57  1  0  0  0  0
 21 58  1  0  0  0  0
 22 28  2  0  0  0  0
 22 29  1  0  0  0  0
 23 59  1  0  0  0  0
 23 60  1  0  0  0  0
 24 26  1  0  0  0  0
 24 61  1  0  0  0  0
 24 62  1  0  0  0  0
 27 31  2  0  0  0  0
 27 32  1  0  0  0  0
 28 33  1  0  0  0  0
 28 63  1  0  0  0  0
 29 34  2  0  0  0  0
 29 64  1  0  0  0  0
 30 65  1  0  0  0  0
 30 66  1  0  0  0  0
 30 67  1  0  0  0  0
 31 35  1  0  0  0  0
 31 68  1  0  0  0  0
 32 37  2  0  0  0  0
 32 69  1  0  0  0  0
 33 36  2  0  0  0  0
 33 70  1  0  0  0  0
 34 36  1  0  0  0  0
 34 71  1  0  0  0  0
 35 38  2  0  0  0  0
 35 39  1  0  0  0  0
 36 72  1  0  0  0  0
 37 38  1  0  0  0  0
 37 73  1  0  0  0  0
 38 40  1  0  0  0  0
M  END
> <PUBCHEM_COMPOUND_CID>
514992
> <PUBCHEM_COMPOUND_CANONICALIZED>
1
> <PUBCHEM_CACTVS_COMPLEXITY>
852
> <PUBCHEM_CACTVS_HBOND_ACCEPTOR>
9
> <PUBCHEM_CACTVS_HBOND_DONOR>
0
> <PUBCHEM_CACTVS_ROTATABLE_BOND>
8
> <PUBCHEM_CACTVS_SUBSKEYS>
AAADcfB7McAAAAAAAAAAAAAAAAAAAWAAAAA8YIAAAAAAAAABQAAAHwAAAAAADQjBmBQywIMAAACIAiVSUACCAAAhAgAIiAEIZIgIIDrA0ZGEIAhghgDIyAcVgMAOiAAAQAAQAAAQAACAACAAAAAAAAAAAA==
> <PUBCHEM_IUPAC_OPENEYE_NAME>
N-[3-(4-benzyl-1-piperidyl)propyl]-N-[3,4-bis(trifluoromethyl)phenyl]-1-methyl-5-oxo-pyrrolidine-3-carboxamide
> <PUBCHEM_IUPAC_CAS_NAME>
N-[3,4-bis(trifluoromethyl)phenyl]-1-methyl-5-oxo-N-[3-[4-(phenylmethyl)-1-piperidinyl]propyl]-3-pyrrolidinecarboxamide
> <PUBCHEM_IUPAC_NAME_MARKUP>
<I>N</I>-[3-(4-benzylpiperidin-1-yl)propyl]-<I>N</I>-[3,4-bis(trifluoromethyl)phenyl]-1-methyl-5-oxopyrrolidine-3-carboxamide
> <PUBCHEM_IUPAC_NAME>
N-[3-(4-benzylpiperidin-1-yl)propyl]-N-[3,4-bis(trifluoromethyl)phenyl]-1-methyl-5-oxopyrrolidine-3-carboxamide
> <PUBCHEM_IUPAC_SYSTEMATIC_NAME>
N-[3,4-bis(trifluoromethyl)phenyl]-1-methyl-5-oxidanylidene-N-[3-[4-(phenylmethyl)piperidin-1-yl]propyl]pyrrolidine-3-carboxamide
> <PUBCHEM_IUPAC_TRADITIONAL_NAME>
N-[3-(4-benzylpiperidino)propyl]-N-[3,4-bis(trifluoromethyl)phenyl]-5-keto-1-methyl-pyrrolidine-3-carboxamide
> <PUBCHEM_IUPAC_INCHI>
InChI=1S/C29H33F6N3O2/c1-36-19-22(17-26(36)39)27(40)38(23-8-9-24(28(30,31)32)25(18-23)29(33,34)35)13-5-12-37-14-10-21(11-15-37)16-20-6-3-2-4-7-20/h2-4,6-9,18,21-22H,5,10-17,19H2,1H3
> <PUBCHEM_IUPAC_INCHIKEY>
YZGUEYGJOWFKNJ-UHFFFAOYSA-N
> <PUBCHEM_XLOGP3_AA>
5.3
> <PUBCHEM_EXACT_MASS>
569.24769628
> <PUBCHEM_MOLECULAR_FORMULA>
C29H33F6N3O2
> <PUBCHEM_MOLECULAR_WEIGHT>
569.6
> <PUBCHEM_OPENEYE_CAN_SMILES>
CN1CC(CC1=O)C(=O)N(CCCN2CCC(CC2)CC3=CC=CC=C3)C4=CC(=C(C=C4)C(F)(F)F)C(F)(F)F
> <PUBCHEM_OPENEYE_ISO_SMILES>
CN1CC(CC1=O)C(=O)N(CCCN2CCC(CC2)CC3=CC=CC=C3)C4=CC(=C(C=C4)C(F)(F)F)C(F)(F)F
> <PUBCHEM_CACTVS_TPSA>
43.9
> <PUBCHEM_MONOISOTOPIC_WEIGHT>
569.24769628
> <PUBCHEM_TOTAL_CHARGE>
0
> <PUBCHEM_HEAVY_ATOM_COUNT>
40
> <PUBCHEM_ATOM_DEF_STEREO_COUNT>
0
> <PUBCHEM_ATOM_UDEF_STEREO_COUNT>
1
> <PUBCHEM_BOND_DEF_STEREO_COUNT>
0
> <PUBCHEM_BOND_UDEF_STEREO_COUNT>
0
> <PUBCHEM_ISOTOPIC_ATOM_COUNT>
0
> <PUBCHEM_COMPONENT_COUNT>
1
> <PUBCHEM_CACTVS_TAUTO_COUNT>
-1
> <PUBCHEM_COORDINATE_TYPE>
1
5
255
> <PUBCHEM_BONDANNOTATIONS>
20  25  3
22  28  8
22  29  8
27  31  8
27  32  8
28  33  8
29  34  8
31  35  8
32  37  8
33  36  8
34  36  8
35  38  8
37  38  8
$$$$
