514909
  -OEChem-10302200282D
 27 29  0     1  0  0  0  0  0999 V2000
    9.8602    1.7568    0.0000 Br  0  0  0  0  0  0  0  0  0  0  0  0
    2.0000    0.2327    0.0000 Cl  0  0  0  0  0  0  0  0  0  0  0  0
    2.0000   -1.7673    0.0000 Cl  0  0  0  0  0  0  0  0  0  0  0  0
    6.3301   -0.2673    0.0000 O   0  0  0  0  0  0  0  0  0  0  0  0
    8.0901   -0.3020    0.0000 N   0  0  0  0  0  0  0  0  0  0  0  0
    5.4641    0.2327    0.0000 C   0  0  3  0  0  0  0  0  0  0  0  0
    4.5981   -0.2673    0.0000 C   0  0  0  0  0  0  0  0  0  0  0  0
    5.4641    1.2327    0.0000 C   0  0  0  0  0  0  0  0  0  0  0  0
    7.1962    1.2327    0.0000 C   0  0  0  0  0  0  0  0  0  0  0  0
    7.1962    0.2327    0.0000 C   0  0  0  0  0  0  0  0  0  0  0  0
    6.3301    1.7327    0.0000 C   0  0  0  0  0  0  0  0  0  0  0  0
    3.7320    0.2327    0.0000 C   0  0  0  0  0  0  0  0  0  0  0  0
    4.5981   -1.2673    0.0000 C   0  0  0  0  0  0  0  0  0  0  0  0
    8.0901    1.7673    0.0000 C   0  0  0  0  0  0  0  0  0  0  0  0
    2.8660   -0.2673    0.0000 C   0  0  0  0  0  0  0  0  0  0  0  0
    3.7320   -1.7673    0.0000 C   0  0  0  0  0  0  0  0  0  0  0  0
    2.8660   -1.2673    0.0000 C   0  0  0  0  0  0  0  0  0  0  0  0
    8.9962    1.2535    0.0000 C   0  0  0  0  0  0  0  0  0  0  0  0
    8.9962    0.2119    0.0000 C   0  0  0  0  0  0  0  0  0  0  0  0
    5.4641   -0.3873    0.0000 H   0  0  0  0  0  0  0  0  0  0  0  0
    4.9272    1.5427    0.0000 H   0  0  0  0  0  0  0  0  0  0  0  0
    6.3301    2.3527    0.0000 H   0  0  0  0  0  0  0  0  0  0  0  0
    3.7320    0.8527    0.0000 H   0  0  0  0  0  0  0  0  0  0  0  0
    5.1350   -1.5773    0.0000 H   0  0  0  0  0  0  0  0  0  0  0  0
    8.0829    2.3873    0.0000 H   0  0  0  0  0  0  0  0  0  0  0  0
    3.7320   -2.3873    0.0000 H   0  0  0  0  0  0  0  0  0  0  0  0
    9.5319   -0.1002    0.0000 H   0  0  0  0  0  0  0  0  0  0  0  0
  1 18  1  0  0  0  0
  2 15  1  0  0  0  0
  3 17  1  0  0  0  0
  4  6  1  0  0  0  0
  4 10  1  0  0  0  0
  5 10  1  0  0  0  0
  5 19  2  0  0  0  0
  6  7  1  0  0  0  0
  6  8  1  0  0  0  0
  6 20  1  0  0  0  0
  7 12  2  0  0  0  0
  7 13  1  0  0  0  0
  8 11  2  0  0  0  0
  8 21  1  0  0  0  0
  9 10  2  0  0  0  0
  9 11  1  0  0  0  0
  9 14  1  0  0  0  0
 11 22  1  0  0  0  0
 12 15  1  0  0  0  0
 12 23  1  0  0  0  0
 13 16  2  0  0  0  0
 13 24  1  0  0  0  0
 14 18  2  0  0  0  0
 14 25  1  0  0  0  0
 15 17  2  0  0  0  0
 16 17  1  0  0  0  0
 16 26  1  0  0  0  0
 18 19  1  0  0  0  0
 19 27  1  0  0  0  0
M  END
> <PUBCHEM_COMPOUND_CID>
514909
> <PUBCHEM_COMPOUND_CANONICALIZED>
1
> <PUBCHEM_CACTVS_COMPLEXITY>
354
> <PUBCHEM_CACTVS_HBOND_ACCEPTOR>
2
> <PUBCHEM_CACTVS_HBOND_DONOR>
0
> <PUBCHEM_CACTVS_ROTATABLE_BOND>
1
> <PUBCHEM_CACTVS_SUBSKEYS>
AAADccByIAAGEAAAAAAAAAAAAAAAAAAAAAA8QIAAAAAAAACBwAAAHgJAAAABrBbhmiY8hJIIFACgAjBnRACCiCAxJSQI2mAsTrgMJuLFs5uOOCjkwBHI6heQ0KAOBAAAIAAAAAQIAABAAAAACAAAAAAAAA==
> <PUBCHEM_IUPAC_OPENEYE_NAME>
6-bromo-2-(3,4-dichlorophenyl)-2H-pyrano[2,3-b]pyridine
> <PUBCHEM_IUPAC_CAS_NAME>
6-bromo-2-(3,4-dichlorophenyl)-2H-pyrano[2,3-b]pyridine
> <PUBCHEM_IUPAC_NAME_MARKUP>
6-bromo-2-(3,4-dichlorophenyl)-2<I>H</I>-pyrano[2,3-b]pyridine
> <PUBCHEM_IUPAC_NAME>
6-bromo-2-(3,4-dichlorophenyl)-2H-pyrano[2,3-b]pyridine
> <PUBCHEM_IUPAC_SYSTEMATIC_NAME>
6-bromanyl-2-(3,4-dichlorophenyl)-2H-pyrano[2,3-b]pyridine
> <PUBCHEM_IUPAC_TRADITIONAL_NAME>
6-bromo-2-(3,4-dichlorophenyl)-2H-pyrano[2,3-b]pyridine
> <PUBCHEM_IUPAC_INCHI>
InChI=1S/C14H8BrCl2NO/c15-10-5-9-2-4-13(19-14(9)18-7-10)8-1-3-11(16)12(17)6-8/h1-7,13H
> <PUBCHEM_IUPAC_INCHIKEY>
KUQJOQDSCMXOEJ-UHFFFAOYSA-N
> <PUBCHEM_XLOGP3_AA>
5.2
> <PUBCHEM_EXACT_MASS>
354.91663
> <PUBCHEM_MOLECULAR_FORMULA>
C14H8BrCl2NO
> <PUBCHEM_MOLECULAR_WEIGHT>
357.0
> <PUBCHEM_OPENEYE_CAN_SMILES>
C1=CC2=C(N=CC(=C2)Br)OC1C3=CC(=C(C=C3)Cl)Cl
> <PUBCHEM_OPENEYE_ISO_SMILES>
C1=CC2=C(N=CC(=C2)Br)OC1C3=CC(=C(C=C3)Cl)Cl
> <PUBCHEM_CACTVS_TPSA>
22.1
> <PUBCHEM_MONOISOTOPIC_WEIGHT>
354.91663
> <PUBCHEM_TOTAL_CHARGE>
0
> <PUBCHEM_HEAVY_ATOM_COUNT>
19
> <PUBCHEM_ATOM_DEF_STEREO_COUNT>
0
> <PUBCHEM_ATOM_UDEF_STEREO_COUNT>
1
> <PUBCHEM_BOND_DEF_STEREO_COUNT>
0
> <PUBCHEM_BOND_UDEF_STEREO_COUNT>
0
> <PUBCHEM_ISOTOPIC_ATOM_COUNT>
0
> <PUBCHEM_COMPONENT_COUNT>
1
> <PUBCHEM_CACTVS_TAUTO_COUNT>
1
> <PUBCHEM_COORDINATE_TYPE>
1
5
255
> <PUBCHEM_BONDANNOTATIONS>
12  15  8
13  16  8
14  18  8
15  17  8
16  17  8
18  19  8
5  10  8
5  19  8
6  7  3
7  12  8
7  13  8
9  10  8
9  14  8
$$$$
