515008
  -OEChem-10302200282D
 76 80  0     1  0  0  0  0  0999 V2000
    7.2512   -1.0000    0.0000 O   0  0  0  0  0  0  0  0  0  0  0  0
    4.8958   -4.6160    0.0000 O   0  0  0  0  0  0  0  0  0  0  0  0
    9.8493    0.5000    0.0000 N   0  0  0  0  0  0  0  0  0  0  0  0
    8.1172   -2.5000    0.0000 N   0  0  0  0  0  0  0  0  0  0  0  0
    4.8025   -2.8364    0.0000 N   0  0  0  0  0  0  0  0  0  0  0  0
    2.5878    0.0088    0.0000 N   0  0  0  0  0  0  0  0  0  0  0  0
    9.8493    2.5000    0.0000 C   0  0  0  0  0  0  0  0  0  0  0  0
    8.9833    2.0000    0.0000 C   0  0  0  0  0  0  0  0  0  0  0  0
   10.7153    2.0000    0.0000 C   0  0  0  0  0  0  0  0  0  0  0  0
    8.9833    1.0000    0.0000 C   0  0  0  0  0  0  0  0  0  0  0  0
   10.7153    1.0000    0.0000 C   0  0  0  0  0  0  0  0  0  0  0  0
    9.8493    3.5000    0.0000 C   0  0  0  0  0  0  0  0  0  0  0  0
    9.8493   -0.5000    0.0000 C   0  0  0  0  0  0  0  0  0  0  0  0
    8.9833   -1.0000    0.0000 C   0  0  0  0  0  0  0  0  0  0  0  0
    6.3852   -2.5000    0.0000 C   0  0  3  0  0  0  0  0  0  0  0  0
    8.9833   -2.0000    0.0000 C   0  0  0  0  0  0  0  0  0  0  0  0
    5.4716   -2.0933    0.0000 C   0  0  0  0  0  0  0  0  0  0  0  0
   10.7153    4.0000    0.0000 C   0  0  0  0  0  0  0  0  0  0  0  0
    6.2807   -3.4945    0.0000 C   0  0  0  0  0  0  0  0  0  0  0  0
    7.2512   -2.0000    0.0000 C   0  0  0  0  0  0  0  0  0  0  0  0
    5.3025   -3.7024    0.0000 C   0  0  0  0  0  0  0  0  0  0  0  0
    3.8080   -2.7319    0.0000 C   0  0  0  0  0  0  0  0  0  0  0  0
    8.1172   -3.5000    0.0000 C   0  0  0  0  0  0  0  0  0  0  0  0
   11.5813    3.5000    0.0000 C   0  0  0  0  0  0  0  0  0  0  0  0
   10.7153    5.0000    0.0000 C   0  0  0  0  0  0  0  0  0  0  0  0
    3.4013   -1.8183    0.0000 C   0  0  0  0  0  0  0  0  0  0  0  0
   12.4474    4.0000    0.0000 C   0  0  0  0  0  0  0  0  0  0  0  0
   11.5813    5.5000    0.0000 C   0  0  0  0  0  0  0  0  0  0  0  0
    8.9833   -4.0000    0.0000 C   0  0  0  0  0  0  0  0  0  0  0  0
    7.2512   -4.0000    0.0000 C   0  0  0  0  0  0  0  0  0  0  0  0
   12.4474    5.0000    0.0000 C   0  0  0  0  0  0  0  0  0  0  0  0
    2.4067   -1.7138    0.0000 C   0  0  0  0  0  0  0  0  0  0  0  0
    3.9890   -1.0093    0.0000 C   0  0  0  0  0  0  0  0  0  0  0  0
    8.9833   -5.0000    0.0000 C   0  0  0  0  0  0  0  0  0  0  0  0
    7.2512   -5.0000    0.0000 C   0  0  0  0  0  0  0  0  0  0  0  0
    8.1172   -5.5000    0.0000 C   0  0  0  0  0  0  0  0  0  0  0  0
    2.0000   -0.8003    0.0000 C   0  0  0  0  0  0  0  0  0  0  0  0
    3.5823   -0.0958    0.0000 C   0  0  0  0  0  0  0  0  0  0  0  0
    9.3124    2.8100    0.0000 H   0  0  0  0  0  0  0  0  0  0  0  0
    8.7712    2.5826    0.0000 H   0  0  0  0  0  0  0  0  0  0  0  0
    8.3727    1.8923    0.0000 H   0  0  0  0  0  0  0  0  0  0  0  0
   11.3259    1.8923    0.0000 H   0  0  0  0  0  0  0  0  0  0  0  0
   10.9274    2.5826    0.0000 H   0  0  0  0  0  0  0  0  0  0  0  0
    8.3727    1.1077    0.0000 H   0  0  0  0  0  0  0  0  0  0  0  0
    8.7712    0.4174    0.0000 H   0  0  0  0  0  0  0  0  0  0  0  0
   10.9274    0.4174    0.0000 H   0  0  0  0  0  0  0  0  0  0  0  0
   11.3259    1.1077    0.0000 H   0  0  0  0  0  0  0  0  0  0  0  0
    9.6372    4.0826    0.0000 H   0  0  0  0  0  0  0  0  0  0  0  0
    9.2387    3.3923    0.0000 H   0  0  0  0  0  0  0  0  0  0  0  0
   10.0613   -1.0826    0.0000 H   0  0  0  0  0  0  0  0  0  0  0  0
   10.4599   -0.3923    0.0000 H   0  0  0  0  0  0  0  0  0  0  0  0
    8.7712   -0.4174    0.0000 H   0  0  0  0  0  0  0  0  0  0  0  0
    8.3727   -1.1077    0.0000 H   0  0  0  0  0  0  0  0  0  0  0  0
    6.9052   -2.8377    0.0000 H   0  0  0  0  0  0  0  0  0  0  0  0
    9.1953   -2.5826    0.0000 H   0  0  0  0  0  0  0  0  0  0  0  0
    9.5938   -1.8923    0.0000 H   0  0  0  0  0  0  0  0  0  0  0  0
    5.7816   -1.5563    0.0000 H   0  0  0  0  0  0  0  0  0  0  0  0
    4.9701   -1.7288    0.0000 H   0  0  0  0  0  0  0  0  0  0  0  0
    6.3455   -4.1111    0.0000 H   0  0  0  0  0  0  0  0  0  0  0  0
    6.9007   -3.4945    0.0000 H   0  0  0  0  0  0  0  0  0  0  0  0
    3.2064   -2.8819    0.0000 H   0  0  0  0  0  0  0  0  0  0  0  0
    3.8512   -3.3504    0.0000 H   0  0  0  0  0  0  0  0  0  0  0  0
   11.5813    2.8800    0.0000 H   0  0  0  0  0  0  0  0  0  0  0  0
   10.1784    5.3100    0.0000 H   0  0  0  0  0  0  0  0  0  0  0  0
   12.9843    3.6900    0.0000 H   0  0  0  0  0  0  0  0  0  0  0  0
   11.5813    6.1200    0.0000 H   0  0  0  0  0  0  0  0  0  0  0  0
    9.5202   -3.6900    0.0000 H   0  0  0  0  0  0  0  0  0  0  0  0
    6.7143   -3.6900    0.0000 H   0  0  0  0  0  0  0  0  0  0  0  0
   12.9843    5.3100    0.0000 H   0  0  0  0  0  0  0  0  0  0  0  0
    2.0423   -2.2154    0.0000 H   0  0  0  0  0  0  0  0  0  0  0  0
    4.6056   -1.0741    0.0000 H   0  0  0  0  0  0  0  0  0  0  0  0
    9.5202   -5.3100    0.0000 H   0  0  0  0  0  0  0  0  0  0  0  0
    6.7143   -5.3100    0.0000 H   0  0  0  0  0  0  0  0  0  0  0  0
    8.1172   -6.1200    0.0000 H   0  0  0  0  0  0  0  0  0  0  0  0
    1.3834   -0.7355    0.0000 H   0  0  0  0  0  0  0  0  0  0  0  0
    3.9467    0.4058    0.0000 H   0  0  0  0  0  0  0  0  0  0  0  0
  1 20  2  0  0  0  0
  2 21  2  0  0  0  0
  3 10  1  0  0  0  0
  3 11  1  0  0  0  0
  3 13  1  0  0  0  0
  4 16  1  0  0  0  0
  4 20  1  0  0  0  0
  4 23  1  0  0  0  0
  5 17  1  0  0  0  0
  5 21  1  0  0  0  0
  5 22  1  0  0  0  0
  6 37  2  0  0  0  0
  6 38  1  0  0  0  0
  7  8  1  0  0  0  0
  7  9  1  0  0  0  0
  7 12  1  0  0  0  0
  7 39  1  0  0  0  0
  8 10  1  0  0  0  0
  8 40  1  0  0  0  0
  8 41  1  0  0  0  0
  9 11  1  0  0  0  0
  9 42  1  0  0  0  0
  9 43  1  0  0  0  0
 10 44  1  0  0  0  0
 10 45  1  0  0  0  0
 11 46  1  0  0  0  0
 11 47  1  0  0  0  0
 12 18  1  0  0  0  0
 12 48  1  0  0  0  0
 12 49  1  0  0  0  0
 13 14  1  0  0  0  0
 13 50  1  0  0  0  0
 13 51  1  0  0  0  0
 14 16  1  0  0  0  0
 14 52  1  0  0  0  0
 14 53  1  0  0  0  0
 15 17  1  0  0  0  0
 15 19  1  0  0  0  0
 15 20  1  0  0  0  0
 15 54  1  0  0  0  0
 16 55  1  0  0  0  0
 16 56  1  0  0  0  0
 17 57  1  0  0  0  0
 17 58  1  0  0  0  0
 18 24  2  0  0  0  0
 18 25  1  0  0  0  0
 19 21  1  0  0  0  0
 19 59  1  0  0  0  0
 19 60  1  0  0  0  0
 22 26  1  0  0  0  0
 22 61  1  0  0  0  0
 22 62  1  0  0  0  0
 23 29  2  0  0  0  0
 23 30  1  0  0  0  0
 24 27  1  0  0  0  0
 24 63  1  0  0  0  0
 25 28  2  0  0  0  0
 25 64  1  0  0  0  0
 26 32  2  0  0  0  0
 26 33  1  0  0  0  0
 27 31  2  0  0  0  0
 27 65  1  0  0  0  0
 28 31  1  0  0  0  0
 28 66  1  0  0  0  0
 29 34  1  0  0  0  0
 29 67  1  0  0  0  0
 30 35  2  0  0  0  0
 30 68  1  0  0  0  0
 31 69  1  0  0  0  0
 32 37  1  0  0  0  0
 32 70  1  0  0  0  0
 33 38  2  0  0  0  0
 33 71  1  0  0  0  0
 34 36  2  0  0  0  0
 34 72  1  0  0  0  0
 35 36  1  0  0  0  0
 35 73  1  0  0  0  0
 36 74  1  0  0  0  0
 37 75  1  0  0  0  0
 38 76  1  0  0  0  0
M  END
> <PUBCHEM_COMPOUND_CID>
515008
> <PUBCHEM_COMPOUND_CANONICALIZED>
1
> <PUBCHEM_CACTVS_COMPLEXITY>
734
> <PUBCHEM_CACTVS_HBOND_ACCEPTOR>
4
> <PUBCHEM_CACTVS_HBOND_DONOR>
0
> <PUBCHEM_CACTVS_ROTATABLE_BOND>
10
> <PUBCHEM_CACTVS_SUBSKEYS>
AAADcfB/sAAAAAAAAAAAAAAAAAAAAWAAAAA8eIEAAAAAAAAB0AAAHgAAAAAADQjBmgQ8wJMIEACoAjV3VACCgCAxAiAI2CE4ZJgIIHrA0ZGEIAhghgDIyAcVgMAOAAAAAAAAAAAAAAAAAAAAAAAAAAAAAA==
> <PUBCHEM_IUPAC_OPENEYE_NAME>
N-[3-(4-benzyl-1-piperidyl)propyl]-5-oxo-N-phenyl-1-(4-pyridylmethyl)pyrrolidine-3-carboxamide
> <PUBCHEM_IUPAC_CAS_NAME>
5-oxo-N-phenyl-N-[3-[4-(phenylmethyl)-1-piperidinyl]propyl]-1-(pyridin-4-ylmethyl)-3-pyrrolidinecarboxamide
> <PUBCHEM_IUPAC_NAME_MARKUP>
<I>N</I>-[3-(4-benzylpiperidin-1-yl)propyl]-5-oxo-<I>N</I>-phenyl-1-(pyridin-4-ylmethyl)pyrrolidine-3-carboxamide
> <PUBCHEM_IUPAC_NAME>
N-[3-(4-benzylpiperidin-1-yl)propyl]-5-oxo-N-phenyl-1-(pyridin-4-ylmethyl)pyrrolidine-3-carboxamide
> <PUBCHEM_IUPAC_SYSTEMATIC_NAME>
5-oxidanylidene-N-phenyl-N-[3-[4-(phenylmethyl)piperidin-1-yl]propyl]-1-(pyridin-4-ylmethyl)pyrrolidine-3-carboxamide
> <PUBCHEM_IUPAC_TRADITIONAL_NAME>
N-[3-(4-benzylpiperidino)propyl]-5-keto-N-phenyl-1-(4-pyridylmethyl)pyrrolidine-3-carboxamide
> <PUBCHEM_IUPAC_INCHI>
InChI=1S/C32H38N4O2/c37-31-23-29(25-35(31)24-28-12-16-33-17-13-28)32(38)36(30-10-5-2-6-11-30)19-7-18-34-20-14-27(15-21-34)22-26-8-3-1-4-9-26/h1-6,8-13,16-17,27,29H,7,14-15,18-25H2
> <PUBCHEM_IUPAC_INCHIKEY>
OLIBZRXOOXSOOA-UHFFFAOYSA-N
> <PUBCHEM_XLOGP3_AA>
4
> <PUBCHEM_EXACT_MASS>
510.29947647
> <PUBCHEM_MOLECULAR_FORMULA>
C32H38N4O2
> <PUBCHEM_MOLECULAR_WEIGHT>
510.7
> <PUBCHEM_OPENEYE_CAN_SMILES>
C1CN(CCC1CC2=CC=CC=C2)CCCN(C3=CC=CC=C3)C(=O)C4CC(=O)N(C4)CC5=CC=NC=C5
> <PUBCHEM_OPENEYE_ISO_SMILES>
C1CN(CCC1CC2=CC=CC=C2)CCCN(C3=CC=CC=C3)C(=O)C4CC(=O)N(C4)CC5=CC=NC=C5
> <PUBCHEM_CACTVS_TPSA>
56.8
> <PUBCHEM_MONOISOTOPIC_WEIGHT>
510.29947647
> <PUBCHEM_TOTAL_CHARGE>
0
> <PUBCHEM_HEAVY_ATOM_COUNT>
38
> <PUBCHEM_ATOM_DEF_STEREO_COUNT>
0
> <PUBCHEM_ATOM_UDEF_STEREO_COUNT>
1
> <PUBCHEM_BOND_DEF_STEREO_COUNT>
0
> <PUBCHEM_BOND_UDEF_STEREO_COUNT>
0
> <PUBCHEM_ISOTOPIC_ATOM_COUNT>
0
> <PUBCHEM_COMPONENT_COUNT>
1
> <PUBCHEM_CACTVS_TAUTO_COUNT>
-1
> <PUBCHEM_COORDINATE_TYPE>
1
5
255
> <PUBCHEM_BONDANNOTATIONS>
15  20  3
18  24  8
18  25  8
23  29  8
23  30  8
24  27  8
25  28  8
26  32  8
26  33  8
27  31  8
28  31  8
29  34  8
30  35  8
32  37  8
33  38  8
34  36  8
35  36  8
6  37  8
6  38  8
$$$$
