515041
  -OEChem-10302200282D
 90 96  0     1  0  0  0  0  0999 V2000
    5.7961    0.6554    0.0000 O   0  0  0  0  0  0  0  0  0  0  0  0
    9.0843    1.8062    0.0000 O   0  0  0  0  0  0  0  0  0  0  0  0
    6.6699   -0.5676    0.0000 O   0  0  0  0  0  0  0  0  0  0  0  0
    8.4516    0.4429    0.0000 O   0  0  0  0  0  0  0  0  0  0  0  0
    4.6769    2.1256    0.0000 O   0  0  0  0  0  0  0  0  0  0  0  0
    9.8111    3.5050    0.0000 O   0  0  0  0  0  0  0  0  0  0  0  0
    5.7981   -2.0642    0.0000 O   0  0  0  0  0  0  0  0  0  0  0  0
    6.7196    0.4629    0.0000 O   0  0  0  0  0  0  0  0  0  0  0  0
    8.4400   -2.6264    0.0000 O   0  0  0  0  0  0  0  0  0  0  0  0
   10.1839    0.4498    0.0000 O   0  0  0  0  0  0  0  0  0  0  0  0
   11.0660   -4.0917    0.0000 O   0  0  0  0  0  0  0  0  0  0  0  0
   11.0781    1.9775    0.0000 O   0  0  0  0  0  0  0  0  0  0  0  0
    2.9322   -0.5104    0.0000 C   0  0  0  0  0  0  0  0  0  0  0  0
    6.6575    3.7223    0.0000 C   0  0  0  0  0  0  0  0  0  0  0  0
    4.0737   -0.0576    0.0000 C   0  0  1  0  0  0  0  0  0  0  0  0
    7.6145    2.9527    0.0000 C   0  0  1  0  0  0  0  0  0  0  0  0
    4.9378   -0.5609    0.0000 C   0  0  2  0  0  0  0  0  0  0  0  0
    7.6030    1.9528    0.0000 C   0  0  2  0  0  0  0  0  0  0  0  0
    4.1522   -2.1242    0.0000 C   0  0  0  0  0  0  0  0  0  0  0  0
    5.8555    1.8650    0.0000 C   0  0  0  0  0  0  0  0  0  0  0  0
    5.1487   -2.0409    0.0000 C   0  0  0  0  0  0  0  0  0  0  0  0
    6.4196    1.0393    0.0000 C   0  0  0  0  0  0  0  0  0  0  0  0
    4.9320    1.1587    0.0000 C   0  0  0  0  0  0  0  0  0  0  0  0
    9.0959    2.8062    0.0000 C   0  0  0  0  0  0  0  0  0  0  0  0
    2.0000   -0.1484    0.0000 C   0  0  0  0  0  0  0  0  0  0  0  0
    2.2999   -1.2851    0.0000 C   0  0  0  0  0  0  0  0  0  0  0  0
    6.5125    4.7117    0.0000 C   0  0  0  0  0  0  0  0  0  0  0  0
    5.6717    3.8902    0.0000 C   0  0  0  0  0  0  0  0  0  0  0  0
    3.2096    0.4458    0.0000 C   0  0  0  0  0  0  0  0  0  0  0  0
    7.6261    3.9526    0.0000 C   0  0  0  0  0  0  0  0  0  0  0  0
    5.8019   -1.0642    0.0000 C   0  0  0  0  0  0  0  0  0  0  0  0
    7.5914    0.9528    0.0000 C   0  0  0  0  0  0  0  0  0  0  0  0
    7.5340   -1.0709    0.0000 C   0  0  2  0  0  0  0  0  0  0  0  0
    8.4400   -0.5571    0.0000 C   0  0  1  0  0  0  0  0  0  0  0  0
    7.5340   -2.1126    0.0000 C   0  0  0  0  0  0  0  0  0  0  0  0
    9.3340   -1.0917    0.0000 C   0  0  0  0  0  0  0  0  0  0  0  0
    9.3340   -2.0917    0.0000 C   0  0  0  0  0  0  0  0  0  0  0  0
    7.0373   -2.9805    0.0000 C   0  0  0  0  0  0  0  0  0  0  0  0
    6.5340   -2.1164    0.0000 C   0  0  0  0  0  0  0  0  0  0  0  0
   10.2000   -0.5917    0.0000 C   0  0  0  0  0  0  0  0  0  0  0  0
   10.2000   -2.5917    0.0000 C   0  0  0  0  0  0  0  0  0  0  0  0
   11.0660   -1.0917    0.0000 C   0  0  0  0  0  0  0  0  0  0  0  0
   11.0660   -2.0917    0.0000 C   0  0  0  0  0  0  0  0  0  0  0  0
   10.2000   -3.5917    0.0000 C   0  0  0  0  0  0  0  0  0  0  0  0
   11.9760   -0.5849    0.0000 C   0  0  0  0  0  0  0  0  0  0  0  0
   11.0820    0.9775    0.0000 C   0  0  0  0  0  0  0  0  0  0  0  0
   11.9840    0.4567    0.0000 C   0  0  0  0  0  0  0  0  0  0  0  0
   12.8362   -1.0949    0.0000 C   0  0  0  0  0  0  0  0  0  0  0  0
    3.5330   -2.1571    0.0000 H   0  0  0  0  0  0  0  0  0  0  0  0
    4.1944   -2.7428    0.0000 H   0  0  0  0  0  0  0  0  0  0  0  0
    5.5215    2.3873    0.0000 H   0  0  0  0  0  0  0  0  0  0  0  0
    5.3384    1.5231    0.0000 H   0  0  0  0  0  0  0  0  0  0  0  0
    5.2123   -2.6576    0.0000 H   0  0  0  0  0  0  0  0  0  0  0  0
    5.7641   -1.9653    0.0000 H   0  0  0  0  0  0  0  0  0  0  0  0
    5.9145    0.6797    0.0000 H   0  0  0  0  0  0  0  0  0  0  0  0
    6.7889    0.5412    0.0000 H   0  0  0  0  0  0  0  0  0  0  0  0
    2.2244    0.4295    0.0000 H   0  0  0  0  0  0  0  0  0  0  0  0
    1.4220    0.0760    0.0000 H   0  0  0  0  0  0  0  0  0  0  0  0
    1.7756   -0.7264    0.0000 H   0  0  0  0  0  0  0  0  0  0  0  0
    1.8196   -0.8931    0.0000 H   0  0  0  0  0  0  0  0  0  0  0  0
    1.9078   -1.7654    0.0000 H   0  0  0  0  0  0  0  0  0  0  0  0
    2.7802   -1.6771    0.0000 H   0  0  0  0  0  0  0  0  0  0  0  0
    7.1260    4.8016    0.0000 H   0  0  0  0  0  0  0  0  0  0  0  0
    6.4226    5.3252    0.0000 H   0  0  0  0  0  0  0  0  0  0  0  0
    5.8991    4.6218    0.0000 H   0  0  0  0  0  0  0  0  0  0  0  0
    5.7758    4.5014    0.0000 H   0  0  0  0  0  0  0  0  0  0  0  0
    5.0605    3.9942    0.0000 H   0  0  0  0  0  0  0  0  0  0  0  0
    5.5676    3.2790    0.0000 H   0  0  0  0  0  0  0  0  0  0  0  0
    3.5217    0.9815    0.0000 H   0  0  0  0  0  0  0  0  0  0  0  0
    2.6739    0.7578    0.0000 H   0  0  0  0  0  0  0  0  0  0  0  0
    2.8976   -0.0900    0.0000 H   0  0  0  0  0  0  0  0  0  0  0  0
    8.2460    3.9455    0.0000 H   0  0  0  0  0  0  0  0  0  0  0  0
    7.6332    4.5726    0.0000 H   0  0  0  0  0  0  0  0  0  0  0  0
    7.0061    3.9598    0.0000 H   0  0  0  0  0  0  0  0  0  0  0  0
    6.9964   -1.3799    0.0000 H   0  0  0  0  0  0  0  0  0  0  0  0
    8.9811   -0.2543    0.0000 H   0  0  0  0  0  0  0  0  0  0  0  0
    6.4992   -2.6726    0.0000 H   0  0  0  0  0  0  0  0  0  0  0  0
    6.7294   -3.5186    0.0000 H   0  0  0  0  0  0  0  0  0  0  0  0
    7.5754   -3.2884    0.0000 H   0  0  0  0  0  0  0  0  0  0  0  0
    6.5316   -1.4964    0.0000 H   0  0  0  0  0  0  0  0  0  0  0  0
    5.9140   -2.1188    0.0000 H   0  0  0  0  0  0  0  0  0  0  0  0
    6.5364   -2.7364    0.0000 H   0  0  0  0  0  0  0  0  0  0  0  0
   11.6029   -2.4017    0.0000 H   0  0  0  0  0  0  0  0  0  0  0  0
    9.5894   -3.4841    0.0000 H   0  0  0  0  0  0  0  0  0  0  0  0
    9.9879   -4.1743    0.0000 H   0  0  0  0  0  0  0  0  0  0  0  0
   12.5222    0.7646    0.0000 H   0  0  0  0  0  0  0  0  0  0  0  0
   12.5200   -1.6282    0.0000 H   0  0  0  0  0  0  0  0  0  0  0  0
   13.3695   -1.4111    0.0000 H   0  0  0  0  0  0  0  0  0  0  0  0
   13.1524   -0.5616    0.0000 H   0  0  0  0  0  0  0  0  0  0  0  0
   11.0660   -4.7117    0.0000 H   0  0  0  0  0  0  0  0  0  0  0  0
  1 17  1  0  0  0  0
  1 23  1  0  0  0  0
  2 18  1  0  0  0  0
  2 24  1  0  0  0  0
  3 31  1  0  0  0  0
 33  3  1  6  0  0  0
  4 32  1  0  0  0  0
 34  4  1  6  0  0  0
  5 23  2  0  0  0  0
  6 24  2  0  0  0  0
  7 31  2  0  0  0  0
  8 32  2  0  0  0  0
  9 35  1  0  0  0  0
  9 37  1  0  0  0  0
 10 40  1  0  0  0  0
 10 46  1  0  0  0  0
 11 44  1  0  0  0  0
 11 90  1  0  0  0  0
 12 46  2  0  0  0  0
 13 15  1  0  0  0  0
 13 17  1  0  0  0  0
 13 25  1  0  0  0  0
 13 26  1  0  0  0  0
 14 16  1  0  0  0  0
 14 18  1  0  0  0  0
 14 27  1  0  0  0  0
 14 28  1  0  0  0  0
 15 19  1  0  0  0  0
 15 23  1  0  0  0  0
 15 29  1  1  0  0  0
 16 20  1  0  0  0  0
 16 24  1  0  0  0  0
 16 30  1  1  0  0  0
 17 21  1  0  0  0  0
 17 31  1  6  0  0  0
 18 22  1  0  0  0  0
 18 32  1  6  0  0  0
 19 21  1  0  0  0  0
 19 49  1  0  0  0  0
 19 50  1  0  0  0  0
 20 22  1  0  0  0  0
 20 51  1  0  0  0  0
 20 52  1  0  0  0  0
 21 53  1  0  0  0  0
 21 54  1  0  0  0  0
 22 55  1  0  0  0  0
 22 56  1  0  0  0  0
 25 57  1  0  0  0  0
 25 58  1  0  0  0  0
 25 59  1  0  0  0  0
 26 60  1  0  0  0  0
 26 61  1  0  0  0  0
 26 62  1  0  0  0  0
 27 63  1  0  0  0  0
 27 64  1  0  0  0  0
 27 65  1  0  0  0  0
 28 66  1  0  0  0  0
 28 67  1  0  0  0  0
 28 68  1  0  0  0  0
 29 69  1  0  0  0  0
 29 70  1  0  0  0  0
 29 71  1  0  0  0  0
 30 72  1  0  0  0  0
 30 73  1  0  0  0  0
 30 74  1  0  0  0  0
 33 34  1  0  0  0  0
 33 35  1  0  0  0  0
 33 75  1  0  0  0  0
 34 36  1  0  0  0  0
 34 76  1  0  0  0  0
 35 38  1  0  0  0  0
 35 39  1  0  0  0  0
 36 37  2  0  0  0  0
 36 40  1  0  0  0  0
 37 41  1  0  0  0  0
 38 77  1  0  0  0  0
 38 78  1  0  0  0  0
 38 79  1  0  0  0  0
 39 80  1  0  0  0  0
 39 81  1  0  0  0  0
 39 82  1  0  0  0  0
 40 42  2  0  0  0  0
 41 43  2  0  0  0  0
 41 44  1  0  0  0  0
 42 43  1  0  0  0  0
 42 45  1  0  0  0  0
 43 83  1  0  0  0  0
 44 84  1  0  0  0  0
 44 85  1  0  0  0  0
 45 47  2  0  0  0  0
 45 48  1  0  0  0  0
 46 47  1  0  0  0  0
 47 86  1  0  0  0  0
 48 87  1  0  0  0  0
 48 88  1  0  0  0  0
 48 89  1  0  0  0  0
M  END
> <PUBCHEM_COMPOUND_CID>
515041
> <PUBCHEM_COMPOUND_CANONICALIZED>
1
> <PUBCHEM_CACTVS_COMPLEXITY>
1540
> <PUBCHEM_CACTVS_HBOND_ACCEPTOR>
12
> <PUBCHEM_CACTVS_HBOND_DONOR>
1
> <PUBCHEM_CACTVS_ROTATABLE_BOND>
7
> <PUBCHEM_CACTVS_SUBSKEYS>
AAADcfB8PAAAAAAAAAAAAAAAAAAAAaNECAA0SJECAAAAAACRAAAAGgAACAAADlSgmAIyDoAABgCIAiDSCAICCAAgIAAAiAFECMgNNzKEMR6CeiClwBUKuQfK7vzPoAACCAAIAABAAAQQABAAAYAADAAAAA==
> <PUBCHEM_IUPAC_OPENEYE_NAME>
[(9R,10R)-6-(hydroxymethyl)-4,8,8-trimethyl-2-oxo-9-[(1S,4R)-4,7,7-trimethyl-3-oxo-2-oxabicyclo[2.2.1]heptane-1-carbonyl]oxy-9,10-dihydropyrano[2,3-f]chromen-10-yl] (1S,4R)-4,7,7-trimethyl-3-oxo-2-oxabicyclo[2.2.1]heptane-1-carboxylate
> <PUBCHEM_IUPAC_CAS_NAME>
(1S,4R)-4,7,7-trimethyl-3-oxo-2-oxabicyclo[2.2.1]heptane-1-carboxylic acid [(9R,10R)-6-(hydroxymethyl)-4,8,8-trimethyl-2-oxo-9-[oxo-[(1S,4R)-4,7,7-trimethyl-3-oxo-2-oxabicyclo[2.2.1]heptan-1-yl]methoxy]-9,10-dihydropyrano[2,3-f][1]benzopyran-10-yl] ester
> <PUBCHEM_IUPAC_NAME_MARKUP>
[(9<I>R</I>,10<I>R</I>)-6-(hydroxymethyl)-4,8,8-trimethyl-2-oxo-9-[(1<I>S</I>,4<I>R</I>)-4,7,7-trimethyl-3-oxo-2-oxabicyclo[2.2.1]heptane-1-carbonyl]oxy-9,10-dihydropyrano[2,3-f]chromen-10-yl] (1<I>S</I>,4<I>R</I>)-4,7,7-trimethyl-3-oxo-2-oxabicyclo[2.2.1]heptane-1-carboxylate
> <PUBCHEM_IUPAC_NAME>
[(9R,10R)-6-(hydroxymethyl)-4,8,8-trimethyl-2-oxo-9-[(1S,4R)-4,7,7-trimethyl-3-oxo-2-oxabicyclo[2.2.1]heptane-1-carbonyl]oxy-9,10-dihydropyrano[2,3-f]chromen-10-yl] (1S,4R)-4,7,7-trimethyl-3-oxo-2-oxabicyclo[2.2.1]heptane-1-carboxylate
> <PUBCHEM_IUPAC_SYSTEMATIC_NAME>
[(9R,10R)-6-(hydroxymethyl)-4,8,8-trimethyl-2-oxidanylidene-9-[[(1S,4R)-4,7,7-trimethyl-3-oxidanylidene-2-oxabicyclo[2.2.1]heptan-1-yl]carbonyloxy]-9,10-dihydropyrano[2,3-f]chromen-10-yl] (1S,4R)-4,7,7-trimethyl-3-oxidanylidene-2-oxabicyclo[2.2.1]heptane-1-carboxylate
> <PUBCHEM_IUPAC_TRADITIONAL_NAME>
(1S,4R)-3-keto-4,7,7-trimethyl-2-oxabicyclo[2.2.1]heptane-1-carboxylic acid [(9R,10R)-2-keto-9-[(1S,4R)-3-keto-4,7,7-trimethyl-2-oxabicyclo[2.2.1]heptane-1-carbonyl]oxy-4,8,8-trimethyl-6-methylol-9,10-dihydropyrano[2,3-f]chromen-10-yl] ester
> <PUBCHEM_IUPAC_INCHI>
InChI=1S/C36H42O12/c1-17-14-20(38)43-23-19(17)15-18(16-37)22-21(23)24(44-28(41)35-12-10-33(8,26(39)47-35)31(35,4)5)25(30(2,3)46-22)45-29(42)36-13-11-34(9,27(40)48-36)32(36,6)7/h14-15,24-25,37H,10-13,16H2,1-9H3/t24-,25-,33+,34+,35-,36-/m1/s1
> <PUBCHEM_IUPAC_INCHIKEY>
MXAXFZXRVALDIR-CTAQNPQRSA-N
> <PUBCHEM_XLOGP3_AA>
4.1
> <PUBCHEM_EXACT_MASS>
666.26762677
> <PUBCHEM_MOLECULAR_FORMULA>
C36H42O12
> <PUBCHEM_MOLECULAR_WEIGHT>
666.7
> <PUBCHEM_OPENEYE_CAN_SMILES>
CC1=CC(=O)OC2=C1C=C(C3=C2C(C(C(O3)(C)C)OC(=O)C45CCC(C4(C)C)(C(=O)O5)C)OC(=O)C67CCC(C6(C)C)(C(=O)O7)C)CO
> <PUBCHEM_OPENEYE_ISO_SMILES>
CC1=CC(=O)OC2=C1C=C(C3=C2[C@H]([C@H](C(O3)(C)C)OC(=O)[C@]45CC[C@](C4(C)C)(C(=O)O5)C)OC(=O)[C@]67CC[C@](C6(C)C)(C(=O)O7)C)CO
> <PUBCHEM_CACTVS_TPSA>
161
> <PUBCHEM_MONOISOTOPIC_WEIGHT>
666.26762677
> <PUBCHEM_TOTAL_CHARGE>
0
> <PUBCHEM_HEAVY_ATOM_COUNT>
48
> <PUBCHEM_ATOM_DEF_STEREO_COUNT>
6
> <PUBCHEM_ATOM_UDEF_STEREO_COUNT>
0
> <PUBCHEM_BOND_DEF_STEREO_COUNT>
0
> <PUBCHEM_BOND_UDEF_STEREO_COUNT>
0
> <PUBCHEM_ISOTOPIC_ATOM_COUNT>
0
> <PUBCHEM_COMPONENT_COUNT>
1
> <PUBCHEM_CACTVS_TAUTO_COUNT>
-1
> <PUBCHEM_COORDINATE_TYPE>
1
5
255
> <PUBCHEM_BONDANNOTATIONS>
10  40  8
10  46  8
15  29  5
16  30  5
17  31  6
18  32  6
33  3  6
36  37  8
36  40  8
37  41  8
34  4  6
40  42  8
41  43  8
42  43  8
42  45  8
45  47  8
46  47  8
$$$$
