515055
  -OEChem-10302200282D
 40 42  0     1  0  0  0  0  0999 V2000
    3.2320   -3.4073    0.0000 S   0  0  0  0  0  0  0  0  0  0  0  0
    4.5411   -2.4563    0.0000 O   0  0  0  0  0  0  0  0  0  0  0  0
    2.8660    5.6315    0.0000 O   0  0  0  0  0  0  0  0  0  0  0  0
    4.4131   -5.1299    0.0000 O   0  0  0  0  0  0  0  0  0  0  0  0
    5.4641   -0.8685    0.0000 O   0  0  0  0  0  0  0  0  0  0  0  0
    3.7320   -0.8685    0.0000 N   0  0  0  0  0  0  0  0  0  0  0  0
    2.8660    3.6315    0.0000 N   0  0  0  0  0  0  0  0  0  0  0  0
    4.5981    0.6315    0.0000 N   0  0  0  0  0  0  0  0  0  0  0  0
    3.7320    2.1315    0.0000 N   0  0  0  0  0  0  0  0  0  0  0  0
    3.7320   -1.8685    0.0000 C   0  0  2  0  0  0  0  0  0  0  0  0
    2.9230   -2.4563    0.0000 C   0  0  0  0  0  0  0  0  0  0  0  0
    4.2320   -3.4073    0.0000 C   0  0  1  0  0  0  0  0  0  0  0  0
    2.0000    4.1315    0.0000 C   0  0  0  0  0  0  0  0  0  0  0  0
    3.7320    4.1315    0.0000 C   0  0  0  0  0  0  0  0  0  0  0  0
    4.8198   -4.2164    0.0000 C   0  0  0  0  0  0  0  0  0  0  0  0
    2.0000    5.1315    0.0000 C   0  0  0  0  0  0  0  0  0  0  0  0
    3.7320    5.1315    0.0000 C   0  0  0  0  0  0  0  0  0  0  0  0
    2.8660   -0.3685    0.0000 C   0  0  0  0  0  0  0  0  0  0  0  0
    4.5981   -0.3685    0.0000 C   0  0  0  0  0  0  0  0  0  0  0  0
    2.8660    2.6315    0.0000 C   0  0  0  0  0  0  0  0  0  0  0  0
    2.8660    0.6315    0.0000 C   0  0  0  0  0  0  0  0  0  0  0  0
    3.7320    1.1315    0.0000 C   0  0  0  0  0  0  0  0  0  0  0  0
    4.2845   -1.5870    0.0000 H   0  0  0  0  0  0  0  0  0  0  0  0
    2.6130   -1.9194    0.0000 H   0  0  0  0  0  0  0  0  0  0  0  0
    2.3566   -2.7085    0.0000 H   0  0  0  0  0  0  0  0  0  0  0  0
    4.8444   -3.3104    0.0000 H   0  0  0  0  0  0  0  0  0  0  0  0
    1.3894    4.2392    0.0000 H   0  0  0  0  0  0  0  0  0  0  0  0
    1.7880    3.5489    0.0000 H   0  0  0  0  0  0  0  0  0  0  0  0
    3.9441    3.5489    0.0000 H   0  0  0  0  0  0  0  0  0  0  0  0
    4.3426    4.2392    0.0000 H   0  0  0  0  0  0  0  0  0  0  0  0
    5.3338   -4.5631    0.0000 H   0  0  0  0  0  0  0  0  0  0  0  0
    5.2505   -3.7704    0.0000 H   0  0  0  0  0  0  0  0  0  0  0  0
    1.7880    5.7141    0.0000 H   0  0  0  0  0  0  0  0  0  0  0  0
    1.3894    5.0238    0.0000 H   0  0  0  0  0  0  0  0  0  0  0  0
    4.3426    5.0238    0.0000 H   0  0  0  0  0  0  0  0  0  0  0  0
    3.9441    5.7141    0.0000 H   0  0  0  0  0  0  0  0  0  0  0  0
    2.3291   -0.6785    0.0000 H   0  0  0  0  0  0  0  0  0  0  0  0
    2.3291    2.3215    0.0000 H   0  0  0  0  0  0  0  0  0  0  0  0
    2.3291    0.9415    0.0000 H   0  0  0  0  0  0  0  0  0  0  0  0
    4.7775   -5.6315    0.0000 H   0  0  0  0  0  0  0  0  0  0  0  0
  1 11  1  0  0  0  0
  1 12  1  0  0  0  0
  2 10  1  0  0  0  0
  2 12  1  0  0  0  0
  3 16  1  0  0  0  0
  3 17  1  0  0  0  0
  4 15  1  0  0  0  0
  4 40  1  0  0  0  0
  5 19  2  0  0  0  0
 10  6  1  1  0  0  0
  6 18  1  0  0  0  0
  6 19  1  0  0  0  0
  7 13  1  0  0  0  0
  7 14  1  0  0  0  0
  7 20  1  0  0  0  0
  8 19  1  0  0  0  0
  8 22  2  0  0  0  0
  9 20  2  0  0  0  0
  9 22  1  0  0  0  0
 10 11  1  0  0  0  0
 10 23  1  0  0  0  0
 11 24  1  0  0  0  0
 11 25  1  0  0  0  0
 12 15  1  1  0  0  0
 12 26  1  0  0  0  0
 13 16  1  0  0  0  0
 13 27  1  0  0  0  0
 13 28  1  0  0  0  0
 14 17  1  0  0  0  0
 14 29  1  0  0  0  0
 14 30  1  0  0  0  0
 15 31  1  0  0  0  0
 15 32  1  0  0  0  0
 16 33  1  0  0  0  0
 16 34  1  0  0  0  0
 17 35  1  0  0  0  0
 17 36  1  0  0  0  0
 18 21  2  0  0  0  0
 18 37  1  0  0  0  0
 20 38  1  0  0  0  0
 21 22  1  0  0  0  0
 21 39  1  0  0  0  0
M  END
> <PUBCHEM_COMPOUND_CID>
515055
> <PUBCHEM_COMPOUND_CANONICALIZED>
1
> <PUBCHEM_CACTVS_COMPLEXITY>
504
> <PUBCHEM_CACTVS_HBOND_ACCEPTOR>
5
> <PUBCHEM_CACTVS_HBOND_DONOR>
1
> <PUBCHEM_CACTVS_ROTATABLE_BOND>
4
> <PUBCHEM_CACTVS_SUBSKEYS>
AAADceBzuABAAAAAAAAAAAAAAAAAASAAAAAsQAAAAAAAAAAAAAAAHgQACAAACADlwAaBAAMABgioACJndACAAAEAAhAJAAAYABCDEAAACAALAAAABgKzAAAAAAAAAAAAAAAAAAAAAAAAAAAAAAAAAAAAAA==
> <PUBCHEM_IUPAC_OPENEYE_NAME>
1-[(2R,5S)-2-(hydroxymethyl)-1,3-oxathiolan-5-yl]-4-(morpholinomethyleneamino)pyrimidin-2-one
> <PUBCHEM_IUPAC_CAS_NAME>
1-[(2R,5S)-2-(hydroxymethyl)-1,3-oxathiolan-5-yl]-4-(4-morpholinylmethylideneamino)-2-pyrimidinone
> <PUBCHEM_IUPAC_NAME_MARKUP>
1-[(2<I>R</I>,5<I>S</I>)-2-(hydroxymethyl)-1,3-oxathiolan-5-yl]-4-(morpholin-4-ylmethylideneamino)pyrimidin-2-one
> <PUBCHEM_IUPAC_NAME>
1-[(2R,5S)-2-(hydroxymethyl)-1,3-oxathiolan-5-yl]-4-(morpholin-4-ylmethylideneamino)pyrimidin-2-one
> <PUBCHEM_IUPAC_SYSTEMATIC_NAME>
1-[(2R,5S)-2-(hydroxymethyl)-1,3-oxathiolan-5-yl]-4-(morpholin-4-ylmethylideneamino)pyrimidin-2-one
> <PUBCHEM_IUPAC_TRADITIONAL_NAME>
1-[(2R,5S)-2-methylol-1,3-oxathiolan-5-yl]-4-(morpholinomethyleneamino)pyrimidin-2-one
> <PUBCHEM_IUPAC_INCHI>
InChI=1S/C13H18N4O4S/c18-7-12-21-11(8-22-12)17-2-1-10(15-13(17)19)14-9-16-3-5-20-6-4-16/h1-2,9,11-12,18H,3-8H2/t11-,12+/m0/s1
> <PUBCHEM_IUPAC_INCHIKEY>
ISYPURPPUTZVMN-NWDGAFQWSA-N
> <PUBCHEM_XLOGP3>
-0.6
> <PUBCHEM_EXACT_MASS>
326.10487624
> <PUBCHEM_MOLECULAR_FORMULA>
C13H18N4O4S
> <PUBCHEM_MOLECULAR_WEIGHT>
326.37
> <PUBCHEM_OPENEYE_CAN_SMILES>
C1COCCN1C=NC2=NC(=O)N(C=C2)C3CSC(O3)CO
> <PUBCHEM_OPENEYE_ISO_SMILES>
C1COCCN1C=NC2=NC(=O)N(C=C2)[C@@H]3CS[C@@H](O3)CO
> <PUBCHEM_CACTVS_TPSA>
112
> <PUBCHEM_MONOISOTOPIC_WEIGHT>
326.10487624
> <PUBCHEM_TOTAL_CHARGE>
0
> <PUBCHEM_HEAVY_ATOM_COUNT>
22
> <PUBCHEM_ATOM_DEF_STEREO_COUNT>
2
> <PUBCHEM_ATOM_UDEF_STEREO_COUNT>
0
> <PUBCHEM_BOND_DEF_STEREO_COUNT>
0
> <PUBCHEM_BOND_UDEF_STEREO_COUNT>
0
> <PUBCHEM_ISOTOPIC_ATOM_COUNT>
0
> <PUBCHEM_COMPONENT_COUNT>
1
> <PUBCHEM_CACTVS_TAUTO_COUNT>
-1
> <PUBCHEM_COORDINATE_TYPE>
1
5
255
> <PUBCHEM_BONDANNOTATIONS>
12  15  5
18  21  8
21  22  8
10  6  5
6  18  8
6  19  8
8  19  8
8  22  8
$$$$
