515058
  -OEChem-10302200282D
 49 52  0     1  0  0  0  0  0999 V2000
    5.8301   -3.4073    0.0000 S   0  0  0  0  0  0  0  0  0  0  0  0
    2.0000    5.6315    0.0000 F   0  0  0  0  0  0  0  0  0  0  0  0
    8.9282    5.6315    0.0000 F   0  0  0  0  0  0  0  0  0  0  0  0
    7.1391   -2.4563    0.0000 O   0  0  0  0  0  0  0  0  0  0  0  0
    7.0112   -5.1299    0.0000 O   0  0  0  0  0  0  0  0  0  0  0  0
    8.0622   -0.8685    0.0000 O   0  0  0  0  0  0  0  0  0  0  0  0
    6.3301   -0.8685    0.0000 N   0  0  0  0  0  0  0  0  0  0  0  0
    7.1962    0.6315    0.0000 N   0  0  0  0  0  0  0  0  0  0  0  0
    5.4641    3.6315    0.0000 N   0  0  0  0  0  0  0  0  0  0  0  0
    6.3301    2.1315    0.0000 N   0  0  0  0  0  0  0  0  0  0  0  0
    6.3301   -1.8685    0.0000 C   0  0  2  0  0  0  0  0  0  0  0  0
    5.5211   -2.4563    0.0000 C   0  0  0  0  0  0  0  0  0  0  0  0
    6.8301   -3.4073    0.0000 C   0  0  1  0  0  0  0  0  0  0  0  0
    7.4179   -4.2164    0.0000 C   0  0  0  0  0  0  0  0  0  0  0  0
    5.4641   -0.3685    0.0000 C   0  0  0  0  0  0  0  0  0  0  0  0
    7.1962   -0.3685    0.0000 C   0  0  0  0  0  0  0  0  0  0  0  0
    5.4641    0.6315    0.0000 C   0  0  0  0  0  0  0  0  0  0  0  0
    6.3301    1.1315    0.0000 C   0  0  0  0  0  0  0  0  0  0  0  0
    4.5981    4.1315    0.0000 C   0  0  0  0  0  0  0  0  0  0  0  0
    6.3301    4.1315    0.0000 C   0  0  0  0  0  0  0  0  0  0  0  0
    5.4641    2.6315    0.0000 C   0  0  0  0  0  0  0  0  0  0  0  0
    4.5981    5.1315    0.0000 C   0  0  0  0  0  0  0  0  0  0  0  0
    7.1962    3.6315    0.0000 C   0  0  0  0  0  0  0  0  0  0  0  0
    3.7320    3.6315    0.0000 C   0  0  0  0  0  0  0  0  0  0  0  0
    6.3301    5.1315    0.0000 C   0  0  0  0  0  0  0  0  0  0  0  0
    3.7320    5.6315    0.0000 C   0  0  0  0  0  0  0  0  0  0  0  0
    8.0622    4.1315    0.0000 C   0  0  0  0  0  0  0  0  0  0  0  0
    2.8660    4.1315    0.0000 C   0  0  0  0  0  0  0  0  0  0  0  0
    7.1962    5.6315    0.0000 C   0  0  0  0  0  0  0  0  0  0  0  0
    2.8660    5.1315    0.0000 C   0  0  0  0  0  0  0  0  0  0  0  0
    8.0622    5.1315    0.0000 C   0  0  0  0  0  0  0  0  0  0  0  0
    6.8826   -1.5870    0.0000 H   0  0  0  0  0  0  0  0  0  0  0  0
    5.2111   -1.9194    0.0000 H   0  0  0  0  0  0  0  0  0  0  0  0
    4.9547   -2.7085    0.0000 H   0  0  0  0  0  0  0  0  0  0  0  0
    7.4425   -3.3104    0.0000 H   0  0  0  0  0  0  0  0  0  0  0  0
    7.9319   -4.5631    0.0000 H   0  0  0  0  0  0  0  0  0  0  0  0
    7.8486   -3.7704    0.0000 H   0  0  0  0  0  0  0  0  0  0  0  0
    4.9272   -0.6785    0.0000 H   0  0  0  0  0  0  0  0  0  0  0  0
    4.9272    0.9415    0.0000 H   0  0  0  0  0  0  0  0  0  0  0  0
    7.3756   -5.6315    0.0000 H   0  0  0  0  0  0  0  0  0  0  0  0
    4.9272    2.3215    0.0000 H   0  0  0  0  0  0  0  0  0  0  0  0
    5.1350    5.4415    0.0000 H   0  0  0  0  0  0  0  0  0  0  0  0
    7.1962    3.0115    0.0000 H   0  0  0  0  0  0  0  0  0  0  0  0
    3.7320    3.0115    0.0000 H   0  0  0  0  0  0  0  0  0  0  0  0
    5.7932    5.4415    0.0000 H   0  0  0  0  0  0  0  0  0  0  0  0
    3.7320    6.2515    0.0000 H   0  0  0  0  0  0  0  0  0  0  0  0
    8.5991    3.8215    0.0000 H   0  0  0  0  0  0  0  0  0  0  0  0
    2.3291    3.8215    0.0000 H   0  0  0  0  0  0  0  0  0  0  0  0
    7.1962    6.2515    0.0000 H   0  0  0  0  0  0  0  0  0  0  0  0
  1 12  1  0  0  0  0
  1 13  1  0  0  0  0
  2 30  1  0  0  0  0
  3 31  1  0  0  0  0
  4 11  1  0  0  0  0
  4 13  1  0  0  0  0
  5 14  1  0  0  0  0
  5 40  1  0  0  0  0
  6 16  2  0  0  0  0
 11  7  1  1  0  0  0
  7 15  1  0  0  0  0
  7 16  1  0  0  0  0
  8 16  1  0  0  0  0
  8 18  2  0  0  0  0
  9 19  1  0  0  0  0
  9 20  1  0  0  0  0
  9 21  1  0  0  0  0
 10 18  1  0  0  0  0
 10 21  2  0  0  0  0
 11 12  1  0  0  0  0
 11 32  1  0  0  0  0
 12 33  1  0  0  0  0
 12 34  1  0  0  0  0
 13 14  1  1  0  0  0
 13 35  1  0  0  0  0
 14 36  1  0  0  0  0
 14 37  1  0  0  0  0
 15 17  2  0  0  0  0
 15 38  1  0  0  0  0
 17 18  1  0  0  0  0
 17 39  1  0  0  0  0
 19 22  2  0  0  0  0
 19 24  1  0  0  0  0
 20 23  2  0  0  0  0
 20 25  1  0  0  0  0
 21 41  1  0  0  0  0
 22 26  1  0  0  0  0
 22 42  1  0  0  0  0
 23 27  1  0  0  0  0
 23 43  1  0  0  0  0
 24 28  2  0  0  0  0
 24 44  1  0  0  0  0
 25 29  2  0  0  0  0
 25 45  1  0  0  0  0
 26 30  2  0  0  0  0
 26 46  1  0  0  0  0
 27 31  2  0  0  0  0
 27 47  1  0  0  0  0
 28 30  1  0  0  0  0
 28 48  1  0  0  0  0
 29 31  1  0  0  0  0
 29 49  1  0  0  0  0
M  END
> <PUBCHEM_COMPOUND_CID>
515058
> <PUBCHEM_COMPOUND_CANONICALIZED>
1
> <PUBCHEM_CACTVS_COMPLEXITY>
699
> <PUBCHEM_CACTVS_HBOND_ACCEPTOR>
6
> <PUBCHEM_CACTVS_HBOND_DONOR>
1
> <PUBCHEM_CACTVS_ROTATABLE_BOND>
6
> <PUBCHEM_CACTVS_SUBSKEYS>
AAADceB7sYBAAAAAAAAAAAAAAAAAASAAAAAwYIAAAAAAAAABQAAAHwQACAAACAjl0A6xwIMABgioACZndACCAAEhAhAJiAAYZJiJMGLAmZGOIAhghgLryAcQAAAAAAAAAAAAAAAAAAAAAAAAAAAAAAAAAA==
> <PUBCHEM_IUPAC_OPENEYE_NAME>
N,N-bis(4-fluorophenyl)-N'-[1-[(2R,5S)-2-(hydroxymethyl)-1,3-oxathiolan-5-yl]-2-oxo-pyrimidin-4-yl]formamidine
> <PUBCHEM_IUPAC_CAS_NAME>
N,N-bis(4-fluorophenyl)-N'-[1-[(2R,5S)-2-(hydroxymethyl)-1,3-oxathiolan-5-yl]-2-oxo-4-pyrimidinyl]methanimidamide
> <PUBCHEM_IUPAC_NAME_MARKUP>
<I>N</I>,<I>N</I>-bis(4-fluorophenyl)-<I>N</I>&apos;-[1-[(2<I>R</I>,5<I>S</I>)-2-(hydroxymethyl)-1,3-oxathiolan-5-yl]-2-oxopyrimidin-4-yl]methanimidamide
> <PUBCHEM_IUPAC_NAME>
N,N-bis(4-fluorophenyl)-N'-[1-[(2R,5S)-2-(hydroxymethyl)-1,3-oxathiolan-5-yl]-2-oxopyrimidin-4-yl]methanimidamide
> <PUBCHEM_IUPAC_SYSTEMATIC_NAME>
N,N-bis(4-fluorophenyl)-N'-[1-[(2R,5S)-2-(hydroxymethyl)-1,3-oxathiolan-5-yl]-2-oxidanylidene-pyrimidin-4-yl]methanimidamide
> <PUBCHEM_IUPAC_TRADITIONAL_NAME>
N,N-bis(4-fluorophenyl)-N'-[2-keto-1-[(2R,5S)-2-methylol-1,3-oxathiolan-5-yl]pyrimidin-4-yl]formamidine
> <PUBCHEM_IUPAC_INCHI>
InChI=1S/C21H18F2N4O3S/c22-14-1-5-16(6-2-14)27(17-7-3-15(23)4-8-17)13-24-18-9-10-26(21(29)25-18)19-12-31-20(11-28)30-19/h1-10,13,19-20,28H,11-12H2/t19-,20+/m0/s1
> <PUBCHEM_IUPAC_INCHIKEY>
QYGGXGWUPOWLIV-VQTJNVASSA-N
> <PUBCHEM_XLOGP3>
3
> <PUBCHEM_EXACT_MASS>
444.10676795
> <PUBCHEM_MOLECULAR_FORMULA>
C21H18F2N4O3S
> <PUBCHEM_MOLECULAR_WEIGHT>
444.5
> <PUBCHEM_OPENEYE_CAN_SMILES>
C1C(OC(S1)CO)N2C=CC(=NC2=O)N=CN(C3=CC=C(C=C3)F)C4=CC=C(C=C4)F
> <PUBCHEM_OPENEYE_ISO_SMILES>
C1[C@H](O[C@H](S1)CO)N2C=CC(=NC2=O)N=CN(C3=CC=C(C=C3)F)C4=CC=C(C=C4)F
> <PUBCHEM_CACTVS_TPSA>
103
> <PUBCHEM_MONOISOTOPIC_WEIGHT>
444.10676795
> <PUBCHEM_TOTAL_CHARGE>
0
> <PUBCHEM_HEAVY_ATOM_COUNT>
31
> <PUBCHEM_ATOM_DEF_STEREO_COUNT>
2
> <PUBCHEM_ATOM_UDEF_STEREO_COUNT>
0
> <PUBCHEM_BOND_DEF_STEREO_COUNT>
0
> <PUBCHEM_BOND_UDEF_STEREO_COUNT>
0
> <PUBCHEM_ISOTOPIC_ATOM_COUNT>
0
> <PUBCHEM_COMPONENT_COUNT>
1
> <PUBCHEM_CACTVS_TAUTO_COUNT>
-1
> <PUBCHEM_COORDINATE_TYPE>
1
5
255
> <PUBCHEM_BONDANNOTATIONS>
13  14  5
15  17  8
17  18  8
19  22  8
19  24  8
20  23  8
20  25  8
22  26  8
23  27  8
24  28  8
25  29  8
26  30  8
27  31  8
28  30  8
29  31  8
11  7  5
7  15  8
7  16  8
8  16  8
8  18  8
$$$$
