515006
  -OEChem-10302200282D
 80 84  0     1  0  0  0  0  0999 V2000
    8.8335   -1.0000    0.0000 O   0  0  0  0  0  0  0  0  0  0  0  0
    6.4781   -4.6160    0.0000 O   0  0  0  0  0  0  0  0  0  0  0  0
   11.4316    0.5000    0.0000 N   0  0  0  0  0  0  0  0  0  0  0  0
    6.3848   -2.8364    0.0000 N   0  0  0  0  0  0  0  0  0  0  0  0
    9.6996   -2.5000    0.0000 N   0  0  0  0  0  0  0  0  0  0  0  0
   11.4316    2.5000    0.0000 C   0  0  0  0  0  0  0  0  0  0  0  0
   10.5656    2.0000    0.0000 C   0  0  0  0  0  0  0  0  0  0  0  0
   12.2976    2.0000    0.0000 C   0  0  0  0  0  0  0  0  0  0  0  0
   10.5656    1.0000    0.0000 C   0  0  0  0  0  0  0  0  0  0  0  0
   12.2976    1.0000    0.0000 C   0  0  0  0  0  0  0  0  0  0  0  0
   11.4316    3.5000    0.0000 C   0  0  0  0  0  0  0  0  0  0  0  0
   11.4316   -0.5000    0.0000 C   0  0  0  0  0  0  0  0  0  0  0  0
   10.5656   -1.0000    0.0000 C   0  0  0  0  0  0  0  0  0  0  0  0
    7.9675   -2.5000    0.0000 C   0  0  3  0  0  0  0  0  0  0  0  0
    7.0540   -2.0933    0.0000 C   0  0  0  0  0  0  0  0  0  0  0  0
   10.5656   -2.0000    0.0000 C   0  0  0  0  0  0  0  0  0  0  0  0
    7.8630   -3.4945    0.0000 C   0  0  0  0  0  0  0  0  0  0  0  0
   12.2976    4.0000    0.0000 C   0  0  0  0  0  0  0  0  0  0  0  0
    8.8335   -2.0000    0.0000 C   0  0  0  0  0  0  0  0  0  0  0  0
    6.8848   -3.7024    0.0000 C   0  0  0  0  0  0  0  0  0  0  0  0
    5.3903   -2.7319    0.0000 C   0  0  0  0  0  0  0  0  0  0  0  0
    9.6996   -3.5000    0.0000 C   0  0  0  0  0  0  0  0  0  0  0  0
   13.1637    3.5000    0.0000 C   0  0  0  0  0  0  0  0  0  0  0  0
   12.2976    5.0000    0.0000 C   0  0  0  0  0  0  0  0  0  0  0  0
    4.9836   -1.8183    0.0000 C   0  0  0  0  0  0  0  0  0  0  0  0
   14.0297    4.0000    0.0000 C   0  0  0  0  0  0  0  0  0  0  0  0
   13.1637    5.5000    0.0000 C   0  0  0  0  0  0  0  0  0  0  0  0
    3.9890   -1.7138    0.0000 C   0  0  0  0  0  0  0  0  0  0  0  0
   10.5656   -4.0000    0.0000 C   0  0  0  0  0  0  0  0  0  0  0  0
    8.8335   -4.0000    0.0000 C   0  0  0  0  0  0  0  0  0  0  0  0
   14.0297    5.0000    0.0000 C   0  0  0  0  0  0  0  0  0  0  0  0
   10.5656   -5.0000    0.0000 C   0  0  0  0  0  0  0  0  0  0  0  0
    8.8335   -5.0000    0.0000 C   0  0  0  0  0  0  0  0  0  0  0  0
    3.5823   -0.8003    0.0000 C   0  0  0  0  0  0  0  0  0  0  0  0
    3.4013   -2.5228    0.0000 C   0  0  0  0  0  0  0  0  0  0  0  0
    9.6996   -5.5000    0.0000 C   0  0  0  0  0  0  0  0  0  0  0  0
    2.5878   -0.6957    0.0000 C   0  0  0  0  0  0  0  0  0  0  0  0
    2.4067   -2.4183    0.0000 C   0  0  0  0  0  0  0  0  0  0  0  0
    2.0000   -1.5048    0.0000 C   0  0  0  0  0  0  0  0  0  0  0  0
   10.8947    2.8100    0.0000 H   0  0  0  0  0  0  0  0  0  0  0  0
   10.3535    2.5826    0.0000 H   0  0  0  0  0  0  0  0  0  0  0  0
    9.9550    1.8923    0.0000 H   0  0  0  0  0  0  0  0  0  0  0  0
   12.9082    1.8923    0.0000 H   0  0  0  0  0  0  0  0  0  0  0  0
   12.5097    2.5826    0.0000 H   0  0  0  0  0  0  0  0  0  0  0  0
    9.9550    1.1077    0.0000 H   0  0  0  0  0  0  0  0  0  0  0  0
   10.3535    0.4174    0.0000 H   0  0  0  0  0  0  0  0  0  0  0  0
   12.5097    0.4174    0.0000 H   0  0  0  0  0  0  0  0  0  0  0  0
   12.9082    1.1077    0.0000 H   0  0  0  0  0  0  0  0  0  0  0  0
   11.2195    4.0826    0.0000 H   0  0  0  0  0  0  0  0  0  0  0  0
   10.8210    3.3923    0.0000 H   0  0  0  0  0  0  0  0  0  0  0  0
   11.6437   -1.0826    0.0000 H   0  0  0  0  0  0  0  0  0  0  0  0
   12.0422   -0.3923    0.0000 H   0  0  0  0  0  0  0  0  0  0  0  0
   10.3535   -0.4174    0.0000 H   0  0  0  0  0  0  0  0  0  0  0  0
    9.9550   -1.1077    0.0000 H   0  0  0  0  0  0  0  0  0  0  0  0
    7.9350   -1.8808    0.0000 H   0  0  0  0  0  0  0  0  0  0  0  0
    7.3640   -1.5563    0.0000 H   0  0  0  0  0  0  0  0  0  0  0  0
    6.5524   -1.7288    0.0000 H   0  0  0  0  0  0  0  0  0  0  0  0
   10.7776   -2.5826    0.0000 H   0  0  0  0  0  0  0  0  0  0  0  0
   11.1762   -1.8923    0.0000 H   0  0  0  0  0  0  0  0  0  0  0  0
    7.9278   -4.1111    0.0000 H   0  0  0  0  0  0  0  0  0  0  0  0
    8.4830   -3.4945    0.0000 H   0  0  0  0  0  0  0  0  0  0  0  0
    4.7887   -2.8819    0.0000 H   0  0  0  0  0  0  0  0  0  0  0  0
    5.4336   -3.3504    0.0000 H   0  0  0  0  0  0  0  0  0  0  0  0
   13.1637    2.8800    0.0000 H   0  0  0  0  0  0  0  0  0  0  0  0
   11.7607    5.3100    0.0000 H   0  0  0  0  0  0  0  0  0  0  0  0
    5.5851   -1.6683    0.0000 H   0  0  0  0  0  0  0  0  0  0  0  0
    4.9403   -1.1998    0.0000 H   0  0  0  0  0  0  0  0  0  0  0  0
   14.5666    3.6900    0.0000 H   0  0  0  0  0  0  0  0  0  0  0  0
   13.1637    6.1200    0.0000 H   0  0  0  0  0  0  0  0  0  0  0  0
   11.1025   -3.6900    0.0000 H   0  0  0  0  0  0  0  0  0  0  0  0
    8.2966   -3.6900    0.0000 H   0  0  0  0  0  0  0  0  0  0  0  0
   14.5666    5.3100    0.0000 H   0  0  0  0  0  0  0  0  0  0  0  0
   11.1025   -5.3100    0.0000 H   0  0  0  0  0  0  0  0  0  0  0  0
    8.2966   -5.3100    0.0000 H   0  0  0  0  0  0  0  0  0  0  0  0
    3.9467   -0.2987    0.0000 H   0  0  0  0  0  0  0  0  0  0  0  0
    3.6534   -3.0892    0.0000 H   0  0  0  0  0  0  0  0  0  0  0  0
    9.6996   -6.1200    0.0000 H   0  0  0  0  0  0  0  0  0  0  0  0
    2.3356   -0.1293    0.0000 H   0  0  0  0  0  0  0  0  0  0  0  0
    2.0423   -2.9199    0.0000 H   0  0  0  0  0  0  0  0  0  0  0  0
    1.3834   -1.4399    0.0000 H   0  0  0  0  0  0  0  0  0  0  0  0
  1 19  2  0  0  0  0
  2 20  2  0  0  0  0
  3  9  1  0  0  0  0
  3 10  1  0  0  0  0
  3 12  1  0  0  0  0
  4 15  1  0  0  0  0
  4 20  1  0  0  0  0
  4 21  1  0  0  0  0
  5 16  1  0  0  0  0
  5 19  1  0  0  0  0
  5 22  1  0  0  0  0
  6  7  1  0  0  0  0
  6  8  1  0  0  0  0
  6 11  1  0  0  0  0
  6 40  1  0  0  0  0
  7  9  1  0  0  0  0
  7 41  1  0  0  0  0
  7 42  1  0  0  0  0
  8 10  1  0  0  0  0
  8 43  1  0  0  0  0
  8 44  1  0  0  0  0
  9 45  1  0  0  0  0
  9 46  1  0  0  0  0
 10 47  1  0  0  0  0
 10 48  1  0  0  0  0
 11 18  1  0  0  0  0
 11 49  1  0  0  0  0
 11 50  1  0  0  0  0
 12 13  1  0  0  0  0
 12 51  1  0  0  0  0
 12 52  1  0  0  0  0
 13 16  1  0  0  0  0
 13 53  1  0  0  0  0
 13 54  1  0  0  0  0
 14 15  1  0  0  0  0
 14 17  1  0  0  0  0
 14 19  1  0  0  0  0
 14 55  1  0  0  0  0
 15 56  1  0  0  0  0
 15 57  1  0  0  0  0
 16 58  1  0  0  0  0
 16 59  1  0  0  0  0
 17 20  1  0  0  0  0
 17 60  1  0  0  0  0
 17 61  1  0  0  0  0
 18 23  2  0  0  0  0
 18 24  1  0  0  0  0
 21 25  1  0  0  0  0
 21 62  1  0  0  0  0
 21 63  1  0  0  0  0
 22 29  2  0  0  0  0
 22 30  1  0  0  0  0
 23 26  1  0  0  0  0
 23 64  1  0  0  0  0
 24 27  2  0  0  0  0
 24 65  1  0  0  0  0
 25 28  1  0  0  0  0
 25 66  1  0  0  0  0
 25 67  1  0  0  0  0
 26 31  2  0  0  0  0
 26 68  1  0  0  0  0
 27 31  1  0  0  0  0
 27 69  1  0  0  0  0
 28 34  2  0  0  0  0
 28 35  1  0  0  0  0
 29 32  1  0  0  0  0
 29 70  1  0  0  0  0
 30 33  2  0  0  0  0
 30 71  1  0  0  0  0
 31 72  1  0  0  0  0
 32 36  2  0  0  0  0
 32 73  1  0  0  0  0
 33 36  1  0  0  0  0
 33 74  1  0  0  0  0
 34 37  1  0  0  0  0
 34 75  1  0  0  0  0
 35 38  2  0  0  0  0
 35 76  1  0  0  0  0
 36 77  1  0  0  0  0
 37 39  2  0  0  0  0
 37 78  1  0  0  0  0
 38 39  1  0  0  0  0
 38 79  1  0  0  0  0
 39 80  1  0  0  0  0
M  END
> <PUBCHEM_COMPOUND_CID>
515006
> <PUBCHEM_COMPOUND_CANONICALIZED>
1
> <PUBCHEM_CACTVS_COMPLEXITY>
746
> <PUBCHEM_CACTVS_HBOND_ACCEPTOR>
3
> <PUBCHEM_CACTVS_HBOND_DONOR>
0
> <PUBCHEM_CACTVS_ROTATABLE_BOND>
11
> <PUBCHEM_CACTVS_SUBSKEYS>
AAADcfB/MAAAAAAAAAAAAAAAAAAAAWAAAAA8YMEAAAAAAAABUAAAHgAAAAAADQjBmAQwwIMAAACIAiVSUACCAAAhAgAIiAEIZIgIIDrA0ZGEIAhghgDIyAcVgMAOAAAAAAAAAAAAAAAAAAAAAAAAAAAAAA==
> <PUBCHEM_IUPAC_OPENEYE_NAME>
N-[3-(4-benzyl-1-piperidyl)propyl]-5-oxo-N-phenyl-1-(2-phenylethyl)pyrrolidine-3-carboxamide
> <PUBCHEM_IUPAC_CAS_NAME>
5-oxo-N-phenyl-1-(2-phenylethyl)-N-[3-[4-(phenylmethyl)-1-piperidinyl]propyl]-3-pyrrolidinecarboxamide
> <PUBCHEM_IUPAC_NAME_MARKUP>
<I>N</I>-[3-(4-benzylpiperidin-1-yl)propyl]-5-oxo-<I>N</I>-phenyl-1-(2-phenylethyl)pyrrolidine-3-carboxamide
> <PUBCHEM_IUPAC_NAME>
N-[3-(4-benzylpiperidin-1-yl)propyl]-5-oxo-N-phenyl-1-(2-phenylethyl)pyrrolidine-3-carboxamide
> <PUBCHEM_IUPAC_SYSTEMATIC_NAME>
5-oxidanylidene-N-phenyl-1-(2-phenylethyl)-N-[3-[4-(phenylmethyl)piperidin-1-yl]propyl]pyrrolidine-3-carboxamide
> <PUBCHEM_IUPAC_TRADITIONAL_NAME>
N-[3-(4-benzylpiperidino)propyl]-5-keto-1-phenethyl-N-phenyl-pyrrolidine-3-carboxamide
> <PUBCHEM_IUPAC_INCHI>
InChI=1S/C34H41N3O2/c38-33-26-31(27-36(33)24-19-28-11-4-1-5-12-28)34(39)37(32-15-8-3-9-16-32)21-10-20-35-22-17-30(18-23-35)25-29-13-6-2-7-14-29/h1-9,11-16,30-31H,10,17-27H2
> <PUBCHEM_IUPAC_INCHIKEY>
FQXFXPQRZSCWLD-UHFFFAOYSA-N
> <PUBCHEM_XLOGP3_AA>
5.5
> <PUBCHEM_EXACT_MASS>
523.31987756
> <PUBCHEM_MOLECULAR_FORMULA>
C34H41N3O2
> <PUBCHEM_MOLECULAR_WEIGHT>
523.7
> <PUBCHEM_OPENEYE_CAN_SMILES>
C1CN(CCC1CC2=CC=CC=C2)CCCN(C3=CC=CC=C3)C(=O)C4CC(=O)N(C4)CCC5=CC=CC=C5
> <PUBCHEM_OPENEYE_ISO_SMILES>
C1CN(CCC1CC2=CC=CC=C2)CCCN(C3=CC=CC=C3)C(=O)C4CC(=O)N(C4)CCC5=CC=CC=C5
> <PUBCHEM_CACTVS_TPSA>
43.9
> <PUBCHEM_MONOISOTOPIC_WEIGHT>
523.31987756
> <PUBCHEM_TOTAL_CHARGE>
0
> <PUBCHEM_HEAVY_ATOM_COUNT>
39
> <PUBCHEM_ATOM_DEF_STEREO_COUNT>
0
> <PUBCHEM_ATOM_UDEF_STEREO_COUNT>
1
> <PUBCHEM_BOND_DEF_STEREO_COUNT>
0
> <PUBCHEM_BOND_UDEF_STEREO_COUNT>
0
> <PUBCHEM_ISOTOPIC_ATOM_COUNT>
0
> <PUBCHEM_COMPONENT_COUNT>
1
> <PUBCHEM_CACTVS_TAUTO_COUNT>
-1
> <PUBCHEM_COORDINATE_TYPE>
1
5
255
> <PUBCHEM_BONDANNOTATIONS>
14  19  3
18  23  8
18  24  8
22  29  8
22  30  8
23  26  8
24  27  8
26  31  8
27  31  8
28  34  8
28  35  8
29  32  8
30  33  8
32  36  8
33  36  8
34  37  8
35  38  8
37  39  8
38  39  8
$$$$
