515012
  -OEChem-10302200282D
 77 81  0     1  0  0  0  0  0999 V2000
    8.9282   -3.7762    0.0000 Cl  0  0  0  0  0  0  0  0  0  0  0  0
   12.3923   -0.7762    0.0000 O   0  0  0  0  0  0  0  0  0  0  0  0
   10.4385    3.0717    0.0000 O   0  0  0  0  0  0  0  0  0  0  0  0
    7.1962   -0.7762    0.0000 N   0  0  0  0  0  0  0  0  0  0  0  0
   10.6603   -0.7762    0.0000 N   0  0  0  0  0  0  0  0  0  0  0  0
   12.0263    2.2627    0.0000 N   0  0  0  0  0  0  0  0  0  0  0  0
    5.4641   -1.7762    0.0000 C   0  0  0  0  0  0  0  0  0  0  0  0
    5.4641   -0.7762    0.0000 C   0  0  0  0  0  0  0  0  0  0  0  0
    6.3301   -2.2762    0.0000 C   0  0  0  0  0  0  0  0  0  0  0  0
    6.3301   -0.2762    0.0000 C   0  0  0  0  0  0  0  0  0  0  0  0
    7.1962   -1.7762    0.0000 C   0  0  0  0  0  0  0  0  0  0  0  0
    4.5981   -2.2762    0.0000 C   0  0  0  0  0  0  0  0  0  0  0  0
    8.0622   -0.2762    0.0000 C   0  0  0  0  0  0  0  0  0  0  0  0
    8.9282   -0.7762    0.0000 C   0  0  0  0  0  0  0  0  0  0  0  0
   11.5263    0.7238    0.0000 C   0  0  3  0  0  0  0  0  0  0  0  0
    9.7942   -0.2762    0.0000 C   0  0  0  0  0  0  0  0  0  0  0  0
   12.3353    1.3116    0.0000 C   0  0  0  0  0  0  0  0  0  0  0  0
    3.7320   -1.7762    0.0000 C   0  0  0  0  0  0  0  0  0  0  0  0
   10.7173    1.3116    0.0000 C   0  0  0  0  0  0  0  0  0  0  0  0
   11.5263   -0.2762    0.0000 C   0  0  0  0  0  0  0  0  0  0  0  0
   11.0263    2.2627    0.0000 C   0  0  0  0  0  0  0  0  0  0  0  0
   12.6141    3.0717    0.0000 C   0  0  0  0  0  0  0  0  0  0  0  0
   10.6603   -1.7762    0.0000 C   0  0  0  0  0  0  0  0  0  0  0  0
    3.7320   -0.7762    0.0000 C   0  0  0  0  0  0  0  0  0  0  0  0
    2.8660   -2.2762    0.0000 C   0  0  0  0  0  0  0  0  0  0  0  0
   13.6086    2.9672    0.0000 C   0  0  0  0  0  0  0  0  0  0  0  0
    2.8660   -0.2762    0.0000 C   0  0  0  0  0  0  0  0  0  0  0  0
    2.0000   -1.7762    0.0000 C   0  0  0  0  0  0  0  0  0  0  0  0
    9.7942   -2.2762    0.0000 C   0  0  0  0  0  0  0  0  0  0  0  0
   11.5263   -2.2762    0.0000 C   0  0  0  0  0  0  0  0  0  0  0  0
    2.0000   -0.7762    0.0000 C   0  0  0  0  0  0  0  0  0  0  0  0
   14.1964    3.7762    0.0000 C   0  0  0  0  0  0  0  0  0  0  0  0
   14.0153    2.0536    0.0000 C   0  0  0  0  0  0  0  0  0  0  0  0
    9.7942   -3.2762    0.0000 C   0  0  0  0  0  0  0  0  0  0  0  0
   11.5263   -3.2762    0.0000 C   0  0  0  0  0  0  0  0  0  0  0  0
   10.6603   -3.7762    0.0000 C   0  0  0  0  0  0  0  0  0  0  0  0
   15.1909    3.6716    0.0000 C   0  0  0  0  0  0  0  0  0  0  0  0
   15.0098    1.9491    0.0000 C   0  0  0  0  0  0  0  0  0  0  0  0
   15.5976    2.7581    0.0000 C   0  0  0  0  0  0  0  0  0  0  0  0
    5.4641   -2.3962    0.0000 H   0  0  0  0  0  0  0  0  0  0  0  0
    5.2520   -0.1936    0.0000 H   0  0  0  0  0  0  0  0  0  0  0  0
    4.8535   -0.8838    0.0000 H   0  0  0  0  0  0  0  0  0  0  0  0
    5.9316   -2.7511    0.0000 H   0  0  0  0  0  0  0  0  0  0  0  0
    6.7287   -2.7511    0.0000 H   0  0  0  0  0  0  0  0  0  0  0  0
    6.7287    0.1988    0.0000 H   0  0  0  0  0  0  0  0  0  0  0  0
    5.9316    0.1988    0.0000 H   0  0  0  0  0  0  0  0  0  0  0  0
    7.4082   -2.3588    0.0000 H   0  0  0  0  0  0  0  0  0  0  0  0
    7.8067   -1.6685    0.0000 H   0  0  0  0  0  0  0  0  0  0  0  0
    4.1996   -2.7511    0.0000 H   0  0  0  0  0  0  0  0  0  0  0  0
    4.9966   -2.7511    0.0000 H   0  0  0  0  0  0  0  0  0  0  0  0
    8.4607    0.1988    0.0000 H   0  0  0  0  0  0  0  0  0  0  0  0
    7.6636    0.1988    0.0000 H   0  0  0  0  0  0  0  0  0  0  0  0
    8.5297   -1.2511    0.0000 H   0  0  0  0  0  0  0  0  0  0  0  0
    9.3267   -1.2511    0.0000 H   0  0  0  0  0  0  0  0  0  0  0  0
   10.9739    0.4424    0.0000 H   0  0  0  0  0  0  0  0  0  0  0  0
   10.1928    0.1988    0.0000 H   0  0  0  0  0  0  0  0  0  0  0  0
    9.3957    0.1988    0.0000 H   0  0  0  0  0  0  0  0  0  0  0  0
   12.6453    0.7747    0.0000 H   0  0  0  0  0  0  0  0  0  0  0  0
   12.9017    1.5638    0.0000 H   0  0  0  0  0  0  0  0  0  0  0  0
   10.1509    1.5638    0.0000 H   0  0  0  0  0  0  0  0  0  0  0  0
   10.4073    0.7747    0.0000 H   0  0  0  0  0  0  0  0  0  0  0  0
   12.7850    3.6677    0.0000 H   0  0  0  0  0  0  0  0  0  0  0  0
   12.0568    3.3435    0.0000 H   0  0  0  0  0  0  0  0  0  0  0  0
    4.2690   -0.4662    0.0000 H   0  0  0  0  0  0  0  0  0  0  0  0
    2.8660   -2.8962    0.0000 H   0  0  0  0  0  0  0  0  0  0  0  0
    2.8660    0.3438    0.0000 H   0  0  0  0  0  0  0  0  0  0  0  0
    1.4631   -2.0862    0.0000 H   0  0  0  0  0  0  0  0  0  0  0  0
    9.2573   -1.9662    0.0000 H   0  0  0  0  0  0  0  0  0  0  0  0
   12.0632   -1.9662    0.0000 H   0  0  0  0  0  0  0  0  0  0  0  0
    1.4631   -0.4662    0.0000 H   0  0  0  0  0  0  0  0  0  0  0  0
   13.9442    4.3426    0.0000 H   0  0  0  0  0  0  0  0  0  0  0  0
   13.6509    1.5520    0.0000 H   0  0  0  0  0  0  0  0  0  0  0  0
   12.0632   -3.5862    0.0000 H   0  0  0  0  0  0  0  0  0  0  0  0
   10.6603   -4.3962    0.0000 H   0  0  0  0  0  0  0  0  0  0  0  0
   15.5553    4.1732    0.0000 H   0  0  0  0  0  0  0  0  0  0  0  0
   15.2620    1.3827    0.0000 H   0  0  0  0  0  0  0  0  0  0  0  0
   16.2142    2.6933    0.0000 H   0  0  0  0  0  0  0  0  0  0  0  0
  1 34  1  0  0  0  0
  2 20  2  0  0  0  0
  3 21  2  0  0  0  0
  4 10  1  0  0  0  0
  4 11  1  0  0  0  0
  4 13  1  0  0  0  0
  5 16  1  0  0  0  0
  5 20  1  0  0  0  0
  5 23  1  0  0  0  0
  6 17  1  0  0  0  0
  6 21  1  0  0  0  0
  6 22  1  0  0  0  0
  7  8  1  0  0  0  0
  7  9  1  0  0  0  0
  7 12  1  0  0  0  0
  7 40  1  0  0  0  0
  8 10  1  0  0  0  0
  8 41  1  0  0  0  0
  8 42  1  0  0  0  0
  9 11  1  0  0  0  0
  9 43  1  0  0  0  0
  9 44  1  0  0  0  0
 10 45  1  0  0  0  0
 10 46  1  0  0  0  0
 11 47  1  0  0  0  0
 11 48  1  0  0  0  0
 12 18  1  0  0  0  0
 12 49  1  0  0  0  0
 12 50  1  0  0  0  0
 13 14  1  0  0  0  0
 13 51  1  0  0  0  0
 13 52  1  0  0  0  0
 14 16  1  0  0  0  0
 14 53  1  0  0  0  0
 14 54  1  0  0  0  0
 15 17  1  0  0  0  0
 15 19  1  0  0  0  0
 15 20  1  0  0  0  0
 15 55  1  0  0  0  0
 16 56  1  0  0  0  0
 16 57  1  0  0  0  0
 17 58  1  0  0  0  0
 17 59  1  0  0  0  0
 18 24  2  0  0  0  0
 18 25  1  0  0  0  0
 19 21  1  0  0  0  0
 19 60  1  0  0  0  0
 19 61  1  0  0  0  0
 22 26  1  0  0  0  0
 22 62  1  0  0  0  0
 22 63  1  0  0  0  0
 23 29  2  0  0  0  0
 23 30  1  0  0  0  0
 24 27  1  0  0  0  0
 24 64  1  0  0  0  0
 25 28  2  0  0  0  0
 25 65  1  0  0  0  0
 26 32  2  0  0  0  0
 26 33  1  0  0  0  0
 27 31  2  0  0  0  0
 27 66  1  0  0  0  0
 28 31  1  0  0  0  0
 28 67  1  0  0  0  0
 29 34  1  0  0  0  0
 29 68  1  0  0  0  0
 30 35  2  0  0  0  0
 30 69  1  0  0  0  0
 31 70  1  0  0  0  0
 32 37  1  0  0  0  0
 32 71  1  0  0  0  0
 33 38  2  0  0  0  0
 33 72  1  0  0  0  0
 34 36  2  0  0  0  0
 35 36  1  0  0  0  0
 35 73  1  0  0  0  0
 36 74  1  0  0  0  0
 37 39  2  0  0  0  0
 37 75  1  0  0  0  0
 38 39  1  0  0  0  0
 38 76  1  0  0  0  0
 39 77  1  0  0  0  0
M  END
> <PUBCHEM_COMPOUND_CID>
515012
> <PUBCHEM_COMPOUND_CANONICALIZED>
1
> <PUBCHEM_CACTVS_COMPLEXITY>
773
> <PUBCHEM_CACTVS_HBOND_ACCEPTOR>
3
> <PUBCHEM_CACTVS_HBOND_DONOR>
0
> <PUBCHEM_CACTVS_ROTATABLE_BOND>
10
> <PUBCHEM_CACTVS_SUBSKEYS>
AAADcfB/MAAEAAAAAAAAAAAAAAAAAWAAAAA8YMEAAAAAAAABUAAAHgIAAAAADQrBmCQwwIMAAACIAiVSUACCAAAhBwAIiAEIZogIIDrB05GEIAhghgDIyAcVgMAOAAAAAAIAAAAAAAAABAAAAAAAAAAAAA==
> <PUBCHEM_IUPAC_OPENEYE_NAME>
1-benzyl-N-[3-(4-benzyl-1-piperidyl)propyl]-N-(3-chlorophenyl)-5-oxo-pyrrolidine-3-carboxamide
> <PUBCHEM_IUPAC_CAS_NAME>
N-(3-chlorophenyl)-5-oxo-1-(phenylmethyl)-N-[3-[4-(phenylmethyl)-1-piperidinyl]propyl]-3-pyrrolidinecarboxamide
> <PUBCHEM_IUPAC_NAME_MARKUP>
1-benzyl-<I>N</I>-[3-(4-benzylpiperidin-1-yl)propyl]-<I>N</I>-(3-chlorophenyl)-5-oxopyrrolidine-3-carboxamide
> <PUBCHEM_IUPAC_NAME>
1-benzyl-N-[3-(4-benzylpiperidin-1-yl)propyl]-N-(3-chlorophenyl)-5-oxopyrrolidine-3-carboxamide
> <PUBCHEM_IUPAC_SYSTEMATIC_NAME>
N-(3-chlorophenyl)-5-oxidanylidene-1-(phenylmethyl)-N-[3-[4-(phenylmethyl)piperidin-1-yl]propyl]pyrrolidine-3-carboxamide
> <PUBCHEM_IUPAC_TRADITIONAL_NAME>
1-benzyl-N-[3-(4-benzylpiperidino)propyl]-N-(3-chlorophenyl)-5-keto-pyrrolidine-3-carboxamide
> <PUBCHEM_IUPAC_INCHI>
InChI=1S/C33H38ClN3O2/c34-30-13-7-14-31(23-30)37(33(39)29-22-32(38)36(25-29)24-28-11-5-2-6-12-28)18-8-17-35-19-15-27(16-20-35)21-26-9-3-1-4-10-26/h1-7,9-14,23,27,29H,8,15-22,24-25H2
> <PUBCHEM_IUPAC_INCHIKEY>
JYTIRJQVVVJMBJ-UHFFFAOYSA-N
> <PUBCHEM_XLOGP3_AA>
5.7
> <PUBCHEM_EXACT_MASS>
543.2652552
> <PUBCHEM_MOLECULAR_FORMULA>
C33H38ClN3O2
> <PUBCHEM_MOLECULAR_WEIGHT>
544.1
> <PUBCHEM_OPENEYE_CAN_SMILES>
C1CN(CCC1CC2=CC=CC=C2)CCCN(C3=CC(=CC=C3)Cl)C(=O)C4CC(=O)N(C4)CC5=CC=CC=C5
> <PUBCHEM_OPENEYE_ISO_SMILES>
C1CN(CCC1CC2=CC=CC=C2)CCCN(C3=CC(=CC=C3)Cl)C(=O)C4CC(=O)N(C4)CC5=CC=CC=C5
> <PUBCHEM_CACTVS_TPSA>
43.9
> <PUBCHEM_MONOISOTOPIC_WEIGHT>
543.2652552
> <PUBCHEM_TOTAL_CHARGE>
0
> <PUBCHEM_HEAVY_ATOM_COUNT>
39
> <PUBCHEM_ATOM_DEF_STEREO_COUNT>
0
> <PUBCHEM_ATOM_UDEF_STEREO_COUNT>
1
> <PUBCHEM_BOND_DEF_STEREO_COUNT>
0
> <PUBCHEM_BOND_UDEF_STEREO_COUNT>
0
> <PUBCHEM_ISOTOPIC_ATOM_COUNT>
0
> <PUBCHEM_COMPONENT_COUNT>
1
> <PUBCHEM_CACTVS_TAUTO_COUNT>
-1
> <PUBCHEM_COORDINATE_TYPE>
1
5
255
> <PUBCHEM_BONDANNOTATIONS>
15  20  3
18  24  8
18  25  8
23  29  8
23  30  8
24  27  8
25  28  8
26  32  8
26  33  8
27  31  8
28  31  8
29  34  8
30  35  8
32  37  8
33  38  8
34  36  8
35  36  8
37  39  8
38  39  8
$$$$
