515024
  -OEChem-10302200282D
 35 36  0     1  0  0  0  0  0999 V2000
    2.0000   -0.0428    0.0000 Cl  0  0  0  0  0  0  0  0  0  0  0  0
    5.5301   -2.0670    0.0000 S   0  0  0  0  0  0  0  0  0  0  0  0
    5.5301   -0.0670    0.0000 S   0  0  0  0  0  0  0  0  0  0  0  0
    6.0301   -2.9330    0.0000 O   0  0  0  0  0  0  0  0  0  0  0  0
    5.0301   -2.9330    0.0000 O   0  0  0  0  0  0  0  0  0  0  0  0
    8.1282    1.4330    0.0000 O   0  0  0  0  0  0  0  0  0  0  0  0
    6.3961    1.4330    0.0000 O   0  0  0  0  0  0  0  0  0  0  0  0
    6.3961   -1.5670    0.0000 N   0  0  0  0  0  0  0  0  0  0  0  0
    8.9942   -1.0670    0.0000 N   0  0  0  0  0  0  0  0  0  0  0  0
    6.3961   -0.5670    0.0000 C   0  0  3  0  0  0  0  0  0  0  0  0
    4.6641   -1.5670    0.0000 C   0  0  0  0  0  0  0  0  0  0  0  0
    7.2622   -0.0670    0.0000 C   0  0  3  0  0  0  0  0  0  0  0  0
    4.6641   -0.5670    0.0000 C   0  0  0  0  0  0  0  0  0  0  0  0
    3.7702   -2.1016    0.0000 C   0  0  0  0  0  0  0  0  0  0  0  0
    3.7702   -0.0323    0.0000 C   0  0  0  0  0  0  0  0  0  0  0  0
    2.8641   -1.5878    0.0000 C   0  0  0  0  0  0  0  0  0  0  0  0
    2.8641   -0.5462    0.0000 C   0  0  0  0  0  0  0  0  0  0  0  0
    7.2622    0.9330    0.0000 C   0  0  0  0  0  0  0  0  0  0  0  0
    8.1282   -0.5670    0.0000 C   0  0  0  0  0  0  0  0  0  0  0  0
    2.0000   -2.0911    0.0000 C   0  0  0  0  0  0  0  0  0  0  0  0
    8.1282    2.4330    0.0000 C   0  0  0  0  0  0  0  0  0  0  0  0
    8.9942    2.9330    0.0000 C   0  0  0  0  0  0  0  0  0  0  0  0
    6.9331   -0.8770    0.0000 H   0  0  0  0  0  0  0  0  0  0  0  0
    6.9331   -1.8770    0.0000 H   0  0  0  0  0  0  0  0  0  0  0  0
    7.2622   -0.6870    0.0000 H   0  0  0  0  0  0  0  0  0  0  0  0
    3.7773   -2.7216    0.0000 H   0  0  0  0  0  0  0  0  0  0  0  0
    3.7773    0.5876    0.0000 H   0  0  0  0  0  0  0  0  0  0  0  0
    1.6879   -1.5554    0.0000 H   0  0  0  0  0  0  0  0  0  0  0  0
    1.4643   -2.4032    0.0000 H   0  0  0  0  0  0  0  0  0  0  0  0
    2.3121   -2.6269    0.0000 H   0  0  0  0  0  0  0  0  0  0  0  0
    7.9162    3.0156    0.0000 H   0  0  0  0  0  0  0  0  0  0  0  0
    7.5176    2.3253    0.0000 H   0  0  0  0  0  0  0  0  0  0  0  0
    9.3042    2.3961    0.0000 H   0  0  0  0  0  0  0  0  0  0  0  0
    9.5312    3.2430    0.0000 H   0  0  0  0  0  0  0  0  0  0  0  0
    8.6842    3.4700    0.0000 H   0  0  0  0  0  0  0  0  0  0  0  0
  1 17  1  0  0  0  0
  2  4  2  0  0  0  0
  2  5  2  0  0  0  0
  2  8  1  0  0  0  0
  2 11  1  0  0  0  0
  3 10  1  0  0  0  0
  3 13  1  0  0  0  0
  6 18  1  0  0  0  0
  6 21  1  0  0  0  0
  7 18  2  0  0  0  0
  8 10  1  0  0  0  0
  8 24  1  0  0  0  0
  9 19  3  0  0  0  0
 10 12  1  0  0  0  0
 10 23  1  0  0  0  0
 11 13  2  0  0  0  0
 11 14  1  0  0  0  0
 12 18  1  0  0  0  0
 12 19  1  0  0  0  0
 12 25  1  0  0  0  0
 13 15  1  0  0  0  0
 14 16  2  0  0  0  0
 14 26  1  0  0  0  0
 15 17  2  0  0  0  0
 15 27  1  0  0  0  0
 16 17  1  0  0  0  0
 16 20  1  0  0  0  0
 20 28  1  0  0  0  0
 20 29  1  0  0  0  0
 20 30  1  0  0  0  0
 21 22  1  0  0  0  0
 21 31  1  0  0  0  0
 21 32  1  0  0  0  0
 22 33  1  0  0  0  0
 22 34  1  0  0  0  0
 22 35  1  0  0  0  0
M  END
> <PUBCHEM_COMPOUND_CID>
515024
> <PUBCHEM_COMPOUND_CANONICALIZED>
1
> <PUBCHEM_CACTVS_COMPLEXITY>
583
> <PUBCHEM_CACTVS_HBOND_ACCEPTOR>
7
> <PUBCHEM_CACTVS_HBOND_DONOR>
1
> <PUBCHEM_CACTVS_ROTATABLE_BOND>
4
> <PUBCHEM_CACTVS_SUBSKEYS>
AAADccBzOABkAAAAAAAAAAAAAAAAAAAAAAA8QAAAAAAAAACxAAAAHgYQQAAADQLl2CayCYBABAqYBiDSCHBCABBgDRAAiJkAAogIoCqhExCCIAAikAAoiAcAgAAOEAIAgBABAgAgBAEAIAIEAAAAAAAAAA==
> <PUBCHEM_IUPAC_OPENEYE_NAME>
ethyl 2-(6-chloro-7-methyl-1,1-dioxo-2,3-dihydro-1lambda6,4,2-benzodithiazin-3-yl)-2-cyano-acetate
> <PUBCHEM_IUPAC_CAS_NAME>
2-(6-chloro-7-methyl-1,1-dioxo-2,3-dihydro-1lambda6,4,2-benzodithiazin-3-yl)-2-cyanoacetic acid ethyl ester
> <PUBCHEM_IUPAC_NAME_MARKUP>
ethyl 2-(6-chloro-7-methyl-1,1-dioxo-2,3-dihydro-1&lambda;<SUP>6</SUP>,4,2-benzodithiazin-3-yl)-2-cyanoacetate
> <PUBCHEM_IUPAC_NAME>
ethyl 2-(6-chloro-7-methyl-1,1-dioxo-2,3-dihydro-1lambda6,4,2-benzodithiazin-3-yl)-2-cyanoacetate
> <PUBCHEM_IUPAC_SYSTEMATIC_NAME>
ethyl 2-[6-chloranyl-7-methyl-1,1-bis(oxidanylidene)-2,3-dihydro-1lambda6,4,2-benzodithiazin-3-yl]-2-cyano-ethanoate
> <PUBCHEM_IUPAC_TRADITIONAL_NAME>
2-(6-chloro-1,1-diketo-7-methyl-2,3-dihydro-1lambda6,4,2-benzodithiazin-3-yl)-2-cyano-acetic acid ethyl ester
> <PUBCHEM_IUPAC_INCHI>
InChI=1S/C13H13ClN2O4S2/c1-3-20-13(17)8(6-15)12-16-22(18,19)11-4-7(2)9(14)5-10(11)21-12/h4-5,8,12,16H,3H2,1-2H3
> <PUBCHEM_IUPAC_INCHIKEY>
MMZNADDZFWQHHX-UHFFFAOYSA-N
> <PUBCHEM_XLOGP3_AA>
2.5
> <PUBCHEM_EXACT_MASS>
360.0005269
> <PUBCHEM_MOLECULAR_FORMULA>
C13H13ClN2O4S2
> <PUBCHEM_MOLECULAR_WEIGHT>
360.8
> <PUBCHEM_OPENEYE_CAN_SMILES>
CCOC(=O)C(C#N)C1NS(=O)(=O)C2=C(S1)C=C(C(=C2)C)Cl
> <PUBCHEM_OPENEYE_ISO_SMILES>
CCOC(=O)C(C#N)C1NS(=O)(=O)C2=C(S1)C=C(C(=C2)C)Cl
> <PUBCHEM_CACTVS_TPSA>
130
> <PUBCHEM_MONOISOTOPIC_WEIGHT>
360.0005269
> <PUBCHEM_TOTAL_CHARGE>
0
> <PUBCHEM_HEAVY_ATOM_COUNT>
22
> <PUBCHEM_ATOM_DEF_STEREO_COUNT>
0
> <PUBCHEM_ATOM_UDEF_STEREO_COUNT>
2
> <PUBCHEM_BOND_DEF_STEREO_COUNT>
0
> <PUBCHEM_BOND_UDEF_STEREO_COUNT>
0
> <PUBCHEM_ISOTOPIC_ATOM_COUNT>
0
> <PUBCHEM_COMPONENT_COUNT>
1
> <PUBCHEM_CACTVS_TAUTO_COUNT>
-1
> <PUBCHEM_COORDINATE_TYPE>
1
5
255
> <PUBCHEM_BONDANNOTATIONS>
11  13  8
11  14  8
12  19  3
13  15  8
14  16  8
15  17  8
16  17  8
10  8  3
$$$$
