515188
  -OEChem-10302200282D
 36 38  0     1  0  0  0  0  0999 V2000
    6.9338    0.5053    0.0000 S   0  0  0  0  0  0  0  0  0  0  0  0
    6.9338   -1.4947    0.0000 O   0  0  0  0  0  0  0  0  0  0  0  0
   11.3319    0.0328    0.0000 O   0  0  0  0  0  0  0  0  0  0  0  0
    2.5357    0.0328    0.0000 O   0  0  0  0  0  0  0  0  0  0  0  0
    7.7998    0.0053    0.0000 C   0  0  0  0  0  0  0  0  0  0  0  0
    6.0678    0.0053    0.0000 C   0  0  0  0  0  0  0  0  0  0  0  0
    9.5998    0.0261    0.0000 C   0  0  0  0  0  0  0  0  0  0  0  0
    4.2678    0.0261    0.0000 C   0  0  0  0  0  0  0  0  0  0  0  0
    7.7998   -0.9947    0.0000 C   0  0  0  0  0  0  0  0  0  0  0  0
    6.0678   -0.9947    0.0000 C   0  0  0  0  0  0  0  0  0  0  0  0
   10.4639    0.5294    0.0000 C   0  0  3  0  0  0  0  0  0  0  0  0
    3.4037    0.5294    0.0000 C   0  0  3  0  0  0  0  0  0  0  0  0
    8.6938    0.5399    0.0000 C   0  0  0  0  0  0  0  0  0  0  0  0
    5.1738    0.5399    0.0000 C   0  0  0  0  0  0  0  0  0  0  0  0
    9.5998   -1.0156    0.0000 C   0  0  0  0  0  0  0  0  0  0  0  0
    4.2678   -1.0156    0.0000 C   0  0  0  0  0  0  0  0  0  0  0  0
    8.6938   -1.5294    0.0000 C   0  0  0  0  0  0  0  0  0  0  0  0
    5.1738   -1.5294    0.0000 C   0  0  0  0  0  0  0  0  0  0  0  0
   10.4601    1.5294    0.0000 C   0  0  0  0  0  0  0  0  0  0  0  0
    3.4075    1.5294    0.0000 C   0  0  0  0  0  0  0  0  0  0  0  0
   10.4663   -0.0906    0.0000 H   0  0  0  0  0  0  0  0  0  0  0  0
    3.4013   -0.0906    0.0000 H   0  0  0  0  0  0  0  0  0  0  0  0
    8.6866    1.1599    0.0000 H   0  0  0  0  0  0  0  0  0  0  0  0
    5.1810    1.1599    0.0000 H   0  0  0  0  0  0  0  0  0  0  0  0
   10.1356   -1.3276    0.0000 H   0  0  0  0  0  0  0  0  0  0  0  0
    3.7320   -1.3276    0.0000 H   0  0  0  0  0  0  0  0  0  0  0  0
    8.6866   -2.1494    0.0000 H   0  0  0  0  0  0  0  0  0  0  0  0
    5.1810   -2.1494    0.0000 H   0  0  0  0  0  0  0  0  0  0  0  0
   11.0801    1.5318    0.0000 H   0  0  0  0  0  0  0  0  0  0  0  0
   10.4577    2.1494    0.0000 H   0  0  0  0  0  0  0  0  0  0  0  0
    9.8401    1.5270    0.0000 H   0  0  0  0  0  0  0  0  0  0  0  0
    4.0275    1.5270    0.0000 H   0  0  0  0  0  0  0  0  0  0  0  0
    3.4099    2.1494    0.0000 H   0  0  0  0  0  0  0  0  0  0  0  0
    2.7875    1.5318    0.0000 H   0  0  0  0  0  0  0  0  0  0  0  0
   11.8676    0.3448    0.0000 H   0  0  0  0  0  0  0  0  0  0  0  0
    2.0000    0.3448    0.0000 H   0  0  0  0  0  0  0  0  0  0  0  0
  1  5  1  0  0  0  0
  1  6  1  0  0  0  0
  2  9  1  0  0  0  0
  2 10  1  0  0  0  0
  3 11  1  0  0  0  0
  3 35  1  0  0  0  0
  4 12  1  0  0  0  0
  4 36  1  0  0  0  0
  5  9  2  0  0  0  0
  5 13  1  0  0  0  0
  6 10  2  0  0  0  0
  6 14  1  0  0  0  0
  7 11  1  0  0  0  0
  7 13  2  0  0  0  0
  7 15  1  0  0  0  0
  8 12  1  0  0  0  0
  8 14  2  0  0  0  0
  8 16  1  0  0  0  0
  9 17  1  0  0  0  0
 10 18  1  0  0  0  0
 11 19  1  0  0  0  0
 11 21  1  0  0  0  0
 12 20  1  0  0  0  0
 12 22  1  0  0  0  0
 13 23  1  0  0  0  0
 14 24  1  0  0  0  0
 15 17  2  0  0  0  0
 15 25  1  0  0  0  0
 16 18  2  0  0  0  0
 16 26  1  0  0  0  0
 17 27  1  0  0  0  0
 18 28  1  0  0  0  0
 19 29  1  0  0  0  0
 19 30  1  0  0  0  0
 19 31  1  0  0  0  0
 20 32  1  0  0  0  0
 20 33  1  0  0  0  0
 20 34  1  0  0  0  0
M  END
> <PUBCHEM_COMPOUND_CID>
515188
> <PUBCHEM_COMPOUND_CANONICALIZED>
1
> <PUBCHEM_CACTVS_COMPLEXITY>
308
> <PUBCHEM_CACTVS_HBOND_ACCEPTOR>
4
> <PUBCHEM_CACTVS_HBOND_DONOR>
2
> <PUBCHEM_CACTVS_ROTATABLE_BOND>
2
> <PUBCHEM_CACTVS_SUBSKEYS>
AAADceB4MABAAAAAAAAAAAAAAAAAAAAAAAA0YIAAAAAAAACRQAAAGgQACAAADBSg2AIyB4AABgiAAiBCAAACCAAgKBAIiBoGCIgMNiKkMRqCeCCkwBEouAeA4KwOIAAAgAAAIABAAAEAAABAAAAAAAAAAA==
> <PUBCHEM_IUPAC_OPENEYE_NAME>
1-[8-(1-hydroxyethyl)phenoxathiin-2-yl]ethanol
> <PUBCHEM_IUPAC_CAS_NAME>
1-[8-(1-hydroxyethyl)-2-phenoxathiinyl]ethanol
> <PUBCHEM_IUPAC_NAME_MARKUP>
1-[8-(1-hydroxyethyl)phenoxathiin-2-yl]ethanol
> <PUBCHEM_IUPAC_NAME>
1-[8-(1-hydroxyethyl)phenoxathiin-2-yl]ethanol
> <PUBCHEM_IUPAC_SYSTEMATIC_NAME>
1-[8-(1-hydroxyethyl)phenoxathiin-2-yl]ethanol
> <PUBCHEM_IUPAC_TRADITIONAL_NAME>
1-[8-(1-hydroxyethyl)phenoxathiin-2-yl]ethanol
> <PUBCHEM_IUPAC_INCHI>
InChI=1S/C16H16O3S/c1-9(17)11-3-5-13-15(7-11)20-16-8-12(10(2)18)4-6-14(16)19-13/h3-10,17-18H,1-2H3
> <PUBCHEM_IUPAC_INCHIKEY>
FVOJZBOJFOADOF-UHFFFAOYSA-N
> <PUBCHEM_XLOGP3_AA>
2.6
> <PUBCHEM_EXACT_MASS>
288.08201554
> <PUBCHEM_MOLECULAR_FORMULA>
C16H16O3S
> <PUBCHEM_MOLECULAR_WEIGHT>
288.4
> <PUBCHEM_OPENEYE_CAN_SMILES>
CC(C1=CC2=C(C=C1)OC3=C(S2)C=C(C=C3)C(C)O)O
> <PUBCHEM_OPENEYE_ISO_SMILES>
CC(C1=CC2=C(C=C1)OC3=C(S2)C=C(C=C3)C(C)O)O
> <PUBCHEM_CACTVS_TPSA>
75
> <PUBCHEM_MONOISOTOPIC_WEIGHT>
288.08201554
> <PUBCHEM_TOTAL_CHARGE>
0
> <PUBCHEM_HEAVY_ATOM_COUNT>
20
> <PUBCHEM_ATOM_DEF_STEREO_COUNT>
0
> <PUBCHEM_ATOM_UDEF_STEREO_COUNT>
2
> <PUBCHEM_BOND_DEF_STEREO_COUNT>
0
> <PUBCHEM_BOND_UDEF_STEREO_COUNT>
0
> <PUBCHEM_ISOTOPIC_ATOM_COUNT>
0
> <PUBCHEM_COMPONENT_COUNT>
1
> <PUBCHEM_CACTVS_TAUTO_COUNT>
-1
> <PUBCHEM_COORDINATE_TYPE>
1
5
255
> <PUBCHEM_BONDANNOTATIONS>
10  18  8
15  17  8
16  18  8
11  3  3
12  4  3
5  13  8
5  9  8
6  10  8
6  14  8
7  13  8
7  15  8
8  14  8
8  16  8
9  17  8
$$$$
