515180
  -OEChem-10302200282D
 32 34  0     1  0  0  0  0  0999 V2000
    4.6660    0.2536    0.0000 S   0  0  0  0  0  0  0  0  0  0  0  0
    4.6660   -1.7464    0.0000 O   0  0  0  0  0  0  0  0  0  0  0  0
    9.0641   -0.2189    0.0000 O   0  0  0  0  0  0  0  0  0  0  0  0
    8.1962    0.2777    0.0000 C   0  0  3  0  0  0  0  0  0  0  0  0
    7.3321   -0.2256    0.0000 C   0  0  0  0  0  0  0  0  0  0  0  0
    8.1923    1.2777    0.0000 C   0  0  0  0  0  0  0  0  0  0  0  0
    5.5321   -0.2464    0.0000 C   0  0  0  0  0  0  0  0  0  0  0  0
    6.4260    0.2883    0.0000 C   0  0  0  0  0  0  0  0  0  0  0  0
    5.5321   -1.2464    0.0000 C   0  0  0  0  0  0  0  0  0  0  0  0
    7.3321   -1.2672    0.0000 C   0  0  0  0  0  0  0  0  0  0  0  0
    6.4260   -1.7811    0.0000 C   0  0  0  0  0  0  0  0  0  0  0  0
    3.8000   -0.2464    0.0000 C   0  0  0  0  0  0  0  0  0  0  0  0
    3.8000   -1.2464    0.0000 C   0  0  0  0  0  0  0  0  0  0  0  0
    9.0564    1.7811    0.0000 C   0  0  0  0  0  0  0  0  0  0  0  0
    2.9061    0.2883    0.0000 C   0  0  0  0  0  0  0  0  0  0  0  0
    2.9061   -1.7811    0.0000 C   0  0  0  0  0  0  0  0  0  0  0  0
    2.0000   -0.2256    0.0000 C   0  0  0  0  0  0  0  0  0  0  0  0
    2.0000   -1.2672    0.0000 C   0  0  0  0  0  0  0  0  0  0  0  0
    8.7319    0.5898    0.0000 H   0  0  0  0  0  0  0  0  0  0  0  0
    7.9780    1.8595    0.0000 H   0  0  0  0  0  0  0  0  0  0  0  0
    7.5821    1.1677    0.0000 H   0  0  0  0  0  0  0  0  0  0  0  0
    6.4188    0.9082    0.0000 H   0  0  0  0  0  0  0  0  0  0  0  0
    7.8678   -1.5793    0.0000 H   0  0  0  0  0  0  0  0  0  0  0  0
    6.4188   -2.4010    0.0000 H   0  0  0  0  0  0  0  0  0  0  0  0
    9.3685    1.2453    0.0000 H   0  0  0  0  0  0  0  0  0  0  0  0
    9.5921    2.0931    0.0000 H   0  0  0  0  0  0  0  0  0  0  0  0
    8.7443    2.3168    0.0000 H   0  0  0  0  0  0  0  0  0  0  0  0
    9.5998    0.0932    0.0000 H   0  0  0  0  0  0  0  0  0  0  0  0
    2.9132    0.9082    0.0000 H   0  0  0  0  0  0  0  0  0  0  0  0
    2.9132   -2.4010    0.0000 H   0  0  0  0  0  0  0  0  0  0  0  0
    1.4643    0.0865    0.0000 H   0  0  0  0  0  0  0  0  0  0  0  0
    1.4643   -1.5793    0.0000 H   0  0  0  0  0  0  0  0  0  0  0  0
  1  7  1  0  0  0  0
  1 12  1  0  0  0  0
  2  9  1  0  0  0  0
  2 13  1  0  0  0  0
  3  4  1  0  0  0  0
  3 28  1  0  0  0  0
  4  5  1  0  0  0  0
  4  6  1  0  0  0  0
  4 19  1  0  0  0  0
  5  8  2  0  0  0  0
  5 10  1  0  0  0  0
  6 14  1  0  0  0  0
  6 20  1  0  0  0  0
  6 21  1  0  0  0  0
  7  8  1  0  0  0  0
  7  9  2  0  0  0  0
  8 22  1  0  0  0  0
  9 11  1  0  0  0  0
 10 11  2  0  0  0  0
 10 23  1  0  0  0  0
 11 24  1  0  0  0  0
 12 13  1  0  0  0  0
 12 15  2  0  0  0  0
 13 16  2  0  0  0  0
 14 25  1  0  0  0  0
 14 26  1  0  0  0  0
 14 27  1  0  0  0  0
 15 17  1  0  0  0  0
 15 29  1  0  0  0  0
 16 18  1  0  0  0  0
 16 30  1  0  0  0  0
 17 18  2  0  0  0  0
 17 31  1  0  0  0  0
 18 32  1  0  0  0  0
M  END
> <PUBCHEM_COMPOUND_CID>
515180
> <PUBCHEM_COMPOUND_CANONICALIZED>
1
> <PUBCHEM_CACTVS_COMPLEXITY>
284
> <PUBCHEM_CACTVS_HBOND_ACCEPTOR>
3
> <PUBCHEM_CACTVS_HBOND_DONOR>
1
> <PUBCHEM_CACTVS_ROTATABLE_BOND>
2
> <PUBCHEM_CACTVS_SUBSKEYS>
AAADccBwMABAAAAAAAAAAAAAAAAAAAAAAAA0YIAAAAAAAACRQAAAGgQACAAADBSg2AIyB4AABgiAAiBCAAACCAAgKBAIiBoGCIgMNiKkMRqCeCCkwBEouAeA4KwOIAAAgAAAIABAAAEAAABAAAAAAAAAAA==
> <PUBCHEM_IUPAC_OPENEYE_NAME>
1-phenoxathiin-2-ylpropan-1-ol
> <PUBCHEM_IUPAC_CAS_NAME>
1-(2-phenoxathiinyl)-1-propanol
> <PUBCHEM_IUPAC_NAME_MARKUP>
1-phenoxathiin-2-ylpropan-1-ol
> <PUBCHEM_IUPAC_NAME>
1-phenoxathiin-2-ylpropan-1-ol
> <PUBCHEM_IUPAC_SYSTEMATIC_NAME>
1-phenoxathiin-2-ylpropan-1-ol
> <PUBCHEM_IUPAC_TRADITIONAL_NAME>
1-phenoxathiin-2-ylpropan-1-ol
> <PUBCHEM_IUPAC_INCHI>
InChI=1S/C15H14O2S/c1-2-11(16)10-7-8-13-15(9-10)18-14-6-4-3-5-12(14)17-13/h3-9,11,16H,2H2,1H3
> <PUBCHEM_IUPAC_INCHIKEY>
YPCXHWUZWSCTRF-UHFFFAOYSA-N
> <PUBCHEM_XLOGP3>
4.6
> <PUBCHEM_EXACT_MASS>
258.07145086
> <PUBCHEM_MOLECULAR_FORMULA>
C15H14O2S
> <PUBCHEM_MOLECULAR_WEIGHT>
258.3
> <PUBCHEM_OPENEYE_CAN_SMILES>
CCC(C1=CC2=C(C=C1)OC3=CC=CC=C3S2)O
> <PUBCHEM_OPENEYE_ISO_SMILES>
CCC(C1=CC2=C(C=C1)OC3=CC=CC=C3S2)O
> <PUBCHEM_CACTVS_TPSA>
54.8
> <PUBCHEM_MONOISOTOPIC_WEIGHT>
258.07145086
> <PUBCHEM_TOTAL_CHARGE>
0
> <PUBCHEM_HEAVY_ATOM_COUNT>
18
> <PUBCHEM_ATOM_DEF_STEREO_COUNT>
0
> <PUBCHEM_ATOM_UDEF_STEREO_COUNT>
1
> <PUBCHEM_BOND_DEF_STEREO_COUNT>
0
> <PUBCHEM_BOND_UDEF_STEREO_COUNT>
0
> <PUBCHEM_ISOTOPIC_ATOM_COUNT>
0
> <PUBCHEM_COMPONENT_COUNT>
1
> <PUBCHEM_CACTVS_TAUTO_COUNT>
-1
> <PUBCHEM_COORDINATE_TYPE>
1
5
255
> <PUBCHEM_BONDANNOTATIONS>
10  11  8
12  13  8
12  15  8
13  16  8
15  17  8
16  18  8
17  18  8
4  3  3
5  10  8
5  8  8
7  8  8
7  9  8
9  11  8
$$$$
