515193
  -OEChem-10302200282D
128132  0     1  0  0  0  0  0999 V2000
    7.6920    2.6200    0.0000 S   0  0  0  0  0  0  0  0  0  0  0  0
    6.1507   13.0006    0.0000 O   0  0  0  0  0  0  0  0  0  0  0  0
    4.7988   11.5773    0.0000 O   0  0  0  0  0  0  0  0  0  0  0  0
    8.7291   15.3141    0.0000 O   0  0  0  0  0  0  0  0  0  0  0  0
    5.1722   12.7944    0.0000 O   0  0  0  0  0  0  0  0  0  0  0  0
    9.4241    3.6200    0.0000 O   0  0  0  0  0  0  0  0  0  0  0  0
   11.1561    3.6200    0.0000 O   0  0  0  0  0  0  0  0  0  0  0  0
    8.1077   13.4131    0.0000 N   0  0  3  0  0  0  0  0  0  0  0  0
    9.4434   11.9245    0.0000 N   0  0  3  0  0  0  0  0  0  0  0  0
    3.5259   13.3325    0.0000 N   0  0  0  0  0  0  0  0  0  0  0  0
   10.3754   14.7760    0.0000 N   0  0  0  0  0  0  0  0  0  0  0  0
    8.5114    9.0729    0.0000 N   0  0  0  0  0  0  0  0  0  0  0  0
    9.0862   13.6193    0.0000 C   0  0  1  0  0  0  0  0  0  0  0  0
    9.7541   12.8750    0.0000 C   0  0  0  0  0  0  0  0  0  0  0  0
    7.7971   12.4626    0.0000 C   0  0  0  0  0  0  0  0  0  0  0  0
    7.4399   14.1574    0.0000 C   0  0  0  0  0  0  0  0  0  0  0  0
    8.4649   11.7183    0.0000 C   0  0  0  0  0  0  0  0  0  0  0  0
    6.4614   13.9512    0.0000 C   0  0  2  0  0  0  0  0  0  0  0  0
    5.7935   14.6955    0.0000 C   0  0  0  0  0  0  0  0  0  0  0  0
    4.8150   14.4892    0.0000 C   0  0  2  0  0  0  0  0  0  0  0  0
    9.3969   14.5698    0.0000 C   0  0  0  0  0  0  0  0  0  0  0  0
    3.2152   12.3820    0.0000 C   0  0  2  0  0  0  0  0  0  0  0  0
   10.1113   11.1802    0.0000 C   0  0  0  0  0  0  0  0  0  0  0  0
    3.7988   11.5773    0.0000 C   0  0  1  0  0  0  0  0  0  0  0  0
    3.2152   10.7725    0.0000 C   0  0  0  0  0  0  0  0  0  0  0  0
    2.2690   12.0773    0.0000 C   0  0  0  0  0  0  0  0  0  0  0  0
    4.1472   15.2335    0.0000 C   0  0  0  0  0  0  0  0  0  0  0  0
    4.5044   13.5387    0.0000 C   0  0  0  0  0  0  0  0  0  0  0  0
    2.2690   11.0773    0.0000 C   0  0  0  0  0  0  0  0  0  0  0  0
   11.0433   14.0317    0.0000 C   0  0  0  0  0  0  0  0  0  0  0  0
    9.8006   10.2297    0.0000 C   0  0  0  0  0  0  0  0  0  0  0  0
    4.4579   16.1841    0.0000 C   0  0  0  0  0  0  0  0  0  0  0  0
    1.4030   12.5773    0.0000 C   0  0  0  0  0  0  0  0  0  0  0  0
    1.4030   10.5773    0.0000 C   0  0  0  0  0  0  0  0  0  0  0  0
   11.7111   13.2874    0.0000 C   0  0  0  0  0  0  0  0  0  0  0  0
   11.7876   14.6996    0.0000 C   0  0  0  0  0  0  0  0  0  0  0  0
   10.2990   13.3639    0.0000 C   0  0  0  0  0  0  0  0  0  0  0  0
    0.5369   12.0773    0.0000 C   0  0  0  0  0  0  0  0  0  0  0  0
    0.5369   11.0773    0.0000 C   0  0  0  0  0  0  0  0  0  0  0  0
   10.4684    9.4854    0.0000 C   0  0  0  0  0  0  0  0  0  0  0  0
    8.8221   10.0234    0.0000 C   0  0  0  0  0  0  0  0  0  0  0  0
    5.4364   16.3903    0.0000 C   0  0  0  0  0  0  0  0  0  0  0  0
    3.7900   16.9284    0.0000 C   0  0  0  0  0  0  0  0  0  0  0  0
   10.1578    8.5348    0.0000 C   0  0  0  0  0  0  0  0  0  0  0  0
    5.7470   17.3408    0.0000 C   0  0  0  0  0  0  0  0  0  0  0  0
    4.1007   17.8789    0.0000 C   0  0  0  0  0  0  0  0  0  0  0  0
    9.1793    8.3286    0.0000 C   0  0  0  0  0  0  0  0  0  0  0  0
    5.0792   18.0851    0.0000 C   0  0  0  0  0  0  0  0  0  0  0  0
    3.3619    3.1200    0.0000 C   0  0  0  0  0  0  0  0  0  0  0  0
    2.4959    3.6200    0.0000 C   0  0  0  0  0  0  0  0  0  0  0  0
    4.2279    3.6200    0.0000 C   0  0  0  0  0  0  0  0  0  0  0  0
    1.6298    3.1200    0.0000 C   0  0  0  0  0  0  0  0  0  0  0  0
    5.0939    3.1200    0.0000 C   0  0  0  0  0  0  0  0  0  0  0  0
    5.9600    2.6200    0.0000 C   0  0  0  0  0  0  0  0  0  0  0  0
    6.8260    2.1200    0.0000 C   0  0  0  0  0  0  0  0  0  0  0  0
    8.5580    2.1200    0.0000 C   0  0  0  0  0  0  0  0  0  0  0  0
    9.4241    2.6200    0.0000 C   0  0  0  0  0  0  0  0  0  0  0  0
    8.5580    1.1200    0.0000 C   0  0  0  0  0  0  0  0  0  0  0  0
   10.2901    2.1200    0.0000 C   0  0  0  0  0  0  0  0  0  0  0  0
    9.4241    0.6200    0.0000 C   0  0  0  0  0  0  0  0  0  0  0  0
   10.2901    1.1200    0.0000 C   0  0  0  0  0  0  0  0  0  0  0  0
   10.2901    4.1200    0.0000 C   0  0  0  0  0  0  0  0  0  0  0  0
   10.2901    5.1200    0.0000 C   0  0  0  0  0  0  0  0  0  0  0  0
    8.6722   14.0808    0.0000 H   0  0  0  0  0  0  0  0  0  0  0  0
   10.3010   12.5830    0.0000 H   0  0  0  0  0  0  0  0  0  0  0  0
   10.1366   13.3629    0.0000 H   0  0  0  0  0  0  0  0  0  0  0  0
    7.2502   12.7546    0.0000 H   0  0  0  0  0  0  0  0  0  0  0  0
    7.4145   11.9747    0.0000 H   0  0  0  0  0  0  0  0  0  0  0  0
    7.9662   14.4850    0.0000 H   0  0  0  0  0  0  0  0  0  0  0  0
    7.2086   14.7326    0.0000 H   0  0  0  0  0  0  0  0  0  0  0  0
    7.9386   11.3906    0.0000 H   0  0  0  0  0  0  0  0  0  0  0  0
    8.6962   11.1430    0.0000 H   0  0  0  0  0  0  0  0  0  0  0  0
    5.8547   13.8233    0.0000 H   0  0  0  0  0  0  0  0  0  0  0  0
    6.3199   15.0231    0.0000 H   0  0  0  0  0  0  0  0  0  0  0  0
    5.5623   15.2707    0.0000 H   0  0  0  0  0  0  0  0  0  0  0  0
    5.0076   15.0786    0.0000 H   0  0  0  0  0  0  0  0  0  0  0  0
    2.7778   12.8213    0.0000 H   0  0  0  0  0  0  0  0  0  0  0  0
   10.6582   10.8882    0.0000 H   0  0  0  0  0  0  0  0  0  0  0  0
   10.4938   11.6681    0.0000 H   0  0  0  0  0  0  0  0  0  0  0  0
    4.0805   11.0250    0.0000 H   0  0  0  0  0  0  0  0  0  0  0  0
    2.9642   10.2056    0.0000 H   0  0  0  0  0  0  0  0  0  0  0  0
    3.7526   10.4633    0.0000 H   0  0  0  0  0  0  0  0  0  0  0  0
    3.6003   15.5256    0.0000 H   0  0  0  0  0  0  0  0  0  0  0  0
    3.7646   14.7456    0.0000 H   0  0  0  0  0  0  0  0  0  0  0  0
    3.1118   13.7940    0.0000 H   0  0  0  0  0  0  0  0  0  0  0  0
   10.5680   15.3654    0.0000 H   0  0  0  0  0  0  0  0  0  0  0  0
    6.5648   12.5392    0.0000 H   0  0  0  0  0  0  0  0  0  0  0  0
    1.4030   13.1973    0.0000 H   0  0  0  0  0  0  0  0  0  0  0  0
    1.4030    9.9573    0.0000 H   0  0  0  0  0  0  0  0  0  0  0  0
   11.2496   12.8734    0.0000 H   0  0  0  0  0  0  0  0  0  0  0  0
   12.1252   12.8260    0.0000 H   0  0  0  0  0  0  0  0  0  0  0  0
   12.1726   13.7015    0.0000 H   0  0  0  0  0  0  0  0  0  0  0  0
   12.2016   14.2381    0.0000 H   0  0  0  0  0  0  0  0  0  0  0  0
   12.2490   15.1136    0.0000 H   0  0  0  0  0  0  0  0  0  0  0  0
   11.3735   15.1610    0.0000 H   0  0  0  0  0  0  0  0  0  0  0  0
    9.8849   13.8254    0.0000 H   0  0  0  0  0  0  0  0  0  0  0  0
    9.8375   12.9498    0.0000 H   0  0  0  0  0  0  0  0  0  0  0  0
   10.7130   12.9024    0.0000 H   0  0  0  0  0  0  0  0  0  0  0  0
    5.1088   11.0403    0.0000 H   0  0  0  0  0  0  0  0  0  0  0  0
    0.0000   12.3873    0.0000 H   0  0  0  0  0  0  0  0  0  0  0  0
    0.0000   10.7673    0.0000 H   0  0  0  0  0  0  0  0  0  0  0  0
   11.0751    9.6132    0.0000 H   0  0  0  0  0  0  0  0  0  0  0  0
    8.4080   10.4849    0.0000 H   0  0  0  0  0  0  0  0  0  0  0  0
    5.8504   15.9288    0.0000 H   0  0  0  0  0  0  0  0  0  0  0  0
    3.1833   16.8005    0.0000 H   0  0  0  0  0  0  0  0  0  0  0  0
   10.5718    8.0734    0.0000 H   0  0  0  0  0  0  0  0  0  0  0  0
    6.3537   17.4687    0.0000 H   0  0  0  0  0  0  0  0  0  0  0  0
    3.6866   18.3404    0.0000 H   0  0  0  0  0  0  0  0  0  0  0  0
    8.9867    7.7393    0.0000 H   0  0  0  0  0  0  0  0  0  0  0  0
    5.2718   18.6744    0.0000 H   0  0  0  0  0  0  0  0  0  0  0  0
    2.9634    2.6450    0.0000 H   0  0  0  0  0  0  0  0  0  0  0  0
    3.7604    2.6450    0.0000 H   0  0  0  0  0  0  0  0  0  0  0  0
    2.8944    4.0950    0.0000 H   0  0  0  0  0  0  0  0  0  0  0  0
    2.0973    4.0950    0.0000 H   0  0  0  0  0  0  0  0  0  0  0  0
    4.6264    4.0950    0.0000 H   0  0  0  0  0  0  0  0  0  0  0  0
    3.8294    4.0950    0.0000 H   0  0  0  0  0  0  0  0  0  0  0  0
    1.3198    3.6569    0.0000 H   0  0  0  0  0  0  0  0  0  0  0  0
    1.0929    2.8100    0.0000 H   0  0  0  0  0  0  0  0  0  0  0  0
    1.9398    2.5831    0.0000 H   0  0  0  0  0  0  0  0  0  0  0  0
    6.4275    1.6450    0.0000 H   0  0  0  0  0  0  0  0  0  0  0  0
    7.2245    1.6450    0.0000 H   0  0  0  0  0  0  0  0  0  0  0  0
    8.0211    0.8100    0.0000 H   0  0  0  0  0  0  0  0  0  0  0  0
   10.8270    2.4300    0.0000 H   0  0  0  0  0  0  0  0  0  0  0  0
    9.4241    0.0000    0.0000 H   0  0  0  0  0  0  0  0  0  0  0  0
   10.8270    0.8100    0.0000 H   0  0  0  0  0  0  0  0  0  0  0  0
   10.9101    5.1200    0.0000 H   0  0  0  0  0  0  0  0  0  0  0  0
   10.2901    5.7400    0.0000 H   0  0  0  0  0  0  0  0  0  0  0  0
    9.6701    5.1200    0.0000 H   0  0  0  0  0  0  0  0  0  0  0  0
  1 55  1  0  0  0  0
  1 56  1  0  0  0  0
 18  2  1  1  0  0  0
  2 87  1  0  0  0  0
 24  3  1  6  0  0  0
  3 99  1  0  0  0  0
  4 21  2  0  0  0  0
  5 28  2  0  0  0  0
  6 57  1  0  0  0  0
  6 62  1  0  0  0  0
  7 62  2  0  0  0  0
  8 13  1  0  0  0  0
  8 15  1  0  0  0  0
  8 16  1  0  0  0  0
  9 14  1  0  0  0  0
  9 17  1  0  0  0  0
  9 23  1  0  0  0  0
 22 10  1  6  0  0  0
 10 28  1  0  0  0  0
 10 85  1  0  0  0  0
 11 21  1  0  0  0  0
 11 30  1  0  0  0  0
 11 86  1  0  0  0  0
 12 41  1  0  0  0  0
 12 47  2  0  0  0  0
 13 14  1  0  0  0  0
 13 21  1  6  0  0  0
 13 64  1  0  0  0  0
 14 65  1  0  0  0  0
 14 66  1  0  0  0  0
 15 17  1  0  0  0  0
 15 67  1  0  0  0  0
 15 68  1  0  0  0  0
 16 18  1  0  0  0  0
 16 69  1  0  0  0  0
 16 70  1  0  0  0  0
 17 71  1  0  0  0  0
 17 72  1  0  0  0  0
 18 19  1  0  0  0  0
 18 73  1  0  0  0  0
 20 19  1  1  0  0  0
 19 74  1  0  0  0  0
 19 75  1  0  0  0  0
 20 27  1  0  0  0  0
 20 28  1  0  0  0  0
 20 76  1  0  0  0  0
 22 24  1  0  0  0  0
 22 26  1  0  0  0  0
 22 77  1  0  0  0  0
 23 31  1  0  0  0  0
 23 78  1  0  0  0  0
 23 79  1  0  0  0  0
 24 25  1  0  0  0  0
 24 80  1  0  0  0  0
 25 29  1  0  0  0  0
 25 81  1  0  0  0  0
 25 82  1  0  0  0  0
 26 29  1  0  0  0  0
 26 33  2  0  0  0  0
 27 32  1  0  0  0  0
 27 83  1  0  0  0  0
 27 84  1  0  0  0  0
 29 34  2  0  0  0  0
 30 35  1  0  0  0  0
 30 36  1  0  0  0  0
 30 37  1  0  0  0  0
 31 40  1  0  0  0  0
 31 41  2  0  0  0  0
 32 42  2  0  0  0  0
 32 43  1  0  0  0  0
 33 38  1  0  0  0  0
 33 88  1  0  0  0  0
 34 39  1  0  0  0  0
 34 89  1  0  0  0  0
 35 90  1  0  0  0  0
 35 91  1  0  0  0  0
 35 92  1  0  0  0  0
 36 93  1  0  0  0  0
 36 94  1  0  0  0  0
 36 95  1  0  0  0  0
 37 96  1  0  0  0  0
 37 97  1  0  0  0  0
 37 98  1  0  0  0  0
 38 39  2  0  0  0  0
 38100  1  0  0  0  0
 39101  1  0  0  0  0
 40 44  2  0  0  0  0
 40102  1  0  0  0  0
 41103  1  0  0  0  0
 42 45  1  0  0  0  0
 42104  1  0  0  0  0
 43 46  2  0  0  0  0
 43105  1  0  0  0  0
 44 47  1  0  0  0  0
 44106  1  0  0  0  0
 45 48  2  0  0  0  0
 45107  1  0  0  0  0
 46 48  1  0  0  0  0
 46108  1  0  0  0  0
 47109  1  0  0  0  0
 48110  1  0  0  0  0
 49 50  1  0  0  0  0
 49 51  1  0  0  0  0
 49111  1  0  0  0  0
 49112  1  0  0  0  0
 50 52  1  0  0  0  0
 50113  1  0  0  0  0
 50114  1  0  0  0  0
 51 53  1  0  0  0  0
 51115  1  0  0  0  0
 51116  1  0  0  0  0
 52117  1  0  0  0  0
 52118  1  0  0  0  0
 52119  1  0  0  0  0
 53 54  3  0  0  0  0
 54 55  1  0  0  0  0
 55120  1  0  0  0  0
 55121  1  0  0  0  0
 56 57  1  0  0  0  0
 56 58  2  0  0  0  0
 57 59  2  0  0  0  0
 58 60  1  0  0  0  0
 58122  1  0  0  0  0
 59 61  1  0  0  0  0
 59123  1  0  0  0  0
 60 61  2  0  0  0  0
 60124  1  0  0  0  0
 61125  1  0  0  0  0
 62 63  1  0  0  0  0
 63126  1  0  0  0  0
 63127  1  0  0  0  0
 63128  1  0  0  0  0
M  END
> <PUBCHEM_COMPOUND_CID>
515193
> <PUBCHEM_COMPOUND_CANONICALIZED>
1
> <PUBCHEM_CACTVS_COMPLEXITY>
1270
> <PUBCHEM_CACTVS_HBOND_ACCEPTOR>
10
> <PUBCHEM_CACTVS_HBOND_DONOR>
4
> <PUBCHEM_CACTVS_ROTATABLE_BOND>
18
> <PUBCHEM_CACTVS_SUBSKEYS>
AAADcfB/uABAAAAAAAAAAAAAAAAAAYAAAAA8eMECAAAAAGAB1AAAHgQQCAAADbzl2ga+j5PIFgjoEjH3XAiCiCAxKjAI2Lu+bJgOdvrk8buWeijk1hH46Ae62fKOgAAAAAAQIAAAAAAAACBAAKAACQgAAA==
> <PUBCHEM_IUPAC_OPENEYE_NAME>
(2S)-1-[(2S,4S)-4-benzyl-2-hydroxy-5-[[(1S,2R)-2-hydroxyindan-1-yl]amino]-5-oxo-pentyl]-N-tert-butyl-4-(3-pyridylmethyl)piperazine-2-carboxamide;(2-hept-2-ynylsulfanylphenyl) acetate
> <PUBCHEM_IUPAC_CAS_NAME>
acetic acid [2-(hept-2-ynylthio)phenyl] ester;(2S)-N-tert-butyl-1-[(2S,4S)-2-hydroxy-5-[[(1S,2R)-2-hydroxy-2,3-dihydro-1H-inden-1-yl]amino]-5-oxo-4-(phenylmethyl)pentyl]-4-(3-pyridinylmethyl)-2-piperazinecarboxamide
> <PUBCHEM_IUPAC_NAME_MARKUP>
(2<I>S</I>)-1-[(2<I>S</I>,4<I>S</I>)-4-benzyl-2-hydroxy-5-[[(1<I>S</I>,2<I>R</I>)-2-hydroxy-2,3-dihydro-1<I>H</I>-inden-1-yl]amino]-5-oxopentyl]-<I>N</I>-<I>tert</I>-butyl-4-(pyridin-3-ylmethyl)piperazine-2-carboxamide;(2-hept-2-ynylsulfanylphenyl) acetate
> <PUBCHEM_IUPAC_NAME>
(2S)-1-[(2S,4S)-4-benzyl-2-hydroxy-5-[[(1S,2R)-2-hydroxy-2,3-dihydro-1H-inden-1-yl]amino]-5-oxopentyl]-N-tert-butyl-4-(pyridin-3-ylmethyl)piperazine-2-carboxamide;(2-hept-2-ynylsulfanylphenyl) acetate
> <PUBCHEM_IUPAC_SYSTEMATIC_NAME>
(2S)-N-tert-butyl-1-[(2S,4S)-2-oxidanyl-5-[[(1S,2R)-2-oxidanyl-2,3-dihydro-1H-inden-1-yl]amino]-5-oxidanylidene-4-(phenylmethyl)pentyl]-4-(pyridin-3-ylmethyl)piperazine-2-carboxamide;(2-hept-2-ynylsulfanylphenyl) ethanoate
> <PUBCHEM_IUPAC_TRADITIONAL_NAME>
acetic acid [2-(hept-2-ynylthio)phenyl] ester;(2S)-1-[(2S,4S)-4-benzyl-2-hydroxy-5-[[(1S,2R)-2-hydroxyindan-1-yl]amino]-5-keto-pentyl]-N-tert-butyl-4-(3-pyridylmethyl)piperazine-2-carboxamide
> <PUBCHEM_IUPAC_INCHI>
InChI=1S/C36H47N5O4.C15H18O2S/c1-36(2,3)39-35(45)31-24-40(22-26-12-9-15-37-21-26)16-17-41(31)23-29(42)19-28(18-25-10-5-4-6-11-25)34(44)38-33-30-14-8-7-13-27(30)20-32(33)43;1-3-4-5-6-9-12-18-15-11-8-7-10-14(15)17-13(2)16/h4-15,21,28-29,31-33,42-43H,16-20,22-24H2,1-3H3,(H,38,44)(H,39,45);7-8,10-11H,3-5,12H2,1-2H3/t28-,29-,31-,32+,33-;/m0./s1
> <PUBCHEM_IUPAC_INCHIKEY>
WWNHVMSKPFUJNA-FBGXINMDSA-N
> <PUBCHEM_EXACT_MASS>
875.46555598
> <PUBCHEM_MOLECULAR_FORMULA>
C51H65N5O6S
> <PUBCHEM_MOLECULAR_WEIGHT>
876.2
> <PUBCHEM_OPENEYE_CAN_SMILES>
CCCCC#CCSC1=CC=CC=C1OC(=O)C.CC(C)(C)NC(=O)C1CN(CCN1CC(CC(CC2=CC=CC=C2)C(=O)NC3C(CC4=CC=CC=C34)O)O)CC5=CN=CC=C5
> <PUBCHEM_OPENEYE_ISO_SMILES>
CCCCC#CCSC1=CC=CC=C1OC(=O)C.CC(C)(C)NC(=O)[C@@H]1CN(CCN1C[C@H](C[C@H](CC2=CC=CC=C2)C(=O)N[C@@H]3[C@@H](CC4=CC=CC=C34)O)O)CC5=CN=CC=C5
> <PUBCHEM_CACTVS_TPSA>
170
> <PUBCHEM_MONOISOTOPIC_WEIGHT>
875.46555598
> <PUBCHEM_TOTAL_CHARGE>
0
> <PUBCHEM_HEAVY_ATOM_COUNT>
63
> <PUBCHEM_ATOM_DEF_STEREO_COUNT>
5
> <PUBCHEM_ATOM_UDEF_STEREO_COUNT>
0
> <PUBCHEM_BOND_DEF_STEREO_COUNT>
0
> <PUBCHEM_BOND_UDEF_STEREO_COUNT>
0
> <PUBCHEM_ISOTOPIC_ATOM_COUNT>
0
> <PUBCHEM_COMPONENT_COUNT>
2
> <PUBCHEM_CACTVS_TAUTO_COUNT>
-1
> <PUBCHEM_COORDINATE_TYPE>
1
5
255
> <PUBCHEM_BONDANNOTATIONS>
22  10  6
12  41  8
12  47  8
13  21  6
20  19  5
18  2  5
26  29  8
26  33  8
29  34  8
24  3  6
31  40  8
31  41  8
32  42  8
32  43  8
33  38  8
34  39  8
38  39  8
40  44  8
42  45  8
43  46  8
44  47  8
45  48  8
46  48  8
56  57  8
56  58  8
57  59  8
58  60  8
59  61  8
60  61  8
$$$$
