515163
  -OEChem-10302200282D
 55 58  0     1  0  0  0  0  0999 V2000
    9.7884    3.4210    0.0000 S   0  0  0  0  0  0  0  0  0  0  0  0
    6.6353   -3.4389    0.0000 O   0  0  0  0  0  0  0  0  0  0  0  0
   10.7389    3.1103    0.0000 O   0  0  0  0  0  0  0  0  0  0  0  0
    8.8379    3.7316    0.0000 O   0  0  0  0  0  0  0  0  0  0  0  0
   11.3883    5.5282    0.0000 O   0  0  0  0  0  0  0  0  0  0  0  0
   11.7454    3.8334    0.0000 O   0  0  0  0  0  0  0  0  0  0  0  0
    4.9889   -2.9008    0.0000 N   0  0  0  0  0  0  0  0  0  0  0  0
    4.6783   -3.8513    0.0000 C   0  0  1  0  0  0  0  0  0  0  0  0
    5.2619   -4.6561    0.0000 C   0  0  0  0  0  0  0  0  0  0  0  0
    4.6783   -5.4608    0.0000 C   0  0  0  0  0  0  0  0  0  0  0  0
    3.7320   -4.1561    0.0000 C   0  0  0  0  0  0  0  0  0  0  0  0
    3.7320   -5.1561    0.0000 C   0  0  0  0  0  0  0  0  0  0  0  0
    2.8660   -3.6561    0.0000 C   0  0  0  0  0  0  0  0  0  0  0  0
    2.8660   -5.6561    0.0000 C   0  0  0  0  0  0  0  0  0  0  0  0
    5.9674   -2.6946    0.0000 C   0  0  0  0  0  0  0  0  0  0  0  0
    2.0000   -4.1561    0.0000 C   0  0  0  0  0  0  0  0  0  0  0  0
    2.0000   -5.1561    0.0000 C   0  0  0  0  0  0  0  0  0  0  0  0
    6.2781   -1.7441    0.0000 C   0  0  0  0  0  0  0  0  0  0  0  0
    7.2566   -1.5379    0.0000 C   0  0  0  0  0  0  0  0  0  0  0  0
    7.5673   -0.5873    0.0000 C   0  0  0  0  0  0  0  0  0  0  0  0
    8.5458   -0.3811    0.0000 C   0  0  0  0  0  0  0  0  0  0  0  0
    7.9244   -2.2822    0.0000 C   0  0  0  0  0  0  0  0  0  0  0  0
    8.8564    0.5694    0.0000 C   0  0  0  0  0  0  0  0  0  0  0  0
    9.2136   -1.1254    0.0000 C   0  0  0  0  0  0  0  0  0  0  0  0
    9.4778    2.4704    0.0000 C   0  0  0  0  0  0  0  0  0  0  0  0
    8.9030   -2.0760    0.0000 C   0  0  0  0  0  0  0  0  0  0  0  0
    8.1886    1.3137    0.0000 C   0  0  0  0  0  0  0  0  0  0  0  0
    9.8349    0.7756    0.0000 C   0  0  0  0  0  0  0  0  0  0  0  0
    8.4993    2.2642    0.0000 C   0  0  0  0  0  0  0  0  0  0  0  0
   10.1456    1.7261    0.0000 C   0  0  0  0  0  0  0  0  0  0  0  0
   10.0991    4.3715    0.0000 C   0  0  0  0  0  0  0  0  0  0  0  0
   11.0776    4.5777    0.0000 C   0  0  0  0  0  0  0  0  0  0  0  0
    5.2908   -3.7552    0.0000 H   0  0  0  0  0  0  0  0  0  0  0  0
    5.7227   -5.0708    0.0000 H   0  0  0  0  0  0  0  0  0  0  0  0
    5.7227   -4.2413    0.0000 H   0  0  0  0  0  0  0  0  0  0  0  0
    4.4272   -6.0277    0.0000 H   0  0  0  0  0  0  0  0  0  0  0  0
    5.2156   -5.7700    0.0000 H   0  0  0  0  0  0  0  0  0  0  0  0
    4.5749   -2.4394    0.0000 H   0  0  0  0  0  0  0  0  0  0  0  0
    2.8660   -3.0361    0.0000 H   0  0  0  0  0  0  0  0  0  0  0  0
    2.8660   -6.2761    0.0000 H   0  0  0  0  0  0  0  0  0  0  0  0
    1.4631   -3.8461    0.0000 H   0  0  0  0  0  0  0  0  0  0  0  0
    1.4631   -5.4661    0.0000 H   0  0  0  0  0  0  0  0  0  0  0  0
    6.2575   -1.1244    0.0000 H   0  0  0  0  0  0  0  0  0  0  0  0
    5.6643   -1.6567    0.0000 H   0  0  0  0  0  0  0  0  0  0  0  0
    7.1532   -0.1259    0.0000 H   0  0  0  0  0  0  0  0  0  0  0  0
    7.7318   -2.8715    0.0000 H   0  0  0  0  0  0  0  0  0  0  0  0
    9.8203   -0.9976    0.0000 H   0  0  0  0  0  0  0  0  0  0  0  0
    9.3170   -2.5374    0.0000 H   0  0  0  0  0  0  0  0  0  0  0  0
    7.5819    1.1858    0.0000 H   0  0  0  0  0  0  0  0  0  0  0  0
   10.2490    0.3141    0.0000 H   0  0  0  0  0  0  0  0  0  0  0  0
    8.0852    2.7257    0.0000 H   0  0  0  0  0  0  0  0  0  0  0  0
   10.7523    1.8540    0.0000 H   0  0  0  0  0  0  0  0  0  0  0  0
   10.0785    4.9911    0.0000 H   0  0  0  0  0  0  0  0  0  0  0  0
    9.4853    4.4588    0.0000 H   0  0  0  0  0  0  0  0  0  0  0  0
   11.9949    5.6561    0.0000 H   0  0  0  0  0  0  0  0  0  0  0  0
  1  3  2  0  0  0  0
  1  4  2  0  0  0  0
  1 25  1  0  0  0  0
  1 31  1  0  0  0  0
  2 15  2  0  0  0  0
  5 32  1  0  0  0  0
  5 55  1  0  0  0  0
  6 32  2  0  0  0  0
  8  7  1  1  0  0  0
  7 15  1  0  0  0  0
  7 38  1  0  0  0  0
  8  9  1  0  0  0  0
  8 11  1  0  0  0  0
  8 33  1  0  0  0  0
  9 10  1  0  0  0  0
  9 34  1  0  0  0  0
  9 35  1  0  0  0  0
 10 12  1  0  0  0  0
 10 36  1  0  0  0  0
 10 37  1  0  0  0  0
 11 12  1  0  0  0  0
 11 13  2  0  0  0  0
 12 14  2  0  0  0  0
 13 16  1  0  0  0  0
 13 39  1  0  0  0  0
 14 17  1  0  0  0  0
 14 40  1  0  0  0  0
 15 18  1  0  0  0  0
 16 17  2  0  0  0  0
 16 41  1  0  0  0  0
 17 42  1  0  0  0  0
 18 19  1  0  0  0  0
 18 43  1  0  0  0  0
 18 44  1  0  0  0  0
 19 20  2  0  0  0  0
 19 22  1  0  0  0  0
 20 21  1  0  0  0  0
 20 45  1  0  0  0  0
 21 23  1  0  0  0  0
 21 24  2  0  0  0  0
 22 26  2  0  0  0  0
 22 46  1  0  0  0  0
 23 27  2  0  0  0  0
 23 28  1  0  0  0  0
 24 26  1  0  0  0  0
 24 47  1  0  0  0  0
 25 29  2  0  0  0  0
 25 30  1  0  0  0  0
 26 48  1  0  0  0  0
 27 29  1  0  0  0  0
 27 49  1  0  0  0  0
 28 30  2  0  0  0  0
 28 50  1  0  0  0  0
 29 51  1  0  0  0  0
 30 52  1  0  0  0  0
 31 32  1  0  0  0  0
 31 53  1  0  0  0  0
 31 54  1  0  0  0  0
M  END
> <PUBCHEM_COMPOUND_CID>
515163
> <PUBCHEM_COMPOUND_CANONICALIZED>
1
> <PUBCHEM_CACTVS_COMPLEXITY>
768
> <PUBCHEM_CACTVS_HBOND_ACCEPTOR>
5
> <PUBCHEM_CACTVS_HBOND_DONOR>
2
> <PUBCHEM_CACTVS_ROTATABLE_BOND>
7
> <PUBCHEM_CACTVS_SUBSKEYS>
AAADceB6OABAAAAAAAAAAAAAAAAAAYAAAAAwYMAAAAAAAGABUAAAHgQQCAAADCjF2ASwCYLAAgqIAiHSGHDCAAAgCBAIiJkIBIgIIDKglRGEIAhglgCoiAcYiMCOkAACAAAQAAAgAAQAACAAACAACQAAAA==
> <PUBCHEM_IUPAC_OPENEYE_NAME>
2-[4-[3-[2-[[(1S)-indan-1-yl]amino]-2-oxo-ethyl]phenyl]phenyl]sulfonylacetic acid
> <PUBCHEM_IUPAC_CAS_NAME>
2-[4-[3-[2-[[(1S)-2,3-dihydro-1H-inden-1-yl]amino]-2-oxoethyl]phenyl]phenyl]sulfonylacetic acid
> <PUBCHEM_IUPAC_NAME_MARKUP>
2-[4-[3-[2-[[(1<I>S</I>)-2,3-dihydro-1<I>H</I>-inden-1-yl]amino]-2-oxoethyl]phenyl]phenyl]sulfonylacetic acid
> <PUBCHEM_IUPAC_NAME>
2-[4-[3-[2-[[(1S)-2,3-dihydro-1H-inden-1-yl]amino]-2-oxoethyl]phenyl]phenyl]sulfonylacetic acid
> <PUBCHEM_IUPAC_SYSTEMATIC_NAME>
2-[4-[3-[2-[[(1S)-2,3-dihydro-1H-inden-1-yl]amino]-2-oxidanylidene-ethyl]phenyl]phenyl]sulfonylethanoic acid
> <PUBCHEM_IUPAC_TRADITIONAL_NAME>
2-[4-[3-[2-[[(1S)-indan-1-yl]amino]-2-keto-ethyl]phenyl]phenyl]sulfonylacetic acid
> <PUBCHEM_IUPAC_INCHI>
InChI=1S/C25H23NO5S/c27-24(26-23-13-10-19-5-1-2-7-22(19)23)15-17-4-3-6-20(14-17)18-8-11-21(12-9-18)32(30,31)16-25(28)29/h1-9,11-12,14,23H,10,13,15-16H2,(H,26,27)(H,28,29)/t23-/m0/s1
> <PUBCHEM_IUPAC_INCHIKEY>
BMSPUAFKNKGVHS-QHCPKHFHSA-N
> <PUBCHEM_XLOGP3_AA>
3.5
> <PUBCHEM_EXACT_MASS>
449.12969401
> <PUBCHEM_MOLECULAR_FORMULA>
C25H23NO5S
> <PUBCHEM_MOLECULAR_WEIGHT>
449.5
> <PUBCHEM_OPENEYE_CAN_SMILES>
C1CC2=CC=CC=C2C1NC(=O)CC3=CC(=CC=C3)C4=CC=C(C=C4)S(=O)(=O)CC(=O)O
> <PUBCHEM_OPENEYE_ISO_SMILES>
C1CC2=CC=CC=C2[C@H]1NC(=O)CC3=CC(=CC=C3)C4=CC=C(C=C4)S(=O)(=O)CC(=O)O
> <PUBCHEM_CACTVS_TPSA>
109
> <PUBCHEM_MONOISOTOPIC_WEIGHT>
449.12969401
> <PUBCHEM_TOTAL_CHARGE>
0
> <PUBCHEM_HEAVY_ATOM_COUNT>
32
> <PUBCHEM_ATOM_DEF_STEREO_COUNT>
1
> <PUBCHEM_ATOM_UDEF_STEREO_COUNT>
0
> <PUBCHEM_BOND_DEF_STEREO_COUNT>
0
> <PUBCHEM_BOND_UDEF_STEREO_COUNT>
0
> <PUBCHEM_ISOTOPIC_ATOM_COUNT>
0
> <PUBCHEM_COMPONENT_COUNT>
1
> <PUBCHEM_CACTVS_TAUTO_COUNT>
-1
> <PUBCHEM_COORDINATE_TYPE>
1
5
255
> <PUBCHEM_BONDANNOTATIONS>
11  12  8
11  13  8
12  14  8
13  16  8
14  17  8
16  17  8
19  20  8
19  22  8
20  21  8
21  24  8
22  26  8
23  27  8
23  28  8
24  26  8
25  29  8
25  30  8
27  29  8
28  30  8
8  7  5
$$$$
