515111
  -OEChem-10302200282D
 34 36  0     1  0  0  0  0  0999 V2000
    2.0000    2.5031    0.0000 Br  0  0  0  0  0  0  0  0  0  0  0  0
    7.1183   -1.3165    0.0000 O   0  0  0  0  0  0  0  0  0  0  0  0
    5.2215   -3.0766    0.0000 O   0  0  0  0  0  0  0  0  0  0  0  0
    8.3916   -2.9721    0.0000 O   0  0  0  0  0  0  0  0  0  0  0  0
    8.0413    0.2712    0.0000 O   0  0  0  0  0  0  0  0  0  0  0  0
    4.4727    3.2658    0.0000 O   0  0  0  0  0  0  0  0  0  0  0  0
    6.3092    3.2712    0.0000 O   0  0  0  0  0  0  0  0  0  0  0  0
    6.3092    0.2712    0.0000 N   0  0  0  0  0  0  0  0  0  0  0  0
    7.1753    1.7712    0.0000 N   0  0  0  0  0  0  0  0  0  0  0  0
    3.4945    3.4737    0.0000 N   0  0  0  0  0  0  0  0  0  0  0  0
    5.8092   -2.2676    0.0000 C   0  0  1  0  0  0  0  0  0  0  0  0
    6.3092   -0.7288    0.0000 C   0  0  1  0  0  0  0  0  0  0  0  0
    5.5002   -1.3165    0.0000 C   0  0  0  0  0  0  0  0  0  0  0  0
    6.8092   -2.2676    0.0000 C   0  0  1  0  0  0  0  0  0  0  0  0
    7.3970   -3.0766    0.0000 C   0  0  0  0  0  0  0  0  0  0  0  0
    5.4432    0.7712    0.0000 C   0  0  0  0  0  0  0  0  0  0  0  0
    7.1753    0.7712    0.0000 C   0  0  0  0  0  0  0  0  0  0  0  0
    5.4432    1.7712    0.0000 C   0  0  0  0  0  0  0  0  0  0  0  0
    6.3092    2.2712    0.0000 C   0  0  0  0  0  0  0  0  0  0  0  0
    4.5772    2.2712    0.0000 C   0  0  0  0  0  0  0  0  0  0  0  0
    3.6636    1.8645    0.0000 C   0  0  0  0  0  0  0  0  0  0  0  0
    2.9945    2.6076    0.0000 C   0  0  0  0  0  0  0  0  0  0  0  0
    6.8617   -0.4473    0.0000 H   0  0  0  0  0  0  0  0  0  0  0  0
    6.0907   -2.8200    0.0000 H   0  0  0  0  0  0  0  0  0  0  0  0
    5.1902   -0.7796    0.0000 H   0  0  0  0  0  0  0  0  0  0  0  0
    4.9338   -1.5687    0.0000 H   0  0  0  0  0  0  0  0  0  0  0  0
    7.4216   -2.1706    0.0000 H   0  0  0  0  0  0  0  0  0  0  0  0
    6.8398   -3.3484    0.0000 H   0  0  0  0  0  0  0  0  0  0  0  0
    7.5679   -3.6726    0.0000 H   0  0  0  0  0  0  0  0  0  0  0  0
    4.9063    0.4612    0.0000 H   0  0  0  0  0  0  0  0  0  0  0  0
    4.6049   -3.0118    0.0000 H   0  0  0  0  0  0  0  0  0  0  0  0
    7.7122    2.0812    0.0000 H   0  0  0  0  0  0  0  0  0  0  0  0
    8.7560   -3.4737    0.0000 H   0  0  0  0  0  0  0  0  0  0  0  0
    3.5348    1.2581    0.0000 H   0  0  0  0  0  0  0  0  0  0  0  0
  1 22  1  0  0  0  0
  2 12  1  0  0  0  0
  2 14  1  0  0  0  0
 11  3  1  1  0  0  0
  3 31  1  0  0  0  0
  4 15  1  0  0  0  0
  4 33  1  0  0  0  0
  5 17  2  0  0  0  0
  6 10  1  0  0  0  0
  6 20  1  0  0  0  0
  7 19  2  0  0  0  0
 12  8  1  6  0  0  0
  8 16  1  0  0  0  0
  8 17  1  0  0  0  0
  9 17  1  0  0  0  0
  9 19  1  0  0  0  0
  9 32  1  0  0  0  0
 10 22  2  0  0  0  0
 11 13  1  0  0  0  0
 11 14  1  0  0  0  0
 11 24  1  0  0  0  0
 12 13  1  0  0  0  0
 12 23  1  0  0  0  0
 13 25  1  0  0  0  0
 13 26  1  0  0  0  0
 14 15  1  6  0  0  0
 14 27  1  0  0  0  0
 15 28  1  0  0  0  0
 15 29  1  0  0  0  0
 16 18  2  0  0  0  0
 16 30  1  0  0  0  0
 18 19  1  0  0  0  0
 18 20  1  0  0  0  0
 20 21  2  0  0  0  0
 21 22  1  0  0  0  0
 21 34  1  0  0  0  0
M  END
> <PUBCHEM_COMPOUND_CID>
515111
> <PUBCHEM_COMPOUND_CANONICALIZED>
1
> <PUBCHEM_CACTVS_COMPLEXITY>
515
> <PUBCHEM_CACTVS_HBOND_ACCEPTOR>
7
> <PUBCHEM_CACTVS_HBOND_DONOR>
3
> <PUBCHEM_CACTVS_ROTATABLE_BOND>
3
> <PUBCHEM_CACTVS_SUBSKEYS>
AAADccBzOAAAEAAAAAAAAAAAAAAAAWJAAAAgAAAAAAAAAAABgAAAHgBUCAABPBThkgYxhJPQBgCpAqF2UgCCAAAkIgQgmCE+bHqJNB4IlIGOQIBvpyoLysK4MQIAAAAAAAAAAAAAAAAAAAAAAAAAAAAAAA==
> <PUBCHEM_IUPAC_OPENEYE_NAME>
5-(3-bromoisoxazol-5-yl)-1-[(2R,4S,5R)-4-hydroxy-5-(hydroxymethyl)tetrahydrofuran-2-yl]pyrimidine-2,4-dione
> <PUBCHEM_IUPAC_CAS_NAME>
5-(3-bromo-5-isoxazolyl)-1-[(2R,4S,5R)-4-hydroxy-5-(hydroxymethyl)-2-oxolanyl]pyrimidine-2,4-dione
> <PUBCHEM_IUPAC_NAME_MARKUP>
5-(3-bromo-1,2-oxazol-5-yl)-1-[(2<I>R</I>,4<I>S</I>,5<I>R</I>)-4-hydroxy-5-(hydroxymethyl)oxolan-2-yl]pyrimidine-2,4-dione
> <PUBCHEM_IUPAC_NAME>
5-(3-bromo-1,2-oxazol-5-yl)-1-[(2R,4S,5R)-4-hydroxy-5-(hydroxymethyl)oxolan-2-yl]pyrimidine-2,4-dione
> <PUBCHEM_IUPAC_SYSTEMATIC_NAME>
5-(3-bromanyl-1,2-oxazol-5-yl)-1-[(2R,4S,5R)-5-(hydroxymethyl)-4-oxidanyl-oxolan-2-yl]pyrimidine-2,4-dione
> <PUBCHEM_IUPAC_TRADITIONAL_NAME>
5-(3-bromoisoxazol-5-yl)-1-[(2R,4S,5R)-4-hydroxy-5-methylol-tetrahydrofuran-2-yl]pyrimidine-2,4-quinone
> <PUBCHEM_IUPAC_INCHI>
InChI=1S/C12H12BrN3O6/c13-9-2-7(22-15-9)5-3-16(12(20)14-11(5)19)10-1-6(18)8(4-17)21-10/h2-3,6,8,10,17-18H,1,4H2,(H,14,19,20)/t6-,8+,10+/m0/s1
> <PUBCHEM_IUPAC_INCHIKEY>
YRCHLXHSNHGYIQ-SKWCMTHISA-N
> <PUBCHEM_XLOGP3>
-0.4
> <PUBCHEM_EXACT_MASS>
372.99095
> <PUBCHEM_MOLECULAR_FORMULA>
C12H12BrN3O6
> <PUBCHEM_MOLECULAR_WEIGHT>
374.14
> <PUBCHEM_OPENEYE_CAN_SMILES>
C1C(C(OC1N2C=C(C(=O)NC2=O)C3=CC(=NO3)Br)CO)O
> <PUBCHEM_OPENEYE_ISO_SMILES>
C1[C@@H]([C@H](O[C@H]1N2C=C(C(=O)NC2=O)C3=CC(=NO3)Br)CO)O
> <PUBCHEM_CACTVS_TPSA>
125
> <PUBCHEM_MONOISOTOPIC_WEIGHT>
372.99095
> <PUBCHEM_TOTAL_CHARGE>
0
> <PUBCHEM_HEAVY_ATOM_COUNT>
22
> <PUBCHEM_ATOM_DEF_STEREO_COUNT>
3
> <PUBCHEM_ATOM_UDEF_STEREO_COUNT>
0
> <PUBCHEM_BOND_DEF_STEREO_COUNT>
0
> <PUBCHEM_BOND_UDEF_STEREO_COUNT>
0
> <PUBCHEM_ISOTOPIC_ATOM_COUNT>
0
> <PUBCHEM_COMPONENT_COUNT>
1
> <PUBCHEM_CACTVS_TAUTO_COUNT>
3
> <PUBCHEM_COORDINATE_TYPE>
1
5
255
> <PUBCHEM_BONDANNOTATIONS>
10  22  8
14  15  6
16  18  8
18  19  8
20  21  8
21  22  8
11  3  5
6  10  8
6  20  8
12  8  6
8  16  8
8  17  8
9  17  8
9  19  8
$$$$
