515190
  -OEChem-10302200282D
 68 69  0     1  0  0  0  0  0999 V2000
    6.5991    2.6200    0.0000 S   0  0  0  0  0  0  0  0  0  0  0  0
    6.1557   10.0961    0.0000 O   0  0  0  0  0  0  0  0  0  0  0  0
    7.4290    8.4405    0.0000 O   0  0  0  0  0  0  0  0  0  0  0  0
    7.0787   11.6838    0.0000 O   0  0  0  0  0  0  0  0  0  0  0  0
    5.3467   14.6838    0.0000 O   0  0  0  0  0  0  0  0  0  0  0  0
    8.3312    3.6200    0.0000 O   0  0  0  0  0  0  0  0  0  0  0  0
   10.0632    3.6200    0.0000 O   0  0  0  0  0  0  0  0  0  0  0  0
    5.3467   11.6838    0.0000 N   0  0  0  0  0  0  0  0  0  0  0  0
    4.2589    8.3360    0.0000 N   0  0  0  0  0  0  0  0  0  0  0  0
    6.2127   13.1838    0.0000 N   0  0  0  0  0  0  0  0  0  0  0  0
    3.2644    8.4405    0.0000 N   0  3  0  0  0  0  0  0  0  0  0  0
    2.2698    8.5450    0.0000 N   0  5  0  0  0  0  0  0  0  0  0  0
    4.8467    9.1450    0.0000 C   0  0  1  0  0  0  0  0  0  0  0  0
    4.5376   10.0961    0.0000 C   0  0  0  0  0  0  0  0  0  0  0  0
    5.8467    9.1450    0.0000 C   0  0  1  0  0  0  0  0  0  0  0  0
    5.3467   10.6838    0.0000 C   0  0  1  0  0  0  0  0  0  0  0  0
    6.4344    8.3360    0.0000 C   0  0  0  0  0  0  0  0  0  0  0  0
    4.4806   12.1838    0.0000 C   0  0  0  0  0  0  0  0  0  0  0  0
    6.2127   12.1838    0.0000 C   0  0  0  0  0  0  0  0  0  0  0  0
    4.4806   13.1838    0.0000 C   0  0  0  0  0  0  0  0  0  0  0  0
    5.3467   13.6838    0.0000 C   0  0  0  0  0  0  0  0  0  0  0  0
    3.6146   13.6838    0.0000 C   0  0  0  0  0  0  0  0  0  0  0  0
    2.2690    3.1200    0.0000 C   0  0  0  0  0  0  0  0  0  0  0  0
    1.4030    3.6200    0.0000 C   0  0  0  0  0  0  0  0  0  0  0  0
    3.1350    3.6200    0.0000 C   0  0  0  0  0  0  0  0  0  0  0  0
    0.5369    3.1200    0.0000 C   0  0  0  0  0  0  0  0  0  0  0  0
    4.0010    3.1200    0.0000 C   0  0  0  0  0  0  0  0  0  0  0  0
    7.4651    2.1200    0.0000 C   0  0  0  0  0  0  0  0  0  0  0  0
    5.7331    2.1200    0.0000 C   0  0  0  0  0  0  0  0  0  0  0  0
    4.8671    2.6200    0.0000 C   0  0  0  0  0  0  0  0  0  0  0  0
    8.3312    2.6200    0.0000 C   0  0  0  0  0  0  0  0  0  0  0  0
    7.4651    1.1200    0.0000 C   0  0  0  0  0  0  0  0  0  0  0  0
    9.1972    2.1200    0.0000 C   0  0  0  0  0  0  0  0  0  0  0  0
    8.3312    0.6200    0.0000 C   0  0  0  0  0  0  0  0  0  0  0  0
    9.1972    1.1200    0.0000 C   0  0  0  0  0  0  0  0  0  0  0  0
    9.1972    4.1200    0.0000 C   0  0  0  0  0  0  0  0  0  0  0  0
    9.1972    5.1200    0.0000 C   0  0  0  0  0  0  0  0  0  0  0  0
    5.1281    8.5926    0.0000 H   0  0  0  0  0  0  0  0  0  0  0  0
    4.2276   10.6330    0.0000 H   0  0  0  0  0  0  0  0  0  0  0  0
    3.9712    9.8439    0.0000 H   0  0  0  0  0  0  0  0  0  0  0  0
    6.4590    9.2420    0.0000 H   0  0  0  0  0  0  0  0  0  0  0  0
    5.8991   10.9653    0.0000 H   0  0  0  0  0  0  0  0  0  0  0  0
    5.8772    8.0642    0.0000 H   0  0  0  0  0  0  0  0  0  0  0  0
    6.6053    7.7400    0.0000 H   0  0  0  0  0  0  0  0  0  0  0  0
    3.9437   11.8738    0.0000 H   0  0  0  0  0  0  0  0  0  0  0  0
    7.7934    7.9389    0.0000 H   0  0  0  0  0  0  0  0  0  0  0  0
    6.7496   13.4938    0.0000 H   0  0  0  0  0  0  0  0  0  0  0  0
    3.9246   14.2208    0.0000 H   0  0  0  0  0  0  0  0  0  0  0  0
    3.0777   13.9938    0.0000 H   0  0  0  0  0  0  0  0  0  0  0  0
    3.3046   13.1469    0.0000 H   0  0  0  0  0  0  0  0  0  0  0  0
    1.8705    2.6450    0.0000 H   0  0  0  0  0  0  0  0  0  0  0  0
    2.6675    2.6450    0.0000 H   0  0  0  0  0  0  0  0  0  0  0  0
    1.8015    4.0950    0.0000 H   0  0  0  0  0  0  0  0  0  0  0  0
    1.0044    4.0950    0.0000 H   0  0  0  0  0  0  0  0  0  0  0  0
    3.5335    4.0950    0.0000 H   0  0  0  0  0  0  0  0  0  0  0  0
    2.7365    4.0950    0.0000 H   0  0  0  0  0  0  0  0  0  0  0  0
    0.2269    3.6569    0.0000 H   0  0  0  0  0  0  0  0  0  0  0  0
    0.0000    2.8100    0.0000 H   0  0  0  0  0  0  0  0  0  0  0  0
    0.8469    2.5831    0.0000 H   0  0  0  0  0  0  0  0  0  0  0  0
    5.3346    1.6450    0.0000 H   0  0  0  0  0  0  0  0  0  0  0  0
    6.1316    1.6450    0.0000 H   0  0  0  0  0  0  0  0  0  0  0  0
    6.9282    0.8100    0.0000 H   0  0  0  0  0  0  0  0  0  0  0  0
    9.7341    2.4300    0.0000 H   0  0  0  0  0  0  0  0  0  0  0  0
    8.3312    0.0000    0.0000 H   0  0  0  0  0  0  0  0  0  0  0  0
    9.7341    0.8100    0.0000 H   0  0  0  0  0  0  0  0  0  0  0  0
    9.8172    5.1200    0.0000 H   0  0  0  0  0  0  0  0  0  0  0  0
    9.1972    5.7400    0.0000 H   0  0  0  0  0  0  0  0  0  0  0  0
    8.5772    5.1200    0.0000 H   0  0  0  0  0  0  0  0  0  0  0  0
  1 28  1  0  0  0  0
  1 29  1  0  0  0  0
  2 15  1  0  0  0  0
  2 16  1  0  0  0  0
  3 17  1  0  0  0  0
  3 46  1  0  0  0  0
  4 19  2  0  0  0  0
  5 21  2  0  0  0  0
  6 31  1  0  0  0  0
  6 36  1  0  0  0  0
  7 36  2  0  0  0  0
 16  8  1  6  0  0  0
  8 18  1  0  0  0  0
  8 19  1  0  0  0  0
  9 11  2  0  0  0  0
 13  9  1  1  0  0  0
 10 19  1  0  0  0  0
 10 21  1  0  0  0  0
 10 47  1  0  0  0  0
 11 12  2  0  0  0  0
 13 14  1  0  0  0  0
 13 15  1  0  0  0  0
 13 38  1  0  0  0  0
 14 16  1  0  0  0  0
 14 39  1  0  0  0  0
 14 40  1  0  0  0  0
 15 17  1  6  0  0  0
 15 41  1  0  0  0  0
 16 42  1  0  0  0  0
 17 43  1  0  0  0  0
 17 44  1  0  0  0  0
 18 20  2  0  0  0  0
 18 45  1  0  0  0  0
 20 21  1  0  0  0  0
 20 22  1  0  0  0  0
 22 48  1  0  0  0  0
 22 49  1  0  0  0  0
 22 50  1  0  0  0  0
 23 24  1  0  0  0  0
 23 25  1  0  0  0  0
 23 51  1  0  0  0  0
 23 52  1  0  0  0  0
 24 26  1  0  0  0  0
 24 53  1  0  0  0  0
 24 54  1  0  0  0  0
 25 27  1  0  0  0  0
 25 55  1  0  0  0  0
 25 56  1  0  0  0  0
 26 57  1  0  0  0  0
 26 58  1  0  0  0  0
 26 59  1  0  0  0  0
 27 30  3  0  0  0  0
 28 31  1  0  0  0  0
 28 32  2  0  0  0  0
 29 30  1  0  0  0  0
 29 60  1  0  0  0  0
 29 61  1  0  0  0  0
 31 33  2  0  0  0  0
 32 34  1  0  0  0  0
 32 62  1  0  0  0  0
 33 35  1  0  0  0  0
 33 63  1  0  0  0  0
 34 35  2  0  0  0  0
 34 64  1  0  0  0  0
 35 65  1  0  0  0  0
 36 37  1  0  0  0  0
 37 66  1  0  0  0  0
 37 67  1  0  0  0  0
 37 68  1  0  0  0  0
M  CHG  2  11   1  12  -1
M  END
> <PUBCHEM_COMPOUND_CID>
515190
> <PUBCHEM_COMPOUND_CANONICALIZED>
1
> <PUBCHEM_CACTVS_COMPLEXITY>
797
> <PUBCHEM_CACTVS_HBOND_ACCEPTOR>
9
> <PUBCHEM_CACTVS_HBOND_DONOR>
2
> <PUBCHEM_CACTVS_ROTATABLE_BOND>
9
> <PUBCHEM_CACTVS_SUBSKEYS>
AAADceB7uABAAAAAAAAAAAAAAAAAASAAAAAwQAAAAAAAAAABAAAAHgQYCAAADDzl0AazD4PABgjKEiHWWAiCCAAgKBAIiBsOCMiPNiKk8RqPeiCuxzMrqMewcAIAAAAAAAAAIAAAAAAAAABAAAAAAAAAAA==
> <PUBCHEM_IUPAC_OPENEYE_NAME>
1-[(2R,4S,5S)-4-azido-5-(hydroxymethyl)tetrahydrofuran-2-yl]-5-methyl-pyrimidine-2,4-dione;(2-hept-2-ynylsulfanylphenyl) acetate
> <PUBCHEM_IUPAC_CAS_NAME>
acetic acid [2-(hept-2-ynylthio)phenyl] ester;1-[(2R,4S,5S)-4-azido-5-(hydroxymethyl)-2-oxolanyl]-5-methylpyrimidine-2,4-dione
> <PUBCHEM_IUPAC_NAME_MARKUP>
1-[(2<I>R</I>,4<I>S</I>,5<I>S</I>)-4-azido-5-(hydroxymethyl)oxolan-2-yl]-5-methylpyrimidine-2,4-dione;(2-hept-2-ynylsulfanylphenyl) acetate
> <PUBCHEM_IUPAC_NAME>
1-[(2R,4S,5S)-4-azido-5-(hydroxymethyl)oxolan-2-yl]-5-methylpyrimidine-2,4-dione;(2-hept-2-ynylsulfanylphenyl) acetate
> <PUBCHEM_IUPAC_SYSTEMATIC_NAME>
1-[(2R,4S,5S)-4-azido-5-(hydroxymethyl)oxolan-2-yl]-5-methyl-pyrimidine-2,4-dione;(2-hept-2-ynylsulfanylphenyl) ethanoate
> <PUBCHEM_IUPAC_TRADITIONAL_NAME>
acetic acid [2-(hept-2-ynylthio)phenyl] ester;1-[(2R,4S,5S)-4-azido-5-methylol-tetrahydrofuran-2-yl]-5-methyl-pyrimidine-2,4-quinone
> <PUBCHEM_IUPAC_INCHI>
InChI=1S/C15H18O2S.C10H13N5O4/c1-3-4-5-6-9-12-18-15-11-8-7-10-14(15)17-13(2)16;1-5-3-15(10(18)12-9(5)17)8-2-6(13-14-11)7(4-16)19-8/h7-8,10-11H,3-5,12H2,1-2H3;3,6-8,16H,2,4H2,1H3,(H,12,17,18)/t;6-,7+,8+/m.0/s1
> <PUBCHEM_IUPAC_INCHIKEY>
KSUMBJVIVKPWCB-XKPASDJRSA-N
> <PUBCHEM_EXACT_MASS>
529.19950490
> <PUBCHEM_MOLECULAR_FORMULA>
C25H31N5O6S
> <PUBCHEM_MOLECULAR_WEIGHT>
529.6
> <PUBCHEM_OPENEYE_CAN_SMILES>
CCCCC#CCSC1=CC=CC=C1OC(=O)C.CC1=CN(C(=O)NC1=O)C2CC(C(O2)CO)N=[N+]=[N-]
> <PUBCHEM_OPENEYE_ISO_SMILES>
CCCCC#CCSC1=CC=CC=C1OC(=O)C.CC1=CN(C(=O)NC1=O)[C@H]2C[C@@H]([C@H](O2)CO)N=[N+]=[N-]
> <PUBCHEM_CACTVS_TPSA>
145
> <PUBCHEM_MONOISOTOPIC_WEIGHT>
529.19950490
> <PUBCHEM_TOTAL_CHARGE>
0
> <PUBCHEM_HEAVY_ATOM_COUNT>
37
> <PUBCHEM_ATOM_DEF_STEREO_COUNT>
3
> <PUBCHEM_ATOM_UDEF_STEREO_COUNT>
0
> <PUBCHEM_BOND_DEF_STEREO_COUNT>
0
> <PUBCHEM_BOND_UDEF_STEREO_COUNT>
0
> <PUBCHEM_ISOTOPIC_ATOM_COUNT>
0
> <PUBCHEM_COMPONENT_COUNT>
2
> <PUBCHEM_CACTVS_TAUTO_COUNT>
-1
> <PUBCHEM_COORDINATE_TYPE>
1
5
255
> <PUBCHEM_BONDANNOTATIONS>
10  19  8
10  21  8
15  17  6
18  20  8
20  21  8
28  31  8
28  32  8
31  33  8
32  34  8
33  35  8
34  35  8
16  8  6
8  18  8
8  19  8
13  9  5
$$$$
