515127
  -OEChem-10302200282D
 31 32  0     1  0  0  0  0  0999 V2000
    3.0000    1.5950    0.0000 S   0  0  0  0  0  0  0  0  0  0  0  0
    2.1340    3.0950    0.0000 F   0  0  0  0  0  0  0  0  0  0  0  0
    4.0000    1.5950    0.0000 O   0  0  0  0  0  0  0  0  0  0  0  0
    2.0000    1.5950    0.0000 O   0  0  0  0  0  0  0  0  0  0  0  0
    3.8660    4.0950    0.0000 O   0  0  0  0  0  0  0  0  0  0  0  0
    4.7320    2.5950    0.0000 O   0  0  0  0  0  0  0  0  0  0  0  0
    3.0000    0.5950    0.0000 C   0  0  0  0  0  0  0  0  0  0  0  0
    3.0000   -1.4050    0.0000 C   0  0  0  0  0  0  0  0  0  0  0  0
    3.0000    2.5950    0.0000 C   0  0  3  0  0  0  0  0  0  0  0  0
    3.8660    0.0950    0.0000 C   0  0  0  0  0  0  0  0  0  0  0  0
    2.1340    0.0950    0.0000 C   0  0  0  0  0  0  0  0  0  0  0  0
    3.8660   -0.9050    0.0000 C   0  0  0  0  0  0  0  0  0  0  0  0
    2.1340   -0.9050    0.0000 C   0  0  0  0  0  0  0  0  0  0  0  0
    3.0000   -2.4050    0.0000 C   0  0  0  0  0  0  0  0  0  0  0  0
    2.1340   -2.9050    0.0000 C   0  0  0  0  0  0  0  0  0  0  0  0
    3.8660   -2.9050    0.0000 C   0  0  0  0  0  0  0  0  0  0  0  0
    3.8660    3.0950    0.0000 C   0  0  0  0  0  0  0  0  0  0  0  0
    2.1340   -3.9050    0.0000 C   0  0  0  0  0  0  0  0  0  0  0  0
    3.8660   -3.9050    0.0000 C   0  0  0  0  0  0  0  0  0  0  0  0
    3.0000   -4.4050    0.0000 C   0  0  0  0  0  0  0  0  0  0  0  0
    3.0000    3.2150    0.0000 H   0  0  0  0  0  0  0  0  0  0  0  0
    4.4030    0.4050    0.0000 H   0  0  0  0  0  0  0  0  0  0  0  0
    1.5970    0.4050    0.0000 H   0  0  0  0  0  0  0  0  0  0  0  0
    4.4030   -1.2150    0.0000 H   0  0  0  0  0  0  0  0  0  0  0  0
    1.5970   -1.2150    0.0000 H   0  0  0  0  0  0  0  0  0  0  0  0
    1.5970   -2.5950    0.0000 H   0  0  0  0  0  0  0  0  0  0  0  0
    4.4030   -2.5950    0.0000 H   0  0  0  0  0  0  0  0  0  0  0  0
    1.5970   -4.2150    0.0000 H   0  0  0  0  0  0  0  0  0  0  0  0
    4.4030   -4.2150    0.0000 H   0  0  0  0  0  0  0  0  0  0  0  0
    3.0000   -5.0250    0.0000 H   0  0  0  0  0  0  0  0  0  0  0  0
    4.4030    4.4050    0.0000 H   0  0  0  0  0  0  0  0  0  0  0  0
  1  3  2  0  0  0  0
  1  4  2  0  0  0  0
  1  7  1  0  0  0  0
  1  9  1  0  0  0  0
  2  9  1  0  0  0  0
  5 17  1  0  0  0  0
  5 31  1  0  0  0  0
  6 17  2  0  0  0  0
  7 10  2  0  0  0  0
  7 11  1  0  0  0  0
  8 12  2  0  0  0  0
  8 13  1  0  0  0  0
  8 14  1  0  0  0  0
  9 17  1  0  0  0  0
  9 21  1  0  0  0  0
 10 12  1  0  0  0  0
 10 22  1  0  0  0  0
 11 13  2  0  0  0  0
 11 23  1  0  0  0  0
 12 24  1  0  0  0  0
 13 25  1  0  0  0  0
 14 15  2  0  0  0  0
 14 16  1  0  0  0  0
 15 18  1  0  0  0  0
 15 26  1  0  0  0  0
 16 19  2  0  0  0  0
 16 27  1  0  0  0  0
 18 20  2  0  0  0  0
 18 28  1  0  0  0  0
 19 20  1  0  0  0  0
 19 29  1  0  0  0  0
 20 30  1  0  0  0  0
M  END
> <PUBCHEM_COMPOUND_CID>
515127
> <PUBCHEM_COMPOUND_CANONICALIZED>
1
> <PUBCHEM_CACTVS_COMPLEXITY>
429
> <PUBCHEM_CACTVS_HBOND_ACCEPTOR>
5
> <PUBCHEM_CACTVS_HBOND_DONOR>
1
> <PUBCHEM_CACTVS_ROTATABLE_BOND>
4
> <PUBCHEM_CACTVS_SUBSKEYS>
AAADccBwOQBAAAAAAAAAAAAAAAAAAAAAAAAwYAAAAAAAAAABQAAAGwQACAAADACE2ACwCYAAAgqIAiDSCHBCAAAgCBAIiBgAAIgIICKgERCAIAAggAAoiAcAgMAOkAAAAAAAAAAgAAAAAAAAAAAAAAAAAA==
> <PUBCHEM_IUPAC_OPENEYE_NAME>
2-fluoro-2-(4-phenylphenyl)sulfonyl-acetic acid
> <PUBCHEM_IUPAC_CAS_NAME>
2-fluoro-2-(4-phenylphenyl)sulfonylacetic acid
> <PUBCHEM_IUPAC_NAME_MARKUP>
2-fluoro-2-(4-phenylphenyl)sulfonylacetic acid
> <PUBCHEM_IUPAC_NAME>
2-fluoro-2-(4-phenylphenyl)sulfonylacetic acid
> <PUBCHEM_IUPAC_SYSTEMATIC_NAME>
2-fluoranyl-2-(4-phenylphenyl)sulfonyl-ethanoic acid
> <PUBCHEM_IUPAC_TRADITIONAL_NAME>
2-fluoro-2-(4-phenylphenyl)sulfonyl-acetic acid
> <PUBCHEM_IUPAC_INCHI>
InChI=1S/C14H11FO4S/c15-13(14(16)17)20(18,19)12-8-6-11(7-9-12)10-4-2-1-3-5-10/h1-9,13H,(H,16,17)
> <PUBCHEM_IUPAC_INCHIKEY>
KQQGUCWMLOHUTC-UHFFFAOYSA-N
> <PUBCHEM_XLOGP3_AA>
2.9
> <PUBCHEM_EXACT_MASS>
294.03620816
> <PUBCHEM_MOLECULAR_FORMULA>
C14H11FO4S
> <PUBCHEM_MOLECULAR_WEIGHT>
294.30
> <PUBCHEM_OPENEYE_CAN_SMILES>
C1=CC=C(C=C1)C2=CC=C(C=C2)S(=O)(=O)C(C(=O)O)F
> <PUBCHEM_OPENEYE_ISO_SMILES>
C1=CC=C(C=C1)C2=CC=C(C=C2)S(=O)(=O)C(C(=O)O)F
> <PUBCHEM_CACTVS_TPSA>
79.8
> <PUBCHEM_MONOISOTOPIC_WEIGHT>
294.03620816
> <PUBCHEM_TOTAL_CHARGE>
0
> <PUBCHEM_HEAVY_ATOM_COUNT>
20
> <PUBCHEM_ATOM_DEF_STEREO_COUNT>
0
> <PUBCHEM_ATOM_UDEF_STEREO_COUNT>
1
> <PUBCHEM_BOND_DEF_STEREO_COUNT>
0
> <PUBCHEM_BOND_UDEF_STEREO_COUNT>
0
> <PUBCHEM_ISOTOPIC_ATOM_COUNT>
0
> <PUBCHEM_COMPONENT_COUNT>
1
> <PUBCHEM_CACTVS_TAUTO_COUNT>
-1
> <PUBCHEM_COORDINATE_TYPE>
1
5
255
> <PUBCHEM_BONDANNOTATIONS>
10  12  8
11  13  8
14  15  8
14  16  8
15  18  8
16  19  8
18  20  8
19  20  8
9  2  3
7  10  8
7  11  8
8  12  8
8  13  8
$$$$
