515247
  -OEChem-10302200282D
 36 38  0     1  0  0  0  0  0999 V2000
    6.7523   -2.4116    0.0000 O   0  0  0  0  0  0  0  0  0  0  0  0
    3.4026   -1.3296    0.0000 O   0  0  0  0  0  0  0  0  0  0  0  0
    4.6844   -3.0874    0.0000 O   0  0  0  0  0  0  0  0  0  0  0  0
    4.6783    0.4327    0.0000 N   0  0  3  0  0  0  0  0  0  0  0  0
    4.6783    2.0422    0.0000 N   0  0  0  0  0  0  0  0  0  0  0  0
    2.8660    0.2375    0.0000 N   0  0  0  0  0  0  0  0  0  0  0  0
    2.0000    1.7374    0.0000 N   0  0  0  0  0  0  0  0  0  0  0  0
    2.8660    3.2374    0.0000 N   0  0  0  0  0  0  0  0  0  0  0  0
    4.9889   -0.5178    0.0000 C   0  0  2  0  0  0  0  0  0  0  0  0
    4.4026   -1.3278    0.0000 C   0  0  2  0  0  0  0  0  0  0  0  0
    5.9405   -0.8252    0.0000 C   0  0  0  0  0  0  0  0  0  0  0  0
    5.9422   -1.8252    0.0000 C   0  0  2  0  0  0  0  0  0  0  0  0
    4.9917   -2.1358    0.0000 C   0  0  2  0  0  0  0  0  0  0  0  0
    5.2619    1.2374    0.0000 C   0  0  0  0  0  0  0  0  0  0  0  0
    3.7320    0.7375    0.0000 C   0  0  0  0  0  0  0  0  0  0  0  0
    3.7320    1.7374    0.0000 C   0  0  0  0  0  0  0  0  0  0  0  0
    7.6651   -2.0032    0.0000 C   0  0  0  0  0  0  0  0  0  0  0  0
    2.8660    2.2374    0.0000 C   0  0  0  0  0  0  0  0  0  0  0  0
    2.0000    0.7375    0.0000 C   0  0  0  0  0  0  0  0  0  0  0  0
    5.4266   -0.0786    0.0000 H   0  0  0  0  0  0  0  0  0  0  0  0
    4.1220   -1.8807    0.0000 H   0  0  0  0  0  0  0  0  0  0  0  0
    6.5572   -0.8889    0.0000 H   0  0  0  0  0  0  0  0  0  0  0  0
    6.0684   -0.2185    0.0000 H   0  0  0  0  0  0  0  0  0  0  0  0
    5.8463   -2.4377    0.0000 H   0  0  0  0  0  0  0  0  0  0  0  0
    5.4309   -2.5735    0.0000 H   0  0  0  0  0  0  0  0  0  0  0  0
    5.7227    0.8227    0.0000 H   0  0  0  0  0  0  0  0  0  0  0  0
    5.7227    1.6522    0.0000 H   0  0  0  0  0  0  0  0  0  0  0  0
    3.0935   -1.8670    0.0000 H   0  0  0  0  0  0  0  0  0  0  0  0
    4.8709    2.6315    0.0000 H   0  0  0  0  0  0  0  0  0  0  0  0
    5.1000   -3.5474    0.0000 H   0  0  0  0  0  0  0  0  0  0  0  0
    7.9183   -2.5692    0.0000 H   0  0  0  0  0  0  0  0  0  0  0  0
    8.2311   -1.7501    0.0000 H   0  0  0  0  0  0  0  0  0  0  0  0
    7.4120   -1.4373    0.0000 H   0  0  0  0  0  0  0  0  0  0  0  0
    1.4631    0.4275    0.0000 H   0  0  0  0  0  0  0  0  0  0  0  0
    2.3291    3.5474    0.0000 H   0  0  0  0  0  0  0  0  0  0  0  0
    3.4030    3.5474    0.0000 H   0  0  0  0  0  0  0  0  0  0  0  0
 12  1  1  1  0  0  0
  1 17  1  0  0  0  0
 10  2  1  6  0  0  0
  2 28  1  0  0  0  0
 13  3  1  6  0  0  0
  3 30  1  0  0  0  0
  9  4  1  1  0  0  0
  4 14  1  0  0  0  0
  4 15  1  0  0  0  0
  5 14  1  0  0  0  0
  5 16  1  0  0  0  0
  5 29  1  0  0  0  0
  6 15  2  0  0  0  0
  6 19  1  0  0  0  0
  7 18  1  0  0  0  0
  7 19  2  0  0  0  0
  8 18  1  0  0  0  0
  8 35  1  0  0  0  0
  8 36  1  0  0  0  0
  9 10  1  0  0  0  0
  9 11  1  0  0  0  0
  9 20  1  0  0  0  0
 10 13  1  0  0  0  0
 10 21  1  0  0  0  0
 11 12  1  0  0  0  0
 11 22  1  0  0  0  0
 11 23  1  0  0  0  0
 12 13  1  0  0  0  0
 12 24  1  0  0  0  0
 13 25  1  0  0  0  0
 14 26  1  0  0  0  0
 14 27  1  0  0  0  0
 15 16  1  0  0  0  0
 16 18  2  0  0  0  0
 17 31  1  0  0  0  0
 17 32  1  0  0  0  0
 17 33  1  0  0  0  0
 19 34  1  0  0  0  0
M  END
> <PUBCHEM_COMPOUND_CID>
515247
> <PUBCHEM_COMPOUND_CANONICALIZED>
1
> <PUBCHEM_CACTVS_COMPLEXITY>
334
> <PUBCHEM_CACTVS_HBOND_ACCEPTOR>
8
> <PUBCHEM_CACTVS_HBOND_DONOR>
4
> <PUBCHEM_CACTVS_ROTATABLE_BOND>
2
> <PUBCHEM_CACTVS_SUBSKEYS>
AAADceBzsAAAAAAAAAAAAAAAAAAAAeIAAAAsAAAAAAAAAFgBgAAAHgAQCAAACDzhkgYH8JfIFgCgAAZhZACAgCkREKABUKAoVBCDWAJAyEAURAgPAALTACDwMAoAAAAAAAAAAAAAAAAAAAAAAAUAACgAAA==
> <PUBCHEM_IUPAC_OPENEYE_NAME>
(1R,2R,3S,5R)-3-(6-amino-7,8-dihydropurin-9-yl)-5-methoxy-cyclopentane-1,2-diol
> <PUBCHEM_IUPAC_CAS_NAME>
(1R,2R,3S,5R)-3-(6-amino-7,8-dihydropurin-9-yl)-5-methoxycyclopentane-1,2-diol
> <PUBCHEM_IUPAC_NAME_MARKUP>
(1<I>R</I>,2<I>R</I>,3<I>S</I>,5<I>R</I>)-3-(6-amino-7,8-dihydropurin-9-yl)-5-methoxycyclopentane-1,2-diol
> <PUBCHEM_IUPAC_NAME>
(1R,2R,3S,5R)-3-(6-amino-7,8-dihydropurin-9-yl)-5-methoxycyclopentane-1,2-diol
> <PUBCHEM_IUPAC_SYSTEMATIC_NAME>
(1R,2R,3S,5R)-3-(6-azanyl-7,8-dihydropurin-9-yl)-5-methoxy-cyclopentane-1,2-diol
> <PUBCHEM_IUPAC_TRADITIONAL_NAME>
(1R,2R,3S,5R)-3-(6-amino-7,8-dihydropurin-9-yl)-5-methoxy-cyclopentane-1,2-diol
> <PUBCHEM_IUPAC_INCHI>
InChI=1S/C11H17N5O3/c1-19-6-2-5(8(17)9(6)18)16-4-15-7-10(12)13-3-14-11(7)16/h3,5-6,8-9,15,17-18H,2,4H2,1H3,(H2,12,13,14)/t5-,6+,8+,9-/m0/s1
> <PUBCHEM_IUPAC_INCHIKEY>
MLOODEMODZSLKU-LWIVVEGESA-N
> <PUBCHEM_XLOGP3_AA>
-1
> <PUBCHEM_EXACT_MASS>
267.13313942
> <PUBCHEM_MOLECULAR_FORMULA>
C11H17N5O3
> <PUBCHEM_MOLECULAR_WEIGHT>
267.28
> <PUBCHEM_OPENEYE_CAN_SMILES>
COC1CC(C(C1O)O)N2CNC3=C(N=CN=C32)N
> <PUBCHEM_OPENEYE_ISO_SMILES>
CO[C@@H]1C[C@@H]([C@H]([C@H]1O)O)N2CNC3=C(N=CN=C32)N
> <PUBCHEM_CACTVS_TPSA>
117
> <PUBCHEM_MONOISOTOPIC_WEIGHT>
267.13313942
> <PUBCHEM_TOTAL_CHARGE>
0
> <PUBCHEM_HEAVY_ATOM_COUNT>
19
> <PUBCHEM_ATOM_DEF_STEREO_COUNT>
4
> <PUBCHEM_ATOM_UDEF_STEREO_COUNT>
0
> <PUBCHEM_BOND_DEF_STEREO_COUNT>
0
> <PUBCHEM_BOND_UDEF_STEREO_COUNT>
0
> <PUBCHEM_ISOTOPIC_ATOM_COUNT>
0
> <PUBCHEM_COMPONENT_COUNT>
1
> <PUBCHEM_CACTVS_TAUTO_COUNT>
-1
> <PUBCHEM_COORDINATE_TYPE>
1
5
255
> <PUBCHEM_BONDANNOTATIONS>
12  1  5
15  16  8
16  18  8
10  2  6
13  3  6
9  4  5
6  15  8
6  19  8
7  18  8
7  19  8
$$$$
