515297
  -OEChem-10302200282D
145148  0     1  0  0  0  0  0999 V2000
   12.1522    2.2994    0.0000 O   0  0  0  0  0  0  0  0  0  0  0  0
   11.0859    3.6643    0.0000 O   0  0  0  0  0  0  0  0  0  0  0  0
    8.9282    4.3244    0.0000 O   0  0  0  0  0  0  0  0  0  0  0  0
    8.0622    3.8244    0.0000 O   0  0  0  0  0  0  0  0  0  0  0  0
    8.7682    6.6435    0.0000 O   0  0  0  0  0  0  0  0  0  0  0  0
    5.4641    1.3244    0.0000 O   0  0  0  0  0  0  0  0  0  0  0  0
    7.1962    4.3244    0.0000 O   0  0  0  0  0  0  0  0  0  0  0  0
    6.3301   -2.1756    0.0000 O   0  0  0  0  0  0  0  0  0  0  0  0
    2.8660   -3.1756    0.0000 O   0  0  0  0  0  0  0  0  0  0  0  0
    8.9282    2.3244    0.0000 N   0  0  0  0  0  0  0  0  0  0  0  0
   10.4370    4.5905    0.0000 N   0  0  0  0  0  0  0  0  0  0  0  0
    7.1962    1.3244    0.0000 N   0  0  0  0  0  0  0  0  0  0  0  0
    5.4641    4.3244    0.0000 N   0  0  0  0  0  0  0  0  0  0  0  0
    5.4641   -0.6756    0.0000 N   0  0  0  0  0  0  0  0  0  0  0  0
    4.5981   -3.1756    0.0000 N   0  0  0  0  0  0  0  0  0  0  0  0
   10.4370    2.0584    0.0000 C   0  0  0  0  0  0  0  0  0  0  0  0
   11.2851    1.5284    0.0000 C   0  0  0  0  0  0  0  0  0  0  0  0
    9.6710    1.4156    0.0000 C   0  0  0  0  0  0  0  0  0  0  0  0
   11.0431    0.5582    0.0000 C   0  0  0  0  0  0  0  0  0  0  0  0
   10.0456    0.4884    0.0000 C   0  0  0  0  0  0  0  0  0  0  0  0
    9.7942    2.8244    0.0000 C   0  0  1  0  0  0  0  0  0  0  0  0
   11.2250    2.6740    0.0000 C   0  0  0  0  0  0  0  0  0  0  0  0
    9.7942    3.8244    0.0000 C   0  0  0  0  0  0  0  0  0  0  0  0
   10.0950    5.5302    0.0000 C   0  0  1  0  0  0  0  0  0  0  0  0
    8.0622    2.8244    0.0000 C   0  0  0  0  0  0  0  0  0  0  0  0
   10.7378    6.2962    0.0000 C   0  0  0  0  0  0  0  0  0  0  0  0
    7.1962    2.3244    0.0000 C   0  0  2  0  0  0  0  0  0  0  0  0
   10.3958    7.2359    0.0000 C   0  0  0  0  0  0  0  0  0  0  0  0
    9.1102    5.7038    0.0000 C   0  0  0  0  0  0  0  0  0  0  0  0
    6.3301    2.8244    0.0000 C   0  0  0  0  0  0  0  0  0  0  0  0
   10.0537    8.1756    0.0000 C   0  0  0  0  0  0  0  0  0  0  0  0
   11.3355    7.5779    0.0000 C   0  0  0  0  0  0  0  0  0  0  0  0
    9.4561    6.8939    0.0000 C   0  0  0  0  0  0  0  0  0  0  0  0
    6.3301   -0.1756    0.0000 C   0  0  1  0  0  0  0  0  0  0  0  0
    7.1962   -0.6756    0.0000 C   0  0  0  0  0  0  0  0  0  0  0  0
    6.3301    0.8244    0.0000 C   0  0  0  0  0  0  0  0  0  0  0  0
    6.3301    3.8244    0.0000 C   0  0  0  0  0  0  0  0  0  0  0  0
    5.3596    5.3189    0.0000 C   0  0  0  0  0  0  0  0  0  0  0  0
    4.5506    3.9177    0.0000 C   0  0  0  0  0  0  0  0  0  0  0  0
    4.3814    5.5268    0.0000 C   0  0  0  0  0  0  0  0  0  0  0  0
    3.8814    4.6608    0.0000 C   0  0  0  0  0  0  0  0  0  0  0  0
    8.0622   -1.1756    0.0000 C   0  0  0  0  0  0  0  0  0  0  0  0
    7.6962    0.1904    0.0000 C   0  0  0  0  0  0  0  0  0  0  0  0
    6.6962   -1.5416    0.0000 C   0  0  0  0  0  0  0  0  0  0  0  0
    4.5981   -2.1756    0.0000 C   0  0  2  0  0  0  0  0  0  0  0  0
    5.4641   -1.6756    0.0000 C   0  0  0  0  0  0  0  0  0  0  0  0
    3.7320   -1.6756    0.0000 C   0  0  0  0  0  0  0  0  0  0  0  0
    3.7320   -4.6756    0.0000 C   0  0  3  0  0  0  0  0  0  0  0  0
    3.7320   -3.6756    0.0000 C   0  0  0  0  0  0  0  0  0  0  0  0
    3.7320   -0.6756    0.0000 C   0  0  0  0  0  0  0  0  0  0  0  0
    2.8660   -2.1756    0.0000 C   0  0  0  0  0  0  0  0  0  0  0  0
    4.5981   -5.1756    0.0000 C   0  0  0  0  0  0  0  0  0  0  0  0
    5.4641   -3.6756    0.0000 C   0  0  0  0  0  0  0  0  0  0  0  0
    2.8660   -5.1756    0.0000 C   0  0  0  0  0  0  0  0  0  0  0  0
    5.4641   -4.6756    0.0000 C   0  0  0  0  0  0  0  0  0  0  0  0
    2.8660   -6.1756    0.0000 C   0  0  0  0  0  0  0  0  0  0  0  0
    6.3301   -5.1756    0.0000 C   0  0  0  0  0  0  0  0  0  0  0  0
    3.7320   -6.6756    0.0000 C   0  0  0  0  0  0  0  0  0  0  0  0
    2.0000   -6.6756    0.0000 C   0  0  0  0  0  0  0  0  0  0  0  0
    7.1962   -4.6756    0.0000 C   0  0  0  0  0  0  0  0  0  0  0  0
    6.3301   -6.1756    0.0000 C   0  0  0  0  0  0  0  0  0  0  0  0
    3.7320   -7.6756    0.0000 C   0  0  0  0  0  0  0  0  0  0  0  0
    2.0000   -7.6756    0.0000 C   0  0  0  0  0  0  0  0  0  0  0  0
    2.8660   -8.1756    0.0000 C   0  0  0  0  0  0  0  0  0  0  0  0
    8.0622   -5.1756    0.0000 C   0  0  0  0  0  0  0  0  0  0  0  0
    7.1962   -6.6756    0.0000 C   0  0  0  0  0  0  0  0  0  0  0  0
    8.0622   -6.1756    0.0000 C   0  0  0  0  0  0  0  0  0  0  0  0
   11.8677    1.3164    0.0000 H   0  0  0  0  0  0  0  0  0  0  0  0
   11.5569    2.0857    0.0000 H   0  0  0  0  0  0  0  0  0  0  0  0
    9.3243    1.9296    0.0000 H   0  0  0  0  0  0  0  0  0  0  0  0
    9.1235    1.1245    0.0000 H   0  0  0  0  0  0  0  0  0  0  0  0
   11.0215   -0.0615    0.0000 H   0  0  0  0  0  0  0  0  0  0  0  0
   11.6571    0.4719    0.0000 H   0  0  0  0  0  0  0  0  0  0  0  0
    9.4496    0.3175    0.0000 H   0  0  0  0  0  0  0  0  0  0  0  0
   10.1532   -0.1222    0.0000 H   0  0  0  0  0  0  0  0  0  0  0  0
    9.2573    3.1344    0.0000 H   0  0  0  0  0  0  0  0  0  0  0  0
    8.9282    1.7044    0.0000 H   0  0  0  0  0  0  0  0  0  0  0  0
   11.0476    4.4828    0.0000 H   0  0  0  0  0  0  0  0  0  0  0  0
   10.7056    5.4225    0.0000 H   0  0  0  0  0  0  0  0  0  0  0  0
   11.1363    5.8212    0.0000 H   0  0  0  0  0  0  0  0  0  0  0  0
   11.2747    6.6062    0.0000 H   0  0  0  0  0  0  0  0  0  0  0  0
    6.6592    2.0144    0.0000 H   0  0  0  0  0  0  0  0  0  0  0  0
   12.2385    1.6855    0.0000 H   0  0  0  0  0  0  0  0  0  0  0  0
    8.4996    5.5961    0.0000 H   0  0  0  0  0  0  0  0  0  0  0  0
    9.1102    5.0838    0.0000 H   0  0  0  0  0  0  0  0  0  0  0  0
    5.7196    2.9321    0.0000 H   0  0  0  0  0  0  0  0  0  0  0  0
    6.1181    2.2418    0.0000 H   0  0  0  0  0  0  0  0  0  0  0  0
    7.7331    1.0144    0.0000 H   0  0  0  0  0  0  0  0  0  0  0  0
   10.6364    8.3876    0.0000 H   0  0  0  0  0  0  0  0  0  0  0  0
    9.8417    8.7582    0.0000 H   0  0  0  0  0  0  0  0  0  0  0  0
    9.4711    7.9635    0.0000 H   0  0  0  0  0  0  0  0  0  0  0  0
   11.5475    6.9953    0.0000 H   0  0  0  0  0  0  0  0  0  0  0  0
   11.9181    7.7900    0.0000 H   0  0  0  0  0  0  0  0  0  0  0  0
   11.1234    8.1605    0.0000 H   0  0  0  0  0  0  0  0  0  0  0  0
    9.2440    7.4765    0.0000 H   0  0  0  0  0  0  0  0  0  0  0  0
    8.8735    6.6818    0.0000 H   0  0  0  0  0  0  0  0  0  0  0  0
    9.6681    6.3113    0.0000 H   0  0  0  0  0  0  0  0  0  0  0  0
    5.7932    0.1344    0.0000 H   0  0  0  0  0  0  0  0  0  0  0  0
    5.9796    5.3189    0.0000 H   0  0  0  0  0  0  0  0  0  0  0  0
    5.4244    5.9355    0.0000 H   0  0  0  0  0  0  0  0  0  0  0  0
    4.0490    3.5532    0.0000 H   0  0  0  0  0  0  0  0  0  0  0  0
    4.8606    3.3807    0.0000 H   0  0  0  0  0  0  0  0  0  0  0  0
    4.5730    6.1165    0.0000 H   0  0  0  0  0  0  0  0  0  0  0  0
    3.8150    5.7790    0.0000 H   0  0  0  0  0  0  0  0  0  0  0  0
    3.3798    5.0252    0.0000 H   0  0  0  0  0  0  0  0  0  0  0  0
    3.4666    4.2001    0.0000 H   0  0  0  0  0  0  0  0  0  0  0  0
    4.9272   -0.3656    0.0000 H   0  0  0  0  0  0  0  0  0  0  0  0
    8.1576    6.7512    0.0000 H   0  0  0  0  0  0  0  0  0  0  0  0
    7.7522   -1.7125    0.0000 H   0  0  0  0  0  0  0  0  0  0  0  0
    8.5991   -1.4856    0.0000 H   0  0  0  0  0  0  0  0  0  0  0  0
    8.3722   -0.6386    0.0000 H   0  0  0  0  0  0  0  0  0  0  0  0
    8.2331   -0.1196    0.0000 H   0  0  0  0  0  0  0  0  0  0  0  0
    8.0062    0.7274    0.0000 H   0  0  0  0  0  0  0  0  0  0  0  0
    7.1592    0.5004    0.0000 H   0  0  0  0  0  0  0  0  0  0  0  0
    6.1592   -1.2316    0.0000 H   0  0  0  0  0  0  0  0  0  0  0  0
    6.3862   -2.0785    0.0000 H   0  0  0  0  0  0  0  0  0  0  0  0
    7.2331   -1.8516    0.0000 H   0  0  0  0  0  0  0  0  0  0  0  0
    5.1350   -2.4856    0.0000 H   0  0  0  0  0  0  0  0  0  0  0  0
    3.7320   -2.2956    0.0000 H   0  0  0  0  0  0  0  0  0  0  0  0
    3.7320   -5.2956    0.0000 H   0  0  0  0  0  0  0  0  0  0  0  0
    4.3520   -0.6756    0.0000 H   0  0  0  0  0  0  0  0  0  0  0  0
    3.7320   -0.0556    0.0000 H   0  0  0  0  0  0  0  0  0  0  0  0
    3.1120   -0.6756    0.0000 H   0  0  0  0  0  0  0  0  0  0  0  0
    2.5560   -1.6386    0.0000 H   0  0  0  0  0  0  0  0  0  0  0  0
    2.3291   -2.4856    0.0000 H   0  0  0  0  0  0  0  0  0  0  0  0
    3.1760   -2.7125    0.0000 H   0  0  0  0  0  0  0  0  0  0  0  0
    4.1996   -5.6505    0.0000 H   0  0  0  0  0  0  0  0  0  0  0  0
    4.9966   -5.6505    0.0000 H   0  0  0  0  0  0  0  0  0  0  0  0
    5.1541   -4.2125    0.0000 H   0  0  0  0  0  0  0  0  0  0  0  0
    6.0010   -3.9856    0.0000 H   0  0  0  0  0  0  0  0  0  0  0  0
    5.7741   -3.1386    0.0000 H   0  0  0  0  0  0  0  0  0  0  0  0
    2.6540   -4.5930    0.0000 H   0  0  0  0  0  0  0  0  0  0  0  0
    2.2554   -5.2832    0.0000 H   0  0  0  0  0  0  0  0  0  0  0  0
    5.8626   -4.2006    0.0000 H   0  0  0  0  0  0  0  0  0  0  0  0
    5.0656   -4.2006    0.0000 H   0  0  0  0  0  0  0  0  0  0  0  0
    4.2690   -6.3656    0.0000 H   0  0  0  0  0  0  0  0  0  0  0  0
    1.4631   -6.3656    0.0000 H   0  0  0  0  0  0  0  0  0  0  0  0
    7.1962   -4.0556    0.0000 H   0  0  0  0  0  0  0  0  0  0  0  0
    5.7932   -6.4856    0.0000 H   0  0  0  0  0  0  0  0  0  0  0  0
    4.2690   -7.9856    0.0000 H   0  0  0  0  0  0  0  0  0  0  0  0
    1.4631   -7.9856    0.0000 H   0  0  0  0  0  0  0  0  0  0  0  0
    2.8660   -8.7956    0.0000 H   0  0  0  0  0  0  0  0  0  0  0  0
    8.5991   -4.8656    0.0000 H   0  0  0  0  0  0  0  0  0  0  0  0
    7.1962   -7.2956    0.0000 H   0  0  0  0  0  0  0  0  0  0  0  0
    8.5991   -6.4856    0.0000 H   0  0  0  0  0  0  0  0  0  0  0  0
  1 22  1  0  0  0  0
  1 83  1  0  0  0  0
  2 22  2  0  0  0  0
  3 23  2  0  0  0  0
  4 25  2  0  0  0  0
  5 29  1  0  0  0  0
  5108  1  0  0  0  0
  6 36  2  0  0  0  0
  7 37  2  0  0  0  0
  8 46  2  0  0  0  0
  9 49  2  0  0  0  0
 21 10  1  6  0  0  0
 10 25  1  0  0  0  0
 10 77  1  0  0  0  0
 11 23  1  0  0  0  0
 24 11  1  6  0  0  0
 11 78  1  0  0  0  0
 27 12  1  1  0  0  0
 12 36  1  0  0  0  0
 12 88  1  0  0  0  0
 13 37  1  0  0  0  0
 13 38  1  0  0  0  0
 13 39  1  0  0  0  0
 34 14  1  6  0  0  0
 14 46  1  0  0  0  0
 14107  1  0  0  0  0
 45 15  1  1  0  0  0
 15 49  1  0  0  0  0
 15 53  1  0  0  0  0
 16 17  1  0  0  0  0
 16 18  1  0  0  0  0
 16 21  1  0  0  0  0
 16 22  1  0  0  0  0
 17 19  1  0  0  0  0
 17 68  1  0  0  0  0
 17 69  1  0  0  0  0
 18 20  1  0  0  0  0
 18 70  1  0  0  0  0
 18 71  1  0  0  0  0
 19 20  1  0  0  0  0
 19 72  1  0  0  0  0
 19 73  1  0  0  0  0
 20 74  1  0  0  0  0
 20 75  1  0  0  0  0
 21 23  1  0  0  0  0
 21 76  1  0  0  0  0
 24 26  1  0  0  0  0
 24 29  1  0  0  0  0
 24 79  1  0  0  0  0
 25 27  1  0  0  0  0
 26 28  1  0  0  0  0
 26 80  1  0  0  0  0
 26 81  1  0  0  0  0
 27 30  1  0  0  0  0
 27 82  1  0  0  0  0
 28 31  1  0  0  0  0
 28 32  1  0  0  0  0
 28 33  1  0  0  0  0
 29 84  1  0  0  0  0
 29 85  1  0  0  0  0
 30 37  1  0  0  0  0
 30 86  1  0  0  0  0
 30 87  1  0  0  0  0
 31 89  1  0  0  0  0
 31 90  1  0  0  0  0
 31 91  1  0  0  0  0
 32 92  1  0  0  0  0
 32 93  1  0  0  0  0
 32 94  1  0  0  0  0
 33 95  1  0  0  0  0
 33 96  1  0  0  0  0
 33 97  1  0  0  0  0
 34 35  1  0  0  0  0
 34 36  1  0  0  0  0
 34 98  1  0  0  0  0
 35 42  1  0  0  0  0
 35 43  1  0  0  0  0
 35 44  1  0  0  0  0
 38 40  1  0  0  0  0
 38 99  1  0  0  0  0
 38100  1  0  0  0  0
 39 41  1  0  0  0  0
 39101  1  0  0  0  0
 39102  1  0  0  0  0
 40 41  1  0  0  0  0
 40103  1  0  0  0  0
 40104  1  0  0  0  0
 41105  1  0  0  0  0
 41106  1  0  0  0  0
 42109  1  0  0  0  0
 42110  1  0  0  0  0
 42111  1  0  0  0  0
 43112  1  0  0  0  0
 43113  1  0  0  0  0
 43114  1  0  0  0  0
 44115  1  0  0  0  0
 44116  1  0  0  0  0
 44117  1  0  0  0  0
 45 46  1  0  0  0  0
 45 47  1  0  0  0  0
 45118  1  0  0  0  0
 47 50  1  0  0  0  0
 47 51  1  0  0  0  0
 47119  1  0  0  0  0
 48 49  1  0  0  0  0
 48 52  1  0  0  0  0
 48 54  1  0  0  0  0
 48120  1  0  0  0  0
 50121  1  0  0  0  0
 50122  1  0  0  0  0
 50123  1  0  0  0  0
 51124  1  0  0  0  0
 51125  1  0  0  0  0
 51126  1  0  0  0  0
 52 55  1  0  0  0  0
 52127  1  0  0  0  0
 52128  1  0  0  0  0
 53129  1  0  0  0  0
 53130  1  0  0  0  0
 53131  1  0  0  0  0
 54 56  1  0  0  0  0
 54132  1  0  0  0  0
 54133  1  0  0  0  0
 55 57  1  0  0  0  0
 55134  1  0  0  0  0
 55135  1  0  0  0  0
 56 58  2  0  0  0  0
 56 59  1  0  0  0  0
 57 60  2  0  0  0  0
 57 61  1  0  0  0  0
 58 62  1  0  0  0  0
 58136  1  0  0  0  0
 59 63  2  0  0  0  0
 59137  1  0  0  0  0
 60 65  1  0  0  0  0
 60138  1  0  0  0  0
 61 66  2  0  0  0  0
 61139  1  0  0  0  0
 62 64  2  0  0  0  0
 62140  1  0  0  0  0
 63 64  1  0  0  0  0
 63141  1  0  0  0  0
 64142  1  0  0  0  0
 65 67  2  0  0  0  0
 65143  1  0  0  0  0
 66 67  1  0  0  0  0
 66144  1  0  0  0  0
 67145  1  0  0  0  0
M  END
> <PUBCHEM_COMPOUND_CID>
515297
> <PUBCHEM_COMPOUND_CANONICALIZED>
1
> <PUBCHEM_CACTVS_COMPLEXITY>
1670
> <PUBCHEM_CACTVS_HBOND_ACCEPTOR>
9
> <PUBCHEM_CACTVS_HBOND_DONOR>
6
> <PUBCHEM_CACTVS_ROTATABLE_BOND>
24
> <PUBCHEM_CACTVS_SUBSKEYS>
AAADcfB/vAAAAAAAAAAAAAAAAAAAAeIAAAAwYAAAAAAAAAABQAAAHgAQCAAADyjhmAYyCIPAAgCIAiHSGAACAAAgAAAIiIGIAIgKcDqA0TCUYAAmlgCYiAe/yMCPAAAAAAAAAAAAAAAAAAAAAAAAAAAAAA==
> <PUBCHEM_IUPAC_OPENEYE_NAME>
1-[(1S)-1-[[(2S)-2-[[(2S)-2-[[(2S)-2-[(2-benzyl-4-phenyl-butanoyl)-methyl-amino]-3-methyl-butanoyl]amino]-3,3-dimethyl-butanoyl]amino]-4-oxo-4-pyrrolidin-1-yl-butanoyl]amino]-2-[[(1S)-1-(hydroxymethyl)-3,3-dimethyl-butyl]amino]-2-oxo-ethyl]cyclopentanecarboxylic acid
> <PUBCHEM_IUPAC_CAS_NAME>
1-[(1S)-1-[[(2S)-2-[[(2S)-3,3-dimethyl-2-[[(2S)-3-methyl-2-[methyl-[1-oxo-4-phenyl-2-(phenylmethyl)butyl]amino]-1-oxobutyl]amino]-1-oxobutyl]amino]-1,4-dioxo-4-(1-pyrrolidinyl)butyl]amino]-2-[[(2S)-1-hydroxy-4,4-dimethylpentan-2-yl]amino]-2-oxoethyl]-1-cyclopentanecarboxylic acid
> <PUBCHEM_IUPAC_NAME_MARKUP>
1-[(1<I>S</I>)-1-[[(2<I>S</I>)-2-[[(2<I>S</I>)-2-[[(2<I>S</I>)-2-[(2-benzyl-4-phenylbutanoyl)-methylamino]-3-methylbutanoyl]amino]-3,3-dimethylbutanoyl]amino]-4-oxo-4-pyrrolidin-1-ylbutanoyl]amino]-2-[[(2<I>S</I>)-1-hydroxy-4,4-dimethylpentan-2-yl]amino]-2-oxoethyl]cyclopentane-1-carboxylic acid
> <PUBCHEM_IUPAC_NAME>
1-[(1S)-1-[[(2S)-2-[[(2S)-2-[[(2S)-2-[(2-benzyl-4-phenylbutanoyl)-methylamino]-3-methylbutanoyl]amino]-3,3-dimethylbutanoyl]amino]-4-oxo-4-pyrrolidin-1-ylbutanoyl]amino]-2-[[(2S)-1-hydroxy-4,4-dimethylpentan-2-yl]amino]-2-oxoethyl]cyclopentane-1-carboxylic acid
> <PUBCHEM_IUPAC_SYSTEMATIC_NAME>
1-[(1S)-1-[[(2S)-2-[[(2S)-3,3-dimethyl-2-[[(2S)-3-methyl-2-[methyl-[4-phenyl-2-(phenylmethyl)butanoyl]amino]butanoyl]amino]butanoyl]amino]-4-oxidanylidene-4-pyrrolidin-1-yl-butanoyl]amino]-2-[[(2S)-4,4-dimethyl-1-oxidanyl-pentan-2-yl]amino]-2-oxidanylidene-ethyl]cyclopentane-1-carboxylic acid
> <PUBCHEM_IUPAC_TRADITIONAL_NAME>
1-[(1S)-1-[[(2S)-2-[[(2S)-2-[[(2S)-2-[(2-benzyl-4-phenyl-butanoyl)-methyl-amino]-3-methyl-butanoyl]amino]-3,3-dimethyl-butanoyl]amino]-4-keto-4-pyrrolidino-butanoyl]amino]-2-[[(1S)-3,3-dimethyl-1-methylol-butyl]amino]-2-keto-ethyl]cyclopentanecarboxylic acid
> <PUBCHEM_IUPAC_INCHI>
InChI=1S/C52H78N6O9/c1-34(2)41(57(9)48(65)37(30-36-22-14-11-15-23-36)25-24-35-20-12-10-13-21-35)45(62)55-42(51(6,7)8)46(63)54-39(31-40(60)58-28-18-19-29-58)44(61)56-43(52(49(66)67)26-16-17-27-52)47(64)53-38(33-59)32-50(3,4)5/h10-15,20-23,34,37-39,41-43,59H,16-19,24-33H2,1-9H3,(H,53,64)(H,54,63)(H,55,62)(H,56,61)(H,66,67)/t37?,38-,39-,41-,42+,43+/m0/s1
> <PUBCHEM_IUPAC_INCHIKEY>
JNXVUBMANLVBMI-DTBLAJNRSA-N
> <PUBCHEM_XLOGP3_AA>
6.8
> <PUBCHEM_EXACT_MASS>
930.58302809
> <PUBCHEM_MOLECULAR_FORMULA>
C52H78N6O9
> <PUBCHEM_MOLECULAR_WEIGHT>
931.2
> <PUBCHEM_OPENEYE_CAN_SMILES>
CC(C)C(C(=O)NC(C(=O)NC(CC(=O)N1CCCC1)C(=O)NC(C(=O)NC(CC(C)(C)C)CO)C2(CCCC2)C(=O)O)C(C)(C)C)N(C)C(=O)C(CCC3=CC=CC=C3)CC4=CC=CC=C4
> <PUBCHEM_OPENEYE_ISO_SMILES>
CC(C)[C@@H](C(=O)N[C@H](C(=O)N[C@@H](CC(=O)N1CCCC1)C(=O)N[C@H](C(=O)N[C@@H](CC(C)(C)C)CO)C2(CCCC2)C(=O)O)C(C)(C)C)N(C)C(=O)C(CCC3=CC=CC=C3)CC4=CC=CC=C4
> <PUBCHEM_CACTVS_TPSA>
215
> <PUBCHEM_MONOISOTOPIC_WEIGHT>
930.58302809
> <PUBCHEM_TOTAL_CHARGE>
0
> <PUBCHEM_HEAVY_ATOM_COUNT>
67
> <PUBCHEM_ATOM_DEF_STEREO_COUNT>
5
> <PUBCHEM_ATOM_UDEF_STEREO_COUNT>
1
> <PUBCHEM_BOND_DEF_STEREO_COUNT>
0
> <PUBCHEM_BOND_UDEF_STEREO_COUNT>
0
> <PUBCHEM_ISOTOPIC_ATOM_COUNT>
0
> <PUBCHEM_COMPONENT_COUNT>
1
> <PUBCHEM_CACTVS_TAUTO_COUNT>
-1
> <PUBCHEM_COORDINATE_TYPE>
1
5
255
> <PUBCHEM_BONDANNOTATIONS>
21  10  6
24  11  6
27  12  5
34  14  6
45  15  5
48  52  3
56  58  8
56  59  8
57  60  8
57  61  8
58  62  8
59  63  8
60  65  8
61  66  8
62  64  8
63  64  8
65  67  8
66  67  8
$$$$
