515282
  -OEChem-10302200282D
 91 91  0     1  0  0  0  0  0999 V2000
    8.0622    1.9806    0.0000 O   0  0  0  0  0  0  0  0  0  0  0  0
   11.5263    1.9806    0.0000 O   0  0  0  0  0  0  0  0  0  0  0  0
   11.5263    0.9806    0.0000 O   0  0  0  0  0  0  0  0  0  0  0  0
    5.4641   -0.5194    0.0000 O   0  0  0  0  0  0  0  0  0  0  0  0
   12.3923   -2.5194    0.0000 O   0  0  0  0  0  0  0  0  0  0  0  0
   14.1244   -0.5194    0.0000 O   0  0  0  0  0  0  0  0  0  0  0  0
   13.2583   -2.0194    0.0000 O   0  0  0  0  0  0  0  0  0  0  0  0
   10.6603    3.4806    0.0000 N   0  0  0  0  0  0  0  0  0  0  0  0
    8.9282    0.4806    0.0000 N   0  0  0  0  0  0  0  0  0  0  0  0
    6.3301    0.9806    0.0000 N   0  0  0  0  0  0  0  0  0  0  0  0
   10.6603   -0.5194    0.0000 N   0  0  0  0  0  0  0  0  0  0  0  0
    4.5981    0.9806    0.0000 N   0  0  0  0  0  0  0  0  0  0  0  0
   10.6603   -2.5194    0.0000 N   0  0  0  0  0  0  0  0  0  0  0  0
    7.1962   -0.5194    0.0000 C   0  0  0  0  0  0  0  0  0  0  0  0
    7.1962    0.4806    0.0000 C   0  0  1  0  0  0  0  0  0  0  0  0
   11.4693    4.0684    0.0000 C   0  0  0  0  0  0  0  0  0  0  0  0
    9.8512    4.0684    0.0000 C   0  0  0  0  0  0  0  0  0  0  0  0
   11.1603    5.0194    0.0000 C   0  0  0  0  0  0  0  0  0  0  0  0
   10.1603    5.0194    0.0000 C   0  0  0  0  0  0  0  0  0  0  0  0
    9.7942    0.9806    0.0000 C   0  0  1  0  0  0  0  0  0  0  0  0
    9.7942    1.9806    0.0000 C   0  0  0  0  0  0  0  0  0  0  0  0
    7.1962   -1.5194    0.0000 C   0  0  0  0  0  0  0  0  0  0  0  0
    6.1962   -0.5194    0.0000 C   0  0  0  0  0  0  0  0  0  0  0  0
    8.1962   -0.5194    0.0000 C   0  0  0  0  0  0  0  0  0  0  0  0
    8.0622    0.9806    0.0000 C   0  0  0  0  0  0  0  0  0  0  0  0
   10.6603    2.4806    0.0000 C   0  0  0  0  0  0  0  0  0  0  0  0
   10.6603    0.4806    0.0000 C   0  0  0  0  0  0  0  0  0  0  0  0
    5.4641    0.4806    0.0000 C   0  0  0  0  0  0  0  0  0  0  0  0
    3.7320    0.4806    0.0000 C   0  0  0  0  0  0  0  0  0  0  0  0
   11.5263   -1.0194    0.0000 C   0  0  1  0  0  0  0  0  0  0  0  0
    2.8660    0.9806    0.0000 C   0  0  0  0  0  0  0  0  0  0  0  0
    3.7320   -0.5194    0.0000 C   0  0  0  0  0  0  0  0  0  0  0  0
   12.3923   -0.5194    0.0000 C   0  0  0  0  0  0  0  0  0  0  0  0
   11.5263   -2.0194    0.0000 C   0  0  0  0  0  0  0  0  0  0  0  0
    2.0000    0.4806    0.0000 C   0  0  0  0  0  0  0  0  0  0  0  0
    2.8660   -1.0194    0.0000 C   0  0  0  0  0  0  0  0  0  0  0  0
   10.6603   -3.5194    0.0000 C   0  0  0  0  0  0  0  0  0  0  0  0
    9.7942   -4.0194    0.0000 C   0  0  0  0  0  0  0  0  0  0  0  0
   13.2583   -1.0194    0.0000 C   0  0  0  0  0  0  0  0  0  0  0  0
    9.7942   -5.0194    0.0000 C   0  0  0  0  0  0  0  0  0  0  0  0
    8.9282   -3.5194    0.0000 C   0  0  0  0  0  0  0  0  0  0  0  0
    6.6592    0.1706    0.0000 H   0  0  0  0  0  0  0  0  0  0  0  0
   11.7793    3.5314    0.0000 H   0  0  0  0  0  0  0  0  0  0  0  0
   12.0357    4.3205    0.0000 H   0  0  0  0  0  0  0  0  0  0  0  0
    9.2848    4.3205    0.0000 H   0  0  0  0  0  0  0  0  0  0  0  0
    9.5412    3.5314    0.0000 H   0  0  0  0  0  0  0  0  0  0  0  0
   11.7667    5.1483    0.0000 H   0  0  0  0  0  0  0  0  0  0  0  0
   11.0954    5.6360    0.0000 H   0  0  0  0  0  0  0  0  0  0  0  0
   10.2251    5.6360    0.0000 H   0  0  0  0  0  0  0  0  0  0  0  0
    9.5538    5.1483    0.0000 H   0  0  0  0  0  0  0  0  0  0  0  0
    9.2573    1.2906    0.0000 H   0  0  0  0  0  0  0  0  0  0  0  0
    9.5822    2.5632    0.0000 H   0  0  0  0  0  0  0  0  0  0  0  0
    9.1836    1.8729    0.0000 H   0  0  0  0  0  0  0  0  0  0  0  0
    6.5762   -1.5194    0.0000 H   0  0  0  0  0  0  0  0  0  0  0  0
    7.1962   -2.1394    0.0000 H   0  0  0  0  0  0  0  0  0  0  0  0
    7.8162   -1.5194    0.0000 H   0  0  0  0  0  0  0  0  0  0  0  0
    6.1962    0.1006    0.0000 H   0  0  0  0  0  0  0  0  0  0  0  0
    5.5762   -0.5194    0.0000 H   0  0  0  0  0  0  0  0  0  0  0  0
    6.1962   -1.1394    0.0000 H   0  0  0  0  0  0  0  0  0  0  0  0
    8.1962   -1.1394    0.0000 H   0  0  0  0  0  0  0  0  0  0  0  0
    8.8162   -0.5194    0.0000 H   0  0  0  0  0  0  0  0  0  0  0  0
    8.1962    0.1006    0.0000 H   0  0  0  0  0  0  0  0  0  0  0  0
    8.9282   -0.1394    0.0000 H   0  0  0  0  0  0  0  0  0  0  0  0
    6.3301    1.6006    0.0000 H   0  0  0  0  0  0  0  0  0  0  0  0
    3.7320    1.1006    0.0000 H   0  0  0  0  0  0  0  0  0  0  0  0
   10.1233   -0.8294    0.0000 H   0  0  0  0  0  0  0  0  0  0  0  0
    4.5981    1.6006    0.0000 H   0  0  0  0  0  0  0  0  0  0  0  0
   10.9893   -1.3294    0.0000 H   0  0  0  0  0  0  0  0  0  0  0  0
    3.2646    1.4555    0.0000 H   0  0  0  0  0  0  0  0  0  0  0  0
    2.4675    1.4555    0.0000 H   0  0  0  0  0  0  0  0  0  0  0  0
    3.9441   -1.1020    0.0000 H   0  0  0  0  0  0  0  0  0  0  0  0
    4.3426   -0.4118    0.0000 H   0  0  0  0  0  0  0  0  0  0  0  0
   12.7908   -0.0445    0.0000 H   0  0  0  0  0  0  0  0  0  0  0  0
   11.9938   -0.0445    0.0000 H   0  0  0  0  0  0  0  0  0  0  0  0
    1.6900    1.0175    0.0000 H   0  0  0  0  0  0  0  0  0  0  0  0
    1.4631    0.1706    0.0000 H   0  0  0  0  0  0  0  0  0  0  0  0
    2.3100   -0.0564    0.0000 H   0  0  0  0  0  0  0  0  0  0  0  0
    2.5560   -0.4825    0.0000 H   0  0  0  0  0  0  0  0  0  0  0  0
    2.3291   -1.3294    0.0000 H   0  0  0  0  0  0  0  0  0  0  0  0
    3.1760   -1.5564    0.0000 H   0  0  0  0  0  0  0  0  0  0  0  0
   10.8723   -4.1020    0.0000 H   0  0  0  0  0  0  0  0  0  0  0  0
   11.2708   -3.4118    0.0000 H   0  0  0  0  0  0  0  0  0  0  0  0
   10.1233   -2.2094    0.0000 H   0  0  0  0  0  0  0  0  0  0  0  0
    9.2573   -4.3294    0.0000 H   0  0  0  0  0  0  0  0  0  0  0  0
    9.1742   -5.0194    0.0000 H   0  0  0  0  0  0  0  0  0  0  0  0
    9.7942   -5.6394    0.0000 H   0  0  0  0  0  0  0  0  0  0  0  0
   10.4142   -5.0194    0.0000 H   0  0  0  0  0  0  0  0  0  0  0  0
    9.2382   -2.9825    0.0000 H   0  0  0  0  0  0  0  0  0  0  0  0
    8.3913   -3.2094    0.0000 H   0  0  0  0  0  0  0  0  0  0  0  0
    8.6182   -4.0564    0.0000 H   0  0  0  0  0  0  0  0  0  0  0  0
   14.6613   -0.8294    0.0000 H   0  0  0  0  0  0  0  0  0  0  0  0
  1 25  2  0  0  0  0
  2 26  2  0  0  0  0
  3 27  2  0  0  0  0
  4 28  2  0  0  0  0
  5 34  2  0  0  0  0
  6 39  1  0  0  0  0
  6 91  1  0  0  0  0
  7 39  2  0  0  0  0
  8 16  1  0  0  0  0
  8 17  1  0  0  0  0
  8 26  1  0  0  0  0
 20  9  1  1  0  0  0
  9 25  1  0  0  0  0
  9 63  1  0  0  0  0
 15 10  1  6  0  0  0
 10 28  1  0  0  0  0
 10 64  1  0  0  0  0
 11 27  1  0  0  0  0
 30 11  1  1  0  0  0
 11 66  1  0  0  0  0
 12 28  1  0  0  0  0
 12 29  1  0  0  0  0
 12 67  1  0  0  0  0
 13 34  1  0  0  0  0
 13 37  1  0  0  0  0
 13 83  1  0  0  0  0
 14 15  1  0  0  0  0
 14 22  1  0  0  0  0
 14 23  1  0  0  0  0
 14 24  1  0  0  0  0
 15 25  1  0  0  0  0
 15 42  1  0  0  0  0
 16 18  1  0  0  0  0
 16 43  1  0  0  0  0
 16 44  1  0  0  0  0
 17 19  1  0  0  0  0
 17 45  1  0  0  0  0
 17 46  1  0  0  0  0
 18 19  1  0  0  0  0
 18 47  1  0  0  0  0
 18 48  1  0  0  0  0
 19 49  1  0  0  0  0
 19 50  1  0  0  0  0
 20 21  1  0  0  0  0
 20 27  1  0  0  0  0
 20 51  1  0  0  0  0
 21 26  1  0  0  0  0
 21 52  1  0  0  0  0
 21 53  1  0  0  0  0
 22 54  1  0  0  0  0
 22 55  1  0  0  0  0
 22 56  1  0  0  0  0
 23 57  1  0  0  0  0
 23 58  1  0  0  0  0
 23 59  1  0  0  0  0
 24 60  1  0  0  0  0
 24 61  1  0  0  0  0
 24 62  1  0  0  0  0
 29 31  1  0  0  0  0
 29 32  1  0  0  0  0
 29 65  1  0  0  0  0
 30 33  1  0  0  0  0
 30 34  1  0  0  0  0
 30 68  1  0  0  0  0
 31 35  1  0  0  0  0
 31 69  1  0  0  0  0
 31 70  1  0  0  0  0
 32 36  1  0  0  0  0
 32 71  1  0  0  0  0
 32 72  1  0  0  0  0
 33 39  1  0  0  0  0
 33 73  1  0  0  0  0
 33 74  1  0  0  0  0
 35 75  1  0  0  0  0
 35 76  1  0  0  0  0
 35 77  1  0  0  0  0
 36 78  1  0  0  0  0
 36 79  1  0  0  0  0
 36 80  1  0  0  0  0
 37 38  1  0  0  0  0
 37 81  1  0  0  0  0
 37 82  1  0  0  0  0
 38 40  1  0  0  0  0
 38 41  1  0  0  0  0
 38 84  1  0  0  0  0
 40 85  1  0  0  0  0
 40 86  1  0  0  0  0
 40 87  1  0  0  0  0
 41 88  1  0  0  0  0
 41 89  1  0  0  0  0
 41 90  1  0  0  0  0
M  END
> <PUBCHEM_COMPOUND_CID>
515282
> <PUBCHEM_COMPOUND_CANONICALIZED>
1
> <PUBCHEM_CACTVS_COMPLEXITY>
923
> <PUBCHEM_CACTVS_HBOND_ACCEPTOR>
7
> <PUBCHEM_CACTVS_HBOND_DONOR>
6
> <PUBCHEM_CACTVS_ROTATABLE_BOND>
16
> <PUBCHEM_CACTVS_SUBSKEYS>
AAADcfB7uAAAAAAAAAAAAAAAAAAAAWAAAAAAAAAAAAAAAAAAAAAAHgAQCAAADyjBgAQDCAPAAgAIAAGQGAAAAAAAAAAAAIGIAACAQBoAwCAUQAAOFgKAAAAnAAAJAAAAAAAAAAAAAAAAAAAAAAAAAAAAAA==
> <PUBCHEM_IUPAC_OPENEYE_NAME>
(3S)-3-[[(2S)-2-[[(2S)-2-(1-ethylpropylcarbamoylamino)-3,3-dimethyl-butanoyl]amino]-4-oxo-4-pyrrolidin-1-yl-butanoyl]amino]-4-(isobutylamino)-4-oxo-butanoic acid
> <PUBCHEM_IUPAC_CAS_NAME>
(3S)-3-[[(2S)-2-[[(2S)-3,3-dimethyl-1-oxo-2-[[oxo-(pentan-3-ylamino)methyl]amino]butyl]amino]-1,4-dioxo-4-(1-pyrrolidinyl)butyl]amino]-4-(2-methylpropylamino)-4-oxobutanoic acid
> <PUBCHEM_IUPAC_NAME_MARKUP>
(3<I>S</I>)-3-[[(2<I>S</I>)-2-[[(2<I>S</I>)-3,3-dimethyl-2-(pentan-3-ylcarbamoylamino)butanoyl]amino]-4-oxo-4-pyrrolidin-1-ylbutanoyl]amino]-4-(2-methylpropylamino)-4-oxobutanoic acid
> <PUBCHEM_IUPAC_NAME>
(3S)-3-[[(2S)-2-[[(2S)-3,3-dimethyl-2-(pentan-3-ylcarbamoylamino)butanoyl]amino]-4-oxo-4-pyrrolidin-1-ylbutanoyl]amino]-4-(2-methylpropylamino)-4-oxobutanoic acid
> <PUBCHEM_IUPAC_SYSTEMATIC_NAME>
(3S)-3-[[(2S)-2-[[(2S)-3,3-dimethyl-2-(pentan-3-ylcarbamoylamino)butanoyl]amino]-4-oxidanylidene-4-pyrrolidin-1-yl-butanoyl]amino]-4-(2-methylpropylamino)-4-oxidanylidene-butanoic acid
> <PUBCHEM_IUPAC_TRADITIONAL_NAME>
(3S)-3-[[(2S)-2-[[(2S)-2-(1-ethylpropylcarbamoylamino)-3,3-dimethyl-butanoyl]amino]-4-keto-4-pyrrolidino-butanoyl]amino]-4-(isobutylamino)-4-keto-butyric acid
> <PUBCHEM_IUPAC_INCHI>
InChI=1S/C28H50N6O7/c1-8-18(9-2)30-27(41)33-23(28(5,6)7)26(40)32-19(14-21(35)34-12-10-11-13-34)25(39)31-20(15-22(36)37)24(38)29-16-17(3)4/h17-20,23H,8-16H2,1-7H3,(H,29,38)(H,31,39)(H,32,40)(H,36,37)(H2,30,33,41)/t19-,20-,23+/m0/s1
> <PUBCHEM_IUPAC_INCHIKEY>
KRQIXWLSEPGFQM-SXWKCWPCSA-N
> <PUBCHEM_XLOGP3_AA>
1.8
> <PUBCHEM_EXACT_MASS>
582.37409796
> <PUBCHEM_MOLECULAR_FORMULA>
C28H50N6O7
> <PUBCHEM_MOLECULAR_WEIGHT>
582.7
> <PUBCHEM_OPENEYE_CAN_SMILES>
CCC(CC)NC(=O)NC(C(=O)NC(CC(=O)N1CCCC1)C(=O)NC(CC(=O)O)C(=O)NCC(C)C)C(C)(C)C
> <PUBCHEM_OPENEYE_ISO_SMILES>
CCC(CC)NC(=O)N[C@H](C(=O)N[C@@H](CC(=O)N1CCCC1)C(=O)N[C@@H](CC(=O)O)C(=O)NCC(C)C)C(C)(C)C
> <PUBCHEM_CACTVS_TPSA>
186
> <PUBCHEM_MONOISOTOPIC_WEIGHT>
582.37409796
> <PUBCHEM_TOTAL_CHARGE>
0
> <PUBCHEM_HEAVY_ATOM_COUNT>
41
> <PUBCHEM_ATOM_DEF_STEREO_COUNT>
3
> <PUBCHEM_ATOM_UDEF_STEREO_COUNT>
0
> <PUBCHEM_BOND_DEF_STEREO_COUNT>
0
> <PUBCHEM_BOND_UDEF_STEREO_COUNT>
0
> <PUBCHEM_ISOTOPIC_ATOM_COUNT>
0
> <PUBCHEM_COMPONENT_COUNT>
1
> <PUBCHEM_CACTVS_TAUTO_COUNT>
-1
> <PUBCHEM_COORDINATE_TYPE>
1
5
255
> <PUBCHEM_BONDANNOTATIONS>
15  10  6
30  11  5
20  9  5
$$$$
