515291
  -OEChem-10302200282D
118120  0     1  0  0  0  0  0999 V2000
   10.2654    4.3390    0.0000 O   0  0  0  0  0  0  0  0  0  0  0  0
   11.1832    2.8701    0.0000 O   0  0  0  0  0  0  0  0  0  0  0  0
   10.6603    0.3700    0.0000 O   0  0  0  0  0  0  0  0  0  0  0  0
    9.7942   -0.1300    0.0000 O   0  0  0  0  0  0  0  0  0  0  0  0
    5.4641   -1.6300    0.0000 O   0  0  0  0  0  0  0  0  0  0  0  0
    6.3301   -1.1300    0.0000 O   0  0  0  0  0  0  0  0  0  0  0  0
    9.7942   -1.1300    0.0000 O   0  0  0  0  0  0  0  0  0  0  0  0
    8.9282    1.3700    0.0000 N   0  0  0  0  0  0  0  0  0  0  0  0
    3.7320   -1.6300    0.0000 N   0  0  0  0  0  0  0  0  0  0  0  0
   11.6603    1.3700    0.0000 N   0  0  0  0  0  0  0  0  0  0  0  0
    4.5981   -0.1300    0.0000 N   0  0  0  0  0  0  0  0  0  0  0  0
    8.9282   -2.6300    0.0000 N   0  0  0  0  0  0  0  0  0  0  0  0
    9.4522    2.8097    0.0000 C   0  0  0  0  0  0  0  0  0  0  0  0
    8.5125    2.4676    0.0000 C   0  0  0  0  0  0  0  0  0  0  0  0
    9.4173    3.8090    0.0000 C   0  0  0  0  0  0  0  0  0  0  0  0
    9.7942    1.8700    0.0000 C   0  0  1  0  0  0  0  0  0  0  0  0
    7.8968    3.2556    0.0000 C   0  0  0  0  0  0  0  0  0  0  0  0
    8.4560    4.0847    0.0000 C   0  0  0  0  0  0  0  0  0  0  0  0
    3.7320   -2.6300    0.0000 C   0  0  0  0  0  0  0  0  0  0  0  0
    2.8660   -3.1300    0.0000 C   0  0  2  0  0  0  0  0  0  0  0  0
    4.5981   -3.1300    0.0000 C   0  0  1  0  0  0  0  0  0  0  0  0
   10.3003    3.3396    0.0000 C   0  0  0  0  0  0  0  0  0  0  0  0
    2.8660   -4.1300    0.0000 C   0  0  0  0  0  0  0  0  0  0  0  0
    4.5981   -4.1300    0.0000 C   0  0  0  0  0  0  0  0  0  0  0  0
    3.7320   -4.6300    0.0000 C   0  0  0  0  0  0  0  0  0  0  0  0
   10.6603    1.3700    0.0000 C   0  0  0  0  0  0  0  0  0  0  0  0
   12.1603    0.5039    0.0000 C   0  0  1  0  0  0  0  0  0  0  0  0
    2.0000   -2.6300    0.0000 C   0  0  0  0  0  0  0  0  0  0  0  0
    5.4641   -2.6300    0.0000 C   0  0  0  0  0  0  0  0  0  0  0  0
   13.1603    0.5039    0.0000 C   0  0  0  0  0  0  0  0  0  0  0  0
    8.9282    0.3700    0.0000 C   0  0  0  0  0  0  0  0  0  0  0  0
    8.0622   -0.1300    0.0000 C   0  0  2  0  0  0  0  0  0  0  0  0
    5.4641    0.3700    0.0000 C   0  0  1  0  0  0  0  0  0  0  0  0
    7.1962    0.3700    0.0000 C   0  0  0  0  0  0  0  0  0  0  0  0
    5.4641    1.3700    0.0000 C   0  0  0  0  0  0  0  0  0  0  0  0
   11.6603   -0.3621    0.0000 C   0  0  0  0  0  0  0  0  0  0  0  0
    4.5981   -1.1300    0.0000 C   0  0  0  0  0  0  0  0  0  0  0  0
    8.0622   -1.1300    0.0000 C   0  0  0  0  0  0  0  0  0  0  0  0
    6.3301   -0.1300    0.0000 C   0  0  0  0  0  0  0  0  0  0  0  0
   14.1603    0.5039    0.0000 C   0  0  0  0  0  0  0  0  0  0  0  0
   13.1603   -0.4961    0.0000 C   0  0  0  0  0  0  0  0  0  0  0  0
   13.1603    1.5039    0.0000 C   0  0  0  0  0  0  0  0  0  0  0  0
    8.9282   -1.6300    0.0000 C   0  0  0  0  0  0  0  0  0  0  0  0
    5.4641    2.3700    0.0000 C   0  0  0  0  0  0  0  0  0  0  0  0
    6.4641    1.3700    0.0000 C   0  0  0  0  0  0  0  0  0  0  0  0
    4.4641    1.3700    0.0000 C   0  0  0  0  0  0  0  0  0  0  0  0
   12.1603   -1.2281    0.0000 C   0  0  0  0  0  0  0  0  0  0  0  0
    8.1192   -3.2178    0.0000 C   0  0  0  0  0  0  0  0  0  0  0  0
    9.7372   -3.2178    0.0000 C   0  0  0  0  0  0  0  0  0  0  0  0
    8.4282   -4.1689    0.0000 C   0  0  0  0  0  0  0  0  0  0  0  0
    9.4282   -4.1689    0.0000 C   0  0  0  0  0  0  0  0  0  0  0  0
    7.9867    2.1391    0.0000 H   0  0  0  0  0  0  0  0  0  0  0  0
    8.7843    1.9104    0.0000 H   0  0  0  0  0  0  0  0  0  0  0  0
   10.0358    3.7658    0.0000 H   0  0  0  0  0  0  0  0  0  0  0  0
    9.5250    4.4196    0.0000 H   0  0  0  0  0  0  0  0  0  0  0  0
    9.7942    1.2500    0.0000 H   0  0  0  0  0  0  0  0  0  0  0  0
    7.4219    3.6542    0.0000 H   0  0  0  0  0  0  0  0  0  0  0  0
    7.4509    2.8250    0.0000 H   0  0  0  0  0  0  0  0  0  0  0  0
    8.6883    4.6595    0.0000 H   0  0  0  0  0  0  0  0  0  0  0  0
    7.9086    4.3758    0.0000 H   0  0  0  0  0  0  0  0  0  0  0  0
    4.2690   -2.3200    0.0000 H   0  0  0  0  0  0  0  0  0  0  0  0
    2.8660   -2.5100    0.0000 H   0  0  0  0  0  0  0  0  0  0  0  0
    5.1350   -3.4400    0.0000 H   0  0  0  0  0  0  0  0  0  0  0  0
    2.2554   -4.0224    0.0000 H   0  0  0  0  0  0  0  0  0  0  0  0
    2.6540   -4.7126    0.0000 H   0  0  0  0  0  0  0  0  0  0  0  0
    4.8101   -4.7126    0.0000 H   0  0  0  0  0  0  0  0  0  0  0  0
    5.2087   -4.0224    0.0000 H   0  0  0  0  0  0  0  0  0  0  0  0
    3.3335   -5.1050    0.0000 H   0  0  0  0  0  0  0  0  0  0  0  0
    4.1306   -5.1050    0.0000 H   0  0  0  0  0  0  0  0  0  0  0  0
    8.3913    1.6800    0.0000 H   0  0  0  0  0  0  0  0  0  0  0  0
   11.5403    0.5039    0.0000 H   0  0  0  0  0  0  0  0  0  0  0  0
    2.3100   -2.0931    0.0000 H   0  0  0  0  0  0  0  0  0  0  0  0
    1.4631   -2.3200    0.0000 H   0  0  0  0  0  0  0  0  0  0  0  0
    1.6900   -3.1670    0.0000 H   0  0  0  0  0  0  0  0  0  0  0  0
    5.7741   -3.1670    0.0000 H   0  0  0  0  0  0  0  0  0  0  0  0
    6.0010   -2.3200    0.0000 H   0  0  0  0  0  0  0  0  0  0  0  0
    5.1541   -2.0931    0.0000 H   0  0  0  0  0  0  0  0  0  0  0  0
    3.1951   -1.3200    0.0000 H   0  0  0  0  0  0  0  0  0  0  0  0
   11.9703    1.9069    0.0000 H   0  0  0  0  0  0  0  0  0  0  0  0
    8.5991    0.1800    0.0000 H   0  0  0  0  0  0  0  0  0  0  0  0
    5.4641   -0.2500    0.0000 H   0  0  0  0  0  0  0  0  0  0  0  0
    7.5947    0.8449    0.0000 H   0  0  0  0  0  0  0  0  0  0  0  0
    6.7976    0.8449    0.0000 H   0  0  0  0  0  0  0  0  0  0  0  0
   11.1853    0.0364    0.0000 H   0  0  0  0  0  0  0  0  0  0  0  0
   11.1853   -0.7606    0.0000 H   0  0  0  0  0  0  0  0  0  0  0  0
    9.7179    4.6300    0.0000 H   0  0  0  0  0  0  0  0  0  0  0  0
    7.4516   -1.0224    0.0000 H   0  0  0  0  0  0  0  0  0  0  0  0
    7.8501   -1.7126    0.0000 H   0  0  0  0  0  0  0  0  0  0  0  0
    4.0611    0.1800    0.0000 H   0  0  0  0  0  0  0  0  0  0  0  0
   14.1603   -0.1161    0.0000 H   0  0  0  0  0  0  0  0  0  0  0  0
   14.7803    0.5039    0.0000 H   0  0  0  0  0  0  0  0  0  0  0  0
   14.1603    1.1239    0.0000 H   0  0  0  0  0  0  0  0  0  0  0  0
   12.5403   -0.4961    0.0000 H   0  0  0  0  0  0  0  0  0  0  0  0
   13.1603   -1.1161    0.0000 H   0  0  0  0  0  0  0  0  0  0  0  0
   13.7803   -0.4961    0.0000 H   0  0  0  0  0  0  0  0  0  0  0  0
   13.7803    1.5039    0.0000 H   0  0  0  0  0  0  0  0  0  0  0  0
   13.1603    2.1239    0.0000 H   0  0  0  0  0  0  0  0  0  0  0  0
   12.5403    1.5039    0.0000 H   0  0  0  0  0  0  0  0  0  0  0  0
    6.0841    2.3700    0.0000 H   0  0  0  0  0  0  0  0  0  0  0  0
    5.4641    2.9900    0.0000 H   0  0  0  0  0  0  0  0  0  0  0  0
    4.8441    2.3700    0.0000 H   0  0  0  0  0  0  0  0  0  0  0  0
    6.4641    0.7500    0.0000 H   0  0  0  0  0  0  0  0  0  0  0  0
    7.0841    1.3700    0.0000 H   0  0  0  0  0  0  0  0  0  0  0  0
    6.4641    1.9900    0.0000 H   0  0  0  0  0  0  0  0  0  0  0  0
    4.4641    1.9900    0.0000 H   0  0  0  0  0  0  0  0  0  0  0  0
    3.8441    1.3700    0.0000 H   0  0  0  0  0  0  0  0  0  0  0  0
    4.4641    0.7500    0.0000 H   0  0  0  0  0  0  0  0  0  0  0  0
   11.6233   -1.5381    0.0000 H   0  0  0  0  0  0  0  0  0  0  0  0
   12.4703   -1.7650    0.0000 H   0  0  0  0  0  0  0  0  0  0  0  0
   12.6972   -0.9181    0.0000 H   0  0  0  0  0  0  0  0  0  0  0  0
    7.8092   -2.6809    0.0000 H   0  0  0  0  0  0  0  0  0  0  0  0
    7.5528   -3.4700    0.0000 H   0  0  0  0  0  0  0  0  0  0  0  0
   10.3036   -3.4700    0.0000 H   0  0  0  0  0  0  0  0  0  0  0  0
   10.0472   -2.6809    0.0000 H   0  0  0  0  0  0  0  0  0  0  0  0
    7.8218   -4.2978    0.0000 H   0  0  0  0  0  0  0  0  0  0  0  0
    8.4930   -4.7855    0.0000 H   0  0  0  0  0  0  0  0  0  0  0  0
    9.3634   -4.7855    0.0000 H   0  0  0  0  0  0  0  0  0  0  0  0
   10.0347   -4.2978    0.0000 H   0  0  0  0  0  0  0  0  0  0  0  0
  1 22  1  0  0  0  0
  1 86  1  0  0  0  0
  2 22  2  0  0  0  0
  3 26  2  0  0  0  0
  4 31  2  0  0  0  0
  5 37  2  0  0  0  0
  6 39  2  0  0  0  0
  7 43  2  0  0  0  0
 16  8  1  1  0  0  0
  8 31  1  0  0  0  0
  8 70  1  0  0  0  0
  9 19  1  0  0  0  0
  9 37  1  0  0  0  0
  9 78  1  0  0  0  0
 10 26  1  0  0  0  0
 27 10  1  1  0  0  0
 10 79  1  0  0  0  0
 33 11  1  1  0  0  0
 11 37  1  0  0  0  0
 11 89  1  0  0  0  0
 12 43  1  0  0  0  0
 12 48  1  0  0  0  0
 12 49  1  0  0  0  0
 13 14  1  0  0  0  0
 13 15  1  0  0  0  0
 13 16  1  0  0  0  0
 13 22  1  0  0  0  0
 14 17  1  0  0  0  0
 14 52  1  0  0  0  0
 14 53  1  0  0  0  0
 15 18  1  0  0  0  0
 15 54  1  0  0  0  0
 15 55  1  0  0  0  0
 16 26  1  0  0  0  0
 16 56  1  0  0  0  0
 17 18  1  0  0  0  0
 17 57  1  0  0  0  0
 17 58  1  0  0  0  0
 18 59  1  0  0  0  0
 18 60  1  0  0  0  0
 19 20  1  0  0  0  0
 19 21  1  0  0  0  0
 19 61  1  0  0  0  0
 20 23  1  0  0  0  0
 20 28  1  6  0  0  0
 20 62  1  0  0  0  0
 21 24  1  0  0  0  0
 21 29  1  6  0  0  0
 21 63  1  0  0  0  0
 23 25  1  0  0  0  0
 23 64  1  0  0  0  0
 23 65  1  0  0  0  0
 24 25  1  0  0  0  0
 24 66  1  0  0  0  0
 24 67  1  0  0  0  0
 25 68  1  0  0  0  0
 25 69  1  0  0  0  0
 27 30  1  0  0  0  0
 27 36  1  0  0  0  0
 27 71  1  0  0  0  0
 28 72  1  0  0  0  0
 28 73  1  0  0  0  0
 28 74  1  0  0  0  0
 29 75  1  0  0  0  0
 29 76  1  0  0  0  0
 29 77  1  0  0  0  0
 30 40  1  0  0  0  0
 30 41  1  0  0  0  0
 30 42  1  0  0  0  0
 31 32  1  0  0  0  0
 32 34  1  0  0  0  0
 32 38  1  1  0  0  0
 32 80  1  0  0  0  0
 33 35  1  0  0  0  0
 33 39  1  0  0  0  0
 33 81  1  0  0  0  0
 34 39  1  0  0  0  0
 34 82  1  0  0  0  0
 34 83  1  0  0  0  0
 35 44  1  0  0  0  0
 35 45  1  0  0  0  0
 35 46  1  0  0  0  0
 36 47  1  0  0  0  0
 36 84  1  0  0  0  0
 36 85  1  0  0  0  0
 38 43  1  0  0  0  0
 38 87  1  0  0  0  0
 38 88  1  0  0  0  0
 40 90  1  0  0  0  0
 40 91  1  0  0  0  0
 40 92  1  0  0  0  0
 41 93  1  0  0  0  0
 41 94  1  0  0  0  0
 41 95  1  0  0  0  0
 42 96  1  0  0  0  0
 42 97  1  0  0  0  0
 42 98  1  0  0  0  0
 44 99  1  0  0  0  0
 44100  1  0  0  0  0
 44101  1  0  0  0  0
 45102  1  0  0  0  0
 45103  1  0  0  0  0
 45104  1  0  0  0  0
 46105  1  0  0  0  0
 46106  1  0  0  0  0
 46107  1  0  0  0  0
 47108  1  0  0  0  0
 47109  1  0  0  0  0
 47110  1  0  0  0  0
 48 50  1  0  0  0  0
 48111  1  0  0  0  0
 48112  1  0  0  0  0
 49 51  1  0  0  0  0
 49113  1  0  0  0  0
 49114  1  0  0  0  0
 50 51  1  0  0  0  0
 50115  1  0  0  0  0
 50116  1  0  0  0  0
 51117  1  0  0  0  0
 51118  1  0  0  0  0
M  END
> <PUBCHEM_COMPOUND_CID>
515291
> <PUBCHEM_COMPOUND_CANONICALIZED>
1
> <PUBCHEM_CACTVS_COMPLEXITY>
1250
> <PUBCHEM_CACTVS_HBOND_ACCEPTOR>
7
> <PUBCHEM_CACTVS_HBOND_DONOR>
5
> <PUBCHEM_CACTVS_ROTATABLE_BOND>
16
> <PUBCHEM_CACTVS_SUBSKEYS>
AAADcfB/uAAAAAAAAAAAAAAAAAAAAeIAAAAwAAAAAAAAAAAAAAAAHgAQCAAADyzBgAQDCAPAAgAIAIGQGAAAAAAAAAAAAIGIAACAQBoAgCAUQAAOFgKAAAG/y8C/AAAAAAAAAAAAAAQAAAQAAAAAAAAAAA==
> <PUBCHEM_IUPAC_OPENEYE_NAME>
1-[(1S)-1-[[(2R,5S)-5-[[(2S,6R)-2,6-dimethylcyclohexyl]carbamoylamino]-6,6-dimethyl-4-oxo-2-(2-oxo-2-pyrrolidin-1-yl-ethyl)heptanoyl]amino]-2-[[(1R)-1-ethyl-2,2-dimethyl-propyl]amino]-2-oxo-ethyl]cyclopentanecarboxylic acid
> <PUBCHEM_IUPAC_CAS_NAME>
1-[(1S)-1-[[(2R,5S)-5-[[[[(2S,6R)-2,6-dimethylcyclohexyl]amino]-oxomethyl]amino]-6,6-dimethyl-1,4-dioxo-2-[2-oxo-2-(1-pyrrolidinyl)ethyl]heptyl]amino]-2-[[(3R)-2,2-dimethylpentan-3-yl]amino]-2-oxoethyl]-1-cyclopentanecarboxylic acid
> <PUBCHEM_IUPAC_NAME_MARKUP>
1-[(1<I>S</I>)-1-[[(2<I>R</I>,5<I>S</I>)-5-[[(2<I>S</I>,6<I>R</I>)-2,6-dimethylcyclohexyl]carbamoylamino]-6,6-dimethyl-4-oxo-2-(2-oxo-2-pyrrolidin-1-ylethyl)heptanoyl]amino]-2-[[(3<I>R</I>)-2,2-dimethylpentan-3-yl]amino]-2-oxoethyl]cyclopentane-1-carboxylic acid
> <PUBCHEM_IUPAC_NAME>
1-[(1S)-1-[[(2R,5S)-5-[[(2S,6R)-2,6-dimethylcyclohexyl]carbamoylamino]-6,6-dimethyl-4-oxo-2-(2-oxo-2-pyrrolidin-1-ylethyl)heptanoyl]amino]-2-[[(3R)-2,2-dimethylpentan-3-yl]amino]-2-oxoethyl]cyclopentane-1-carboxylic acid
> <PUBCHEM_IUPAC_SYSTEMATIC_NAME>
1-[(1S)-1-[[(2R,5S)-5-[[(2S,6R)-2,6-dimethylcyclohexyl]carbamoylamino]-6,6-dimethyl-4-oxidanylidene-2-(2-oxidanylidene-2-pyrrolidin-1-yl-ethyl)heptanoyl]amino]-2-[[(3R)-2,2-dimethylpentan-3-yl]amino]-2-oxidanylidene-ethyl]cyclopentane-1-carboxylic acid
> <PUBCHEM_IUPAC_TRADITIONAL_NAME>
1-[(1S)-1-[[(2R,5S)-5-[[(2S,6R)-2,6-dimethylcyclohexyl]carbamoylamino]-4-keto-2-(2-keto-2-pyrrolidino-ethyl)-6,6-dimethyl-heptanoyl]amino]-2-[[(1R)-1-ethyl-2,2-dimethyl-propyl]amino]-2-keto-ethyl]cyclopentanecarboxylic acid
> <PUBCHEM_IUPAC_INCHI>
InChI=1S/C39H67N5O7/c1-10-28(37(4,5)6)40-34(48)32(39(35(49)50)18-11-12-19-39)42-33(47)26(23-29(46)44-20-13-14-21-44)22-27(45)31(38(7,8)9)43-36(51)41-30-24(2)16-15-17-25(30)3/h24-26,28,30-32H,10-23H2,1-9H3,(H,40,48)(H,42,47)(H,49,50)(H2,41,43,51)/t24-,25+,26-,28-,30?,31-,32-/m1/s1
> <PUBCHEM_IUPAC_INCHIKEY>
FRRAZDSNEPCABY-OICGSQCNSA-N
> <PUBCHEM_XLOGP3_AA>
5.7
> <PUBCHEM_EXACT_MASS>
717.50404949
> <PUBCHEM_MOLECULAR_FORMULA>
C39H67N5O7
> <PUBCHEM_MOLECULAR_WEIGHT>
718.0
> <PUBCHEM_OPENEYE_CAN_SMILES>
CCC(C(C)(C)C)NC(=O)C(C1(CCCC1)C(=O)O)NC(=O)C(CC(=O)C(C(C)(C)C)NC(=O)NC2C(CCCC2C)C)CC(=O)N3CCCC3
> <PUBCHEM_OPENEYE_ISO_SMILES>
CC[C@H](C(C)(C)C)NC(=O)[C@H](C1(CCCC1)C(=O)O)NC(=O)[C@H](CC(=O)[C@H](C(C)(C)C)NC(=O)NC2[C@@H](CCC[C@@H]2C)C)CC(=O)N3CCCC3
> <PUBCHEM_CACTVS_TPSA>
174
> <PUBCHEM_MONOISOTOPIC_WEIGHT>
717.50404949
> <PUBCHEM_TOTAL_CHARGE>
0
> <PUBCHEM_HEAVY_ATOM_COUNT>
51
> <PUBCHEM_ATOM_DEF_STEREO_COUNT>
6
> <PUBCHEM_ATOM_UDEF_STEREO_COUNT>
0
> <PUBCHEM_BOND_DEF_STEREO_COUNT>
0
> <PUBCHEM_BOND_UDEF_STEREO_COUNT>
0
> <PUBCHEM_ISOTOPIC_ATOM_COUNT>
0
> <PUBCHEM_COMPONENT_COUNT>
1
> <PUBCHEM_CACTVS_TAUTO_COUNT>
-1
> <PUBCHEM_COORDINATE_TYPE>
1
5
255
> <PUBCHEM_BONDANNOTATIONS>
27  10  5
33  11  5
20  28  6
21  29  6
32  38  5
16  8  5
$$$$
