515202
  -OEChem-10302200282D
 49 51  0     1  0  0  0  0  0999 V2000
    7.2627    0.2890    0.0000 O   0  0  0  0  0  0  0  0  0  0  0  0
    4.7406   -2.1023    0.0000 O   0  0  0  0  0  0  0  0  0  0  0  0
    6.3962   -0.2110    0.0000 N   0  0  3  0  0  0  0  0  0  0  0  0
    6.3962    0.7890    0.0000 C   0  0  1  0  0  0  0  0  0  0  0  0
    5.4451   -0.5200    0.0000 C   0  0  1  0  0  0  0  0  0  0  0  0
    5.4451    1.0980    0.0000 C   0  0  0  0  0  0  0  0  0  0  0  0
    4.8573    0.2890    0.0000 C   0  0  0  0  0  0  0  0  0  0  0  0
    5.7541   -1.4711    0.0000 C   0  0  0  0  0  0  0  0  0  0  0  0
    6.3962    1.7890    0.0000 C   0  0  0  0  0  0  0  0  0  0  0  0
    4.6361   -1.1078    0.0000 C   0  0  0  0  0  0  0  0  0  0  0  0
    6.7323   -1.6790    0.0000 C   0  0  0  0  0  0  0  0  0  0  0  0
    3.7226   -0.7011    0.0000 C   0  0  0  0  0  0  0  0  0  0  0  0
    5.5302    2.2890    0.0000 C   0  0  0  0  0  0  0  0  0  0  0  0
    7.2622    2.2890    0.0000 C   0  0  0  0  0  0  0  0  0  0  0  0
    7.0413   -2.6300    0.0000 C   0  0  0  0  0  0  0  0  0  0  0  0
    2.9136   -1.2888    0.0000 C   0  0  0  0  0  0  0  0  0  0  0  0
    5.5302    3.2890    0.0000 C   0  0  0  0  0  0  0  0  0  0  0  0
    7.2622    3.2890    0.0000 C   0  0  0  0  0  0  0  0  0  0  0  0
    8.0195   -2.8380    0.0000 C   0  0  0  0  0  0  0  0  0  0  0  0
    6.3962    3.7890    0.0000 C   0  0  0  0  0  0  0  0  0  0  0  0
    2.0000   -0.8821    0.0000 C   0  0  0  0  0  0  0  0  0  0  0  0
    8.3285   -3.7890    0.0000 C   0  0  0  0  0  0  0  0  0  0  0  0
    5.6973    1.6644    0.0000 H   0  0  0  0  0  0  0  0  0  0  0  0
    4.9082    1.4080    0.0000 H   0  0  0  0  0  0  0  0  0  0  0  0
    4.3966    0.7039    0.0000 H   0  0  0  0  0  0  0  0  0  0  0  0
    4.3966   -0.1259    0.0000 H   0  0  0  0  0  0  0  0  0  0  0  0
    5.1402   -1.5574    0.0000 H   0  0  0  0  0  0  0  0  0  0  0  0
    5.7325   -2.0907    0.0000 H   0  0  0  0  0  0  0  0  0  0  0  0
    7.3463   -1.5927    0.0000 H   0  0  0  0  0  0  0  0  0  0  0  0
    6.7539   -1.0594    0.0000 H   0  0  0  0  0  0  0  0  0  0  0  0
    4.0693   -0.1871    0.0000 H   0  0  0  0  0  0  0  0  0  0  0  0
    3.2766   -0.2704    0.0000 H   0  0  0  0  0  0  0  0  0  0  0  0
    4.9932    1.9790    0.0000 H   0  0  0  0  0  0  0  0  0  0  0  0
    7.7991    1.9790    0.0000 H   0  0  0  0  0  0  0  0  0  0  0  0
    6.4273   -2.7163    0.0000 H   0  0  0  0  0  0  0  0  0  0  0  0
    7.0197   -3.2497    0.0000 H   0  0  0  0  0  0  0  0  0  0  0  0
    2.5668   -1.8028    0.0000 H   0  0  0  0  0  0  0  0  0  0  0  0
    3.3595   -1.7195    0.0000 H   0  0  0  0  0  0  0  0  0  0  0  0
    8.6334   -2.7517    0.0000 H   0  0  0  0  0  0  0  0  0  0  0  0
    8.0411   -2.2183    0.0000 H   0  0  0  0  0  0  0  0  0  0  0  0
    4.9932    3.5990    0.0000 H   0  0  0  0  0  0  0  0  0  0  0  0
    7.7991    3.5990    0.0000 H   0  0  0  0  0  0  0  0  0  0  0  0
    6.3962    4.4090    0.0000 H   0  0  0  0  0  0  0  0  0  0  0  0
    2.2522   -0.3157    0.0000 H   0  0  0  0  0  0  0  0  0  0  0  0
    1.4336   -0.6299    0.0000 H   0  0  0  0  0  0  0  0  0  0  0  0
    1.7478   -1.4485    0.0000 H   0  0  0  0  0  0  0  0  0  0  0  0
    7.7388   -3.9806    0.0000 H   0  0  0  0  0  0  0  0  0  0  0  0
    8.5201   -4.3787    0.0000 H   0  0  0  0  0  0  0  0  0  0  0  0
    8.9181   -3.5974    0.0000 H   0  0  0  0  0  0  0  0  0  0  0  0
  1  3  1  0  0  0  0
  1  4  1  0  0  0  0
  2 10  2  0  0  0  0
  3  4  1  0  0  0  0
  3  5  1  0  0  0  0
  4  6  1  0  0  0  0
  4  9  1  6  0  0  0
  5  7  1  0  0  0  0
  5  8  1  6  0  0  0
  5 10  1  0  0  0  0
  6  7  1  0  0  0  0
  6 23  1  0  0  0  0
  6 24  1  0  0  0  0
  7 25  1  0  0  0  0
  7 26  1  0  0  0  0
  8 11  1  0  0  0  0
  8 27  1  0  0  0  0
  8 28  1  0  0  0  0
  9 13  2  0  0  0  0
  9 14  1  0  0  0  0
 10 12  1  0  0  0  0
 11 15  1  0  0  0  0
 11 29  1  0  0  0  0
 11 30  1  0  0  0  0
 12 16  1  0  0  0  0
 12 31  1  0  0  0  0
 12 32  1  0  0  0  0
 13 17  1  0  0  0  0
 13 33  1  0  0  0  0
 14 18  2  0  0  0  0
 14 34  1  0  0  0  0
 15 19  1  0  0  0  0
 15 35  1  0  0  0  0
 15 36  1  0  0  0  0
 16 21  1  0  0  0  0
 16 37  1  0  0  0  0
 16 38  1  0  0  0  0
 17 20  2  0  0  0  0
 17 41  1  0  0  0  0
 18 20  1  0  0  0  0
 18 42  1  0  0  0  0
 19 22  1  0  0  0  0
 19 39  1  0  0  0  0
 19 40  1  0  0  0  0
 20 43  1  0  0  0  0
 21 44  1  0  0  0  0
 21 45  1  0  0  0  0
 21 46  1  0  0  0  0
 22 47  1  0  0  0  0
 22 48  1  0  0  0  0
 22 49  1  0  0  0  0
M  END
> <PUBCHEM_COMPOUND_CID>
515202
> <PUBCHEM_COMPOUND_CANONICALIZED>
1
> <PUBCHEM_CACTVS_COMPLEXITY>
404
> <PUBCHEM_CACTVS_HBOND_ACCEPTOR>
3
> <PUBCHEM_CACTVS_HBOND_DONOR>
0
> <PUBCHEM_CACTVS_ROTATABLE_BOND>
8
> <PUBCHEM_CACTVS_SUBSKEYS>
AAADceB6MAAAAAAAAAAAAAAAFgAAAWAAAAA8QAAAAAAAAAABAAAAHgAEAAAADIyBmAAyAIIQAACIAqBSAACCAAAgAAAoiAGADIgIJjKAkTGEMAhkwAGIiAe4zeDeAAAAAAAAAAAAAAAAAAAAAAAAAAAAAA==
> <PUBCHEM_IUPAC_OPENEYE_NAME>
1-[(2R,5S)-2-pentyl-5-phenyl-6-oxa-1-azabicyclo[3.1.0]hexan-2-yl]butan-1-one
> <PUBCHEM_IUPAC_CAS_NAME>
1-[(2R,5S)-2-pentyl-5-phenyl-6-oxa-1-azabicyclo[3.1.0]hexan-2-yl]-1-butanone
> <PUBCHEM_IUPAC_NAME_MARKUP>
1-[(2<I>R</I>,5<I>S</I>)-2-pentyl-5-phenyl-6-oxa-1-azabicyclo[3.1.0]hexan-2-yl]butan-1-one
> <PUBCHEM_IUPAC_NAME>
1-[(2R,5S)-2-pentyl-5-phenyl-6-oxa-1-azabicyclo[3.1.0]hexan-2-yl]butan-1-one
> <PUBCHEM_IUPAC_SYSTEMATIC_NAME>
1-[(2R,5S)-2-pentyl-5-phenyl-6-oxa-1-azabicyclo[3.1.0]hexan-2-yl]butan-1-one
> <PUBCHEM_IUPAC_TRADITIONAL_NAME>
1-[(2R,5S)-2-amyl-5-phenyl-6-oxa-1-azabicyclo[3.1.0]hexan-2-yl]butan-1-one
> <PUBCHEM_IUPAC_INCHI>
InChI=1S/C19H27NO2/c1-3-5-9-13-18(17(21)10-4-2)14-15-19(20(18)22-19)16-11-7-6-8-12-16/h6-8,11-12H,3-5,9-10,13-15H2,1-2H3/t18-,19+,20?/m1/s1
> <PUBCHEM_IUPAC_INCHIKEY>
QBXXERSUHWVVGE-LFPSWIHMSA-N
> <PUBCHEM_XLOGP3_AA>
4.8
> <PUBCHEM_EXACT_MASS>
301.204179104
> <PUBCHEM_MOLECULAR_FORMULA>
C19H27NO2
> <PUBCHEM_MOLECULAR_WEIGHT>
301.4
> <PUBCHEM_OPENEYE_CAN_SMILES>
CCCCCC1(CCC2(N1O2)C3=CC=CC=C3)C(=O)CCC
> <PUBCHEM_OPENEYE_ISO_SMILES>
CCCCC[C@@]1(CC[C@@]2(N1O2)C3=CC=CC=C3)C(=O)CCC
> <PUBCHEM_CACTVS_TPSA>
32.6
> <PUBCHEM_MONOISOTOPIC_WEIGHT>
301.204179104
> <PUBCHEM_TOTAL_CHARGE>
0
> <PUBCHEM_HEAVY_ATOM_COUNT>
22
> <PUBCHEM_ATOM_DEF_STEREO_COUNT>
2
> <PUBCHEM_ATOM_UDEF_STEREO_COUNT>
0
> <PUBCHEM_BOND_DEF_STEREO_COUNT>
0
> <PUBCHEM_BOND_UDEF_STEREO_COUNT>
0
> <PUBCHEM_ISOTOPIC_ATOM_COUNT>
0
> <PUBCHEM_COMPONENT_COUNT>
1
> <PUBCHEM_CACTVS_TAUTO_COUNT>
-1
> <PUBCHEM_COORDINATE_TYPE>
1
5
255
> <PUBCHEM_BONDANNOTATIONS>
13  17  8
14  18  8
17  20  8
18  20  8
4  9  6
5  8  6
9  13  8
9  14  8
$$$$
