515257
  -OEChem-10302200282D
 96 96  0     1  0  0  0  0  0999 V2000
    9.7942    2.2306    0.0000 O   0  0  0  0  0  0  0  0  0  0  0  0
    6.3301    2.2306    0.0000 O   0  0  0  0  0  0  0  0  0  0  0  0
    4.5981   -1.7694    0.0000 O   0  0  0  0  0  0  0  0  0  0  0  0
    9.7942    1.2306    0.0000 O   0  0  0  0  0  0  0  0  0  0  0  0
    3.7320   -0.2694    0.0000 O   0  0  0  0  0  0  0  0  0  0  0  0
   10.6603   -2.2694    0.0000 O   0  0  0  0  0  0  0  0  0  0  0  0
    8.0622   -4.7694    0.0000 O   0  0  0  0  0  0  0  0  0  0  0  0
   12.3923   -0.2694    0.0000 O   0  0  0  0  0  0  0  0  0  0  0  0
    7.1962   -3.2694    0.0000 O   0  0  0  0  0  0  0  0  0  0  0  0
   11.5263   -1.7694    0.0000 O   0  0  0  0  0  0  0  0  0  0  0  0
    8.9282    3.7306    0.0000 N   0  0  0  0  0  0  0  0  0  0  0  0
    7.1962    0.7306    0.0000 N   0  0  0  0  0  0  0  0  0  0  0  0
    5.4641   -0.2694    0.0000 N   0  0  0  0  0  0  0  0  0  0  0  0
    8.9282   -0.2694    0.0000 N   0  0  0  0  0  0  0  0  0  0  0  0
    8.9282   -2.2694    0.0000 N   0  0  0  0  0  0  0  0  0  0  0  0
    4.5981    1.2306    0.0000 C   0  0  0  0  0  0  0  0  0  0  0  0
    5.4641    0.7306    0.0000 C   0  0  1  0  0  0  0  0  0  0  0  0
    9.7372    4.3184    0.0000 C   0  0  0  0  0  0  0  0  0  0  0  0
    8.1192    4.3184    0.0000 C   0  0  0  0  0  0  0  0  0  0  0  0
    9.4282    5.2694    0.0000 C   0  0  0  0  0  0  0  0  0  0  0  0
    8.4282    5.2694    0.0000 C   0  0  0  0  0  0  0  0  0  0  0  0
    8.0622    1.2306    0.0000 C   0  0  1  0  0  0  0  0  0  0  0  0
    8.0622    2.2306    0.0000 C   0  0  0  0  0  0  0  0  0  0  0  0
    8.9282    2.7306    0.0000 C   0  0  0  0  0  0  0  0  0  0  0  0
    3.7320    1.7306    0.0000 C   0  0  0  0  0  0  0  0  0  0  0  0
    4.0981    0.3646    0.0000 C   0  0  0  0  0  0  0  0  0  0  0  0
    5.0981    2.0966    0.0000 C   0  0  0  0  0  0  0  0  0  0  0  0
    6.3301    1.2306    0.0000 C   0  0  0  0  0  0  0  0  0  0  0  0
    8.9282    0.7306    0.0000 C   0  0  0  0  0  0  0  0  0  0  0  0
    9.7942   -0.7694    0.0000 C   0  0  2  0  0  0  0  0  0  0  0  0
    4.5981   -0.7694    0.0000 C   0  0  0  0  0  0  0  0  0  0  0  0
    8.9282   -3.2694    0.0000 C   0  0  1  0  0  0  0  0  0  0  0  0
    9.7942   -3.7694    0.0000 C   0  0  0  0  0  0  0  0  0  0  0  0
    9.7942   -4.7694    0.0000 C   0  0  0  0  0  0  0  0  0  0  0  0
    9.7942   -1.7694    0.0000 C   0  0  0  0  0  0  0  0  0  0  0  0
   10.6603   -0.2694    0.0000 C   0  0  0  0  0  0  0  0  0  0  0  0
    3.7320   -2.2694    0.0000 C   0  0  0  0  0  0  0  0  0  0  0  0
    3.7320   -3.2694    0.0000 C   0  0  0  0  0  0  0  0  0  0  0  0
    2.8660   -1.7694    0.0000 C   0  0  0  0  0  0  0  0  0  0  0  0
   10.6603   -5.2694    0.0000 C   0  0  0  0  0  0  0  0  0  0  0  0
    8.9282   -5.2694    0.0000 C   0  0  0  0  0  0  0  0  0  0  0  0
    8.0622   -3.7694    0.0000 C   0  0  0  0  0  0  0  0  0  0  0  0
   11.5263   -0.7694    0.0000 C   0  0  0  0  0  0  0  0  0  0  0  0
    2.8660   -3.7694    0.0000 C   0  0  0  0  0  0  0  0  0  0  0  0
    2.0000   -2.2694    0.0000 C   0  0  0  0  0  0  0  0  0  0  0  0
    6.0010    0.4206    0.0000 H   0  0  0  0  0  0  0  0  0  0  0  0
   10.0472    3.7814    0.0000 H   0  0  0  0  0  0  0  0  0  0  0  0
   10.3036    4.5705    0.0000 H   0  0  0  0  0  0  0  0  0  0  0  0
    7.5528    4.5705    0.0000 H   0  0  0  0  0  0  0  0  0  0  0  0
    7.8092    3.7814    0.0000 H   0  0  0  0  0  0  0  0  0  0  0  0
   10.0347    5.3983    0.0000 H   0  0  0  0  0  0  0  0  0  0  0  0
    9.3634    5.8860    0.0000 H   0  0  0  0  0  0  0  0  0  0  0  0
    8.4930    5.8860    0.0000 H   0  0  0  0  0  0  0  0  0  0  0  0
    7.8218    5.3983    0.0000 H   0  0  0  0  0  0  0  0  0  0  0  0
    8.0622    0.6106    0.0000 H   0  0  0  0  0  0  0  0  0  0  0  0
    7.8501    2.8132    0.0000 H   0  0  0  0  0  0  0  0  0  0  0  0
    7.4516    2.1229    0.0000 H   0  0  0  0  0  0  0  0  0  0  0  0
    4.0420    2.2675    0.0000 H   0  0  0  0  0  0  0  0  0  0  0  0
    3.1951    2.0406    0.0000 H   0  0  0  0  0  0  0  0  0  0  0  0
    3.4220    1.1936    0.0000 H   0  0  0  0  0  0  0  0  0  0  0  0
    3.5611    0.6746    0.0000 H   0  0  0  0  0  0  0  0  0  0  0  0
    3.7881   -0.1724    0.0000 H   0  0  0  0  0  0  0  0  0  0  0  0
    4.6350    0.0546    0.0000 H   0  0  0  0  0  0  0  0  0  0  0  0
    5.6350    1.7866    0.0000 H   0  0  0  0  0  0  0  0  0  0  0  0
    5.4081    2.6335    0.0000 H   0  0  0  0  0  0  0  0  0  0  0  0
    4.5611    2.4066    0.0000 H   0  0  0  0  0  0  0  0  0  0  0  0
    7.1962    0.1106    0.0000 H   0  0  0  0  0  0  0  0  0  0  0  0
    6.0010   -0.5794    0.0000 H   0  0  0  0  0  0  0  0  0  0  0  0
    9.2573   -1.0794    0.0000 H   0  0  0  0  0  0  0  0  0  0  0  0
    8.3913   -0.5794    0.0000 H   0  0  0  0  0  0  0  0  0  0  0  0
    9.4651   -2.9594    0.0000 H   0  0  0  0  0  0  0  0  0  0  0  0
   10.4048   -3.8771    0.0000 H   0  0  0  0  0  0  0  0  0  0  0  0
   10.0063   -3.1868    0.0000 H   0  0  0  0  0  0  0  0  0  0  0  0
    9.2573   -4.4594    0.0000 H   0  0  0  0  0  0  0  0  0  0  0  0
   11.0588    0.2055    0.0000 H   0  0  0  0  0  0  0  0  0  0  0  0
   10.2617    0.2055    0.0000 H   0  0  0  0  0  0  0  0  0  0  0  0
    8.3913   -1.9594    0.0000 H   0  0  0  0  0  0  0  0  0  0  0  0
    3.7320   -1.6494    0.0000 H   0  0  0  0  0  0  0  0  0  0  0  0
   10.3503   -5.8064    0.0000 H   0  0  0  0  0  0  0  0  0  0  0  0
   11.1972   -5.5794    0.0000 H   0  0  0  0  0  0  0  0  0  0  0  0
   10.9703   -4.7325    0.0000 H   0  0  0  0  0  0  0  0  0  0  0  0
    8.6182   -4.7325    0.0000 H   0  0  0  0  0  0  0  0  0  0  0  0
    8.3913   -5.5794    0.0000 H   0  0  0  0  0  0  0  0  0  0  0  0
    9.2382   -5.8064    0.0000 H   0  0  0  0  0  0  0  0  0  0  0  0
    3.9441   -3.8520    0.0000 H   0  0  0  0  0  0  0  0  0  0  0  0
    4.3426   -3.1618    0.0000 H   0  0  0  0  0  0  0  0  0  0  0  0
    3.2646   -1.2945    0.0000 H   0  0  0  0  0  0  0  0  0  0  0  0
    2.4675   -1.2945    0.0000 H   0  0  0  0  0  0  0  0  0  0  0  0
    2.5560   -3.2325    0.0000 H   0  0  0  0  0  0  0  0  0  0  0  0
    2.3291   -4.0794    0.0000 H   0  0  0  0  0  0  0  0  0  0  0  0
    3.1760   -4.3064    0.0000 H   0  0  0  0  0  0  0  0  0  0  0  0
    1.6900   -1.7325    0.0000 H   0  0  0  0  0  0  0  0  0  0  0  0
    1.4631   -2.5794    0.0000 H   0  0  0  0  0  0  0  0  0  0  0  0
    2.3100   -2.8064    0.0000 H   0  0  0  0  0  0  0  0  0  0  0  0
    7.5252   -5.0794    0.0000 H   0  0  0  0  0  0  0  0  0  0  0  0
   12.9292   -0.5794    0.0000 H   0  0  0  0  0  0  0  0  0  0  0  0
  1 24  2  0  0  0  0
  2 28  2  0  0  0  0
  3 31  1  0  0  0  0
  3 37  1  0  0  0  0
  4 29  2  0  0  0  0
  5 31  2  0  0  0  0
  6 35  2  0  0  0  0
  7 42  1  0  0  0  0
  7 95  1  0  0  0  0
  8 43  1  0  0  0  0
  8 96  1  0  0  0  0
  9 42  2  0  0  0  0
 10 43  2  0  0  0  0
 11 18  1  0  0  0  0
 11 19  1  0  0  0  0
 11 24  1  0  0  0  0
 22 12  1  1  0  0  0
 12 28  1  0  0  0  0
 12 67  1  0  0  0  0
 17 13  1  1  0  0  0
 13 31  1  0  0  0  0
 13 68  1  0  0  0  0
 14 29  1  0  0  0  0
 30 14  1  1  0  0  0
 14 70  1  0  0  0  0
 32 15  1  1  0  0  0
 15 35  1  0  0  0  0
 15 77  1  0  0  0  0
 16 17  1  0  0  0  0
 16 25  1  0  0  0  0
 16 26  1  0  0  0  0
 16 27  1  0  0  0  0
 17 28  1  0  0  0  0
 17 46  1  0  0  0  0
 18 20  1  0  0  0  0
 18 47  1  0  0  0  0
 18 48  1  0  0  0  0
 19 21  1  0  0  0  0
 19 49  1  0  0  0  0
 19 50  1  0  0  0  0
 20 21  1  0  0  0  0
 20 51  1  0  0  0  0
 20 52  1  0  0  0  0
 21 53  1  0  0  0  0
 21 54  1  0  0  0  0
 22 23  1  0  0  0  0
 22 29  1  0  0  0  0
 22 55  1  0  0  0  0
 23 24  1  0  0  0  0
 23 56  1  0  0  0  0
 23 57  1  0  0  0  0
 25 58  1  0  0  0  0
 25 59  1  0  0  0  0
 25 60  1  0  0  0  0
 26 61  1  0  0  0  0
 26 62  1  0  0  0  0
 26 63  1  0  0  0  0
 27 64  1  0  0  0  0
 27 65  1  0  0  0  0
 27 66  1  0  0  0  0
 30 35  1  0  0  0  0
 30 36  1  0  0  0  0
 30 69  1  0  0  0  0
 32 33  1  0  0  0  0
 32 42  1  0  0  0  0
 32 71  1  0  0  0  0
 33 34  1  0  0  0  0
 33 72  1  0  0  0  0
 33 73  1  0  0  0  0
 34 40  1  0  0  0  0
 34 41  1  0  0  0  0
 34 74  1  0  0  0  0
 36 43  1  0  0  0  0
 36 75  1  0  0  0  0
 36 76  1  0  0  0  0
 37 38  1  0  0  0  0
 37 39  1  0  0  0  0
 37 78  1  0  0  0  0
 38 44  1  0  0  0  0
 38 85  1  0  0  0  0
 38 86  1  0  0  0  0
 39 45  1  0  0  0  0
 39 87  1  0  0  0  0
 39 88  1  0  0  0  0
 40 79  1  0  0  0  0
 40 80  1  0  0  0  0
 40 81  1  0  0  0  0
 41 82  1  0  0  0  0
 41 83  1  0  0  0  0
 41 84  1  0  0  0  0
 44 89  1  0  0  0  0
 44 90  1  0  0  0  0
 44 91  1  0  0  0  0
 45 92  1  0  0  0  0
 45 93  1  0  0  0  0
 45 94  1  0  0  0  0
M  END
> <PUBCHEM_COMPOUND_CID>
515257
> <PUBCHEM_COMPOUND_CANONICALIZED>
1
> <PUBCHEM_CACTVS_COMPLEXITY>
1060
> <PUBCHEM_CACTVS_HBOND_ACCEPTOR>
10
> <PUBCHEM_CACTVS_HBOND_DONOR>
6
> <PUBCHEM_CACTVS_ROTATABLE_BOND>
19
> <PUBCHEM_CACTVS_SUBSKEYS>
AAADcfB7vAAAAAAAAAAAAAAAAAAAAWAAAAAAAAAAAAAAAAAAAAAAHgAQCAAADzzhgAYCCAPABgAIAAGQGAAAAAAAAAAAAIGIAAECQBoAwCAcQAAGFgCQAACvAAANAAAAAAAAAAAAAAAAAAAAAAAAAAAAAA==
> <PUBCHEM_IUPAC_OPENEYE_NAME>
(2S)-2-[[(2S)-3-carboxy-2-[[(2S)-2-[[(2S)-2-(1-ethylpropoxycarbonylamino)-3,3-dimethyl-butanoyl]amino]-4-oxo-4-pyrrolidin-1-yl-butanoyl]amino]propanoyl]amino]-4-methyl-pentanoic acid
> <PUBCHEM_IUPAC_CAS_NAME>
(2S)-2-[[(2S)-3-carboxy-2-[[(2S)-2-[[(2S)-3,3-dimethyl-1-oxo-2-[[oxo(pentan-3-yloxy)methyl]amino]butyl]amino]-1,4-dioxo-4-(1-pyrrolidinyl)butyl]amino]-1-oxopropyl]amino]-4-methylpentanoic acid
> <PUBCHEM_IUPAC_NAME_MARKUP>
(2<I>S</I>)-2-[[(2<I>S</I>)-3-carboxy-2-[[(2<I>S</I>)-2-[[(2<I>S</I>)-3,3-dimethyl-2-(pentan-3-yloxycarbonylamino)butanoyl]amino]-4-oxo-4-pyrrolidin-1-ylbutanoyl]amino]propanoyl]amino]-4-methylpentanoic acid
> <PUBCHEM_IUPAC_NAME>
(2S)-2-[[(2S)-3-carboxy-2-[[(2S)-2-[[(2S)-3,3-dimethyl-2-(pentan-3-yloxycarbonylamino)butanoyl]amino]-4-oxo-4-pyrrolidin-1-ylbutanoyl]amino]propanoyl]amino]-4-methylpentanoic acid
> <PUBCHEM_IUPAC_SYSTEMATIC_NAME>
(2S)-2-[[(2S)-2-[[(2S)-2-[[(2S)-3,3-dimethyl-2-(pentan-3-yloxycarbonylamino)butanoyl]amino]-4-oxidanylidene-4-pyrrolidin-1-yl-butanoyl]amino]-4-oxidanyl-4-oxidanylidene-butanoyl]amino]-4-methyl-pentanoic acid
> <PUBCHEM_IUPAC_TRADITIONAL_NAME>
(2S)-2-[[(2S)-3-carboxy-2-[[(2S)-2-[[(2S)-2-(1-ethylpropoxycarbonylamino)-3,3-dimethyl-butanoyl]amino]-4-keto-4-pyrrolidino-butanoyl]amino]propanoyl]amino]-4-methyl-valeric acid
> <PUBCHEM_IUPAC_INCHI>
InChI=1S/C30H51N5O10/c1-8-18(9-2)45-29(44)34-24(30(5,6)7)27(41)32-19(15-22(36)35-12-10-11-13-35)25(39)31-20(16-23(37)38)26(40)33-21(28(42)43)14-17(3)4/h17-21,24H,8-16H2,1-7H3,(H,31,39)(H,32,41)(H,33,40)(H,34,44)(H,37,38)(H,42,43)/t19-,20-,21-,24+/m0/s1
> <PUBCHEM_IUPAC_INCHIKEY>
OPFPCFWGSCFDAB-IBPRQYQWSA-N
> <PUBCHEM_XLOGP3_AA>
2.4
> <PUBCHEM_EXACT_MASS>
641.36359284
> <PUBCHEM_MOLECULAR_FORMULA>
C30H51N5O10
> <PUBCHEM_MOLECULAR_WEIGHT>
641.8
> <PUBCHEM_OPENEYE_CAN_SMILES>
CCC(CC)OC(=O)NC(C(=O)NC(CC(=O)N1CCCC1)C(=O)NC(CC(=O)O)C(=O)NC(CC(C)C)C(=O)O)C(C)(C)C
> <PUBCHEM_OPENEYE_ISO_SMILES>
CCC(CC)OC(=O)N[C@H](C(=O)N[C@@H](CC(=O)N1CCCC1)C(=O)N[C@@H](CC(=O)O)C(=O)N[C@@H](CC(C)C)C(=O)O)C(C)(C)C
> <PUBCHEM_CACTVS_TPSA>
221
> <PUBCHEM_MONOISOTOPIC_WEIGHT>
641.36359284
> <PUBCHEM_TOTAL_CHARGE>
0
> <PUBCHEM_HEAVY_ATOM_COUNT>
45
> <PUBCHEM_ATOM_DEF_STEREO_COUNT>
4
> <PUBCHEM_ATOM_UDEF_STEREO_COUNT>
0
> <PUBCHEM_BOND_DEF_STEREO_COUNT>
0
> <PUBCHEM_BOND_UDEF_STEREO_COUNT>
0
> <PUBCHEM_ISOTOPIC_ATOM_COUNT>
0
> <PUBCHEM_COMPONENT_COUNT>
1
> <PUBCHEM_CACTVS_TAUTO_COUNT>
-1
> <PUBCHEM_COORDINATE_TYPE>
1
5
255
> <PUBCHEM_BONDANNOTATIONS>
22  12  5
17  13  5
30  14  5
32  15  5
$$$$
