515259
  -OEChem-10302200282D
 85 85  0     1  0  0  0  0  0999 V2000
   10.6603    2.2306    0.0000 O   0  0  0  0  0  0  0  0  0  0  0  0
    8.0622   -0.2694    0.0000 O   0  0  0  0  0  0  0  0  0  0  0  0
    4.5981    0.7306    0.0000 O   0  0  0  0  0  0  0  0  0  0  0  0
    3.7320    4.2306    0.0000 O   0  0  0  0  0  0  0  0  0  0  0  0
    8.9282   -0.7694    0.0000 O   0  0  0  0  0  0  0  0  0  0  0  0
    5.4641    4.2306    0.0000 O   0  0  0  0  0  0  0  0  0  0  0  0
    5.4641   -1.7694    0.0000 O   0  0  0  0  0  0  0  0  0  0  0  0
    4.5981   -0.2694    0.0000 O   0  0  0  0  0  0  0  0  0  0  0  0
   12.3923   -1.7694    0.0000 O   0  0  0  0  0  0  0  0  0  0  0  0
    9.7942    3.7306    0.0000 N   0  0  0  0  0  0  0  0  0  0  0  0
    9.7942    0.7306    0.0000 N   0  0  0  0  0  0  0  0  0  0  0  0
    7.1962    1.2306    0.0000 N   0  0  0  0  0  0  0  0  0  0  0  0
    5.4641    2.2306    0.0000 N   0  0  0  0  0  0  0  0  0  0  0  0
   11.5263   -3.2694    0.0000 N   0  0  0  0  0  0  0  0  0  0  0  0
   10.6603   -1.7694    0.0000 N   0  0  0  0  0  0  0  0  0  0  0  0
   10.2942    5.2694    0.0000 C   0  0  0  0  0  0  0  0  0  0  0  0
    9.2942    5.2694    0.0000 C   0  0  0  0  0  0  0  0  0  0  0  0
   10.6032    4.3184    0.0000 C   0  0  0  0  0  0  0  0  0  0  0  0
    8.9852    4.3184    0.0000 C   0  0  0  0  0  0  0  0  0  0  0  0
    9.7942    2.7306    0.0000 C   0  0  0  0  0  0  0  0  0  0  0  0
    8.9282    2.2306    0.0000 C   0  0  0  0  0  0  0  0  0  0  0  0
    8.9282    1.2306    0.0000 C   0  0  1  0  0  0  0  0  0  0  0  0
    8.0622    0.7306    0.0000 C   0  0  0  0  0  0  0  0  0  0  0  0
    3.7320    2.2306    0.0000 C   0  0  0  0  0  0  0  0  0  0  0  0
    6.3301    0.7306    0.0000 C   0  0  2  0  0  0  0  0  0  0  0  0
    4.5981    2.7306    0.0000 C   0  0  1  0  0  0  0  0  0  0  0  0
    2.8660    2.7306    0.0000 C   0  0  0  0  0  0  0  0  0  0  0  0
    5.4641    1.2306    0.0000 C   0  0  0  0  0  0  0  0  0  0  0  0
    6.3301   -0.2694    0.0000 C   0  0  0  0  0  0  0  0  0  0  0  0
    2.0000    2.2306    0.0000 C   0  0  0  0  0  0  0  0  0  0  0  0
    2.8660    3.7306    0.0000 C   0  0  0  0  0  0  0  0  0  0  0  0
    9.7942   -0.2694    0.0000 C   0  0  0  0  0  0  0  0  0  0  0  0
    4.5981    3.7306    0.0000 C   0  0  0  0  0  0  0  0  0  0  0  0
   12.3923   -3.7694    0.0000 C   0  0  0  0  0  0  0  0  0  0  0  0
   10.6603   -0.7694    0.0000 C   0  0  0  0  0  0  0  0  0  0  0  0
   12.3923   -4.7694    0.0000 C   0  0  0  0  0  0  0  0  0  0  0  0
   13.2583   -3.2694    0.0000 C   0  0  0  0  0  0  0  0  0  0  0  0
    5.4641   -0.7694    0.0000 C   0  0  0  0  0  0  0  0  0  0  0  0
   11.5263   -2.2694    0.0000 C   0  0  0  0  0  0  0  0  0  0  0  0
   13.2583   -5.2694    0.0000 C   0  0  0  0  0  0  0  0  0  0  0  0
   14.1244   -3.7694    0.0000 C   0  0  0  0  0  0  0  0  0  0  0  0
   10.9007    5.3983    0.0000 H   0  0  0  0  0  0  0  0  0  0  0  0
   10.2294    5.8860    0.0000 H   0  0  0  0  0  0  0  0  0  0  0  0
    9.3590    5.8860    0.0000 H   0  0  0  0  0  0  0  0  0  0  0  0
    8.6878    5.3983    0.0000 H   0  0  0  0  0  0  0  0  0  0  0  0
   10.9132    3.7814    0.0000 H   0  0  0  0  0  0  0  0  0  0  0  0
   11.1696    4.5705    0.0000 H   0  0  0  0  0  0  0  0  0  0  0  0
    8.4188    4.5705    0.0000 H   0  0  0  0  0  0  0  0  0  0  0  0
    8.6752    3.7814    0.0000 H   0  0  0  0  0  0  0  0  0  0  0  0
    8.7162    2.8132    0.0000 H   0  0  0  0  0  0  0  0  0  0  0  0
    8.3176    2.1229    0.0000 H   0  0  0  0  0  0  0  0  0  0  0  0
    9.4651    1.5406    0.0000 H   0  0  0  0  0  0  0  0  0  0  0  0
    3.3335    1.7556    0.0000 H   0  0  0  0  0  0  0  0  0  0  0  0
    4.1306    1.7556    0.0000 H   0  0  0  0  0  0  0  0  0  0  0  0
    6.8671    0.4206    0.0000 H   0  0  0  0  0  0  0  0  0  0  0  0
    4.5981    2.1106    0.0000 H   0  0  0  0  0  0  0  0  0  0  0  0
    2.8660    2.1106    0.0000 H   0  0  0  0  0  0  0  0  0  0  0  0
   10.3312    1.0406    0.0000 H   0  0  0  0  0  0  0  0  0  0  0  0
    7.1962    1.8506    0.0000 H   0  0  0  0  0  0  0  0  0  0  0  0
    6.0010    2.5406    0.0000 H   0  0  0  0  0  0  0  0  0  0  0  0
    6.5422   -0.8520    0.0000 H   0  0  0  0  0  0  0  0  0  0  0  0
    6.9407   -0.1618    0.0000 H   0  0  0  0  0  0  0  0  0  0  0  0
    1.6900    2.7675    0.0000 H   0  0  0  0  0  0  0  0  0  0  0  0
    1.4631    1.9206    0.0000 H   0  0  0  0  0  0  0  0  0  0  0  0
    2.3100    1.6936    0.0000 H   0  0  0  0  0  0  0  0  0  0  0  0
    3.4860    3.7306    0.0000 H   0  0  0  0  0  0  0  0  0  0  0  0
    2.8660    4.3506    0.0000 H   0  0  0  0  0  0  0  0  0  0  0  0
    2.2460    3.7306    0.0000 H   0  0  0  0  0  0  0  0  0  0  0  0
   11.8554   -4.0794    0.0000 H   0  0  0  0  0  0  0  0  0  0  0  0
   11.2708   -0.8771    0.0000 H   0  0  0  0  0  0  0  0  0  0  0  0
   10.8723   -0.1868    0.0000 H   0  0  0  0  0  0  0  0  0  0  0  0
   11.7817   -4.6618    0.0000 H   0  0  0  0  0  0  0  0  0  0  0  0
   12.1803   -5.3520    0.0000 H   0  0  0  0  0  0  0  0  0  0  0  0
   13.6569   -2.7945    0.0000 H   0  0  0  0  0  0  0  0  0  0  0  0
   12.8598   -2.7945    0.0000 H   0  0  0  0  0  0  0  0  0  0  0  0
   10.9893   -3.5794    0.0000 H   0  0  0  0  0  0  0  0  0  0  0  0
   10.1233   -2.0794    0.0000 H   0  0  0  0  0  0  0  0  0  0  0  0
   12.9483   -5.8064    0.0000 H   0  0  0  0  0  0  0  0  0  0  0  0
   13.7953   -5.5794    0.0000 H   0  0  0  0  0  0  0  0  0  0  0  0
   13.5683   -4.7325    0.0000 H   0  0  0  0  0  0  0  0  0  0  0  0
   13.8144   -4.3064    0.0000 H   0  0  0  0  0  0  0  0  0  0  0  0
   14.6613   -4.0794    0.0000 H   0  0  0  0  0  0  0  0  0  0  0  0
   14.4344   -3.2325    0.0000 H   0  0  0  0  0  0  0  0  0  0  0  0
    3.7320    4.8506    0.0000 H   0  0  0  0  0  0  0  0  0  0  0  0
    4.9272   -2.0794    0.0000 H   0  0  0  0  0  0  0  0  0  0  0  0
  1 20  2  0  0  0  0
  2 23  2  0  0  0  0
  3 28  2  0  0  0  0
  4 33  1  0  0  0  0
  4 84  1  0  0  0  0
  5 32  2  0  0  0  0
  6 33  2  0  0  0  0
  7 38  1  0  0  0  0
  7 85  1  0  0  0  0
  8 38  2  0  0  0  0
  9 39  2  0  0  0  0
 10 18  1  0  0  0  0
 10 19  1  0  0  0  0
 10 20  1  0  0  0  0
 22 11  1  6  0  0  0
 11 32  1  0  0  0  0
 11 58  1  0  0  0  0
 12 23  1  0  0  0  0
 25 12  1  1  0  0  0
 12 59  1  0  0  0  0
 26 13  1  1  0  0  0
 13 28  1  0  0  0  0
 13 60  1  0  0  0  0
 14 34  1  0  0  0  0
 14 39  1  0  0  0  0
 14 76  1  0  0  0  0
 15 35  1  0  0  0  0
 15 39  1  0  0  0  0
 15 77  1  0  0  0  0
 16 17  1  0  0  0  0
 16 18  1  0  0  0  0
 16 42  1  0  0  0  0
 16 43  1  0  0  0  0
 17 19  1  0  0  0  0
 17 44  1  0  0  0  0
 17 45  1  0  0  0  0
 18 46  1  0  0  0  0
 18 47  1  0  0  0  0
 19 48  1  0  0  0  0
 19 49  1  0  0  0  0
 20 21  1  0  0  0  0
 21 22  1  0  0  0  0
 21 50  1  0  0  0  0
 21 51  1  0  0  0  0
 22 23  1  0  0  0  0
 22 52  1  0  0  0  0
 24 26  1  0  0  0  0
 24 27  1  0  0  0  0
 24 53  1  0  0  0  0
 24 54  1  0  0  0  0
 25 28  1  0  0  0  0
 25 29  1  0  0  0  0
 25 55  1  0  0  0  0
 26 33  1  0  0  0  0
 26 56  1  0  0  0  0
 27 30  1  0  0  0  0
 27 31  1  0  0  0  0
 27 57  1  0  0  0  0
 29 38  1  0  0  0  0
 29 61  1  0  0  0  0
 29 62  1  0  0  0  0
 30 63  1  0  0  0  0
 30 64  1  0  0  0  0
 30 65  1  0  0  0  0
 31 66  1  0  0  0  0
 31 67  1  0  0  0  0
 31 68  1  0  0  0  0
 32 35  1  0  0  0  0
 34 36  1  0  0  0  0
 34 37  1  0  0  0  0
 34 69  1  0  0  0  0
 35 70  1  0  0  0  0
 35 71  1  0  0  0  0
 36 40  1  0  0  0  0
 36 72  1  0  0  0  0
 36 73  1  0  0  0  0
 37 41  1  0  0  0  0
 37 74  1  0  0  0  0
 37 75  1  0  0  0  0
 40 78  1  0  0  0  0
 40 79  1  0  0  0  0
 40 80  1  0  0  0  0
 41 81  1  0  0  0  0
 41 82  1  0  0  0  0
 41 83  1  0  0  0  0
M  END
> <PUBCHEM_COMPOUND_CID>
515259
> <PUBCHEM_COMPOUND_CANONICALIZED>
1
> <PUBCHEM_CACTVS_COMPLEXITY>
948
> <PUBCHEM_CACTVS_HBOND_ACCEPTOR>
9
> <PUBCHEM_CACTVS_HBOND_DONOR>
7
> <PUBCHEM_CACTVS_ROTATABLE_BOND>
17
> <PUBCHEM_CACTVS_SUBSKEYS>
AAADcfB7vAAAAAAAAAAAAAAAAAAAAWAAAAAAAAAAAAAAAAAAAAAAHgAQCAAADSjBgAQDCAPAAgAIAAGQGAAAAAAAAAAAAIGIAACCQBoAwCAUQAAOFgKQAACvAAAMAAAAAAAAAAAAAAAAAAAAAAAAAAAAAA==
> <PUBCHEM_IUPAC_OPENEYE_NAME>
(2S)-2-[[(2S)-3-carboxy-2-[[(2S)-2-[[2-(1-ethylpropylcarbamoylamino)acetyl]amino]-4-oxo-4-pyrrolidin-1-yl-butanoyl]amino]propanoyl]amino]-4-methyl-pentanoic acid
> <PUBCHEM_IUPAC_CAS_NAME>
(2S)-2-[[(2S)-3-carboxy-2-[[(2S)-1,4-dioxo-2-[[1-oxo-2-[[oxo-(pentan-3-ylamino)methyl]amino]ethyl]amino]-4-(1-pyrrolidinyl)butyl]amino]-1-oxopropyl]amino]-4-methylpentanoic acid
> <PUBCHEM_IUPAC_NAME_MARKUP>
(2<I>S</I>)-2-[[(2<I>S</I>)-3-carboxy-2-[[(2<I>S</I>)-4-oxo-2-[[2-(pentan-3-ylcarbamoylamino)acetyl]amino]-4-pyrrolidin-1-ylbutanoyl]amino]propanoyl]amino]-4-methylpentanoic acid
> <PUBCHEM_IUPAC_NAME>
(2S)-2-[[(2S)-3-carboxy-2-[[(2S)-4-oxo-2-[[2-(pentan-3-ylcarbamoylamino)acetyl]amino]-4-pyrrolidin-1-ylbutanoyl]amino]propanoyl]amino]-4-methylpentanoic acid
> <PUBCHEM_IUPAC_SYSTEMATIC_NAME>
(2S)-4-methyl-2-[[(2S)-4-oxidanyl-4-oxidanylidene-2-[[(2S)-4-oxidanylidene-2-[2-(pentan-3-ylcarbamoylamino)ethanoylamino]-4-pyrrolidin-1-yl-butanoyl]amino]butanoyl]amino]pentanoic acid
> <PUBCHEM_IUPAC_TRADITIONAL_NAME>
(2S)-2-[[(2S)-3-carboxy-2-[[(2S)-2-[[2-(1-ethylpropylcarbamoylamino)acetyl]amino]-4-keto-4-pyrrolidino-butanoyl]amino]propanoyl]amino]-4-methyl-valeric acid
> <PUBCHEM_IUPAC_INCHI>
InChI=1S/C26H44N6O9/c1-5-16(6-2)28-26(41)27-14-20(33)29-17(12-21(34)32-9-7-8-10-32)23(37)30-18(13-22(35)36)24(38)31-19(25(39)40)11-15(3)4/h15-19H,5-14H2,1-4H3,(H,29,33)(H,30,37)(H,31,38)(H,35,36)(H,39,40)(H2,27,28,41)/t17-,18-,19-/m0/s1
> <PUBCHEM_IUPAC_INCHIKEY>
IUEUCSCRAIFQMM-FHWLQOOXSA-N
> <PUBCHEM_XLOGP3_AA>
0.1
> <PUBCHEM_EXACT_MASS>
584.31697700
> <PUBCHEM_MOLECULAR_FORMULA>
C26H44N6O9
> <PUBCHEM_MOLECULAR_WEIGHT>
584.7
> <PUBCHEM_OPENEYE_CAN_SMILES>
CCC(CC)NC(=O)NCC(=O)NC(CC(=O)N1CCCC1)C(=O)NC(CC(=O)O)C(=O)NC(CC(C)C)C(=O)O
> <PUBCHEM_OPENEYE_ISO_SMILES>
CCC(CC)NC(=O)NCC(=O)N[C@@H](CC(=O)N1CCCC1)C(=O)N[C@@H](CC(=O)O)C(=O)N[C@@H](CC(C)C)C(=O)O
> <PUBCHEM_CACTVS_TPSA>
223
> <PUBCHEM_MONOISOTOPIC_WEIGHT>
584.31697700
> <PUBCHEM_TOTAL_CHARGE>
0
> <PUBCHEM_HEAVY_ATOM_COUNT>
41
> <PUBCHEM_ATOM_DEF_STEREO_COUNT>
3
> <PUBCHEM_ATOM_UDEF_STEREO_COUNT>
0
> <PUBCHEM_BOND_DEF_STEREO_COUNT>
0
> <PUBCHEM_BOND_UDEF_STEREO_COUNT>
0
> <PUBCHEM_ISOTOPIC_ATOM_COUNT>
0
> <PUBCHEM_COMPONENT_COUNT>
1
> <PUBCHEM_CACTVS_TAUTO_COUNT>
-1
> <PUBCHEM_COORDINATE_TYPE>
1
5
255
> <PUBCHEM_BONDANNOTATIONS>
22  11  6
25  12  5
26  13  5
$$$$
