515261
  -OEChem-10302200282D
 89 90  0     1  0  0  0  0  0999 V2000
    3.5546   -0.9195    0.0000 O   0  0  0  0  0  0  0  0  0  0  0  0
    5.3147   -4.1983    0.0000 O   0  0  0  0  0  0  0  0  0  0  0  0
    6.1808   -3.6983    0.0000 O   0  0  0  0  0  0  0  0  0  0  0  0
    5.6282    2.1677    0.0000 O   0  0  0  0  0  0  0  0  0  0  0  0
    9.6448   -2.6983    0.0000 O   0  0  0  0  0  0  0  0  0  0  0  0
    8.7788   -5.1983    0.0000 O   0  0  0  0  0  0  0  0  0  0  0  0
   10.5109    0.8017    0.0000 O   0  0  0  0  0  0  0  0  0  0  0  0
    9.6448   -3.6983    0.0000 O   0  0  0  0  0  0  0  0  0  0  0  0
    8.7788    0.8017    0.0000 O   0  0  0  0  0  0  0  0  0  0  0  0
    5.3147   -1.1983    0.0000 N   0  0  0  0  0  0  0  0  0  0  0  0
    3.5827   -4.1983    0.0000 N   0  0  0  0  0  0  0  0  0  0  0  0
    4.2269    1.1496    0.0000 N   0  0  0  0  0  0  0  0  0  0  0  0
    7.0468   -2.1983    0.0000 N   0  0  0  0  0  0  0  0  0  0  0  0
    4.0459    2.8722    0.0000 N   0  0  0  0  0  0  0  0  0  0  0  0
    8.7788   -1.1983    0.0000 N   0  0  0  0  0  0  0  0  0  0  0  0
    5.3147   -2.1983    0.0000 C   0  0  1  0  0  0  0  0  0  0  0  0
    4.8147    0.3406    0.0000 C   0  0  3  0  0  0  0  0  0  0  0  0
    6.1237   -0.6105    0.0000 C   0  0  0  0  0  0  0  0  0  0  0  0
    5.8147    0.3406    0.0000 C   0  0  0  0  0  0  0  0  0  0  0  0
    4.5057   -0.6105    0.0000 C   0  0  0  0  0  0  0  0  0  0  0  0
    4.4487   -2.6983    0.0000 C   0  0  0  0  0  0  0  0  0  0  0  0
    2.6691   -3.7915    0.0000 C   0  0  0  0  0  0  0  0  0  0  0  0
    3.4782   -5.1928    0.0000 C   0  0  0  0  0  0  0  0  0  0  0  0
    2.0000   -4.5347    0.0000 C   0  0  0  0  0  0  0  0  0  0  0  0
    2.5000   -5.4007    0.0000 C   0  0  0  0  0  0  0  0  0  0  0  0
    4.4487   -3.6983    0.0000 C   0  0  0  0  0  0  0  0  0  0  0  0
    6.1808   -2.6983    0.0000 C   0  0  0  0  0  0  0  0  0  0  0  0
    7.9128   -2.6983    0.0000 C   0  0  1  0  0  0  0  0  0  0  0  0
    4.6337    2.0631    0.0000 C   0  0  0  0  0  0  0  0  0  0  0  0
    4.4526    3.7857    0.0000 C   0  0  0  0  0  0  0  0  0  0  0  0
    7.9128   -3.6983    0.0000 C   0  0  0  0  0  0  0  0  0  0  0  0
    8.7788   -2.1983    0.0000 C   0  0  0  0  0  0  0  0  0  0  0  0
    9.6448   -0.6983    0.0000 C   0  0  1  0  0  0  0  0  0  0  0  0
   10.5109   -1.1983    0.0000 C   0  0  0  0  0  0  0  0  0  0  0  0
    3.8648    4.5947    0.0000 C   0  0  0  0  0  0  0  0  0  0  0  0
    5.4472    3.8902    0.0000 C   0  0  0  0  0  0  0  0  0  0  0  0
   11.3769   -0.6983    0.0000 C   0  0  0  0  0  0  0  0  0  0  0  0
    8.7788   -4.1983    0.0000 C   0  0  0  0  0  0  0  0  0  0  0  0
    4.2716    5.5083    0.0000 C   0  0  0  0  0  0  0  0  0  0  0  0
    5.8539    4.8038    0.0000 C   0  0  0  0  0  0  0  0  0  0  0  0
   12.2429   -1.1983    0.0000 C   0  0  0  0  0  0  0  0  0  0  0  0
   11.3769    0.3017    0.0000 C   0  0  0  0  0  0  0  0  0  0  0  0
    9.6448    0.3017    0.0000 C   0  0  0  0  0  0  0  0  0  0  0  0
    5.3147   -2.8183    0.0000 H   0  0  0  0  0  0  0  0  0  0  0  0
    5.0962    0.8930    0.0000 H   0  0  0  0  0  0  0  0  0  0  0  0
    6.4337   -1.1474    0.0000 H   0  0  0  0  0  0  0  0  0  0  0  0
    6.6901   -0.3583    0.0000 H   0  0  0  0  0  0  0  0  0  0  0  0
    6.4212    0.4695    0.0000 H   0  0  0  0  0  0  0  0  0  0  0  0
    5.7499    0.9572    0.0000 H   0  0  0  0  0  0  0  0  0  0  0  0
    4.2366   -2.1157    0.0000 H   0  0  0  0  0  0  0  0  0  0  0  0
    3.8381   -2.8059    0.0000 H   0  0  0  0  0  0  0  0  0  0  0  0
    2.9791   -3.2546    0.0000 H   0  0  0  0  0  0  0  0  0  0  0  0
    2.1675   -3.4271    0.0000 H   0  0  0  0  0  0  0  0  0  0  0  0
    3.5430   -5.8094    0.0000 H   0  0  0  0  0  0  0  0  0  0  0  0
    4.0982   -5.1928    0.0000 H   0  0  0  0  0  0  0  0  0  0  0  0
    1.5851   -4.0739    0.0000 H   0  0  0  0  0  0  0  0  0  0  0  0
    1.4984   -4.8991    0.0000 H   0  0  0  0  0  0  0  0  0  0  0  0
    1.9336   -5.6529    0.0000 H   0  0  0  0  0  0  0  0  0  0  0  0
    2.6916   -5.9904    0.0000 H   0  0  0  0  0  0  0  0  0  0  0  0
    3.6103    1.0848    0.0000 H   0  0  0  0  0  0  0  0  0  0  0  0
    7.0468   -1.5783    0.0000 H   0  0  0  0  0  0  0  0  0  0  0  0
    7.9128   -2.0783    0.0000 H   0  0  0  0  0  0  0  0  0  0  0  0
    3.8360    3.7209    0.0000 H   0  0  0  0  0  0  0  0  0  0  0  0
    3.4293    2.8074    0.0000 H   0  0  0  0  0  0  0  0  0  0  0  0
    7.3022   -3.5906    0.0000 H   0  0  0  0  0  0  0  0  0  0  0  0
    7.7008   -4.2809    0.0000 H   0  0  0  0  0  0  0  0  0  0  0  0
    9.1079   -0.3883    0.0000 H   0  0  0  0  0  0  0  0  0  0  0  0
   10.1124   -1.6732    0.0000 H   0  0  0  0  0  0  0  0  0  0  0  0
   10.9094   -1.6732    0.0000 H   0  0  0  0  0  0  0  0  0  0  0  0
    8.2419   -0.8883    0.0000 H   0  0  0  0  0  0  0  0  0  0  0  0
    3.3508    4.9414    0.0000 H   0  0  0  0  0  0  0  0  0  0  0  0
    3.4342    4.1487    0.0000 H   0  0  0  0  0  0  0  0  0  0  0  0
    5.4039    3.2717    0.0000 H   0  0  0  0  0  0  0  0  0  0  0  0
    6.0487    3.7402    0.0000 H   0  0  0  0  0  0  0  0  0  0  0  0
   10.8400   -0.3883    0.0000 H   0  0  0  0  0  0  0  0  0  0  0  0
   11.9329   -1.7352    0.0000 H   0  0  0  0  0  0  0  0  0  0  0  0
   12.7799   -1.5083    0.0000 H   0  0  0  0  0  0  0  0  0  0  0  0
   12.5529   -0.6613    0.0000 H   0  0  0  0  0  0  0  0  0  0  0  0
   11.9969    0.3017    0.0000 H   0  0  0  0  0  0  0  0  0  0  0  0
   11.3769    0.9217    0.0000 H   0  0  0  0  0  0  0  0  0  0  0  0
   10.7569    0.3017    0.0000 H   0  0  0  0  0  0  0  0  0  0  0  0
    4.8380    5.2561    0.0000 H   0  0  0  0  0  0  0  0  0  0  0  0
    4.5238    6.0747    0.0000 H   0  0  0  0  0  0  0  0  0  0  0  0
    3.7052    5.7604    0.0000 H   0  0  0  0  0  0  0  0  0  0  0  0
    6.4203    4.5516    0.0000 H   0  0  0  0  0  0  0  0  0  0  0  0
    6.1061    5.3702    0.0000 H   0  0  0  0  0  0  0  0  0  0  0  0
    5.2875    5.0560    0.0000 H   0  0  0  0  0  0  0  0  0  0  0  0
    9.3158   -5.5083    0.0000 H   0  0  0  0  0  0  0  0  0  0  0  0
   10.5109    1.4217    0.0000 H   0  0  0  0  0  0  0  0  0  0  0  0
  1 20  2  0  0  0  0
  2 26  2  0  0  0  0
  3 27  2  0  0  0  0
  4 29  2  0  0  0  0
  5 32  2  0  0  0  0
  6 38  1  0  0  0  0
  6 88  1  0  0  0  0
  7 43  1  0  0  0  0
  7 89  1  0  0  0  0
  8 38  2  0  0  0  0
  9 43  2  0  0  0  0
 10 16  1  0  0  0  0
 10 18  1  0  0  0  0
 10 20  1  0  0  0  0
 11 22  1  0  0  0  0
 11 23  1  0  0  0  0
 11 26  1  0  0  0  0
 12 17  1  0  0  0  0
 12 29  1  0  0  0  0
 12 60  1  0  0  0  0
 13 27  1  0  0  0  0
 28 13  1  6  0  0  0
 13 61  1  0  0  0  0
 14 29  1  0  0  0  0
 14 30  1  0  0  0  0
 14 64  1  0  0  0  0
 15 32  1  0  0  0  0
 33 15  1  6  0  0  0
 15 70  1  0  0  0  0
 16 21  1  6  0  0  0
 16 27  1  0  0  0  0
 16 44  1  0  0  0  0
 17 19  1  0  0  0  0
 17 20  1  0  0  0  0
 17 45  1  0  0  0  0
 18 19  1  0  0  0  0
 18 46  1  0  0  0  0
 18 47  1  0  0  0  0
 19 48  1  0  0  0  0
 19 49  1  0  0  0  0
 21 26  1  0  0  0  0
 21 50  1  0  0  0  0
 21 51  1  0  0  0  0
 22 24  1  0  0  0  0
 22 52  1  0  0  0  0
 22 53  1  0  0  0  0
 23 25  1  0  0  0  0
 23 54  1  0  0  0  0
 23 55  1  0  0  0  0
 24 25  1  0  0  0  0
 24 56  1  0  0  0  0
 24 57  1  0  0  0  0
 25 58  1  0  0  0  0
 25 59  1  0  0  0  0
 28 31  1  0  0  0  0
 28 32  1  0  0  0  0
 28 62  1  0  0  0  0
 30 35  1  0  0  0  0
 30 36  1  0  0  0  0
 30 63  1  0  0  0  0
 31 38  1  0  0  0  0
 31 65  1  0  0  0  0
 31 66  1  0  0  0  0
 33 34  1  0  0  0  0
 33 43  1  0  0  0  0
 33 67  1  0  0  0  0
 34 37  1  0  0  0  0
 34 68  1  0  0  0  0
 34 69  1  0  0  0  0
 35 39  1  0  0  0  0
 35 71  1  0  0  0  0
 35 72  1  0  0  0  0
 36 40  1  0  0  0  0
 36 73  1  0  0  0  0
 36 74  1  0  0  0  0
 37 41  1  0  0  0  0
 37 42  1  0  0  0  0
 37 75  1  0  0  0  0
 39 82  1  0  0  0  0
 39 83  1  0  0  0  0
 39 84  1  0  0  0  0
 40 85  1  0  0  0  0
 40 86  1  0  0  0  0
 40 87  1  0  0  0  0
 41 76  1  0  0  0  0
 41 77  1  0  0  0  0
 41 78  1  0  0  0  0
 42 79  1  0  0  0  0
 42 80  1  0  0  0  0
 42 81  1  0  0  0  0
M  END
> <PUBCHEM_COMPOUND_CID>
515261
> <PUBCHEM_COMPOUND_CANONICALIZED>
1
> <PUBCHEM_CACTVS_COMPLEXITY>
1040
> <PUBCHEM_CACTVS_HBOND_ACCEPTOR>
9
> <PUBCHEM_CACTVS_HBOND_DONOR>
6
> <PUBCHEM_CACTVS_ROTATABLE_BOND>
16
> <PUBCHEM_CACTVS_SUBSKEYS>
AAADcfB7vAAAAAAAAAAAAAAAAAAAAWLAAAAAAAAAAAAAAAAAAAAAHgAQCAAADSjBgAQDCAPAAgAIAAGQGAAAAAAAAAAAAIGIAACCQBoAwCAUQAAOFgKQAACvAAAMAAAAAAAAAAAAAAAAAAAAAAAAAAAAAA==
> <PUBCHEM_IUPAC_OPENEYE_NAME>
(2S)-2-[[(2S)-3-carboxy-2-[[(2S)-2-[3-(1-ethylpropylcarbamoylamino)-2-oxo-pyrrolidin-1-yl]-4-oxo-4-pyrrolidin-1-yl-butanoyl]amino]propanoyl]amino]-4-methyl-pentanoic acid
> <PUBCHEM_IUPAC_CAS_NAME>
(2S)-2-[[(2S)-3-carboxy-2-[[(2S)-1,4-dioxo-2-[2-oxo-3-[[oxo-(pentan-3-ylamino)methyl]amino]-1-pyrrolidinyl]-4-(1-pyrrolidinyl)butyl]amino]-1-oxopropyl]amino]-4-methylpentanoic acid
> <PUBCHEM_IUPAC_NAME_MARKUP>
(2<I>S</I>)-2-[[(2<I>S</I>)-3-carboxy-2-[[(2<I>S</I>)-4-oxo-2-[2-oxo-3-(pentan-3-ylcarbamoylamino)pyrrolidin-1-yl]-4-pyrrolidin-1-ylbutanoyl]amino]propanoyl]amino]-4-methylpentanoic acid
> <PUBCHEM_IUPAC_NAME>
(2S)-2-[[(2S)-3-carboxy-2-[[(2S)-4-oxo-2-[2-oxo-3-(pentan-3-ylcarbamoylamino)pyrrolidin-1-yl]-4-pyrrolidin-1-ylbutanoyl]amino]propanoyl]amino]-4-methylpentanoic acid
> <PUBCHEM_IUPAC_SYSTEMATIC_NAME>
(2S)-4-methyl-2-[[(2S)-4-oxidanyl-4-oxidanylidene-2-[[(2S)-4-oxidanylidene-2-[2-oxidanylidene-3-(pentan-3-ylcarbamoylamino)pyrrolidin-1-yl]-4-pyrrolidin-1-yl-butanoyl]amino]butanoyl]amino]pentanoic acid
> <PUBCHEM_IUPAC_TRADITIONAL_NAME>
(2S)-2-[[(2S)-3-carboxy-2-[[(2S)-2-[3-(1-ethylpropylcarbamoylamino)-2-keto-pyrrolidino]-4-keto-4-pyrrolidino-butanoyl]amino]propanoyl]amino]-4-methyl-valeric acid
> <PUBCHEM_IUPAC_INCHI>
InChI=1S/C28H46N6O9/c1-5-17(6-2)29-28(43)32-18-9-12-34(26(18)40)21(15-22(35)33-10-7-8-11-33)25(39)30-19(14-23(36)37)24(38)31-20(27(41)42)13-16(3)4/h16-21H,5-15H2,1-4H3,(H,30,39)(H,31,38)(H,36,37)(H,41,42)(H2,29,32,43)/t18?,19-,20-,21-/m0/s1
> <PUBCHEM_IUPAC_INCHIKEY>
WPJOSDRKMMGXIN-KTYMLHDXSA-N
> <PUBCHEM_XLOGP3_AA>
0.4
> <PUBCHEM_EXACT_MASS>
610.33262707
> <PUBCHEM_MOLECULAR_FORMULA>
C28H46N6O9
> <PUBCHEM_MOLECULAR_WEIGHT>
610.7
> <PUBCHEM_OPENEYE_CAN_SMILES>
CCC(CC)NC(=O)NC1CCN(C1=O)C(CC(=O)N2CCCC2)C(=O)NC(CC(=O)O)C(=O)NC(CC(C)C)C(=O)O
> <PUBCHEM_OPENEYE_ISO_SMILES>
CCC(CC)NC(=O)NC1CCN(C1=O)[C@@H](CC(=O)N2CCCC2)C(=O)N[C@@H](CC(=O)O)C(=O)N[C@@H](CC(C)C)C(=O)O
> <PUBCHEM_CACTVS_TPSA>
215
> <PUBCHEM_MONOISOTOPIC_WEIGHT>
610.33262707
> <PUBCHEM_TOTAL_CHARGE>
0
> <PUBCHEM_HEAVY_ATOM_COUNT>
43
> <PUBCHEM_ATOM_DEF_STEREO_COUNT>
3
> <PUBCHEM_ATOM_UDEF_STEREO_COUNT>
1
> <PUBCHEM_BOND_DEF_STEREO_COUNT>
0
> <PUBCHEM_BOND_UDEF_STEREO_COUNT>
0
> <PUBCHEM_ISOTOPIC_ATOM_COUNT>
0
> <PUBCHEM_COMPONENT_COUNT>
1
> <PUBCHEM_CACTVS_TAUTO_COUNT>
-1
> <PUBCHEM_COORDINATE_TYPE>
1
5
255
> <PUBCHEM_BONDANNOTATIONS>
17  12  3
28  13  6
33  15  6
16  21  6
$$$$
