515252
  -OEChem-10302200282D
 88 88  0     1  0  0  0  0  0999 V2000
   10.6603    2.2306    0.0000 O   0  0  0  0  0  0  0  0  0  0  0  0
   10.6603    1.2306    0.0000 O   0  0  0  0  0  0  0  0  0  0  0  0
    7.1962    2.2306    0.0000 O   0  0  0  0  0  0  0  0  0  0  0  0
   11.5263   -2.2694    0.0000 O   0  0  0  0  0  0  0  0  0  0  0  0
    8.9282   -4.7694    0.0000 O   0  0  0  0  0  0  0  0  0  0  0  0
    8.0622   -3.2694    0.0000 O   0  0  0  0  0  0  0  0  0  0  0  0
    4.5981   -0.2694    0.0000 O   0  0  0  0  0  0  0  0  0  0  0  0
   13.2583   -0.2694    0.0000 O   0  0  0  0  0  0  0  0  0  0  0  0
   12.3923   -1.7694    0.0000 O   0  0  0  0  0  0  0  0  0  0  0  0
    9.7942    3.7306    0.0000 N   0  0  0  0  0  0  0  0  0  0  0  0
    8.0622    0.7306    0.0000 N   0  0  0  0  0  0  0  0  0  0  0  0
    9.7942   -0.2694    0.0000 N   0  0  0  0  0  0  0  0  0  0  0  0
    5.4641    1.2306    0.0000 N   0  0  0  0  0  0  0  0  0  0  0  0
    9.7942   -2.2694    0.0000 N   0  0  0  0  0  0  0  0  0  0  0  0
    3.7320    1.2306    0.0000 N   0  0  0  0  0  0  0  0  0  0  0  0
   10.6032    4.3184    0.0000 C   0  0  0  0  0  0  0  0  0  0  0  0
    8.9852    4.3184    0.0000 C   0  0  0  0  0  0  0  0  0  0  0  0
   10.2942    5.2694    0.0000 C   0  0  0  0  0  0  0  0  0  0  0  0
    9.2942    5.2694    0.0000 C   0  0  0  0  0  0  0  0  0  0  0  0
    9.7942    2.7306    0.0000 C   0  0  0  0  0  0  0  0  0  0  0  0
    8.9282    2.2306    0.0000 C   0  0  0  0  0  0  0  0  0  0  0  0
    8.9282    1.2306    0.0000 C   0  0  1  0  0  0  0  0  0  0  0  0
    6.3301    0.7306    0.0000 C   0  0  1  0  0  0  0  0  0  0  0  0
    6.3301   -0.2694    0.0000 C   0  0  0  0  0  0  0  0  0  0  0  0
    9.7942    0.7306    0.0000 C   0  0  0  0  0  0  0  0  0  0  0  0
    7.1962    1.2306    0.0000 C   0  0  0  0  0  0  0  0  0  0  0  0
   10.6603   -0.7694    0.0000 C   0  0  2  0  0  0  0  0  0  0  0  0
   10.6603   -3.7694    0.0000 C   0  0  0  0  0  0  0  0  0  0  0  0
    9.7942   -3.2694    0.0000 C   0  0  1  0  0  0  0  0  0  0  0  0
   10.6603   -4.7694    0.0000 C   0  0  0  0  0  0  0  0  0  0  0  0
    5.4641   -0.7694    0.0000 C   0  0  0  0  0  0  0  0  0  0  0  0
    7.1962   -0.7694    0.0000 C   0  0  0  0  0  0  0  0  0  0  0  0
   10.6603   -1.7694    0.0000 C   0  0  0  0  0  0  0  0  0  0  0  0
   11.5263   -0.2694    0.0000 C   0  0  0  0  0  0  0  0  0  0  0  0
   11.5263   -5.2694    0.0000 C   0  0  0  0  0  0  0  0  0  0  0  0
    9.7942   -5.2694    0.0000 C   0  0  0  0  0  0  0  0  0  0  0  0
    8.9282   -3.7694    0.0000 C   0  0  0  0  0  0  0  0  0  0  0  0
    4.5981    0.7306    0.0000 C   0  0  0  0  0  0  0  0  0  0  0  0
   12.3923   -0.7694    0.0000 C   0  0  0  0  0  0  0  0  0  0  0  0
    2.8660    0.7306    0.0000 C   0  0  0  0  0  0  0  0  0  0  0  0
    2.0000    1.2306    0.0000 C   0  0  0  0  0  0  0  0  0  0  0  0
    2.8660   -0.2694    0.0000 C   0  0  0  0  0  0  0  0  0  0  0  0
   10.9132    3.7814    0.0000 H   0  0  0  0  0  0  0  0  0  0  0  0
   11.1696    4.5705    0.0000 H   0  0  0  0  0  0  0  0  0  0  0  0
    8.4188    4.5705    0.0000 H   0  0  0  0  0  0  0  0  0  0  0  0
    8.6752    3.7814    0.0000 H   0  0  0  0  0  0  0  0  0  0  0  0
   10.9007    5.3983    0.0000 H   0  0  0  0  0  0  0  0  0  0  0  0
   10.2294    5.8860    0.0000 H   0  0  0  0  0  0  0  0  0  0  0  0
    9.3590    5.8860    0.0000 H   0  0  0  0  0  0  0  0  0  0  0  0
    8.6878    5.3983    0.0000 H   0  0  0  0  0  0  0  0  0  0  0  0
    8.7162    2.8132    0.0000 H   0  0  0  0  0  0  0  0  0  0  0  0
    8.3176    2.1229    0.0000 H   0  0  0  0  0  0  0  0  0  0  0  0
    8.9282    0.6106    0.0000 H   0  0  0  0  0  0  0  0  0  0  0  0
    5.7932    0.4206    0.0000 H   0  0  0  0  0  0  0  0  0  0  0  0
    8.0622    0.1106    0.0000 H   0  0  0  0  0  0  0  0  0  0  0  0
    6.8671    0.0406    0.0000 H   0  0  0  0  0  0  0  0  0  0  0  0
   10.6603   -0.1494    0.0000 H   0  0  0  0  0  0  0  0  0  0  0  0
    9.2573   -0.5794    0.0000 H   0  0  0  0  0  0  0  0  0  0  0  0
   11.2708   -3.8771    0.0000 H   0  0  0  0  0  0  0  0  0  0  0  0
   10.8723   -3.1868    0.0000 H   0  0  0  0  0  0  0  0  0  0  0  0
    9.2573   -2.9594    0.0000 H   0  0  0  0  0  0  0  0  0  0  0  0
   11.1972   -4.4594    0.0000 H   0  0  0  0  0  0  0  0  0  0  0  0
    5.4641    1.8506    0.0000 H   0  0  0  0  0  0  0  0  0  0  0  0
    5.1541   -0.2325    0.0000 H   0  0  0  0  0  0  0  0  0  0  0  0
    4.9272   -1.0794    0.0000 H   0  0  0  0  0  0  0  0  0  0  0  0
    5.7741   -1.3064    0.0000 H   0  0  0  0  0  0  0  0  0  0  0  0
    6.8862   -1.3064    0.0000 H   0  0  0  0  0  0  0  0  0  0  0  0
    7.7331   -1.0794    0.0000 H   0  0  0  0  0  0  0  0  0  0  0  0
    7.5062   -0.2325    0.0000 H   0  0  0  0  0  0  0  0  0  0  0  0
    9.2573   -1.9594    0.0000 H   0  0  0  0  0  0  0  0  0  0  0  0
   11.9248    0.2055    0.0000 H   0  0  0  0  0  0  0  0  0  0  0  0
   11.1278    0.2055    0.0000 H   0  0  0  0  0  0  0  0  0  0  0  0
   11.2163   -5.8064    0.0000 H   0  0  0  0  0  0  0  0  0  0  0  0
   12.0632   -5.5794    0.0000 H   0  0  0  0  0  0  0  0  0  0  0  0
   11.8363   -4.7325    0.0000 H   0  0  0  0  0  0  0  0  0  0  0  0
    9.4842   -4.7325    0.0000 H   0  0  0  0  0  0  0  0  0  0  0  0
    9.2573   -5.5794    0.0000 H   0  0  0  0  0  0  0  0  0  0  0  0
   10.1042   -5.8064    0.0000 H   0  0  0  0  0  0  0  0  0  0  0  0
    3.7320    1.8506    0.0000 H   0  0  0  0  0  0  0  0  0  0  0  0
    2.8660    1.3506    0.0000 H   0  0  0  0  0  0  0  0  0  0  0  0
    2.3100    1.7675    0.0000 H   0  0  0  0  0  0  0  0  0  0  0  0
    1.4631    1.5406    0.0000 H   0  0  0  0  0  0  0  0  0  0  0  0
    1.6900    0.6936    0.0000 H   0  0  0  0  0  0  0  0  0  0  0  0
    2.2460   -0.2694    0.0000 H   0  0  0  0  0  0  0  0  0  0  0  0
    2.8660   -0.8894    0.0000 H   0  0  0  0  0  0  0  0  0  0  0  0
    3.4860   -0.2694    0.0000 H   0  0  0  0  0  0  0  0  0  0  0  0
    8.3913   -5.0794    0.0000 H   0  0  0  0  0  0  0  0  0  0  0  0
   13.7953   -0.5794    0.0000 H   0  0  0  0  0  0  0  0  0  0  0  0
  1 20  2  0  0  0  0
  2 25  2  0  0  0  0
  3 26  2  0  0  0  0
  4 33  2  0  0  0  0
  5 37  1  0  0  0  0
  5 87  1  0  0  0  0
  6 37  2  0  0  0  0
  7 38  2  0  0  0  0
  8 39  1  0  0  0  0
  8 88  1  0  0  0  0
  9 39  2  0  0  0  0
 10 16  1  0  0  0  0
 10 17  1  0  0  0  0
 10 20  1  0  0  0  0
 22 11  1  1  0  0  0
 11 26  1  0  0  0  0
 11 55  1  0  0  0  0
 12 25  1  0  0  0  0
 27 12  1  1  0  0  0
 12 58  1  0  0  0  0
 23 13  1  6  0  0  0
 13 38  1  0  0  0  0
 13 63  1  0  0  0  0
 29 14  1  1  0  0  0
 14 33  1  0  0  0  0
 14 70  1  0  0  0  0
 15 38  1  0  0  0  0
 15 40  1  0  0  0  0
 15 79  1  0  0  0  0
 16 18  1  0  0  0  0
 16 43  1  0  0  0  0
 16 44  1  0  0  0  0
 17 19  1  0  0  0  0
 17 45  1  0  0  0  0
 17 46  1  0  0  0  0
 18 19  1  0  0  0  0
 18 47  1  0  0  0  0
 18 48  1  0  0  0  0
 19 49  1  0  0  0  0
 19 50  1  0  0  0  0
 20 21  1  0  0  0  0
 21 22  1  0  0  0  0
 21 51  1  0  0  0  0
 21 52  1  0  0  0  0
 22 25  1  0  0  0  0
 22 53  1  0  0  0  0
 23 24  1  0  0  0  0
 23 26  1  0  0  0  0
 23 54  1  0  0  0  0
 24 31  1  0  0  0  0
 24 32  1  0  0  0  0
 24 56  1  0  0  0  0
 27 33  1  0  0  0  0
 27 34  1  0  0  0  0
 27 57  1  0  0  0  0
 28 29  1  0  0  0  0
 28 30  1  0  0  0  0
 28 59  1  0  0  0  0
 28 60  1  0  0  0  0
 29 37  1  0  0  0  0
 29 61  1  0  0  0  0
 30 35  1  0  0  0  0
 30 36  1  0  0  0  0
 30 62  1  0  0  0  0
 31 64  1  0  0  0  0
 31 65  1  0  0  0  0
 31 66  1  0  0  0  0
 32 67  1  0  0  0  0
 32 68  1  0  0  0  0
 32 69  1  0  0  0  0
 34 39  1  0  0  0  0
 34 71  1  0  0  0  0
 34 72  1  0  0  0  0
 35 73  1  0  0  0  0
 35 74  1  0  0  0  0
 35 75  1  0  0  0  0
 36 76  1  0  0  0  0
 36 77  1  0  0  0  0
 36 78  1  0  0  0  0
 40 41  1  0  0  0  0
 40 42  1  0  0  0  0
 40 80  1  0  0  0  0
 41 81  1  0  0  0  0
 41 82  1  0  0  0  0
 41 83  1  0  0  0  0
 42 84  1  0  0  0  0
 42 85  1  0  0  0  0
 42 86  1  0  0  0  0
M  END
> <PUBCHEM_COMPOUND_CID>
515252
> <PUBCHEM_COMPOUND_CANONICALIZED>
1
> <PUBCHEM_CACTVS_COMPLEXITY>
995
> <PUBCHEM_CACTVS_HBOND_ACCEPTOR>
9
> <PUBCHEM_CACTVS_HBOND_DONOR>
7
> <PUBCHEM_CACTVS_ROTATABLE_BOND>
16
> <PUBCHEM_CACTVS_SUBSKEYS>
AAADcfB7vAAAAAAAAAAAAAAAAAAAAWAAAAAAAAAAAAAAAAAAAAAAHgAQCAAADSjBgAQDCAPAAgAIAAGQGAAAAAAAAAAAAIGIAACCQBoAwCAUQAAOFgKQAACvAAAMAAAAAAAAAAAAAAAAAAAAAAAAAAAAAA==
> <PUBCHEM_IUPAC_OPENEYE_NAME>
(2S)-2-[[(2S)-3-carboxy-2-[[(2S)-2-[[(2S)-2-(isopropylcarbamoylamino)-3-methyl-butanoyl]amino]-4-oxo-4-pyrrolidin-1-yl-butanoyl]amino]propanoyl]amino]-4-methyl-pentanoic acid
> <PUBCHEM_IUPAC_CAS_NAME>
(2S)-2-[[(2S)-3-carboxy-2-[[(2S)-2-[[(2S)-3-methyl-1-oxo-2-[[oxo-(propan-2-ylamino)methyl]amino]butyl]amino]-1,4-dioxo-4-(1-pyrrolidinyl)butyl]amino]-1-oxopropyl]amino]-4-methylpentanoic acid
> <PUBCHEM_IUPAC_NAME_MARKUP>
(2<I>S</I>)-2-[[(2<I>S</I>)-3-carboxy-2-[[(2<I>S</I>)-2-[[(2<I>S</I>)-3-methyl-2-(propan-2-ylcarbamoylamino)butanoyl]amino]-4-oxo-4-pyrrolidin-1-ylbutanoyl]amino]propanoyl]amino]-4-methylpentanoic acid
> <PUBCHEM_IUPAC_NAME>
(2S)-2-[[(2S)-3-carboxy-2-[[(2S)-2-[[(2S)-3-methyl-2-(propan-2-ylcarbamoylamino)butanoyl]amino]-4-oxo-4-pyrrolidin-1-ylbutanoyl]amino]propanoyl]amino]-4-methylpentanoic acid
> <PUBCHEM_IUPAC_SYSTEMATIC_NAME>
(2S)-4-methyl-2-[[(2S)-2-[[(2S)-2-[[(2S)-3-methyl-2-(propan-2-ylcarbamoylamino)butanoyl]amino]-4-oxidanylidene-4-pyrrolidin-1-yl-butanoyl]amino]-4-oxidanyl-4-oxidanylidene-butanoyl]amino]pentanoic acid
> <PUBCHEM_IUPAC_TRADITIONAL_NAME>
(2S)-2-[[(2S)-3-carboxy-2-[[(2S)-2-[[(2S)-2-(isopropylcarbamoylamino)-3-methyl-butanoyl]amino]-4-keto-4-pyrrolidino-butanoyl]amino]propanoyl]amino]-4-methyl-valeric acid
> <PUBCHEM_IUPAC_INCHI>
InChI=1S/C27H46N6O9/c1-14(2)11-19(26(40)41)31-24(38)18(13-21(35)36)29-23(37)17(12-20(34)33-9-7-8-10-33)30-25(39)22(15(3)4)32-27(42)28-16(5)6/h14-19,22H,7-13H2,1-6H3,(H,29,37)(H,30,39)(H,31,38)(H,35,36)(H,40,41)(H2,28,32,42)/t17-,18-,19-,22-/m0/s1
> <PUBCHEM_IUPAC_INCHIKEY>
SENHIAHLPVAMCW-OZIGNCPNSA-N
> <PUBCHEM_XLOGP3_AA>
0.4
> <PUBCHEM_EXACT_MASS>
598.33262707
> <PUBCHEM_MOLECULAR_FORMULA>
C27H46N6O9
> <PUBCHEM_MOLECULAR_WEIGHT>
598.7
> <PUBCHEM_OPENEYE_CAN_SMILES>
CC(C)CC(C(=O)O)NC(=O)C(CC(=O)O)NC(=O)C(CC(=O)N1CCCC1)NC(=O)C(C(C)C)NC(=O)NC(C)C
> <PUBCHEM_OPENEYE_ISO_SMILES>
CC(C)C[C@@H](C(=O)O)NC(=O)[C@H](CC(=O)O)NC(=O)[C@H](CC(=O)N1CCCC1)NC(=O)[C@H](C(C)C)NC(=O)NC(C)C
> <PUBCHEM_CACTVS_TPSA>
223
> <PUBCHEM_MONOISOTOPIC_WEIGHT>
598.33262707
> <PUBCHEM_TOTAL_CHARGE>
0
> <PUBCHEM_HEAVY_ATOM_COUNT>
42
> <PUBCHEM_ATOM_DEF_STEREO_COUNT>
4
> <PUBCHEM_ATOM_UDEF_STEREO_COUNT>
0
> <PUBCHEM_BOND_DEF_STEREO_COUNT>
0
> <PUBCHEM_BOND_UDEF_STEREO_COUNT>
0
> <PUBCHEM_ISOTOPIC_ATOM_COUNT>
0
> <PUBCHEM_COMPONENT_COUNT>
1
> <PUBCHEM_CACTVS_TAUTO_COUNT>
-1
> <PUBCHEM_COORDINATE_TYPE>
1
5
255
> <PUBCHEM_BONDANNOTATIONS>
22  11  5
27  12  5
23  13  6
29  14  5
$$$$
