515207
  -OEChem-10302200282D
 47 50  0     1  0  0  0  0  0999 V2000
    8.2572   -0.1865    0.0000 O   0  0  0  0  0  0  0  0  0  0  0  0
    6.0795   -2.6897    0.0000 O   0  0  0  0  0  0  0  0  0  0  0  0
    2.9136   -1.8689    0.0000 O   0  0  0  0  0  0  0  0  0  0  0  0
    3.6180   -0.2866    0.0000 O   0  0  0  0  0  0  0  0  0  0  0  0
    7.3907   -0.6865    0.0000 N   0  0  3  0  0  0  0  0  0  0  0  0
    6.4396   -0.9955    0.0000 C   0  0  1  0  0  0  0  0  0  0  0  0
    5.6306   -1.5833    0.0000 C   0  0  3  0  0  0  0  0  0  0  0  0
    7.3907    0.3135    0.0000 C   0  0  1  0  0  0  0  0  0  0  0  0
    4.6361   -1.6878    0.0000 C   0  0  2  0  0  0  0  0  0  0  0  0
    5.2239   -2.4969    0.0000 C   0  0  0  0  0  0  0  0  0  0  0  0
    5.8519   -0.1865    0.0000 C   0  0  0  0  0  0  0  0  0  0  0  0
    6.4396    0.6225    0.0000 C   0  0  0  0  0  0  0  0  0  0  0  0
    6.7487   -1.9466    0.0000 C   0  0  0  0  0  0  0  0  0  0  0  0
    7.3907    1.3135    0.0000 C   0  0  0  0  0  0  0  0  0  0  0  0
    3.7226   -1.2811    0.0000 C   0  0  0  0  0  0  0  0  0  0  0  0
    7.7268   -2.1545    0.0000 C   0  0  0  0  0  0  0  0  0  0  0  0
    6.5247    1.8135    0.0000 C   0  0  0  0  0  0  0  0  0  0  0  0
    8.2567    1.8135    0.0000 C   0  0  0  0  0  0  0  0  0  0  0  0
    8.0358   -3.1056    0.0000 C   0  0  0  0  0  0  0  0  0  0  0  0
    6.5247    2.8135    0.0000 C   0  0  0  0  0  0  0  0  0  0  0  0
    8.2567    2.8135    0.0000 C   0  0  0  0  0  0  0  0  0  0  0  0
    9.0140   -3.3135    0.0000 C   0  0  0  0  0  0  0  0  0  0  0  0
    7.3907    3.3135    0.0000 C   0  0  0  0  0  0  0  0  0  0  0  0
    2.0000   -1.4622    0.0000 C   0  0  0  0  0  0  0  0  0  0  0  0
    6.1125   -1.9735    0.0000 H   0  0  0  0  0  0  0  0  0  0  0  0
    4.2459   -2.1697    0.0000 H   0  0  0  0  0  0  0  0  0  0  0  0
    4.7932   -2.9429    0.0000 H   0  0  0  0  0  0  0  0  0  0  0  0
    5.7379   -2.8436    0.0000 H   0  0  0  0  0  0  0  0  0  0  0  0
    5.3911    0.2283    0.0000 H   0  0  0  0  0  0  0  0  0  0  0  0
    5.3911   -0.6014    0.0000 H   0  0  0  0  0  0  0  0  0  0  0  0
    6.6918    1.1889    0.0000 H   0  0  0  0  0  0  0  0  0  0  0  0
    5.9027    0.9325    0.0000 H   0  0  0  0  0  0  0  0  0  0  0  0
    8.3408   -2.0682    0.0000 H   0  0  0  0  0  0  0  0  0  0  0  0
    7.7484   -1.5349    0.0000 H   0  0  0  0  0  0  0  0  0  0  0  0
    5.9877    1.5035    0.0000 H   0  0  0  0  0  0  0  0  0  0  0  0
    8.7937    1.5035    0.0000 H   0  0  0  0  0  0  0  0  0  0  0  0
    7.4219   -3.1918    0.0000 H   0  0  0  0  0  0  0  0  0  0  0  0
    8.0142   -3.7252    0.0000 H   0  0  0  0  0  0  0  0  0  0  0  0
    5.9877    3.1235    0.0000 H   0  0  0  0  0  0  0  0  0  0  0  0
    8.7937    3.1235    0.0000 H   0  0  0  0  0  0  0  0  0  0  0  0
    8.8851   -3.9199    0.0000 H   0  0  0  0  0  0  0  0  0  0  0  0
    9.6204   -3.4424    0.0000 H   0  0  0  0  0  0  0  0  0  0  0  0
    9.1429   -2.7070    0.0000 H   0  0  0  0  0  0  0  0  0  0  0  0
    7.3907    3.9335    0.0000 H   0  0  0  0  0  0  0  0  0  0  0  0
    2.2522   -0.8958    0.0000 H   0  0  0  0  0  0  0  0  0  0  0  0
    1.4336   -1.2100    0.0000 H   0  0  0  0  0  0  0  0  0  0  0  0
    1.7478   -2.0286    0.0000 H   0  0  0  0  0  0  0  0  0  0  0  0
  1  5  1  0  0  0  0
  1  8  1  0  0  0  0
  2 13  2  0  0  0  0
  3 15  1  0  0  0  0
  3 24  1  0  0  0  0
  4 15  2  0  0  0  0
  5  6  1  0  0  0  0
  5  8  1  0  0  0  0
  6  7  1  0  0  0  0
  6 11  1  0  0  0  0
  6 13  1  6  0  0  0
  7  9  1  0  0  0  0
  7 10  1  0  0  0  0
  7 25  1  0  0  0  0
  8 12  1  0  0  0  0
  8 14  1  6  0  0  0
  9 10  1  0  0  0  0
  9 15  1  6  0  0  0
  9 26  1  0  0  0  0
 10 27  1  0  0  0  0
 10 28  1  0  0  0  0
 11 12  1  0  0  0  0
 11 29  1  0  0  0  0
 11 30  1  0  0  0  0
 12 31  1  0  0  0  0
 12 32  1  0  0  0  0
 13 16  1  0  0  0  0
 14 17  2  0  0  0  0
 14 18  1  0  0  0  0
 16 19  1  0  0  0  0
 16 33  1  0  0  0  0
 16 34  1  0  0  0  0
 17 20  1  0  0  0  0
 17 35  1  0  0  0  0
 18 21  2  0  0  0  0
 18 36  1  0  0  0  0
 19 22  1  0  0  0  0
 19 37  1  0  0  0  0
 19 38  1  0  0  0  0
 20 23  2  0  0  0  0
 20 39  1  0  0  0  0
 21 23  1  0  0  0  0
 21 40  1  0  0  0  0
 22 41  1  0  0  0  0
 22 42  1  0  0  0  0
 22 43  1  0  0  0  0
 23 44  1  0  0  0  0
 24 45  1  0  0  0  0
 24 46  1  0  0  0  0
 24 47  1  0  0  0  0
M  END
> <PUBCHEM_COMPOUND_CID>
515207
> <PUBCHEM_COMPOUND_CANONICALIZED>
1
> <PUBCHEM_CACTVS_COMPLEXITY>
544
> <PUBCHEM_CACTVS_HBOND_ACCEPTOR>
5
> <PUBCHEM_CACTVS_HBOND_DONOR>
0
> <PUBCHEM_CACTVS_ROTATABLE_BOND>
7
> <PUBCHEM_CACTVS_SUBSKEYS>
AAADceB6OAAAAAAAAAAAAAAAHiAAAWAAAAA8QAAAAAAAAAABAAAAHgAEAAAADYyBmAIyCIIQBACIAqDSCACCAAAgAAAoiAGADIgIJjKAkTGEMAhkwAGIiAe83/P+gAAAAAAAAAAAAAAAAAAAAAAAAAAAAA==
> <PUBCHEM_IUPAC_OPENEYE_NAME>
methyl (1S)-2-[(2R,5S)-2-butanoyl-5-phenyl-6-oxa-1-azabicyclo[3.1.0]hexan-2-yl]cyclopropanecarboxylate
> <PUBCHEM_IUPAC_CAS_NAME>
(1S)-2-[(2R,5S)-2-(1-oxobutyl)-5-phenyl-6-oxa-1-azabicyclo[3.1.0]hexan-2-yl]-1-cyclopropanecarboxylic acid methyl ester
> <PUBCHEM_IUPAC_NAME_MARKUP>
methyl (1<I>S</I>)-2-[(2<I>R</I>,5<I>S</I>)-2-butanoyl-5-phenyl-6-oxa-1-azabicyclo[3.1.0]hexan-2-yl]cyclopropane-1-carboxylate
> <PUBCHEM_IUPAC_NAME>
methyl (1S)-2-[(2R,5S)-2-butanoyl-5-phenyl-6-oxa-1-azabicyclo[3.1.0]hexan-2-yl]cyclopropane-1-carboxylate
> <PUBCHEM_IUPAC_SYSTEMATIC_NAME>
methyl (1S)-2-[(2R,5S)-2-butanoyl-5-phenyl-6-oxa-1-azabicyclo[3.1.0]hexan-2-yl]cyclopropane-1-carboxylate
> <PUBCHEM_IUPAC_TRADITIONAL_NAME>
(1S)-2-[(2R,5S)-2-butyryl-5-phenyl-6-oxa-1-azabicyclo[3.1.0]hexan-2-yl]cyclopropanecarboxylic acid methyl ester
> <PUBCHEM_IUPAC_INCHI>
InChI=1S/C19H23NO4/c1-3-7-16(21)18(15-12-14(15)17(22)23-2)10-11-19(20(18)24-19)13-8-5-4-6-9-13/h4-6,8-9,14-15H,3,7,10-12H2,1-2H3/t14-,15?,18+,19-,20?/m0/s1
> <PUBCHEM_IUPAC_INCHIKEY>
CYYARUWLUIGMRH-QPNYDWMPSA-N
> <PUBCHEM_XLOGP3_AA>
2.7
> <PUBCHEM_EXACT_MASS>
329.16270821
> <PUBCHEM_MOLECULAR_FORMULA>
C19H23NO4
> <PUBCHEM_MOLECULAR_WEIGHT>
329.4
> <PUBCHEM_OPENEYE_CAN_SMILES>
CCCC(=O)C1(CCC2(N1O2)C3=CC=CC=C3)C4CC4C(=O)OC
> <PUBCHEM_OPENEYE_ISO_SMILES>
CCCC(=O)[C@@]1(CC[C@@]2(N1O2)C3=CC=CC=C3)C4C[C@@H]4C(=O)OC
> <PUBCHEM_CACTVS_TPSA>
58.9
> <PUBCHEM_MONOISOTOPIC_WEIGHT>
329.16270821
> <PUBCHEM_TOTAL_CHARGE>
0
> <PUBCHEM_HEAVY_ATOM_COUNT>
24
> <PUBCHEM_ATOM_DEF_STEREO_COUNT>
3
> <PUBCHEM_ATOM_UDEF_STEREO_COUNT>
1
> <PUBCHEM_BOND_DEF_STEREO_COUNT>
0
> <PUBCHEM_BOND_UDEF_STEREO_COUNT>
0
> <PUBCHEM_ISOTOPIC_ATOM_COUNT>
0
> <PUBCHEM_COMPONENT_COUNT>
1
> <PUBCHEM_CACTVS_TAUTO_COUNT>
-1
> <PUBCHEM_COORDINATE_TYPE>
1
5
255
> <PUBCHEM_BONDANNOTATIONS>
14  17  8
14  18  8
17  20  8
18  21  8
20  23  8
21  23  8
6  13  6
7  10  3
8  14  6
9  15  6
$$$$
