515275
  -OEChem-10302200282D
101102  0     1  0  0  0  0  0999 V2000
    5.4641   -2.4050    0.0000 O   0  0  0  0  0  0  0  0  0  0  0  0
    4.5981    1.0950    0.0000 O   0  0  0  0  0  0  0  0  0  0  0  0
    6.3301    4.0950    0.0000 O   0  0  0  0  0  0  0  0  0  0  0  0
    7.1962    3.5950    0.0000 O   0  0  0  0  0  0  0  0  0  0  0  0
   10.6603    2.5950    0.0000 O   0  0  0  0  0  0  0  0  0  0  0  0
   11.5263   -0.9050    0.0000 O   0  0  0  0  0  0  0  0  0  0  0  0
    9.7942    5.0950    0.0000 O   0  0  0  0  0  0  0  0  0  0  0  0
    9.7942   -0.9050    0.0000 O   0  0  0  0  0  0  0  0  0  0  0  0
   10.6603    3.5950    0.0000 O   0  0  0  0  0  0  0  0  0  0  0  0
    3.7320   -2.4050    0.0000 N   0  0  0  0  0  0  0  0  0  0  0  0
    4.5981   -0.9050    0.0000 N   0  0  0  0  0  0  0  0  0  0  0  0
    4.5981    4.0950    0.0000 N   0  0  0  0  0  0  0  0  0  0  0  0
    6.3301    1.0950    0.0000 N   0  0  0  0  0  0  0  0  0  0  0  0
    8.0622    2.0950    0.0000 N   0  0  0  0  0  0  0  0  0  0  0  0
    9.7942    1.0950    0.0000 N   0  0  0  0  0  0  0  0  0  0  0  0
    3.7320   -3.4050    0.0000 C   0  0  0  0  0  0  0  0  0  0  0  0
    4.5981   -3.9050    0.0000 C   0  0  2  0  0  0  0  0  0  0  0  0
    2.8660   -3.9050    0.0000 C   0  0  2  0  0  0  0  0  0  0  0  0
    4.5981   -4.9050    0.0000 C   0  0  0  0  0  0  0  0  0  0  0  0
    2.8660   -4.9050    0.0000 C   0  0  0  0  0  0  0  0  0  0  0  0
    3.7320   -5.4050    0.0000 C   0  0  0  0  0  0  0  0  0  0  0  0
    5.4641   -3.4050    0.0000 C   0  0  0  0  0  0  0  0  0  0  0  0
    2.0000   -3.4050    0.0000 C   0  0  0  0  0  0  0  0  0  0  0  0
    4.5981   -1.9050    0.0000 C   0  0  0  0  0  0  0  0  0  0  0  0
    5.4641   -0.4050    0.0000 C   0  0  1  0  0  0  0  0  0  0  0  0
    6.3301   -0.9050    0.0000 C   0  0  0  0  0  0  0  0  0  0  0  0
    5.4641    0.5950    0.0000 C   0  0  0  0  0  0  0  0  0  0  0  0
    4.4936    5.0895    0.0000 C   0  0  0  0  0  0  0  0  0  0  0  0
    3.6845    3.6883    0.0000 C   0  0  0  0  0  0  0  0  0  0  0  0
    3.5154    5.2974    0.0000 C   0  0  0  0  0  0  0  0  0  0  0  0
    3.0154    4.4314    0.0000 C   0  0  0  0  0  0  0  0  0  0  0  0
    6.3301    2.0950    0.0000 C   0  0  1  0  0  0  0  0  0  0  0  0
    7.1962   -0.4050    0.0000 C   0  0  0  0  0  0  0  0  0  0  0  0
    6.3301   -1.9050    0.0000 C   0  0  0  0  0  0  0  0  0  0  0  0
    5.4641    2.5950    0.0000 C   0  0  0  0  0  0  0  0  0  0  0  0
    5.4641    3.5950    0.0000 C   0  0  0  0  0  0  0  0  0  0  0  0
    7.1962    2.5950    0.0000 C   0  0  0  0  0  0  0  0  0  0  0  0
    8.9282    2.5950    0.0000 C   0  0  2  0  0  0  0  0  0  0  0  0
   10.6603    0.5950    0.0000 C   0  0  1  0  0  0  0  0  0  0  0  0
   11.5263    1.0950    0.0000 C   0  0  0  0  0  0  0  0  0  0  0  0
   12.3923    0.5950    0.0000 C   0  0  0  0  0  0  0  0  0  0  0  0
    9.7942    2.0950    0.0000 C   0  0  0  0  0  0  0  0  0  0  0  0
    8.9282    3.5950    0.0000 C   0  0  0  0  0  0  0  0  0  0  0  0
   13.2583    1.0950    0.0000 C   0  0  0  0  0  0  0  0  0  0  0  0
   12.3923   -0.4050    0.0000 C   0  0  0  0  0  0  0  0  0  0  0  0
   10.6603   -0.4050    0.0000 C   0  0  0  0  0  0  0  0  0  0  0  0
    9.7942    4.0950    0.0000 C   0  0  0  0  0  0  0  0  0  0  0  0
    4.2690   -3.0950    0.0000 H   0  0  0  0  0  0  0  0  0  0  0  0
    5.1350   -4.2150    0.0000 H   0  0  0  0  0  0  0  0  0  0  0  0
    2.8660   -3.2850    0.0000 H   0  0  0  0  0  0  0  0  0  0  0  0
    4.8101   -5.4876    0.0000 H   0  0  0  0  0  0  0  0  0  0  0  0
    5.2087   -4.7973    0.0000 H   0  0  0  0  0  0  0  0  0  0  0  0
    2.2554   -4.7973    0.0000 H   0  0  0  0  0  0  0  0  0  0  0  0
    2.6540   -5.4876    0.0000 H   0  0  0  0  0  0  0  0  0  0  0  0
    3.3335   -5.8800    0.0000 H   0  0  0  0  0  0  0  0  0  0  0  0
    4.1306   -5.8800    0.0000 H   0  0  0  0  0  0  0  0  0  0  0  0
    5.7741   -3.9419    0.0000 H   0  0  0  0  0  0  0  0  0  0  0  0
    6.0010   -3.0950    0.0000 H   0  0  0  0  0  0  0  0  0  0  0  0
    5.1541   -2.8681    0.0000 H   0  0  0  0  0  0  0  0  0  0  0  0
    2.3100   -2.8681    0.0000 H   0  0  0  0  0  0  0  0  0  0  0  0
    1.4631   -3.0950    0.0000 H   0  0  0  0  0  0  0  0  0  0  0  0
    1.6900   -3.9419    0.0000 H   0  0  0  0  0  0  0  0  0  0  0  0
    3.1951   -2.0950    0.0000 H   0  0  0  0  0  0  0  0  0  0  0  0
    4.0611   -0.5950    0.0000 H   0  0  0  0  0  0  0  0  0  0  0  0
    5.4641   -1.0250    0.0000 H   0  0  0  0  0  0  0  0  0  0  0  0
    6.8671   -1.2150    0.0000 H   0  0  0  0  0  0  0  0  0  0  0  0
    5.1136    5.0895    0.0000 H   0  0  0  0  0  0  0  0  0  0  0  0
    4.5584    5.7061    0.0000 H   0  0  0  0  0  0  0  0  0  0  0  0
    3.1829    3.3238    0.0000 H   0  0  0  0  0  0  0  0  0  0  0  0
    3.9945    3.1513    0.0000 H   0  0  0  0  0  0  0  0  0  0  0  0
    3.7070    5.8871    0.0000 H   0  0  0  0  0  0  0  0  0  0  0  0
    2.9490    5.5496    0.0000 H   0  0  0  0  0  0  0  0  0  0  0  0
    2.5138    4.7958    0.0000 H   0  0  0  0  0  0  0  0  0  0  0  0
    2.6005    3.9707    0.0000 H   0  0  0  0  0  0  0  0  0  0  0  0
    6.8671    1.7850    0.0000 H   0  0  0  0  0  0  0  0  0  0  0  0
    6.8671    0.7850    0.0000 H   0  0  0  0  0  0  0  0  0  0  0  0
    4.8535    2.7027    0.0000 H   0  0  0  0  0  0  0  0  0  0  0  0
    5.2520    2.0124    0.0000 H   0  0  0  0  0  0  0  0  0  0  0  0
    7.5062   -0.9419    0.0000 H   0  0  0  0  0  0  0  0  0  0  0  0
    7.7331   -0.0950    0.0000 H   0  0  0  0  0  0  0  0  0  0  0  0
    6.8862    0.1319    0.0000 H   0  0  0  0  0  0  0  0  0  0  0  0
    5.7101   -1.9050    0.0000 H   0  0  0  0  0  0  0  0  0  0  0  0
    6.3301   -2.5250    0.0000 H   0  0  0  0  0  0  0  0  0  0  0  0
    6.9501   -1.9050    0.0000 H   0  0  0  0  0  0  0  0  0  0  0  0
    8.0622    1.4750    0.0000 H   0  0  0  0  0  0  0  0  0  0  0  0
    8.9282    1.9750    0.0000 H   0  0  0  0  0  0  0  0  0  0  0  0
   10.6603    1.2150    0.0000 H   0  0  0  0  0  0  0  0  0  0  0  0
   11.9248    1.5700    0.0000 H   0  0  0  0  0  0  0  0  0  0  0  0
   11.1278    1.5700    0.0000 H   0  0  0  0  0  0  0  0  0  0  0  0
   11.8554    0.2850    0.0000 H   0  0  0  0  0  0  0  0  0  0  0  0
    8.7162    4.1776    0.0000 H   0  0  0  0  0  0  0  0  0  0  0  0
    8.3176    3.4873    0.0000 H   0  0  0  0  0  0  0  0  0  0  0  0
    9.2573    0.7850    0.0000 H   0  0  0  0  0  0  0  0  0  0  0  0
   13.5683    0.5581    0.0000 H   0  0  0  0  0  0  0  0  0  0  0  0
   13.7953    1.4050    0.0000 H   0  0  0  0  0  0  0  0  0  0  0  0
   12.9483    1.6319    0.0000 H   0  0  0  0  0  0  0  0  0  0  0  0
   11.7723   -0.4050    0.0000 H   0  0  0  0  0  0  0  0  0  0  0  0
   12.3923   -1.0250    0.0000 H   0  0  0  0  0  0  0  0  0  0  0  0
   13.0123   -0.4050    0.0000 H   0  0  0  0  0  0  0  0  0  0  0  0
   11.5263   -1.5250    0.0000 H   0  0  0  0  0  0  0  0  0  0  0  0
   10.3312    5.4050    0.0000 H   0  0  0  0  0  0  0  0  0  0  0  0
  1 24  2  0  0  0  0
  2 27  2  0  0  0  0
  3 36  2  0  0  0  0
  4 37  2  0  0  0  0
  5 42  2  0  0  0  0
  6 46  1  0  0  0  0
  6100  1  0  0  0  0
  7 47  1  0  0  0  0
  7101  1  0  0  0  0
  8 46  2  0  0  0  0
  9 47  2  0  0  0  0
 10 16  1  0  0  0  0
 10 24  1  0  0  0  0
 10 63  1  0  0  0  0
 11 24  1  0  0  0  0
 25 11  1  6  0  0  0
 11 64  1  0  0  0  0
 12 28  1  0  0  0  0
 12 29  1  0  0  0  0
 12 36  1  0  0  0  0
 13 27  1  0  0  0  0
 32 13  1  1  0  0  0
 13 76  1  0  0  0  0
 14 37  1  0  0  0  0
 38 14  1  1  0  0  0
 14 85  1  0  0  0  0
 39 15  1  1  0  0  0
 15 42  1  0  0  0  0
 15 93  1  0  0  0  0
 16 17  1  0  0  0  0
 16 18  1  0  0  0  0
 16 48  1  0  0  0  0
 17 19  1  0  0  0  0
 17 22  1  1  0  0  0
 17 49  1  0  0  0  0
 18 20  1  0  0  0  0
 18 23  1  6  0  0  0
 18 50  1  0  0  0  0
 19 21  1  0  0  0  0
 19 51  1  0  0  0  0
 19 52  1  0  0  0  0
 20 21  1  0  0  0  0
 20 53  1  0  0  0  0
 20 54  1  0  0  0  0
 21 55  1  0  0  0  0
 21 56  1  0  0  0  0
 22 57  1  0  0  0  0
 22 58  1  0  0  0  0
 22 59  1  0  0  0  0
 23 60  1  0  0  0  0
 23 61  1  0  0  0  0
 23 62  1  0  0  0  0
 25 26  1  0  0  0  0
 25 27  1  0  0  0  0
 25 65  1  0  0  0  0
 26 33  1  0  0  0  0
 26 34  1  0  0  0  0
 26 66  1  0  0  0  0
 28 30  1  0  0  0  0
 28 67  1  0  0  0  0
 28 68  1  0  0  0  0
 29 31  1  0  0  0  0
 29 69  1  0  0  0  0
 29 70  1  0  0  0  0
 30 31  1  0  0  0  0
 30 71  1  0  0  0  0
 30 72  1  0  0  0  0
 31 73  1  0  0  0  0
 31 74  1  0  0  0  0
 32 35  1  0  0  0  0
 32 37  1  0  0  0  0
 32 75  1  0  0  0  0
 33 79  1  0  0  0  0
 33 80  1  0  0  0  0
 33 81  1  0  0  0  0
 34 82  1  0  0  0  0
 34 83  1  0  0  0  0
 34 84  1  0  0  0  0
 35 36  1  0  0  0  0
 35 77  1  0  0  0  0
 35 78  1  0  0  0  0
 38 42  1  0  0  0  0
 38 43  1  0  0  0  0
 38 86  1  0  0  0  0
 39 40  1  0  0  0  0
 39 46  1  0  0  0  0
 39 87  1  0  0  0  0
 40 41  1  0  0  0  0
 40 88  1  0  0  0  0
 40 89  1  0  0  0  0
 41 44  1  0  0  0  0
 41 45  1  0  0  0  0
 41 90  1  0  0  0  0
 43 47  1  0  0  0  0
 43 91  1  0  0  0  0
 43 92  1  0  0  0  0
 44 94  1  0  0  0  0
 44 95  1  0  0  0  0
 44 96  1  0  0  0  0
 45 97  1  0  0  0  0
 45 98  1  0  0  0  0
 45 99  1  0  0  0  0
M  END
> <PUBCHEM_COMPOUND_CID>
515275
> <PUBCHEM_COMPOUND_CANONICALIZED>
1
> <PUBCHEM_CACTVS_COMPLEXITY>
1130
> <PUBCHEM_CACTVS_HBOND_ACCEPTOR>
9
> <PUBCHEM_CACTVS_HBOND_DONOR>
7
> <PUBCHEM_CACTVS_ROTATABLE_BOND>
16
> <PUBCHEM_CACTVS_SUBSKEYS>
AAADcfB/vAAAAAAAAAAAAAAAAAAAAWAAAAAwAAAAAAAAAAAAAAAAHgAQCAAADSjBgAQDCAPAAgAIAAGQGAAAAAAAAAAAAIGIAACCQBoAwCAUQAAOFgKQAAG/gEAOAAAAAAAAAAAAAAQAAAQAAAAAAAAAAA==
> <PUBCHEM_IUPAC_OPENEYE_NAME>
(2S)-2-[[(2S)-3-carboxy-2-[[(2S)-2-[[(2S)-2-[[(2S,6S)-2,6-dimethylcyclohexyl]carbamoylamino]-3-methyl-butanoyl]amino]-4-oxo-4-pyrrolidin-1-yl-butanoyl]amino]propanoyl]amino]-4-methyl-pentanoic acid
> <PUBCHEM_IUPAC_CAS_NAME>
(2S)-2-[[(2S)-3-carboxy-2-[[(2S)-2-[[(2S)-2-[[[[(2S,6S)-2,6-dimethylcyclohexyl]amino]-oxomethyl]amino]-3-methyl-1-oxobutyl]amino]-1,4-dioxo-4-(1-pyrrolidinyl)butyl]amino]-1-oxopropyl]amino]-4-methylpentanoic acid
> <PUBCHEM_IUPAC_NAME_MARKUP>
(2<I>S</I>)-2-[[(2<I>S</I>)-3-carboxy-2-[[(2<I>S</I>)-2-[[(2<I>S</I>)-2-[[(2<I>S</I>,6<I>S</I>)-2,6-dimethylcyclohexyl]carbamoylamino]-3-methylbutanoyl]amino]-4-oxo-4-pyrrolidin-1-ylbutanoyl]amino]propanoyl]amino]-4-methylpentanoic acid
> <PUBCHEM_IUPAC_NAME>
(2S)-2-[[(2S)-3-carboxy-2-[[(2S)-2-[[(2S)-2-[[(2S,6S)-2,6-dimethylcyclohexyl]carbamoylamino]-3-methylbutanoyl]amino]-4-oxo-4-pyrrolidin-1-ylbutanoyl]amino]propanoyl]amino]-4-methylpentanoic acid
> <PUBCHEM_IUPAC_SYSTEMATIC_NAME>
(2S)-2-[[(2S)-2-[[(2S)-2-[[(2S)-2-[[(2S,6S)-2,6-dimethylcyclohexyl]carbamoylamino]-3-methyl-butanoyl]amino]-4-oxidanylidene-4-pyrrolidin-1-yl-butanoyl]amino]-4-oxidanyl-4-oxidanylidene-butanoyl]amino]-4-methyl-pentanoic acid
> <PUBCHEM_IUPAC_TRADITIONAL_NAME>
(2S)-2-[[(2S)-3-carboxy-2-[[(2S)-2-[[(2S)-2-[[(2S,6S)-2,6-dimethylcyclohexyl]carbamoylamino]-3-methyl-butanoyl]amino]-4-keto-4-pyrrolidino-butanoyl]amino]propanoyl]amino]-4-methyl-valeric acid
> <PUBCHEM_IUPAC_INCHI>
InChI=1S/C32H54N6O9/c1-17(2)14-23(31(45)46)35-29(43)22(16-25(40)41)33-28(42)21(15-24(39)38-12-7-8-13-38)34-30(44)26(18(3)4)36-32(47)37-27-19(5)10-9-11-20(27)6/h17-23,26-27H,7-16H2,1-6H3,(H,33,42)(H,34,44)(H,35,43)(H,40,41)(H,45,46)(H2,36,37,47)/t19-,20-,21-,22-,23-,26-/m0/s1
> <PUBCHEM_IUPAC_INCHIKEY>
REDSVMQELDPLIJ-DAESNONBSA-N
> <PUBCHEM_XLOGP3_AA>
2.3
> <PUBCHEM_EXACT_MASS>
666.39522732
> <PUBCHEM_MOLECULAR_FORMULA>
C32H54N6O9
> <PUBCHEM_MOLECULAR_WEIGHT>
666.8
> <PUBCHEM_OPENEYE_CAN_SMILES>
CC1CCCC(C1NC(=O)NC(C(C)C)C(=O)NC(CC(=O)N2CCCC2)C(=O)NC(CC(=O)O)C(=O)NC(CC(C)C)C(=O)O)C
> <PUBCHEM_OPENEYE_ISO_SMILES>
C[C@H]1CCC[C@@H](C1NC(=O)N[C@@H](C(C)C)C(=O)N[C@@H](CC(=O)N2CCCC2)C(=O)N[C@@H](CC(=O)O)C(=O)N[C@@H](CC(C)C)C(=O)O)C
> <PUBCHEM_CACTVS_TPSA>
223
> <PUBCHEM_MONOISOTOPIC_WEIGHT>
666.39522732
> <PUBCHEM_TOTAL_CHARGE>
0
> <PUBCHEM_HEAVY_ATOM_COUNT>
47
> <PUBCHEM_ATOM_DEF_STEREO_COUNT>
6
> <PUBCHEM_ATOM_UDEF_STEREO_COUNT>
0
> <PUBCHEM_BOND_DEF_STEREO_COUNT>
0
> <PUBCHEM_BOND_UDEF_STEREO_COUNT>
0
> <PUBCHEM_ISOTOPIC_ATOM_COUNT>
0
> <PUBCHEM_COMPONENT_COUNT>
1
> <PUBCHEM_CACTVS_TAUTO_COUNT>
-1
> <PUBCHEM_COORDINATE_TYPE>
1
5
255
> <PUBCHEM_BONDANNOTATIONS>
25  11  6
32  13  5
38  14  5
39  15  5
17  22  5
18  23  6
$$$$
