515289
  -OEChem-10302200282D
 98 97  0     1  0  0  0  0  0999 V2000
    8.5991    2.3170    0.0000 O   0  0  0  0  0  0  0  0  0  0  0  0
    7.7331   -0.9151    0.0000 O   0  0  0  0  0  0  0  0  0  0  0  0
    5.1350    1.3170    0.0000 O   0  0  0  0  0  0  0  0  0  0  0  0
    6.0010    2.8170    0.0000 O   0  0  0  0  0  0  0  0  0  0  0  0
    4.2690   -2.1830    0.0000 O   0  0  0  0  0  0  0  0  0  0  0  0
    2.5369   -0.1830    0.0000 O   0  0  0  0  0  0  0  0  0  0  0  0
    6.8671   -4.6830    0.0000 O   0  0  0  0  0  0  0  0  0  0  0  0
    3.4030   -1.6830    0.0000 O   0  0  0  0  0  0  0  0  0  0  0  0
    7.7331   -3.1830    0.0000 O   0  0  0  0  0  0  0  0  0  0  0  0
    6.8671    4.3170    0.0000 N   0  0  0  0  0  0  0  0  0  0  0  0
    6.0010   -0.1830    0.0000 N   0  0  0  0  0  0  0  0  0  0  0  0
    5.1350    4.3170    0.0000 N   0  0  0  0  0  0  0  0  0  0  0  0
    6.0010   -2.1830    0.0000 N   0  0  0  0  0  0  0  0  0  0  0  0
    8.5991    4.3170    0.0000 C   0  0  0  0  0  0  0  0  0  0  0  0
    7.7331    3.8170    0.0000 C   0  0  1  0  0  0  0  0  0  0  0  0
    6.8671    1.3170    0.0000 C   0  0  1  0  0  0  0  0  0  0  0  0
    6.8671    2.3170    0.0000 C   0  0  0  0  0  0  0  0  0  0  0  0
    7.7331    2.8170    0.0000 C   0  0  0  0  0  0  0  0  0  0  0  0
    9.4651    4.8170    0.0000 C   0  0  0  0  0  0  0  0  0  0  0  0
    9.0991    3.4510    0.0000 C   0  0  0  0  0  0  0  0  0  0  0  0
    8.0991    5.1830    0.0000 C   0  0  0  0  0  0  0  0  0  0  0  0
    7.7331    0.8170    0.0000 C   0  0  0  0  0  0  0  0  0  0  0  0
    9.2331   -0.0490    0.0000 C   0  0  0  0  0  0  0  0  0  0  0  0
    8.2332   -0.0490    0.0000 C   0  0  0  0  0  0  0  0  0  0  0  0
    6.0010    0.8170    0.0000 C   0  0  0  0  0  0  0  0  0  0  0  0
    6.0010    3.8170    0.0000 C   0  0  0  0  0  0  0  0  0  0  0  0
   10.2331   -0.0490    0.0000 C   0  0  0  0  0  0  0  0  0  0  0  0
    9.2331   -1.0490    0.0000 C   0  0  0  0  0  0  0  0  0  0  0  0
    9.2331    0.9510    0.0000 C   0  0  0  0  0  0  0  0  0  0  0  0
    5.1350   -0.6830    0.0000 C   0  0  1  0  0  0  0  0  0  0  0  0
    4.2690    3.8170    0.0000 C   0  0  0  0  0  0  0  0  0  0  0  0
    4.2690   -0.1830    0.0000 C   0  0  0  0  0  0  0  0  0  0  0  0
    5.1350   -1.6830    0.0000 C   0  0  0  0  0  0  0  0  0  0  0  0
    6.0010   -3.1830    0.0000 C   0  0  1  0  0  0  0  0  0  0  0  0
    3.4030    4.3170    0.0000 C   0  0  0  0  0  0  0  0  0  0  0  0
    4.2690    2.8170    0.0000 C   0  0  0  0  0  0  0  0  0  0  0  0
    5.1350   -3.6830    0.0000 C   0  0  0  0  0  0  0  0  0  0  0  0
    5.1350   -4.6830    0.0000 C   0  0  0  0  0  0  0  0  0  0  0  0
    2.5369    3.8170    0.0000 C   0  0  0  0  0  0  0  0  0  0  0  0
    3.4030    2.3170    0.0000 C   0  0  0  0  0  0  0  0  0  0  0  0
    4.2690   -5.1830    0.0000 C   0  0  0  0  0  0  0  0  0  0  0  0
    6.0010   -5.1830    0.0000 C   0  0  0  0  0  0  0  0  0  0  0  0
    3.4030   -0.6830    0.0000 C   0  0  0  0  0  0  0  0  0  0  0  0
    6.8671   -3.6830    0.0000 C   0  0  0  0  0  0  0  0  0  0  0  0
    7.1962    3.5070    0.0000 H   0  0  0  0  0  0  0  0  0  0  0  0
    7.4040    1.6270    0.0000 H   0  0  0  0  0  0  0  0  0  0  0  0
    6.6550    2.8996    0.0000 H   0  0  0  0  0  0  0  0  0  0  0  0
    6.2565    2.2093    0.0000 H   0  0  0  0  0  0  0  0  0  0  0  0
    9.7751    4.2800    0.0000 H   0  0  0  0  0  0  0  0  0  0  0  0
   10.0021    5.1270    0.0000 H   0  0  0  0  0  0  0  0  0  0  0  0
    9.1551    5.3539    0.0000 H   0  0  0  0  0  0  0  0  0  0  0  0
    8.5622    3.1410    0.0000 H   0  0  0  0  0  0  0  0  0  0  0  0
    9.4091    2.9140    0.0000 H   0  0  0  0  0  0  0  0  0  0  0  0
    9.6360    3.7610    0.0000 H   0  0  0  0  0  0  0  0  0  0  0  0
    8.6360    5.4930    0.0000 H   0  0  0  0  0  0  0  0  0  0  0  0
    7.7891    5.7200    0.0000 H   0  0  0  0  0  0  0  0  0  0  0  0
    7.5622    4.8730    0.0000 H   0  0  0  0  0  0  0  0  0  0  0  0
    8.3437    0.9247    0.0000 H   0  0  0  0  0  0  0  0  0  0  0  0
    7.2947    0.3786    0.0000 H   0  0  0  0  0  0  0  0  0  0  0  0
    6.8671    4.9370    0.0000 H   0  0  0  0  0  0  0  0  0  0  0  0
    6.5380   -0.4930    0.0000 H   0  0  0  0  0  0  0  0  0  0  0  0
   10.2331   -0.6690    0.0000 H   0  0  0  0  0  0  0  0  0  0  0  0
   10.8531   -0.0490    0.0000 H   0  0  0  0  0  0  0  0  0  0  0  0
   10.2331    0.5710    0.0000 H   0  0  0  0  0  0  0  0  0  0  0  0
    8.6131   -1.0490    0.0000 H   0  0  0  0  0  0  0  0  0  0  0  0
    9.2331   -1.6690    0.0000 H   0  0  0  0  0  0  0  0  0  0  0  0
    9.8531   -1.0490    0.0000 H   0  0  0  0  0  0  0  0  0  0  0  0
    9.8531    0.9510    0.0000 H   0  0  0  0  0  0  0  0  0  0  0  0
    9.2331    1.5710    0.0000 H   0  0  0  0  0  0  0  0  0  0  0  0
    8.6131    0.9510    0.0000 H   0  0  0  0  0  0  0  0  0  0  0  0
    5.1350   -0.0630    0.0000 H   0  0  0  0  0  0  0  0  0  0  0  0
    4.8059    3.5070    0.0000 H   0  0  0  0  0  0  0  0  0  0  0  0
    5.1350    4.9370    0.0000 H   0  0  0  0  0  0  0  0  0  0  0  0
    4.6675    0.2919    0.0000 H   0  0  0  0  0  0  0  0  0  0  0  0
    3.8705    0.2919    0.0000 H   0  0  0  0  0  0  0  0  0  0  0  0
    6.5380   -2.8730    0.0000 H   0  0  0  0  0  0  0  0  0  0  0  0
    3.8015    4.7919    0.0000 H   0  0  0  0  0  0  0  0  0  0  0  0
    3.0044    4.7919    0.0000 H   0  0  0  0  0  0  0  0  0  0  0  0
    4.4810    2.2344    0.0000 H   0  0  0  0  0  0  0  0  0  0  0  0
    4.8796    2.9247    0.0000 H   0  0  0  0  0  0  0  0  0  0  0  0
    4.9230   -3.1004    0.0000 H   0  0  0  0  0  0  0  0  0  0  0  0
    4.5244   -3.7907    0.0000 H   0  0  0  0  0  0  0  0  0  0  0  0
    5.1350   -5.3030    0.0000 H   0  0  0  0  0  0  0  0  0  0  0  0
    6.5380   -1.8730    0.0000 H   0  0  0  0  0  0  0  0  0  0  0  0
    2.2269    4.3539    0.0000 H   0  0  0  0  0  0  0  0  0  0  0  0
    2.0000    3.5070    0.0000 H   0  0  0  0  0  0  0  0  0  0  0  0
    2.8469    3.2800    0.0000 H   0  0  0  0  0  0  0  0  0  0  0  0
    3.0930    2.8539    0.0000 H   0  0  0  0  0  0  0  0  0  0  0  0
    2.8660    2.0070    0.0000 H   0  0  0  0  0  0  0  0  0  0  0  0
    3.7130    1.7800    0.0000 H   0  0  0  0  0  0  0  0  0  0  0  0
    3.9590   -4.6461    0.0000 H   0  0  0  0  0  0  0  0  0  0  0  0
    3.7320   -5.4930    0.0000 H   0  0  0  0  0  0  0  0  0  0  0  0
    4.5790   -5.7200    0.0000 H   0  0  0  0  0  0  0  0  0  0  0  0
    5.6910   -5.7200    0.0000 H   0  0  0  0  0  0  0  0  0  0  0  0
    6.5380   -5.4930    0.0000 H   0  0  0  0  0  0  0  0  0  0  0  0
    6.3110   -4.6461    0.0000 H   0  0  0  0  0  0  0  0  0  0  0  0
    2.0000   -0.4930    0.0000 H   0  0  0  0  0  0  0  0  0  0  0  0
    7.4040   -4.9930    0.0000 H   0  0  0  0  0  0  0  0  0  0  0  0
  1 18  2  0  0  0  0
  2 24  2  0  0  0  0
  3 25  2  0  0  0  0
  4 26  2  0  0  0  0
  5 33  2  0  0  0  0
  6 43  1  0  0  0  0
  6 97  1  0  0  0  0
  7 44  1  0  0  0  0
  7 98  1  0  0  0  0
  8 43  2  0  0  0  0
  9 44  2  0  0  0  0
 15 10  1  1  0  0  0
 10 26  1  0  0  0  0
 10 60  1  0  0  0  0
 11 25  1  0  0  0  0
 30 11  1  6  0  0  0
 11 61  1  0  0  0  0
 12 26  1  0  0  0  0
 12 31  1  0  0  0  0
 12 73  1  0  0  0  0
 13 33  1  0  0  0  0
 34 13  1  6  0  0  0
 13 84  1  0  0  0  0
 14 15  1  0  0  0  0
 14 19  1  0  0  0  0
 14 20  1  0  0  0  0
 14 21  1  0  0  0  0
 15 18  1  0  0  0  0
 15 45  1  0  0  0  0
 16 17  1  0  0  0  0
 16 22  1  1  0  0  0
 16 25  1  0  0  0  0
 16 46  1  0  0  0  0
 17 18  1  0  0  0  0
 17 47  1  0  0  0  0
 17 48  1  0  0  0  0
 19 49  1  0  0  0  0
 19 50  1  0  0  0  0
 19 51  1  0  0  0  0
 20 52  1  0  0  0  0
 20 53  1  0  0  0  0
 20 54  1  0  0  0  0
 21 55  1  0  0  0  0
 21 56  1  0  0  0  0
 21 57  1  0  0  0  0
 22 24  1  0  0  0  0
 22 58  1  0  0  0  0
 22 59  1  0  0  0  0
 23 24  1  0  0  0  0
 23 27  1  0  0  0  0
 23 28  1  0  0  0  0
 23 29  1  0  0  0  0
 27 62  1  0  0  0  0
 27 63  1  0  0  0  0
 27 64  1  0  0  0  0
 28 65  1  0  0  0  0
 28 66  1  0  0  0  0
 28 67  1  0  0  0  0
 29 68  1  0  0  0  0
 29 69  1  0  0  0  0
 29 70  1  0  0  0  0
 30 32  1  0  0  0  0
 30 33  1  0  0  0  0
 30 71  1  0  0  0  0
 31 35  1  0  0  0  0
 31 36  1  0  0  0  0
 31 72  1  0  0  0  0
 32 43  1  0  0  0  0
 32 74  1  0  0  0  0
 32 75  1  0  0  0  0
 34 37  1  0  0  0  0
 34 44  1  0  0  0  0
 34 76  1  0  0  0  0
 35 39  1  0  0  0  0
 35 77  1  0  0  0  0
 35 78  1  0  0  0  0
 36 40  1  0  0  0  0
 36 79  1  0  0  0  0
 36 80  1  0  0  0  0
 37 38  1  0  0  0  0
 37 81  1  0  0  0  0
 37 82  1  0  0  0  0
 38 41  1  0  0  0  0
 38 42  1  0  0  0  0
 38 83  1  0  0  0  0
 39 85  1  0  0  0  0
 39 86  1  0  0  0  0
 39 87  1  0  0  0  0
 40 88  1  0  0  0  0
 40 89  1  0  0  0  0
 40 90  1  0  0  0  0
 41 91  1  0  0  0  0
 41 92  1  0  0  0  0
 41 93  1  0  0  0  0
 42 94  1  0  0  0  0
 42 95  1  0  0  0  0
 42 96  1  0  0  0  0
M  END
> <PUBCHEM_COMPOUND_CID>
515289
> <PUBCHEM_COMPOUND_CANONICALIZED>
1
> <PUBCHEM_CACTVS_COMPLEXITY>
1040
> <PUBCHEM_CACTVS_HBOND_ACCEPTOR>
9
> <PUBCHEM_CACTVS_HBOND_DONOR>
6
> <PUBCHEM_CACTVS_ROTATABLE_BOND>
20
> <PUBCHEM_CACTVS_SUBSKEYS>
AAADcfB7vAAAAAAAAAAAAAAAAAAAAAAAAAAAAAAAAAAAAAAAAAAAHgAQCAAADyzBgAQDCALAAgAIAIGQGAAAAAAAAAAAAIGIAACCQBoAgCAUQAAOFgKQAAG/i8C/AAAAAAAAAAAAAAAAAAAAAAAAAAAAAA==
> <PUBCHEM_IUPAC_OPENEYE_NAME>
(2S)-2-[[(2S)-3-carboxy-2-[[(2R,5S)-2-(3,3-dimethyl-2-oxo-butyl)-5-(1-ethylpropylcarbamoylamino)-6,6-dimethyl-4-oxo-heptanoyl]amino]propanoyl]amino]-4-methyl-pentanoic acid
> <PUBCHEM_IUPAC_CAS_NAME>
(2S)-2-[[(2S)-3-carboxy-2-[[(2R,5S)-2-(3,3-dimethyl-2-oxobutyl)-6,6-dimethyl-1,4-dioxo-5-[[oxo-(pentan-3-ylamino)methyl]amino]heptyl]amino]-1-oxopropyl]amino]-4-methylpentanoic acid
> <PUBCHEM_IUPAC_NAME_MARKUP>
(2<I>S</I>)-2-[[(2<I>S</I>)-3-carboxy-2-[[(2<I>R</I>,5<I>S</I>)-2-(3,3-dimethyl-2-oxobutyl)-6,6-dimethyl-4-oxo-5-(pentan-3-ylcarbamoylamino)heptanoyl]amino]propanoyl]amino]-4-methylpentanoic acid
> <PUBCHEM_IUPAC_NAME>
(2S)-2-[[(2S)-3-carboxy-2-[[(2R,5S)-2-(3,3-dimethyl-2-oxobutyl)-6,6-dimethyl-4-oxo-5-(pentan-3-ylcarbamoylamino)heptanoyl]amino]propanoyl]amino]-4-methylpentanoic acid
> <PUBCHEM_IUPAC_SYSTEMATIC_NAME>
(2S)-2-[[(2S)-2-[[(2R,5S)-2-(3,3-dimethyl-2-oxidanylidene-butyl)-6,6-dimethyl-4-oxidanylidene-5-(pentan-3-ylcarbamoylamino)heptanoyl]amino]-4-oxidanyl-4-oxidanylidene-butanoyl]amino]-4-methyl-pentanoic acid
> <PUBCHEM_IUPAC_TRADITIONAL_NAME>
(2S)-2-[[(2S)-3-carboxy-2-[[(2R,5S)-5-(1-ethylpropylcarbamoylamino)-4-keto-2-(2-keto-3,3-dimethyl-butyl)-6,6-dimethyl-heptanoyl]amino]propanoyl]amino]-4-methyl-valeric acid
> <PUBCHEM_IUPAC_INCHI>
InChI=1S/C31H54N4O9/c1-11-19(12-2)32-29(44)35-25(31(8,9)10)22(36)14-18(15-23(37)30(5,6)7)26(40)33-20(16-24(38)39)27(41)34-21(28(42)43)13-17(3)4/h17-21,25H,11-16H2,1-10H3,(H,33,40)(H,34,41)(H,38,39)(H,42,43)(H2,32,35,44)/t18-,20-,21-,25+/m0/s1
> <PUBCHEM_IUPAC_INCHIKEY>
ZNVYUVZJDGFHLU-XZNRUFCYSA-N
> <PUBCHEM_XLOGP3_AA>
3.2
> <PUBCHEM_EXACT_MASS>
626.38907931
> <PUBCHEM_MOLECULAR_FORMULA>
C31H54N4O9
> <PUBCHEM_MOLECULAR_WEIGHT>
626.8
> <PUBCHEM_OPENEYE_CAN_SMILES>
CCC(CC)NC(=O)NC(C(=O)CC(CC(=O)C(C)(C)C)C(=O)NC(CC(=O)O)C(=O)NC(CC(C)C)C(=O)O)C(C)(C)C
> <PUBCHEM_OPENEYE_ISO_SMILES>
CCC(CC)NC(=O)N[C@H](C(=O)C[C@@H](CC(=O)C(C)(C)C)C(=O)N[C@@H](CC(=O)O)C(=O)N[C@@H](CC(C)C)C(=O)O)C(C)(C)C
> <PUBCHEM_CACTVS_TPSA>
208
> <PUBCHEM_MONOISOTOPIC_WEIGHT>
626.38907931
> <PUBCHEM_TOTAL_CHARGE>
0
> <PUBCHEM_HEAVY_ATOM_COUNT>
44
> <PUBCHEM_ATOM_DEF_STEREO_COUNT>
4
> <PUBCHEM_ATOM_UDEF_STEREO_COUNT>
0
> <PUBCHEM_BOND_DEF_STEREO_COUNT>
0
> <PUBCHEM_BOND_UDEF_STEREO_COUNT>
0
> <PUBCHEM_ISOTOPIC_ATOM_COUNT>
0
> <PUBCHEM_COMPONENT_COUNT>
1
> <PUBCHEM_CACTVS_TAUTO_COUNT>
-1
> <PUBCHEM_COORDINATE_TYPE>
1
5
255
> <PUBCHEM_BONDANNOTATIONS>
15  10  5
30  11  6
34  13  6
16  22  5
$$$$
