515284
  -OEChem-10302200282D
100100  0     1  0  0  0  0  0999 V2000
    8.0622    1.9806    0.0000 O   0  0  0  0  0  0  0  0  0  0  0  0
   11.5263    1.9806    0.0000 O   0  0  0  0  0  0  0  0  0  0  0  0
   12.3923   -2.5194    0.0000 O   0  0  0  0  0  0  0  0  0  0  0  0
   11.5263    0.9806    0.0000 O   0  0  0  0  0  0  0  0  0  0  0  0
    5.4641   -0.5194    0.0000 O   0  0  0  0  0  0  0  0  0  0  0  0
   14.1244   -0.5194    0.0000 O   0  0  0  0  0  0  0  0  0  0  0  0
   13.2583   -2.0194    0.0000 O   0  0  0  0  0  0  0  0  0  0  0  0
   10.6603   -2.5194    0.0000 N   0  0  0  0  0  0  0  0  0  0  0  0
   10.6603    3.4806    0.0000 N   0  0  0  0  0  0  0  0  0  0  0  0
    8.9282    0.4806    0.0000 N   0  0  0  0  0  0  0  0  0  0  0  0
    6.3301    0.9806    0.0000 N   0  0  0  0  0  0  0  0  0  0  0  0
   10.6603   -0.5194    0.0000 N   0  0  0  0  0  0  0  0  0  0  0  0
    4.5981    0.9806    0.0000 N   0  0  0  0  0  0  0  0  0  0  0  0
    9.7942   -4.0194    0.0000 C   0  0  0  0  0  0  0  0  0  0  0  0
   10.6603   -3.5194    0.0000 C   0  0  1  0  0  0  0  0  0  0  0  0
    7.1962   -0.5194    0.0000 C   0  0  0  0  0  0  0  0  0  0  0  0
    7.1962    0.4806    0.0000 C   0  0  1  0  0  0  0  0  0  0  0  0
   11.5263   -4.0194    0.0000 C   0  0  0  0  0  0  0  0  0  0  0  0
    8.9282   -4.5194    0.0000 C   0  0  0  0  0  0  0  0  0  0  0  0
   10.2942   -4.8854    0.0000 C   0  0  0  0  0  0  0  0  0  0  0  0
    9.2942   -3.1534    0.0000 C   0  0  0  0  0  0  0  0  0  0  0  0
   11.4693    4.0684    0.0000 C   0  0  0  0  0  0  0  0  0  0  0  0
    9.8512    4.0684    0.0000 C   0  0  0  0  0  0  0  0  0  0  0  0
   11.1603    5.0194    0.0000 C   0  0  0  0  0  0  0  0  0  0  0  0
   10.1603    5.0194    0.0000 C   0  0  0  0  0  0  0  0  0  0  0  0
    9.7942    0.9806    0.0000 C   0  0  1  0  0  0  0  0  0  0  0  0
    9.7942    1.9806    0.0000 C   0  0  0  0  0  0  0  0  0  0  0  0
    8.0622    0.9806    0.0000 C   0  0  0  0  0  0  0  0  0  0  0  0
   11.5263   -1.0194    0.0000 C   0  0  2  0  0  0  0  0  0  0  0  0
   10.6603    2.4806    0.0000 C   0  0  0  0  0  0  0  0  0  0  0  0
    7.1962   -1.5194    0.0000 C   0  0  0  0  0  0  0  0  0  0  0  0
    6.1962   -0.5194    0.0000 C   0  0  0  0  0  0  0  0  0  0  0  0
    8.1962   -0.5194    0.0000 C   0  0  0  0  0  0  0  0  0  0  0  0
   11.5263   -2.0194    0.0000 C   0  0  0  0  0  0  0  0  0  0  0  0
   11.5263   -5.0194    0.0000 C   0  0  0  0  0  0  0  0  0  0  0  0
   10.6603    0.4806    0.0000 C   0  0  0  0  0  0  0  0  0  0  0  0
   12.3923   -0.5194    0.0000 C   0  0  0  0  0  0  0  0  0  0  0  0
    5.4641    0.4806    0.0000 C   0  0  0  0  0  0  0  0  0  0  0  0
    3.7320    0.4806    0.0000 C   0  0  0  0  0  0  0  0  0  0  0  0
    2.8660    0.9806    0.0000 C   0  0  0  0  0  0  0  0  0  0  0  0
    3.7320   -0.5194    0.0000 C   0  0  0  0  0  0  0  0  0  0  0  0
   13.2583   -1.0194    0.0000 C   0  0  0  0  0  0  0  0  0  0  0  0
    2.0000    0.4806    0.0000 C   0  0  0  0  0  0  0  0  0  0  0  0
    2.8660   -1.0194    0.0000 C   0  0  0  0  0  0  0  0  0  0  0  0
   11.1972   -3.2094    0.0000 H   0  0  0  0  0  0  0  0  0  0  0  0
    6.6592    0.1706    0.0000 H   0  0  0  0  0  0  0  0  0  0  0  0
   12.1369   -4.1271    0.0000 H   0  0  0  0  0  0  0  0  0  0  0  0
   11.7383   -3.4368    0.0000 H   0  0  0  0  0  0  0  0  0  0  0  0
    8.6182   -3.9825    0.0000 H   0  0  0  0  0  0  0  0  0  0  0  0
    8.3913   -4.8294    0.0000 H   0  0  0  0  0  0  0  0  0  0  0  0
    9.2382   -5.0564    0.0000 H   0  0  0  0  0  0  0  0  0  0  0  0
    9.7573   -5.1954    0.0000 H   0  0  0  0  0  0  0  0  0  0  0  0
   10.6042   -5.4224    0.0000 H   0  0  0  0  0  0  0  0  0  0  0  0
   10.8312   -4.5754    0.0000 H   0  0  0  0  0  0  0  0  0  0  0  0
    9.8312   -2.8434    0.0000 H   0  0  0  0  0  0  0  0  0  0  0  0
    8.9842   -2.6165    0.0000 H   0  0  0  0  0  0  0  0  0  0  0  0
    8.7573   -3.4634    0.0000 H   0  0  0  0  0  0  0  0  0  0  0  0
   10.1233   -2.2094    0.0000 H   0  0  0  0  0  0  0  0  0  0  0  0
   11.7793    3.5314    0.0000 H   0  0  0  0  0  0  0  0  0  0  0  0
   12.0357    4.3205    0.0000 H   0  0  0  0  0  0  0  0  0  0  0  0
    9.2848    4.3205    0.0000 H   0  0  0  0  0  0  0  0  0  0  0  0
    9.5412    3.5314    0.0000 H   0  0  0  0  0  0  0  0  0  0  0  0
   11.7667    5.1483    0.0000 H   0  0  0  0  0  0  0  0  0  0  0  0
   11.0954    5.6360    0.0000 H   0  0  0  0  0  0  0  0  0  0  0  0
   10.2251    5.6360    0.0000 H   0  0  0  0  0  0  0  0  0  0  0  0
    9.5538    5.1483    0.0000 H   0  0  0  0  0  0  0  0  0  0  0  0
    9.2573    1.2906    0.0000 H   0  0  0  0  0  0  0  0  0  0  0  0
    9.5822    2.5632    0.0000 H   0  0  0  0  0  0  0  0  0  0  0  0
    9.1836    1.8729    0.0000 H   0  0  0  0  0  0  0  0  0  0  0  0
   10.9893   -1.3294    0.0000 H   0  0  0  0  0  0  0  0  0  0  0  0
    6.5762   -1.5194    0.0000 H   0  0  0  0  0  0  0  0  0  0  0  0
    7.1962   -2.1394    0.0000 H   0  0  0  0  0  0  0  0  0  0  0  0
    7.8162   -1.5194    0.0000 H   0  0  0  0  0  0  0  0  0  0  0  0
    6.1962    0.1006    0.0000 H   0  0  0  0  0  0  0  0  0  0  0  0
    5.5762   -0.5194    0.0000 H   0  0  0  0  0  0  0  0  0  0  0  0
    6.1962   -1.1394    0.0000 H   0  0  0  0  0  0  0  0  0  0  0  0
    8.1962   -1.1394    0.0000 H   0  0  0  0  0  0  0  0  0  0  0  0
    8.8162   -0.5194    0.0000 H   0  0  0  0  0  0  0  0  0  0  0  0
    8.1962    0.1006    0.0000 H   0  0  0  0  0  0  0  0  0  0  0  0
    8.9282   -0.1394    0.0000 H   0  0  0  0  0  0  0  0  0  0  0  0
   10.9063   -5.0194    0.0000 H   0  0  0  0  0  0  0  0  0  0  0  0
   11.5263   -5.6394    0.0000 H   0  0  0  0  0  0  0  0  0  0  0  0
   12.1463   -5.0194    0.0000 H   0  0  0  0  0  0  0  0  0  0  0  0
    6.3301    1.6006    0.0000 H   0  0  0  0  0  0  0  0  0  0  0  0
   10.1233   -0.8294    0.0000 H   0  0  0  0  0  0  0  0  0  0  0  0
   12.7908   -0.0445    0.0000 H   0  0  0  0  0  0  0  0  0  0  0  0
   11.9938   -0.0445    0.0000 H   0  0  0  0  0  0  0  0  0  0  0  0
    3.7320    1.1006    0.0000 H   0  0  0  0  0  0  0  0  0  0  0  0
    4.5981    1.6006    0.0000 H   0  0  0  0  0  0  0  0  0  0  0  0
    3.2646    1.4555    0.0000 H   0  0  0  0  0  0  0  0  0  0  0  0
    2.4675    1.4555    0.0000 H   0  0  0  0  0  0  0  0  0  0  0  0
    3.9441   -1.1020    0.0000 H   0  0  0  0  0  0  0  0  0  0  0  0
    4.3426   -0.4118    0.0000 H   0  0  0  0  0  0  0  0  0  0  0  0
    1.6900    1.0175    0.0000 H   0  0  0  0  0  0  0  0  0  0  0  0
    1.4631    0.1706    0.0000 H   0  0  0  0  0  0  0  0  0  0  0  0
    2.3100   -0.0564    0.0000 H   0  0  0  0  0  0  0  0  0  0  0  0
    2.5560   -0.4825    0.0000 H   0  0  0  0  0  0  0  0  0  0  0  0
    2.3291   -1.3294    0.0000 H   0  0  0  0  0  0  0  0  0  0  0  0
    3.1760   -1.5564    0.0000 H   0  0  0  0  0  0  0  0  0  0  0  0
   14.6613   -0.8294    0.0000 H   0  0  0  0  0  0  0  0  0  0  0  0
  1 28  2  0  0  0  0
  2 30  2  0  0  0  0
  3 34  2  0  0  0  0
  4 36  2  0  0  0  0
  5 38  2  0  0  0  0
  6 42  1  0  0  0  0
  6100  1  0  0  0  0
  7 42  2  0  0  0  0
 15  8  1  6  0  0  0
  8 34  1  0  0  0  0
  8 58  1  0  0  0  0
  9 22  1  0  0  0  0
  9 23  1  0  0  0  0
  9 30  1  0  0  0  0
 26 10  1  1  0  0  0
 10 28  1  0  0  0  0
 10 80  1  0  0  0  0
 17 11  1  6  0  0  0
 11 38  1  0  0  0  0
 11 84  1  0  0  0  0
 29 12  1  1  0  0  0
 12 36  1  0  0  0  0
 12 85  1  0  0  0  0
 13 38  1  0  0  0  0
 13 39  1  0  0  0  0
 13 89  1  0  0  0  0
 14 15  1  0  0  0  0
 14 19  1  0  0  0  0
 14 20  1  0  0  0  0
 14 21  1  0  0  0  0
 15 18  1  0  0  0  0
 15 45  1  0  0  0  0
 16 17  1  0  0  0  0
 16 31  1  0  0  0  0
 16 32  1  0  0  0  0
 16 33  1  0  0  0  0
 17 28  1  0  0  0  0
 17 46  1  0  0  0  0
 18 35  1  0  0  0  0
 18 47  1  0  0  0  0
 18 48  1  0  0  0  0
 19 49  1  0  0  0  0
 19 50  1  0  0  0  0
 19 51  1  0  0  0  0
 20 52  1  0  0  0  0
 20 53  1  0  0  0  0
 20 54  1  0  0  0  0
 21 55  1  0  0  0  0
 21 56  1  0  0  0  0
 21 57  1  0  0  0  0
 22 24  1  0  0  0  0
 22 59  1  0  0  0  0
 22 60  1  0  0  0  0
 23 25  1  0  0  0  0
 23 61  1  0  0  0  0
 23 62  1  0  0  0  0
 24 25  1  0  0  0  0
 24 63  1  0  0  0  0
 24 64  1  0  0  0  0
 25 65  1  0  0  0  0
 25 66  1  0  0  0  0
 26 27  1  0  0  0  0
 26 36  1  0  0  0  0
 26 67  1  0  0  0  0
 27 30  1  0  0  0  0
 27 68  1  0  0  0  0
 27 69  1  0  0  0  0
 29 34  1  0  0  0  0
 29 37  1  0  0  0  0
 29 70  1  0  0  0  0
 31 71  1  0  0  0  0
 31 72  1  0  0  0  0
 31 73  1  0  0  0  0
 32 74  1  0  0  0  0
 32 75  1  0  0  0  0
 32 76  1  0  0  0  0
 33 77  1  0  0  0  0
 33 78  1  0  0  0  0
 33 79  1  0  0  0  0
 35 81  1  0  0  0  0
 35 82  1  0  0  0  0
 35 83  1  0  0  0  0
 37 42  1  0  0  0  0
 37 86  1  0  0  0  0
 37 87  1  0  0  0  0
 39 40  1  0  0  0  0
 39 41  1  0  0  0  0
 39 88  1  0  0  0  0
 40 43  1  0  0  0  0
 40 90  1  0  0  0  0
 40 91  1  0  0  0  0
 41 44  1  0  0  0  0
 41 92  1  0  0  0  0
 41 93  1  0  0  0  0
 43 94  1  0  0  0  0
 43 95  1  0  0  0  0
 43 96  1  0  0  0  0
 44 97  1  0  0  0  0
 44 98  1  0  0  0  0
 44 99  1  0  0  0  0
M  END
> <PUBCHEM_COMPOUND_CID>
515284
> <PUBCHEM_COMPOUND_CANONICALIZED>
1
> <PUBCHEM_CACTVS_COMPLEXITY>
1010
> <PUBCHEM_CACTVS_HBOND_ACCEPTOR>
7
> <PUBCHEM_CACTVS_HBOND_DONOR>
6
> <PUBCHEM_CACTVS_ROTATABLE_BOND>
17
> <PUBCHEM_CACTVS_SUBSKEYS>
AAADcfB7uAAAAAAAAAAAAAAAAAAAAWAAAAAAAAAAAAAAAAAAAAAAHgAQCAAADijBgAQDCAPAAgAIAAGQGAAAAAAAAAAAAIGIAACAQBoAwCAUQAAOFgKAAAAnAAANAAAAAAAAAAAAAAAAAAAAAAAAAAAAAA==
> <PUBCHEM_IUPAC_OPENEYE_NAME>
(3S)-4-[[(1R)-1-ethyl-2,2-dimethyl-propyl]amino]-3-[[(2S)-2-[[(2S)-2-(1-ethylpropylcarbamoylamino)-3,3-dimethyl-butanoyl]amino]-4-oxo-4-pyrrolidin-1-yl-butanoyl]amino]-4-oxo-butanoic acid
> <PUBCHEM_IUPAC_CAS_NAME>
(3S)-3-[[(2S)-2-[[(2S)-3,3-dimethyl-1-oxo-2-[[oxo-(pentan-3-ylamino)methyl]amino]butyl]amino]-1,4-dioxo-4-(1-pyrrolidinyl)butyl]amino]-4-[[(3R)-2,2-dimethylpentan-3-yl]amino]-4-oxobutanoic acid
> <PUBCHEM_IUPAC_NAME_MARKUP>
(3<I>S</I>)-4-[[(3<I>R</I>)-2,2-dimethylpentan-3-yl]amino]-3-[[(2<I>S</I>)-2-[[(2<I>S</I>)-3,3-dimethyl-2-(pentan-3-ylcarbamoylamino)butanoyl]amino]-4-oxo-4-pyrrolidin-1-ylbutanoyl]amino]-4-oxobutanoic acid
> <PUBCHEM_IUPAC_NAME>
(3S)-4-[[(3R)-2,2-dimethylpentan-3-yl]amino]-3-[[(2S)-2-[[(2S)-3,3-dimethyl-2-(pentan-3-ylcarbamoylamino)butanoyl]amino]-4-oxo-4-pyrrolidin-1-ylbutanoyl]amino]-4-oxobutanoic acid
> <PUBCHEM_IUPAC_SYSTEMATIC_NAME>
(3S)-4-[[(3R)-2,2-dimethylpentan-3-yl]amino]-3-[[(2S)-2-[[(2S)-3,3-dimethyl-2-(pentan-3-ylcarbamoylamino)butanoyl]amino]-4-oxidanylidene-4-pyrrolidin-1-yl-butanoyl]amino]-4-oxidanylidene-butanoic acid
> <PUBCHEM_IUPAC_TRADITIONAL_NAME>
(3S)-4-[[(1R)-1-ethyl-2,2-dimethyl-propyl]amino]-3-[[(2S)-2-[[(2S)-2-(1-ethylpropylcarbamoylamino)-3,3-dimethyl-butanoyl]amino]-4-keto-4-pyrrolidino-butanoyl]amino]-4-keto-butyric acid
> <PUBCHEM_IUPAC_INCHI>
InChI=1S/C31H56N6O7/c1-10-19(11-2)32-29(44)36-25(31(7,8)9)28(43)34-20(17-23(38)37-15-13-14-16-37)26(41)33-21(18-24(39)40)27(42)35-22(12-3)30(4,5)6/h19-22,25H,10-18H2,1-9H3,(H,33,41)(H,34,43)(H,35,42)(H,39,40)(H2,32,36,44)/t20-,21-,22+,25+/m0/s1
> <PUBCHEM_IUPAC_INCHIKEY>
KMOUBSDXELGKDH-VRIJDZSUSA-N
> <PUBCHEM_XLOGP3_AA>
3.2
> <PUBCHEM_EXACT_MASS>
624.42104815
> <PUBCHEM_MOLECULAR_FORMULA>
C31H56N6O7
> <PUBCHEM_MOLECULAR_WEIGHT>
624.8
> <PUBCHEM_OPENEYE_CAN_SMILES>
CCC(CC)NC(=O)NC(C(=O)NC(CC(=O)N1CCCC1)C(=O)NC(CC(=O)O)C(=O)NC(CC)C(C)(C)C)C(C)(C)C
> <PUBCHEM_OPENEYE_ISO_SMILES>
CC[C@H](C(C)(C)C)NC(=O)[C@H](CC(=O)O)NC(=O)[C@H](CC(=O)N1CCCC1)NC(=O)[C@H](C(C)(C)C)NC(=O)NC(CC)CC
> <PUBCHEM_CACTVS_TPSA>
186
> <PUBCHEM_MONOISOTOPIC_WEIGHT>
624.42104815
> <PUBCHEM_TOTAL_CHARGE>
0
> <PUBCHEM_HEAVY_ATOM_COUNT>
44
> <PUBCHEM_ATOM_DEF_STEREO_COUNT>
4
> <PUBCHEM_ATOM_UDEF_STEREO_COUNT>
0
> <PUBCHEM_BOND_DEF_STEREO_COUNT>
0
> <PUBCHEM_BOND_UDEF_STEREO_COUNT>
0
> <PUBCHEM_ISOTOPIC_ATOM_COUNT>
0
> <PUBCHEM_COMPONENT_COUNT>
1
> <PUBCHEM_CACTVS_TAUTO_COUNT>
-1
> <PUBCHEM_COORDINATE_TYPE>
1
5
255
> <PUBCHEM_BONDANNOTATIONS>
26  10  5
17  11  6
29  12  5
15  8  6
$$$$
