515264
  -OEChem-10302200282D
 97 97  0     1  0  0  0  0  0999 V2000
    9.0756   -0.4859    0.0000 O   0  0  0  0  0  0  0  0  0  0  0  0
    8.2096    0.0141    0.0000 O   0  0  0  0  0  0  0  0  0  0  0  0
    7.4481    3.1066    0.0000 O   0  0  0  0  0  0  0  0  0  0  0  0
   12.5397   -1.4859    0.0000 O   0  0  0  0  0  0  0  0  0  0  0  0
    4.9544   -0.1706    0.0000 O   0  0  0  0  0  0  0  0  0  0  0  0
    6.6233   -2.2237    0.0000 O   0  0  0  0  0  0  0  0  0  0  0  0
    5.2964   -1.1103    0.0000 O   0  0  0  0  0  0  0  0  0  0  0  0
    2.9436    2.8220    0.0000 O   0  0  0  0  0  0  0  0  0  0  0  0
    4.5712    3.4144    0.0000 O   0  0  0  0  0  0  0  0  0  0  0  0
    9.9417    1.0141    0.0000 N   0  0  0  0  0  0  0  0  0  0  0  0
   10.8077   -1.4859    0.0000 N   0  0  0  0  0  0  0  0  0  0  0  0
    7.2248    1.1878    0.0000 N   0  0  0  0  0  0  0  0  0  0  0  0
    8.7749    4.2198    0.0000 N   0  0  0  0  0  0  0  0  0  0  0  0
   11.6737   -2.9859    0.0000 N   0  0  0  0  0  0  0  0  0  0  0  0
    5.2552    1.5350    0.0000 N   0  0  0  0  0  0  0  0  0  0  0  0
    9.0756    1.5141    0.0000 C   0  0  3  0  0  0  0  0  0  0  0  0
    9.0756    2.5141    0.0000 C   0  0  3  0  0  0  0  0  0  0  0  0
    9.9417    3.0141    0.0000 C   0  0  0  0  0  0  0  0  0  0  0  0
   10.8077    1.5141    0.0000 C   0  0  0  0  0  0  0  0  0  0  0  0
   10.8077    2.5141    0.0000 C   0  0  0  0  0  0  0  0  0  0  0  0
   10.8077   -0.4859    0.0000 C   0  0  1  0  0  0  0  0  0  0  0  0
   11.6737    0.0141    0.0000 C   0  0  0  0  0  0  0  0  0  0  0  0
    9.9417    0.0141    0.0000 C   0  0  0  0  0  0  0  0  0  0  0  0
    8.2096    1.0141    0.0000 C   0  0  0  0  0  0  0  0  0  0  0  0
    8.4328    3.2802    0.0000 C   0  0  0  0  0  0  0  0  0  0  0  0
   12.5397    0.5141    0.0000 C   0  0  0  0  0  0  0  0  0  0  0  0
   12.1737   -0.8519    0.0000 C   0  0  0  0  0  0  0  0  0  0  0  0
   11.1737    0.8801    0.0000 C   0  0  0  0  0  0  0  0  0  0  0  0
    6.5820    0.4218    0.0000 C   0  0  1  0  0  0  0  0  0  0  0  0
   11.6737   -1.9859    0.0000 C   0  0  0  0  0  0  0  0  0  0  0  0
    6.9240   -0.5180    0.0000 C   0  0  0  0  0  0  0  0  0  0  0  0
    5.5972    0.5954    0.0000 C   0  0  0  0  0  0  0  0  0  0  0  0
    8.1321    4.9859    0.0000 C   0  0  0  0  0  0  0  0  0  0  0  0
   12.5397   -3.4859    0.0000 C   0  0  0  0  0  0  0  0  0  0  0  0
    4.2704    1.7087    0.0000 C   0  0  1  0  0  0  0  0  0  0  0  0
   12.5397   -4.4859    0.0000 C   0  0  0  0  0  0  0  0  0  0  0  0
   13.4058   -2.9859    0.0000 C   0  0  0  0  0  0  0  0  0  0  0  0
    3.6276    0.9427    0.0000 C   0  0  0  0  0  0  0  0  0  0  0  0
    6.2812   -1.2840    0.0000 C   0  0  0  0  0  0  0  0  0  0  0  0
    2.6428    1.1163    0.0000 C   0  0  0  0  0  0  0  0  0  0  0  0
   13.4058   -4.9859    0.0000 C   0  0  0  0  0  0  0  0  0  0  0  0
   14.2718   -3.4859    0.0000 C   0  0  0  0  0  0  0  0  0  0  0  0
    3.9284    2.6484    0.0000 C   0  0  0  0  0  0  0  0  0  0  0  0
    2.0000    0.3503    0.0000 C   0  0  0  0  0  0  0  0  0  0  0  0
    2.3008    2.0560    0.0000 C   0  0  0  0  0  0  0  0  0  0  0  0
    9.0756    0.8941    0.0000 H   0  0  0  0  0  0  0  0  0  0  0  0
    8.4930    2.3021    0.0000 H   0  0  0  0  0  0  0  0  0  0  0  0
   10.3402    3.4891    0.0000 H   0  0  0  0  0  0  0  0  0  0  0  0
    9.5431    3.4891    0.0000 H   0  0  0  0  0  0  0  0  0  0  0  0
   11.0197    0.9315    0.0000 H   0  0  0  0  0  0  0  0  0  0  0  0
   11.4183    1.6218    0.0000 H   0  0  0  0  0  0  0  0  0  0  0  0
   11.4183    2.4064    0.0000 H   0  0  0  0  0  0  0  0  0  0  0  0
   11.0197    3.0967    0.0000 H   0  0  0  0  0  0  0  0  0  0  0  0
   11.3446   -0.7959    0.0000 H   0  0  0  0  0  0  0  0  0  0  0  0
   12.8497   -0.0228    0.0000 H   0  0  0  0  0  0  0  0  0  0  0  0
   13.0767    0.8241    0.0000 H   0  0  0  0  0  0  0  0  0  0  0  0
   12.2297    1.0510    0.0000 H   0  0  0  0  0  0  0  0  0  0  0  0
   11.6368   -1.1619    0.0000 H   0  0  0  0  0  0  0  0  0  0  0  0
   12.4837   -1.3888    0.0000 H   0  0  0  0  0  0  0  0  0  0  0  0
   12.7107   -0.5419    0.0000 H   0  0  0  0  0  0  0  0  0  0  0  0
   11.7107    1.1901    0.0000 H   0  0  0  0  0  0  0  0  0  0  0  0
   10.8637    1.4171    0.0000 H   0  0  0  0  0  0  0  0  0  0  0  0
   10.6368    0.5701    0.0000 H   0  0  0  0  0  0  0  0  0  0  0  0
   10.2708   -1.7959    0.0000 H   0  0  0  0  0  0  0  0  0  0  0  0
    7.0128    1.7704    0.0000 H   0  0  0  0  0  0  0  0  0  0  0  0
    6.3699    1.0044    0.0000 H   0  0  0  0  0  0  0  0  0  0  0  0
    9.3854    4.3275    0.0000 H   0  0  0  0  0  0  0  0  0  0  0  0
    7.3225   -0.9929    0.0000 H   0  0  0  0  0  0  0  0  0  0  0  0
    7.4610   -0.2080    0.0000 H   0  0  0  0  0  0  0  0  0  0  0  0
    8.6070    5.3844    0.0000 H   0  0  0  0  0  0  0  0  0  0  0  0
    7.7336    5.4608    0.0000 H   0  0  0  0  0  0  0  0  0  0  0  0
    7.6571    4.5874    0.0000 H   0  0  0  0  0  0  0  0  0  0  0  0
   11.1368   -3.2959    0.0000 H   0  0  0  0  0  0  0  0  0  0  0  0
   12.0028   -3.7959    0.0000 H   0  0  0  0  0  0  0  0  0  0  0  0
    5.6537    2.0100    0.0000 H   0  0  0  0  0  0  0  0  0  0  0  0
    4.6689    2.1836    0.0000 H   0  0  0  0  0  0  0  0  0  0  0  0
   11.9292   -4.3782    0.0000 H   0  0  0  0  0  0  0  0  0  0  0  0
   12.3277   -5.0685    0.0000 H   0  0  0  0  0  0  0  0  0  0  0  0
   13.8043   -2.5109    0.0000 H   0  0  0  0  0  0  0  0  0  0  0  0
   13.0072   -2.5109    0.0000 H   0  0  0  0  0  0  0  0  0  0  0  0
    3.4155    0.3600    0.0000 H   0  0  0  0  0  0  0  0  0  0  0  0
    4.1645    0.6327    0.0000 H   0  0  0  0  0  0  0  0  0  0  0  0
    3.0413    1.5912    0.0000 H   0  0  0  0  0  0  0  0  0  0  0  0
   13.0958   -5.5228    0.0000 H   0  0  0  0  0  0  0  0  0  0  0  0
   13.9427   -5.2959    0.0000 H   0  0  0  0  0  0  0  0  0  0  0  0
   13.7158   -4.4490    0.0000 H   0  0  0  0  0  0  0  0  0  0  0  0
   13.9618   -4.0228    0.0000 H   0  0  0  0  0  0  0  0  0  0  0  0
   14.8087   -3.7959    0.0000 H   0  0  0  0  0  0  0  0  0  0  0  0
   14.5818   -2.9490    0.0000 H   0  0  0  0  0  0  0  0  0  0  0  0
    1.5250    0.7488    0.0000 H   0  0  0  0  0  0  0  0  0  0  0  0
    1.6015   -0.1247    0.0000 H   0  0  0  0  0  0  0  0  0  0  0  0
    2.4750   -0.0483    0.0000 H   0  0  0  0  0  0  0  0  0  0  0  0
    2.8834    2.2680    0.0000 H   0  0  0  0  0  0  0  0  0  0  0  0
    2.0887    2.6386    0.0000 H   0  0  0  0  0  0  0  0  0  0  0  0
    1.7182    1.8440    0.0000 H   0  0  0  0  0  0  0  0  0  0  0  0
    6.2247   -2.6987    0.0000 H   0  0  0  0  0  0  0  0  0  0  0  0
    2.7315    3.4046    0.0000 H   0  0  0  0  0  0  0  0  0  0  0  0
  1 23  2  0  0  0  0
  2 24  2  0  0  0  0
  3 25  2  0  0  0  0
  4 30  2  0  0  0  0
  5 32  2  0  0  0  0
  6 39  1  0  0  0  0
  6 96  1  0  0  0  0
  7 39  2  0  0  0  0
  8 43  1  0  0  0  0
  8 97  1  0  0  0  0
  9 43  2  0  0  0  0
 10 16  1  0  0  0  0
 10 19  1  0  0  0  0
 10 23  1  0  0  0  0
 21 11  1  6  0  0  0
 11 30  1  0  0  0  0
 11 64  1  0  0  0  0
 12 24  1  0  0  0  0
 29 12  1  1  0  0  0
 12 65  1  0  0  0  0
 13 25  1  0  0  0  0
 13 33  1  0  0  0  0
 13 67  1  0  0  0  0
 14 30  1  0  0  0  0
 14 34  1  0  0  0  0
 14 73  1  0  0  0  0
 15 32  1  0  0  0  0
 35 15  1  1  0  0  0
 15 75  1  0  0  0  0
 16 17  1  0  0  0  0
 16 24  1  0  0  0  0
 16 46  1  0  0  0  0
 17 18  1  0  0  0  0
 17 25  1  0  0  0  0
 17 47  1  0  0  0  0
 18 20  1  0  0  0  0
 18 48  1  0  0  0  0
 18 49  1  0  0  0  0
 19 20  1  0  0  0  0
 19 50  1  0  0  0  0
 19 51  1  0  0  0  0
 20 52  1  0  0  0  0
 20 53  1  0  0  0  0
 21 22  1  0  0  0  0
 21 23  1  0  0  0  0
 21 54  1  0  0  0  0
 22 26  1  0  0  0  0
 22 27  1  0  0  0  0
 22 28  1  0  0  0  0
 26 55  1  0  0  0  0
 26 56  1  0  0  0  0
 26 57  1  0  0  0  0
 27 58  1  0  0  0  0
 27 59  1  0  0  0  0
 27 60  1  0  0  0  0
 28 61  1  0  0  0  0
 28 62  1  0  0  0  0
 28 63  1  0  0  0  0
 29 31  1  0  0  0  0
 29 32  1  0  0  0  0
 29 66  1  0  0  0  0
 31 39  1  0  0  0  0
 31 68  1  0  0  0  0
 31 69  1  0  0  0  0
 33 70  1  0  0  0  0
 33 71  1  0  0  0  0
 33 72  1  0  0  0  0
 34 36  1  0  0  0  0
 34 37  1  0  0  0  0
 34 74  1  0  0  0  0
 35 38  1  0  0  0  0
 35 43  1  0  0  0  0
 35 76  1  0  0  0  0
 36 41  1  0  0  0  0
 36 77  1  0  0  0  0
 36 78  1  0  0  0  0
 37 42  1  0  0  0  0
 37 79  1  0  0  0  0
 37 80  1  0  0  0  0
 38 40  1  0  0  0  0
 38 81  1  0  0  0  0
 38 82  1  0  0  0  0
 40 44  1  0  0  0  0
 40 45  1  0  0  0  0
 40 83  1  0  0  0  0
 41 84  1  0  0  0  0
 41 85  1  0  0  0  0
 41 86  1  0  0  0  0
 42 87  1  0  0  0  0
 42 88  1  0  0  0  0
 42 89  1  0  0  0  0
 44 90  1  0  0  0  0
 44 91  1  0  0  0  0
 44 92  1  0  0  0  0
 45 93  1  0  0  0  0
 45 94  1  0  0  0  0
 45 95  1  0  0  0  0
M  END
> <PUBCHEM_COMPOUND_CID>
515264
> <PUBCHEM_COMPOUND_CANONICALIZED>
1
> <PUBCHEM_CACTVS_COMPLEXITY>
1090
> <PUBCHEM_CACTVS_HBOND_ACCEPTOR>
9
> <PUBCHEM_CACTVS_HBOND_DONOR>
7
> <PUBCHEM_CACTVS_ROTATABLE_BOND>
16
> <PUBCHEM_CACTVS_SUBSKEYS>
AAADcfB7vAAAAAAAAAAAAAAAAAAAAAAAAAAsAAAAAAAAAAAAAAAAHgAQCAAADyjBgAQDCAPAAgAIAAGQGAAAAAAAAAAAAIGIAACCQBoAwCAUQAAOFgKQAAG/CQAPAAAAAAAAAAAAAAAAAAAAAAAAAAAAAA==
> <PUBCHEM_IUPAC_OPENEYE_NAME>
(2S)-2-[[(2S)-3-carboxy-2-[[1-[(2S)-2-(1-ethylpropylcarbamoylamino)-3,3-dimethyl-butanoyl]-3-(methylcarbamoyl)piperidine-2-carbonyl]amino]propanoyl]amino]-4-methyl-pentanoic acid
> <PUBCHEM_IUPAC_CAS_NAME>
(2S)-2-[[(2S)-3-carboxy-2-[[[1-[(2S)-3,3-dimethyl-1-oxo-2-[[oxo-(pentan-3-ylamino)methyl]amino]butyl]-3-(methylcarbamoyl)-2-piperidinyl]-oxomethyl]amino]-1-oxopropyl]amino]-4-methylpentanoic acid
> <PUBCHEM_IUPAC_NAME_MARKUP>
(2<I>S</I>)-2-[[(2<I>S</I>)-3-carboxy-2-[[1-[(2<I>S</I>)-3,3-dimethyl-2-(pentan-3-ylcarbamoylamino)butanoyl]-3-(methylcarbamoyl)piperidine-2-carbonyl]amino]propanoyl]amino]-4-methylpentanoic acid
> <PUBCHEM_IUPAC_NAME>
(2S)-2-[[(2S)-3-carboxy-2-[[1-[(2S)-3,3-dimethyl-2-(pentan-3-ylcarbamoylamino)butanoyl]-3-(methylcarbamoyl)piperidine-2-carbonyl]amino]propanoyl]amino]-4-methylpentanoic acid
> <PUBCHEM_IUPAC_SYSTEMATIC_NAME>
(2S)-2-[[(2S)-2-[[1-[(2S)-3,3-dimethyl-2-(pentan-3-ylcarbamoylamino)butanoyl]-3-(methylcarbamoyl)piperidin-2-yl]carbonylamino]-4-oxidanyl-4-oxidanylidene-butanoyl]amino]-4-methyl-pentanoic acid
> <PUBCHEM_IUPAC_TRADITIONAL_NAME>
(2S)-2-[[(2S)-3-carboxy-2-[[1-[(2S)-2-(1-ethylpropylcarbamoylamino)-3,3-dimethyl-butanoyl]-3-(methylcarbamoyl)pipecoloyl]amino]propanoyl]amino]-4-methyl-valeric acid
> <PUBCHEM_IUPAC_INCHI>
InChI=1S/C30H52N6O9/c1-9-17(10-2)32-29(45)35-23(30(5,6)7)27(42)36-13-11-12-18(24(39)31-8)22(36)26(41)33-19(15-21(37)38)25(40)34-20(28(43)44)14-16(3)4/h16-20,22-23H,9-15H2,1-8H3,(H,31,39)(H,33,41)(H,34,40)(H,37,38)(H,43,44)(H2,32,35,45)/t18?,19-,20-,22?,23+/m0/s1
> <PUBCHEM_IUPAC_INCHIKEY>
VABJEHDJUJXSOW-WIXDKPBKSA-N
> <PUBCHEM_XLOGP3_AA>
1.9
> <PUBCHEM_EXACT_MASS>
640.37957726
> <PUBCHEM_MOLECULAR_FORMULA>
C30H52N6O9
> <PUBCHEM_MOLECULAR_WEIGHT>
640.8
> <PUBCHEM_OPENEYE_CAN_SMILES>
CCC(CC)NC(=O)NC(C(=O)N1CCCC(C1C(=O)NC(CC(=O)O)C(=O)NC(CC(C)C)C(=O)O)C(=O)NC)C(C)(C)C
> <PUBCHEM_OPENEYE_ISO_SMILES>
CCC(CC)NC(=O)N[C@H](C(=O)N1CCCC(C1C(=O)N[C@@H](CC(=O)O)C(=O)N[C@@H](CC(C)C)C(=O)O)C(=O)NC)C(C)(C)C
> <PUBCHEM_CACTVS_TPSA>
223
> <PUBCHEM_MONOISOTOPIC_WEIGHT>
640.37957726
> <PUBCHEM_TOTAL_CHARGE>
0
> <PUBCHEM_HEAVY_ATOM_COUNT>
45
> <PUBCHEM_ATOM_DEF_STEREO_COUNT>
3
> <PUBCHEM_ATOM_UDEF_STEREO_COUNT>
2
> <PUBCHEM_BOND_DEF_STEREO_COUNT>
0
> <PUBCHEM_BOND_UDEF_STEREO_COUNT>
0
> <PUBCHEM_ISOTOPIC_ATOM_COUNT>
0
> <PUBCHEM_COMPONENT_COUNT>
1
> <PUBCHEM_CACTVS_TAUTO_COUNT>
-1
> <PUBCHEM_COORDINATE_TYPE>
1
5
255
> <PUBCHEM_BONDANNOTATIONS>
21  11  6
29  12  5
35  15  5
16  24  3
17  25  3
$$$$
