515210
  -OEChem-10302200282D
 35 37  0     1  0  0  0  0  0999 V2000
    2.4612    0.8864    0.0000 Br  0  0  0  0  0  0  0  0  0  0  0  0
    3.4782    3.2658    0.0000 S   0  0  0  0  0  0  0  0  0  0  0  0
    6.1237   -1.3165    0.0000 O   0  0  0  0  0  0  0  0  0  0  0  0
    4.2269   -3.0766    0.0000 O   0  0  0  0  0  0  0  0  0  0  0  0
    7.3970   -2.9721    0.0000 O   0  0  0  0  0  0  0  0  0  0  0  0
    7.0468    0.2712    0.0000 O   0  0  0  0  0  0  0  0  0  0  0  0
    5.3147    3.2712    0.0000 O   0  0  0  0  0  0  0  0  0  0  0  0
    5.3147    0.2712    0.0000 N   0  0  0  0  0  0  0  0  0  0  0  0
    6.1808    1.7712    0.0000 N   0  0  0  0  0  0  0  0  0  0  0  0
    5.3147   -0.7288    0.0000 C   0  0  1  0  0  0  0  0  0  0  0  0
    4.8147   -2.2676    0.0000 C   0  0  1  0  0  0  0  0  0  0  0  0
    4.5057   -1.3165    0.0000 C   0  0  0  0  0  0  0  0  0  0  0  0
    5.8147   -2.2676    0.0000 C   0  0  1  0  0  0  0  0  0  0  0  0
    6.4025   -3.0766    0.0000 C   0  0  0  0  0  0  0  0  0  0  0  0
    4.4487    0.7712    0.0000 C   0  0  0  0  0  0  0  0  0  0  0  0
    6.1808    0.7712    0.0000 C   0  0  0  0  0  0  0  0  0  0  0  0
    4.4487    1.7712    0.0000 C   0  0  0  0  0  0  0  0  0  0  0  0
    5.3147    2.2712    0.0000 C   0  0  0  0  0  0  0  0  0  0  0  0
    3.5827    2.2712    0.0000 C   0  0  0  0  0  0  0  0  0  0  0  0
    2.6691    1.8645    0.0000 C   0  0  0  0  0  0  0  0  0  0  0  0
    2.0000    2.6076    0.0000 C   0  0  0  0  0  0  0  0  0  0  0  0
    2.5000    3.4737    0.0000 C   0  0  0  0  0  0  0  0  0  0  0  0
    4.7623   -0.4473    0.0000 H   0  0  0  0  0  0  0  0  0  0  0  0
    5.0962   -2.8200    0.0000 H   0  0  0  0  0  0  0  0  0  0  0  0
    4.1957   -0.7796    0.0000 H   0  0  0  0  0  0  0  0  0  0  0  0
    3.9393   -1.5687    0.0000 H   0  0  0  0  0  0  0  0  0  0  0  0
    6.4271   -2.1706    0.0000 H   0  0  0  0  0  0  0  0  0  0  0  0
    5.8453   -3.3484    0.0000 H   0  0  0  0  0  0  0  0  0  0  0  0
    6.5734   -3.6726    0.0000 H   0  0  0  0  0  0  0  0  0  0  0  0
    3.9118    0.4612    0.0000 H   0  0  0  0  0  0  0  0  0  0  0  0
    3.6103   -3.0118    0.0000 H   0  0  0  0  0  0  0  0  0  0  0  0
    6.7177    2.0812    0.0000 H   0  0  0  0  0  0  0  0  0  0  0  0
    7.7615   -3.4737    0.0000 H   0  0  0  0  0  0  0  0  0  0  0  0
    1.3834    2.5428    0.0000 H   0  0  0  0  0  0  0  0  0  0  0  0
    2.2478    4.0401    0.0000 H   0  0  0  0  0  0  0  0  0  0  0  0
  1 20  1  0  0  0  0
  2 19  1  0  0  0  0
  2 22  1  0  0  0  0
  3 10  1  0  0  0  0
  3 13  1  0  0  0  0
 11  4  1  1  0  0  0
  4 31  1  0  0  0  0
  5 14  1  0  0  0  0
  5 33  1  0  0  0  0
  6 16  2  0  0  0  0
  7 18  2  0  0  0  0
 10  8  1  6  0  0  0
  8 15  1  0  0  0  0
  8 16  1  0  0  0  0
  9 16  1  0  0  0  0
  9 18  1  0  0  0  0
  9 32  1  0  0  0  0
 10 12  1  0  0  0  0
 10 23  1  0  0  0  0
 11 12  1  0  0  0  0
 11 13  1  0  0  0  0
 11 24  1  0  0  0  0
 12 25  1  0  0  0  0
 12 26  1  0  0  0  0
 13 14  1  6  0  0  0
 13 27  1  0  0  0  0
 14 28  1  0  0  0  0
 14 29  1  0  0  0  0
 15 17  2  0  0  0  0
 15 30  1  0  0  0  0
 17 18  1  0  0  0  0
 17 19  1  0  0  0  0
 19 20  2  0  0  0  0
 20 21  1  0  0  0  0
 21 22  2  0  0  0  0
 21 34  1  0  0  0  0
 22 35  1  0  0  0  0
M  END
> <PUBCHEM_COMPOUND_CID>
515210
> <PUBCHEM_COMPOUND_CANONICALIZED>
1
> <PUBCHEM_CACTVS_COMPLEXITY>
517
> <PUBCHEM_CACTVS_HBOND_ACCEPTOR>
6
> <PUBCHEM_CACTVS_HBOND_DONOR>
3
> <PUBCHEM_CACTVS_ROTATABLE_BOND>
3
> <PUBCHEM_CACTVS_SUBSKEYS>
AAADccBzOABAEAAAAAAAAAAAAAAAASJAAAAgAAAAAAAAAAABgAAAHgRQCAABrBTl0AaxAYPABgiMAiFWUACDAIAgCBRIiBkIAOiJMDKglBGOQAAvhyIriMe4OAIAAAAAAAAAAAAAAAAAAAAAAAAAAAAAAA==
> <PUBCHEM_IUPAC_OPENEYE_NAME>
5-(3-bromo-2-thienyl)-1-[(2R,4S,5R)-4-hydroxy-5-(hydroxymethyl)tetrahydrofuran-2-yl]pyrimidine-2,4-dione
> <PUBCHEM_IUPAC_CAS_NAME>
5-(3-bromo-2-thiophenyl)-1-[(2R,4S,5R)-4-hydroxy-5-(hydroxymethyl)-2-oxolanyl]pyrimidine-2,4-dione
> <PUBCHEM_IUPAC_NAME_MARKUP>
5-(3-bromothiophen-2-yl)-1-[(2<I>R</I>,4<I>S</I>,5<I>R</I>)-4-hydroxy-5-(hydroxymethyl)oxolan-2-yl]pyrimidine-2,4-dione
> <PUBCHEM_IUPAC_NAME>
5-(3-bromothiophen-2-yl)-1-[(2R,4S,5R)-4-hydroxy-5-(hydroxymethyl)oxolan-2-yl]pyrimidine-2,4-dione
> <PUBCHEM_IUPAC_SYSTEMATIC_NAME>
5-(3-bromanylthiophen-2-yl)-1-[(2R,4S,5R)-5-(hydroxymethyl)-4-oxidanyl-oxolan-2-yl]pyrimidine-2,4-dione
> <PUBCHEM_IUPAC_TRADITIONAL_NAME>
5-(3-bromo-2-thienyl)-1-[(2R,4S,5R)-4-hydroxy-5-methylol-tetrahydrofuran-2-yl]pyrimidine-2,4-quinone
> <PUBCHEM_IUPAC_INCHI>
InChI=1S/C13H13BrN2O5S/c14-7-1-2-22-11(7)6-4-16(13(20)15-12(6)19)10-3-8(18)9(5-17)21-10/h1-2,4,8-10,17-18H,3,5H2,(H,15,19,20)/t8-,9+,10+/m0/s1
> <PUBCHEM_IUPAC_INCHIKEY>
WTPCEGWZXOSLSS-IVZWLZJFSA-N
> <PUBCHEM_XLOGP3>
0.5
> <PUBCHEM_EXACT_MASS>
387.97286
> <PUBCHEM_MOLECULAR_FORMULA>
C13H13BrN2O5S
> <PUBCHEM_MOLECULAR_WEIGHT>
389.22
> <PUBCHEM_OPENEYE_CAN_SMILES>
C1C(C(OC1N2C=C(C(=O)NC2=O)C3=C(C=CS3)Br)CO)O
> <PUBCHEM_OPENEYE_ISO_SMILES>
C1[C@@H]([C@H](O[C@H]1N2C=C(C(=O)NC2=O)C3=C(C=CS3)Br)CO)O
> <PUBCHEM_CACTVS_TPSA>
127
> <PUBCHEM_MONOISOTOPIC_WEIGHT>
387.97286
> <PUBCHEM_TOTAL_CHARGE>
0
> <PUBCHEM_HEAVY_ATOM_COUNT>
22
> <PUBCHEM_ATOM_DEF_STEREO_COUNT>
3
> <PUBCHEM_ATOM_UDEF_STEREO_COUNT>
0
> <PUBCHEM_BOND_DEF_STEREO_COUNT>
0
> <PUBCHEM_BOND_UDEF_STEREO_COUNT>
0
> <PUBCHEM_ISOTOPIC_ATOM_COUNT>
0
> <PUBCHEM_COMPONENT_COUNT>
1
> <PUBCHEM_CACTVS_TAUTO_COUNT>
-1
> <PUBCHEM_COORDINATE_TYPE>
1
5
255
> <PUBCHEM_BONDANNOTATIONS>
13  14  6
15  17  8
17  18  8
19  20  8
2  19  8
2  22  8
20  21  8
21  22  8
11  4  5
10  8  6
8  15  8
8  16  8
9  16  8
9  18  8
$$$$
