515255
  -OEChem-10302200282D
 97 97  0     1  0  0  0  0  0999 V2000
    8.0622    2.2306    0.0000 O   0  0  0  0  0  0  0  0  0  0  0  0
   11.5263    2.2306    0.0000 O   0  0  0  0  0  0  0  0  0  0  0  0
   11.5263    1.2306    0.0000 O   0  0  0  0  0  0  0  0  0  0  0  0
    5.4641   -0.2694    0.0000 O   0  0  0  0  0  0  0  0  0  0  0  0
   12.3923   -2.2694    0.0000 O   0  0  0  0  0  0  0  0  0  0  0  0
    9.7942   -4.7694    0.0000 O   0  0  0  0  0  0  0  0  0  0  0  0
   14.1244   -0.2694    0.0000 O   0  0  0  0  0  0  0  0  0  0  0  0
    8.9282   -3.2694    0.0000 O   0  0  0  0  0  0  0  0  0  0  0  0
   13.2583   -1.7694    0.0000 O   0  0  0  0  0  0  0  0  0  0  0  0
   10.6603    3.7306    0.0000 N   0  0  0  0  0  0  0  0  0  0  0  0
    8.9282    0.7306    0.0000 N   0  0  0  0  0  0  0  0  0  0  0  0
    6.3301    1.2306    0.0000 N   0  0  0  0  0  0  0  0  0  0  0  0
   10.6603   -0.2694    0.0000 N   0  0  0  0  0  0  0  0  0  0  0  0
    4.5981    1.2306    0.0000 N   0  0  0  0  0  0  0  0  0  0  0  0
   10.6603   -2.2694    0.0000 N   0  0  0  0  0  0  0  0  0  0  0  0
    7.1962   -0.2694    0.0000 C   0  0  0  0  0  0  0  0  0  0  0  0
    7.1962    0.7306    0.0000 C   0  0  1  0  0  0  0  0  0  0  0  0
   11.4693    4.3184    0.0000 C   0  0  0  0  0  0  0  0  0  0  0  0
    9.8512    4.3184    0.0000 C   0  0  0  0  0  0  0  0  0  0  0  0
   11.1603    5.2694    0.0000 C   0  0  0  0  0  0  0  0  0  0  0  0
   10.1603    5.2694    0.0000 C   0  0  0  0  0  0  0  0  0  0  0  0
    9.7942    1.2306    0.0000 C   0  0  1  0  0  0  0  0  0  0  0  0
    9.7942    2.2306    0.0000 C   0  0  0  0  0  0  0  0  0  0  0  0
    7.1962   -1.2694    0.0000 C   0  0  0  0  0  0  0  0  0  0  0  0
    6.1962   -0.2694    0.0000 C   0  0  0  0  0  0  0  0  0  0  0  0
    8.1962   -0.2694    0.0000 C   0  0  0  0  0  0  0  0  0  0  0  0
    8.0622    1.2306    0.0000 C   0  0  0  0  0  0  0  0  0  0  0  0
   10.6603    2.7306    0.0000 C   0  0  0  0  0  0  0  0  0  0  0  0
   10.6603    0.7306    0.0000 C   0  0  0  0  0  0  0  0  0  0  0  0
    5.4641    0.7306    0.0000 C   0  0  0  0  0  0  0  0  0  0  0  0
   11.5263   -0.7694    0.0000 C   0  0  2  0  0  0  0  0  0  0  0  0
    3.7320    0.7306    0.0000 C   0  0  0  0  0  0  0  0  0  0  0  0
   10.6603   -3.2694    0.0000 C   0  0  1  0  0  0  0  0  0  0  0  0
   11.5263   -3.7694    0.0000 C   0  0  0  0  0  0  0  0  0  0  0  0
   11.5263   -4.7694    0.0000 C   0  0  0  0  0  0  0  0  0  0  0  0
    2.8660    1.2306    0.0000 C   0  0  0  0  0  0  0  0  0  0  0  0
    3.7320   -0.2694    0.0000 C   0  0  0  0  0  0  0  0  0  0  0  0
   11.5263   -1.7694    0.0000 C   0  0  0  0  0  0  0  0  0  0  0  0
   12.3923   -0.2694    0.0000 C   0  0  0  0  0  0  0  0  0  0  0  0
   12.3923   -5.2694    0.0000 C   0  0  0  0  0  0  0  0  0  0  0  0
   10.6603   -5.2694    0.0000 C   0  0  0  0  0  0  0  0  0  0  0  0
    2.0000    0.7306    0.0000 C   0  0  0  0  0  0  0  0  0  0  0  0
    2.8660   -0.7694    0.0000 C   0  0  0  0  0  0  0  0  0  0  0  0
    9.7942   -3.7694    0.0000 C   0  0  0  0  0  0  0  0  0  0  0  0
   13.2583   -0.7694    0.0000 C   0  0  0  0  0  0  0  0  0  0  0  0
    6.6592    0.4206    0.0000 H   0  0  0  0  0  0  0  0  0  0  0  0
   11.7793    3.7814    0.0000 H   0  0  0  0  0  0  0  0  0  0  0  0
   12.0357    4.5705    0.0000 H   0  0  0  0  0  0  0  0  0  0  0  0
    9.2848    4.5705    0.0000 H   0  0  0  0  0  0  0  0  0  0  0  0
    9.5412    3.7814    0.0000 H   0  0  0  0  0  0  0  0  0  0  0  0
   11.7667    5.3983    0.0000 H   0  0  0  0  0  0  0  0  0  0  0  0
   11.0954    5.8860    0.0000 H   0  0  0  0  0  0  0  0  0  0  0  0
   10.2251    5.8860    0.0000 H   0  0  0  0  0  0  0  0  0  0  0  0
    9.5538    5.3983    0.0000 H   0  0  0  0  0  0  0  0  0  0  0  0
    9.2573    1.5406    0.0000 H   0  0  0  0  0  0  0  0  0  0  0  0
    9.5822    2.8132    0.0000 H   0  0  0  0  0  0  0  0  0  0  0  0
    9.1836    2.1229    0.0000 H   0  0  0  0  0  0  0  0  0  0  0  0
    6.5762   -1.2694    0.0000 H   0  0  0  0  0  0  0  0  0  0  0  0
    7.1962   -1.8894    0.0000 H   0  0  0  0  0  0  0  0  0  0  0  0
    7.8162   -1.2694    0.0000 H   0  0  0  0  0  0  0  0  0  0  0  0
    6.1962    0.3506    0.0000 H   0  0  0  0  0  0  0  0  0  0  0  0
    5.5762   -0.2694    0.0000 H   0  0  0  0  0  0  0  0  0  0  0  0
    6.1962   -0.8894    0.0000 H   0  0  0  0  0  0  0  0  0  0  0  0
    8.1962   -0.8894    0.0000 H   0  0  0  0  0  0  0  0  0  0  0  0
    8.8162   -0.2694    0.0000 H   0  0  0  0  0  0  0  0  0  0  0  0
    8.1962    0.3506    0.0000 H   0  0  0  0  0  0  0  0  0  0  0  0
    8.9282    0.1106    0.0000 H   0  0  0  0  0  0  0  0  0  0  0  0
    6.3301    1.8506    0.0000 H   0  0  0  0  0  0  0  0  0  0  0  0
   10.9893   -1.0794    0.0000 H   0  0  0  0  0  0  0  0  0  0  0  0
   10.1233   -0.5794    0.0000 H   0  0  0  0  0  0  0  0  0  0  0  0
    3.7320    1.3506    0.0000 H   0  0  0  0  0  0  0  0  0  0  0  0
    4.5981    1.8506    0.0000 H   0  0  0  0  0  0  0  0  0  0  0  0
   11.1972   -2.9594    0.0000 H   0  0  0  0  0  0  0  0  0  0  0  0
   12.1369   -3.8771    0.0000 H   0  0  0  0  0  0  0  0  0  0  0  0
   11.7383   -3.1868    0.0000 H   0  0  0  0  0  0  0  0  0  0  0  0
   12.0632   -4.4594    0.0000 H   0  0  0  0  0  0  0  0  0  0  0  0
    3.2646    1.7055    0.0000 H   0  0  0  0  0  0  0  0  0  0  0  0
    2.4675    1.7055    0.0000 H   0  0  0  0  0  0  0  0  0  0  0  0
    3.9441   -0.8520    0.0000 H   0  0  0  0  0  0  0  0  0  0  0  0
    4.3426   -0.1618    0.0000 H   0  0  0  0  0  0  0  0  0  0  0  0
   12.7908    0.2055    0.0000 H   0  0  0  0  0  0  0  0  0  0  0  0
   11.9938    0.2055    0.0000 H   0  0  0  0  0  0  0  0  0  0  0  0
   10.1233   -1.9594    0.0000 H   0  0  0  0  0  0  0  0  0  0  0  0
   12.0823   -5.8064    0.0000 H   0  0  0  0  0  0  0  0  0  0  0  0
   12.9292   -5.5794    0.0000 H   0  0  0  0  0  0  0  0  0  0  0  0
   12.7023   -4.7325    0.0000 H   0  0  0  0  0  0  0  0  0  0  0  0
   10.3503   -4.7325    0.0000 H   0  0  0  0  0  0  0  0  0  0  0  0
   10.1233   -5.5794    0.0000 H   0  0  0  0  0  0  0  0  0  0  0  0
   10.9703   -5.8064    0.0000 H   0  0  0  0  0  0  0  0  0  0  0  0
    1.6900    1.2675    0.0000 H   0  0  0  0  0  0  0  0  0  0  0  0
    1.4631    0.4206    0.0000 H   0  0  0  0  0  0  0  0  0  0  0  0
    2.3100    0.1936    0.0000 H   0  0  0  0  0  0  0  0  0  0  0  0
    2.5560   -0.2325    0.0000 H   0  0  0  0  0  0  0  0  0  0  0  0
    2.3291   -1.0794    0.0000 H   0  0  0  0  0  0  0  0  0  0  0  0
    3.1760   -1.3064    0.0000 H   0  0  0  0  0  0  0  0  0  0  0  0
    9.2573   -5.0794    0.0000 H   0  0  0  0  0  0  0  0  0  0  0  0
   14.6613   -0.5794    0.0000 H   0  0  0  0  0  0  0  0  0  0  0  0
  1 27  2  0  0  0  0
  2 28  2  0  0  0  0
  3 29  2  0  0  0  0
  4 30  2  0  0  0  0
  5 38  2  0  0  0  0
  6 44  1  0  0  0  0
  6 96  1  0  0  0  0
  7 45  1  0  0  0  0
  7 97  1  0  0  0  0
  8 44  2  0  0  0  0
  9 45  2  0  0  0  0
 10 18  1  0  0  0  0
 10 19  1  0  0  0  0
 10 28  1  0  0  0  0
 22 11  1  1  0  0  0
 11 27  1  0  0  0  0
 11 67  1  0  0  0  0
 17 12  1  6  0  0  0
 12 30  1  0  0  0  0
 12 68  1  0  0  0  0
 13 29  1  0  0  0  0
 31 13  1  1  0  0  0
 13 70  1  0  0  0  0
 14 30  1  0  0  0  0
 14 32  1  0  0  0  0
 14 72  1  0  0  0  0
 33 15  1  1  0  0  0
 15 38  1  0  0  0  0
 15 83  1  0  0  0  0
 16 17  1  0  0  0  0
 16 24  1  0  0  0  0
 16 25  1  0  0  0  0
 16 26  1  0  0  0  0
 17 27  1  0  0  0  0
 17 46  1  0  0  0  0
 18 20  1  0  0  0  0
 18 47  1  0  0  0  0
 18 48  1  0  0  0  0
 19 21  1  0  0  0  0
 19 49  1  0  0  0  0
 19 50  1  0  0  0  0
 20 21  1  0  0  0  0
 20 51  1  0  0  0  0
 20 52  1  0  0  0  0
 21 53  1  0  0  0  0
 21 54  1  0  0  0  0
 22 23  1  0  0  0  0
 22 29  1  0  0  0  0
 22 55  1  0  0  0  0
 23 28  1  0  0  0  0
 23 56  1  0  0  0  0
 23 57  1  0  0  0  0
 24 58  1  0  0  0  0
 24 59  1  0  0  0  0
 24 60  1  0  0  0  0
 25 61  1  0  0  0  0
 25 62  1  0  0  0  0
 25 63  1  0  0  0  0
 26 64  1  0  0  0  0
 26 65  1  0  0  0  0
 26 66  1  0  0  0  0
 31 38  1  0  0  0  0
 31 39  1  0  0  0  0
 31 69  1  0  0  0  0
 32 36  1  0  0  0  0
 32 37  1  0  0  0  0
 32 71  1  0  0  0  0
 33 34  1  0  0  0  0
 33 44  1  0  0  0  0
 33 73  1  0  0  0  0
 34 35  1  0  0  0  0
 34 74  1  0  0  0  0
 34 75  1  0  0  0  0
 35 40  1  0  0  0  0
 35 41  1  0  0  0  0
 35 76  1  0  0  0  0
 36 42  1  0  0  0  0
 36 77  1  0  0  0  0
 36 78  1  0  0  0  0
 37 43  1  0  0  0  0
 37 79  1  0  0  0  0
 37 80  1  0  0  0  0
 39 45  1  0  0  0  0
 39 81  1  0  0  0  0
 39 82  1  0  0  0  0
 40 84  1  0  0  0  0
 40 85  1  0  0  0  0
 40 86  1  0  0  0  0
 41 87  1  0  0  0  0
 41 88  1  0  0  0  0
 41 89  1  0  0  0  0
 42 90  1  0  0  0  0
 42 91  1  0  0  0  0
 42 92  1  0  0  0  0
 43 93  1  0  0  0  0
 43 94  1  0  0  0  0
 43 95  1  0  0  0  0
M  END
> <PUBCHEM_COMPOUND_CID>
515255
> <PUBCHEM_COMPOUND_CANONICALIZED>
1
> <PUBCHEM_CACTVS_COMPLEXITY>
1060
> <PUBCHEM_CACTVS_HBOND_ACCEPTOR>
9
> <PUBCHEM_CACTVS_HBOND_DONOR>
7
> <PUBCHEM_CACTVS_ROTATABLE_BOND>
18
> <PUBCHEM_CACTVS_SUBSKEYS>
AAADcfB7vAAAAAAAAAAAAAAAAAAAAWAAAAAAAAAAAAAAAAAAAAAAHgAQCAAADyjBgAQDCAPAAgAIAAGQGAAAAAAAAAAAAIGIAACCQBoAwCAUQAAOFgKQAACvAAANAAAAAAAAAAAAAAAAAAAAAAAAAAAAAA==
> <PUBCHEM_IUPAC_OPENEYE_NAME>
(2S)-2-[[(2S)-3-carboxy-2-[[(2S)-2-[[(2S)-2-(1-ethylpropylcarbamoylamino)-3,3-dimethyl-butanoyl]amino]-4-oxo-4-pyrrolidin-1-yl-butanoyl]amino]propanoyl]amino]-4-methyl-pentanoic acid
> <PUBCHEM_IUPAC_CAS_NAME>
(2S)-2-[[(2S)-3-carboxy-2-[[(2S)-2-[[(2S)-3,3-dimethyl-1-oxo-2-[[oxo-(pentan-3-ylamino)methyl]amino]butyl]amino]-1,4-dioxo-4-(1-pyrrolidinyl)butyl]amino]-1-oxopropyl]amino]-4-methylpentanoic acid
> <PUBCHEM_IUPAC_NAME_MARKUP>
(2<I>S</I>)-2-[[(2<I>S</I>)-3-carboxy-2-[[(2<I>S</I>)-2-[[(2<I>S</I>)-3,3-dimethyl-2-(pentan-3-ylcarbamoylamino)butanoyl]amino]-4-oxo-4-pyrrolidin-1-ylbutanoyl]amino]propanoyl]amino]-4-methylpentanoic acid
> <PUBCHEM_IUPAC_NAME>
(2S)-2-[[(2S)-3-carboxy-2-[[(2S)-2-[[(2S)-3,3-dimethyl-2-(pentan-3-ylcarbamoylamino)butanoyl]amino]-4-oxo-4-pyrrolidin-1-ylbutanoyl]amino]propanoyl]amino]-4-methylpentanoic acid
> <PUBCHEM_IUPAC_SYSTEMATIC_NAME>
(2S)-2-[[(2S)-2-[[(2S)-2-[[(2S)-3,3-dimethyl-2-(pentan-3-ylcarbamoylamino)butanoyl]amino]-4-oxidanylidene-4-pyrrolidin-1-yl-butanoyl]amino]-4-oxidanyl-4-oxidanylidene-butanoyl]amino]-4-methyl-pentanoic acid
> <PUBCHEM_IUPAC_TRADITIONAL_NAME>
(2S)-2-[[(2S)-3-carboxy-2-[[(2S)-2-[[(2S)-2-(1-ethylpropylcarbamoylamino)-3,3-dimethyl-butanoyl]amino]-4-keto-4-pyrrolidino-butanoyl]amino]propanoyl]amino]-4-methyl-valeric acid
> <PUBCHEM_IUPAC_INCHI>
InChI=1S/C30H52N6O9/c1-8-18(9-2)31-29(45)35-24(30(5,6)7)27(42)33-19(15-22(37)36-12-10-11-13-36)25(40)32-20(16-23(38)39)26(41)34-21(28(43)44)14-17(3)4/h17-21,24H,8-16H2,1-7H3,(H,32,40)(H,33,42)(H,34,41)(H,38,39)(H,43,44)(H2,31,35,45)/t19-,20-,21-,24+/m0/s1
> <PUBCHEM_IUPAC_INCHIKEY>
CGJZPYBZIFEXJA-IBPRQYQWSA-N
> <PUBCHEM_XLOGP3_AA>
1.8
> <PUBCHEM_EXACT_MASS>
640.37957726
> <PUBCHEM_MOLECULAR_FORMULA>
C30H52N6O9
> <PUBCHEM_MOLECULAR_WEIGHT>
640.8
> <PUBCHEM_OPENEYE_CAN_SMILES>
CCC(CC)NC(=O)NC(C(=O)NC(CC(=O)N1CCCC1)C(=O)NC(CC(=O)O)C(=O)NC(CC(C)C)C(=O)O)C(C)(C)C
> <PUBCHEM_OPENEYE_ISO_SMILES>
CCC(CC)NC(=O)N[C@H](C(=O)N[C@@H](CC(=O)N1CCCC1)C(=O)N[C@@H](CC(=O)O)C(=O)N[C@@H](CC(C)C)C(=O)O)C(C)(C)C
> <PUBCHEM_CACTVS_TPSA>
223
> <PUBCHEM_MONOISOTOPIC_WEIGHT>
640.37957726
> <PUBCHEM_TOTAL_CHARGE>
0
> <PUBCHEM_HEAVY_ATOM_COUNT>
45
> <PUBCHEM_ATOM_DEF_STEREO_COUNT>
4
> <PUBCHEM_ATOM_UDEF_STEREO_COUNT>
0
> <PUBCHEM_BOND_DEF_STEREO_COUNT>
0
> <PUBCHEM_BOND_UDEF_STEREO_COUNT>
0
> <PUBCHEM_ISOTOPIC_ATOM_COUNT>
0
> <PUBCHEM_COMPONENT_COUNT>
1
> <PUBCHEM_CACTVS_TAUTO_COUNT>
-1
> <PUBCHEM_COORDINATE_TYPE>
1
5
255
> <PUBCHEM_BONDANNOTATIONS>
22  11  5
17  12  6
31  13  5
33  15  5
$$$$
