515292
  -OEChem-10302200282D
117118  0     1  0  0  0  0  0999 V2000
   11.3020    0.9415    0.0000 O   0  0  0  0  0  0  0  0  0  0  0  0
   10.4888    2.4708    0.0000 O   0  0  0  0  0  0  0  0  0  0  0  0
    8.0622    3.2680    0.0000 O   0  0  0  0  0  0  0  0  0  0  0  0
    7.1962    2.7680    0.0000 O   0  0  0  0  0  0  0  0  0  0  0  0
    5.4641   -3.2320    0.0000 O   0  0  0  0  0  0  0  0  0  0  0  0
    4.5981    0.2679    0.0000 O   0  0  0  0  0  0  0  0  0  0  0  0
    6.3301    3.2680    0.0000 O   0  0  0  0  0  0  0  0  0  0  0  0
    8.0622    1.2680    0.0000 N   0  0  0  0  0  0  0  0  0  0  0  0
    3.7320   -3.2320    0.0000 N   0  0  0  0  0  0  0  0  0  0  0  0
    9.4282    3.6340    0.0000 N   0  0  0  0  0  0  0  0  0  0  0  0
    4.5981   -1.7320    0.0000 N   0  0  0  0  0  0  0  0  0  0  0  0
    6.3301    0.2679    0.0000 N   0  0  0  0  0  0  0  0  0  0  0  0
    9.5710    1.0019    0.0000 C   0  0  0  0  0  0  0  0  0  0  0  0
   10.4190    0.4720    0.0000 C   0  0  0  0  0  0  0  0  0  0  0  0
    8.8050    0.3591    0.0000 C   0  0  0  0  0  0  0  0  0  0  0  0
    8.9282    1.7680    0.0000 C   0  0  1  0  0  0  0  0  0  0  0  0
   10.1771   -0.4983    0.0000 C   0  0  0  0  0  0  0  0  0  0  0  0
    9.1796   -0.5681    0.0000 C   0  0  0  0  0  0  0  0  0  0  0  0
    3.7320   -4.2320    0.0000 C   0  0  0  0  0  0  0  0  0  0  0  0
    2.8660   -4.7320    0.0000 C   0  0  1  0  0  0  0  0  0  0  0  0
    4.5981   -4.7320    0.0000 C   0  0  2  0  0  0  0  0  0  0  0  0
   10.4539    1.4714    0.0000 C   0  0  0  0  0  0  0  0  0  0  0  0
    2.8660   -5.7320    0.0000 C   0  0  0  0  0  0  0  0  0  0  0  0
    4.5981   -5.7320    0.0000 C   0  0  0  0  0  0  0  0  0  0  0  0
    3.7320   -6.2320    0.0000 C   0  0  0  0  0  0  0  0  0  0  0  0
    8.9282    2.7680    0.0000 C   0  0  0  0  0  0  0  0  0  0  0  0
    8.9282    4.5000    0.0000 C   0  0  1  0  0  0  0  0  0  0  0  0
    2.0000   -4.2320    0.0000 C   0  0  0  0  0  0  0  0  0  0  0  0
    5.4641   -4.2320    0.0000 C   0  0  0  0  0  0  0  0  0  0  0  0
    9.4282    5.3660    0.0000 C   0  0  0  0  0  0  0  0  0  0  0  0
    7.1962    1.7680    0.0000 C   0  0  0  0  0  0  0  0  0  0  0  0
    6.3301    1.2680    0.0000 C   0  0  2  0  0  0  0  0  0  0  0  0
    7.9282    4.5000    0.0000 C   0  0  0  0  0  0  0  0  0  0  0  0
    4.5981   -2.7320    0.0000 C   0  0  0  0  0  0  0  0  0  0  0  0
    5.4641   -1.2320    0.0000 C   0  0  1  0  0  0  0  0  0  0  0  0
    6.3301   -1.7320    0.0000 C   0  0  0  0  0  0  0  0  0  0  0  0
    9.9282    6.2320    0.0000 C   0  0  0  0  0  0  0  0  0  0  0  0
    8.5622    5.8660    0.0000 C   0  0  0  0  0  0  0  0  0  0  0  0
   10.2942    4.8660    0.0000 C   0  0  0  0  0  0  0  0  0  0  0  0
    5.4641    1.7680    0.0000 C   0  0  0  0  0  0  0  0  0  0  0  0
    5.4641   -0.2321    0.0000 C   0  0  0  0  0  0  0  0  0  0  0  0
    7.4282    5.3660    0.0000 C   0  0  0  0  0  0  0  0  0  0  0  0
    7.1962   -2.2320    0.0000 C   0  0  0  0  0  0  0  0  0  0  0  0
    6.8301   -0.8660    0.0000 C   0  0  0  0  0  0  0  0  0  0  0  0
    5.8301   -2.5981    0.0000 C   0  0  0  0  0  0  0  0  0  0  0  0
    5.4641    2.7680    0.0000 C   0  0  0  0  0  0  0  0  0  0  0  0
    4.5981    3.2680    0.0000 C   0  0  0  0  0  0  0  0  0  0  0  0
    3.7320    3.7680    0.0000 C   0  0  0  0  0  0  0  0  0  0  0  0
    4.0981    2.4019    0.0000 C   0  0  0  0  0  0  0  0  0  0  0  0
    5.0981    4.1340    0.0000 C   0  0  0  0  0  0  0  0  0  0  0  0
   11.0016    0.2599    0.0000 H   0  0  0  0  0  0  0  0  0  0  0  0
   10.6908    1.0292    0.0000 H   0  0  0  0  0  0  0  0  0  0  0  0
    8.4582    0.8731    0.0000 H   0  0  0  0  0  0  0  0  0  0  0  0
    8.2575    0.0680    0.0000 H   0  0  0  0  0  0  0  0  0  0  0  0
    8.3913    2.0780    0.0000 H   0  0  0  0  0  0  0  0  0  0  0  0
   10.1555   -1.1179    0.0000 H   0  0  0  0  0  0  0  0  0  0  0  0
   10.7911   -0.5846    0.0000 H   0  0  0  0  0  0  0  0  0  0  0  0
    8.5836   -0.7390    0.0000 H   0  0  0  0  0  0  0  0  0  0  0  0
    9.2872   -1.1786    0.0000 H   0  0  0  0  0  0  0  0  0  0  0  0
    4.2690   -3.9220    0.0000 H   0  0  0  0  0  0  0  0  0  0  0  0
    2.8660   -4.1120    0.0000 H   0  0  0  0  0  0  0  0  0  0  0  0
    5.1350   -5.0420    0.0000 H   0  0  0  0  0  0  0  0  0  0  0  0
    2.2554   -5.6244    0.0000 H   0  0  0  0  0  0  0  0  0  0  0  0
    2.6540   -6.3147    0.0000 H   0  0  0  0  0  0  0  0  0  0  0  0
    4.8101   -6.3147    0.0000 H   0  0  0  0  0  0  0  0  0  0  0  0
    5.2087   -5.6244    0.0000 H   0  0  0  0  0  0  0  0  0  0  0  0
    3.3335   -6.7070    0.0000 H   0  0  0  0  0  0  0  0  0  0  0  0
    4.1306   -6.7070    0.0000 H   0  0  0  0  0  0  0  0  0  0  0  0
    8.0622    0.6479    0.0000 H   0  0  0  0  0  0  0  0  0  0  0  0
    9.5482    4.5000    0.0000 H   0  0  0  0  0  0  0  0  0  0  0  0
    2.3100   -3.6951    0.0000 H   0  0  0  0  0  0  0  0  0  0  0  0
    1.4631   -3.9220    0.0000 H   0  0  0  0  0  0  0  0  0  0  0  0
    1.6900   -4.7690    0.0000 H   0  0  0  0  0  0  0  0  0  0  0  0
    5.7741   -4.7690    0.0000 H   0  0  0  0  0  0  0  0  0  0  0  0
    6.0010   -3.9220    0.0000 H   0  0  0  0  0  0  0  0  0  0  0  0
    5.1541   -3.6951    0.0000 H   0  0  0  0  0  0  0  0  0  0  0  0
    3.1951   -2.9220    0.0000 H   0  0  0  0  0  0  0  0  0  0  0  0
   10.0482    3.6340    0.0000 H   0  0  0  0  0  0  0  0  0  0  0  0
    6.8671    0.9579    0.0000 H   0  0  0  0  0  0  0  0  0  0  0  0
    7.3456    4.2880    0.0000 H   0  0  0  0  0  0  0  0  0  0  0  0
    8.0359    3.8894    0.0000 H   0  0  0  0  0  0  0  0  0  0  0  0
   11.2803    0.3218    0.0000 H   0  0  0  0  0  0  0  0  0  0  0  0
    5.4641   -1.8520    0.0000 H   0  0  0  0  0  0  0  0  0  0  0  0
   10.4651    5.9220    0.0000 H   0  0  0  0  0  0  0  0  0  0  0  0
   10.2382    6.7690    0.0000 H   0  0  0  0  0  0  0  0  0  0  0  0
    9.3913    6.5420    0.0000 H   0  0  0  0  0  0  0  0  0  0  0  0
    8.8722    6.4030    0.0000 H   0  0  0  0  0  0  0  0  0  0  0  0
    8.0252    6.1760    0.0000 H   0  0  0  0  0  0  0  0  0  0  0  0
    8.2522    5.3291    0.0000 H   0  0  0  0  0  0  0  0  0  0  0  0
    9.9842    4.3291    0.0000 H   0  0  0  0  0  0  0  0  0  0  0  0
   10.8312    4.5560    0.0000 H   0  0  0  0  0  0  0  0  0  0  0  0
   10.6042    5.4030    0.0000 H   0  0  0  0  0  0  0  0  0  0  0  0
    4.0611   -1.4220    0.0000 H   0  0  0  0  0  0  0  0  0  0  0  0
    4.8535    1.8756    0.0000 H   0  0  0  0  0  0  0  0  0  0  0  0
    5.2520    1.1853    0.0000 H   0  0  0  0  0  0  0  0  0  0  0  0
    6.8671   -0.0421    0.0000 H   0  0  0  0  0  0  0  0  0  0  0  0
    7.9651    5.6760    0.0000 H   0  0  0  0  0  0  0  0  0  0  0  0
    7.1182    5.9030    0.0000 H   0  0  0  0  0  0  0  0  0  0  0  0
    6.8913    5.0560    0.0000 H   0  0  0  0  0  0  0  0  0  0  0  0
    6.8862   -2.7690    0.0000 H   0  0  0  0  0  0  0  0  0  0  0  0
    7.7331   -2.5420    0.0000 H   0  0  0  0  0  0  0  0  0  0  0  0
    7.5062   -1.6951    0.0000 H   0  0  0  0  0  0  0  0  0  0  0  0
    7.3671   -1.1760    0.0000 H   0  0  0  0  0  0  0  0  0  0  0  0
    7.1401   -0.3291    0.0000 H   0  0  0  0  0  0  0  0  0  0  0  0
    6.2932   -0.5560    0.0000 H   0  0  0  0  0  0  0  0  0  0  0  0
    5.2932   -2.2881    0.0000 H   0  0  0  0  0  0  0  0  0  0  0  0
    5.5201   -3.1350    0.0000 H   0  0  0  0  0  0  0  0  0  0  0  0
    6.3671   -2.9081    0.0000 H   0  0  0  0  0  0  0  0  0  0  0  0
    4.0420    4.3049    0.0000 H   0  0  0  0  0  0  0  0  0  0  0  0
    3.1951    4.0780    0.0000 H   0  0  0  0  0  0  0  0  0  0  0  0
    3.4220    3.2310    0.0000 H   0  0  0  0  0  0  0  0  0  0  0  0
    3.5611    2.7119    0.0000 H   0  0  0  0  0  0  0  0  0  0  0  0
    3.7881    1.8650    0.0000 H   0  0  0  0  0  0  0  0  0  0  0  0
    4.6350    2.0919    0.0000 H   0  0  0  0  0  0  0  0  0  0  0  0
    5.6350    3.8240    0.0000 H   0  0  0  0  0  0  0  0  0  0  0  0
    5.4081    4.6709    0.0000 H   0  0  0  0  0  0  0  0  0  0  0  0
    4.5611    4.4440    0.0000 H   0  0  0  0  0  0  0  0  0  0  0  0
  1 22  1  0  0  0  0
  1 82  1  0  0  0  0
  2 22  2  0  0  0  0
  3 26  2  0  0  0  0
  4 31  2  0  0  0  0
  5 34  2  0  0  0  0
  6 41  2  0  0  0  0
  7 46  2  0  0  0  0
 16  8  1  6  0  0  0
  8 31  1  0  0  0  0
  8 69  1  0  0  0  0
  9 19  1  0  0  0  0
  9 34  1  0  0  0  0
  9 77  1  0  0  0  0
 10 26  1  0  0  0  0
 27 10  1  6  0  0  0
 10 78  1  0  0  0  0
 11 34  1  0  0  0  0
 35 11  1  6  0  0  0
 11 93  1  0  0  0  0
 32 12  1  1  0  0  0
 12 41  1  0  0  0  0
 12 96  1  0  0  0  0
 13 14  1  0  0  0  0
 13 15  1  0  0  0  0
 13 16  1  0  0  0  0
 13 22  1  0  0  0  0
 14 17  1  0  0  0  0
 14 51  1  0  0  0  0
 14 52  1  0  0  0  0
 15 18  1  0  0  0  0
 15 53  1  0  0  0  0
 15 54  1  0  0  0  0
 16 26  1  0  0  0  0
 16 55  1  0  0  0  0
 17 18  1  0  0  0  0
 17 56  1  0  0  0  0
 17 57  1  0  0  0  0
 18 58  1  0  0  0  0
 18 59  1  0  0  0  0
 19 20  1  0  0  0  0
 19 21  1  0  0  0  0
 19 60  1  0  0  0  0
 20 23  1  0  0  0  0
 20 28  1  1  0  0  0
 20 61  1  0  0  0  0
 21 24  1  0  0  0  0
 21 29  1  1  0  0  0
 21 62  1  0  0  0  0
 23 25  1  0  0  0  0
 23 63  1  0  0  0  0
 23 64  1  0  0  0  0
 24 25  1  0  0  0  0
 24 65  1  0  0  0  0
 24 66  1  0  0  0  0
 25 67  1  0  0  0  0
 25 68  1  0  0  0  0
 27 30  1  0  0  0  0
 27 33  1  0  0  0  0
 27 70  1  0  0  0  0
 28 71  1  0  0  0  0
 28 72  1  0  0  0  0
 28 73  1  0  0  0  0
 29 74  1  0  0  0  0
 29 75  1  0  0  0  0
 29 76  1  0  0  0  0
 30 37  1  0  0  0  0
 30 38  1  0  0  0  0
 30 39  1  0  0  0  0
 31 32  1  0  0  0  0
 32 40  1  0  0  0  0
 32 79  1  0  0  0  0
 33 42  1  0  0  0  0
 33 80  1  0  0  0  0
 33 81  1  0  0  0  0
 35 36  1  0  0  0  0
 35 41  1  0  0  0  0
 35 83  1  0  0  0  0
 36 43  1  0  0  0  0
 36 44  1  0  0  0  0
 36 45  1  0  0  0  0
 37 84  1  0  0  0  0
 37 85  1  0  0  0  0
 37 86  1  0  0  0  0
 38 87  1  0  0  0  0
 38 88  1  0  0  0  0
 38 89  1  0  0  0  0
 39 90  1  0  0  0  0
 39 91  1  0  0  0  0
 39 92  1  0  0  0  0
 40 46  1  0  0  0  0
 40 94  1  0  0  0  0
 40 95  1  0  0  0  0
 42 97  1  0  0  0  0
 42 98  1  0  0  0  0
 42 99  1  0  0  0  0
 43100  1  0  0  0  0
 43101  1  0  0  0  0
 43102  1  0  0  0  0
 44103  1  0  0  0  0
 44104  1  0  0  0  0
 44105  1  0  0  0  0
 45106  1  0  0  0  0
 45107  1  0  0  0  0
 45108  1  0  0  0  0
 46 47  1  0  0  0  0
 47 48  1  0  0  0  0
 47 49  1  0  0  0  0
 47 50  1  0  0  0  0
 48109  1  0  0  0  0
 48110  1  0  0  0  0
 48111  1  0  0  0  0
 49112  1  0  0  0  0
 49113  1  0  0  0  0
 49114  1  0  0  0  0
 50115  1  0  0  0  0
 50116  1  0  0  0  0
 50117  1  0  0  0  0
M  END
> <PUBCHEM_COMPOUND_CID>
515292
> <PUBCHEM_COMPOUND_CANONICALIZED>
1
> <PUBCHEM_CACTVS_COMPLEXITY>
1230
> <PUBCHEM_CACTVS_HBOND_ACCEPTOR>
7
> <PUBCHEM_CACTVS_HBOND_DONOR>
6
> <PUBCHEM_CACTVS_ROTATABLE_BOND>
16
> <PUBCHEM_CACTVS_SUBSKEYS>
AAADcfB/uAAAAAAAAAAAAAAAAAAAAYAAAAAwAAAAAAAAAAAAAAAAHgAQCAAADyzBgAQDCALAAgAIAIGQGAAAAAAAAAAAAIGIAACAQBoAgCAUQAAOFgKAAAG/yECPAAAAAAAAAAAAAAQAAAQAAAAAAAAAAA==
> <PUBCHEM_IUPAC_OPENEYE_NAME>
1-[(1S)-1-[[(2S)-2-[[(2S)-2-[[(2R,6S)-2,6-dimethylcyclohexyl]carbamoylamino]-3,3-dimethyl-butanoyl]amino]-5,5-dimethyl-4-oxo-hexanoyl]amino]-2-[[(1R)-1-ethyl-2,2-dimethyl-propyl]amino]-2-oxo-ethyl]cyclopentanecarboxylic acid
> <PUBCHEM_IUPAC_CAS_NAME>
1-[(1S)-1-[[(2S)-2-[[(2S)-2-[[[[(2R,6S)-2,6-dimethylcyclohexyl]amino]-oxomethyl]amino]-3,3-dimethyl-1-oxobutyl]amino]-5,5-dimethyl-1,4-dioxohexyl]amino]-2-[[(3R)-2,2-dimethylpentan-3-yl]amino]-2-oxoethyl]-1-cyclopentanecarboxylic acid
> <PUBCHEM_IUPAC_NAME_MARKUP>
1-[(1<I>S</I>)-1-[[(2<I>S</I>)-2-[[(2<I>S</I>)-2-[[(2<I>R</I>,6<I>S</I>)-2,6-dimethylcyclohexyl]carbamoylamino]-3,3-dimethylbutanoyl]amino]-5,5-dimethyl-4-oxohexanoyl]amino]-2-[[(3<I>R</I>)-2,2-dimethylpentan-3-yl]amino]-2-oxoethyl]cyclopentane-1-carboxylic acid
> <PUBCHEM_IUPAC_NAME>
1-[(1S)-1-[[(2S)-2-[[(2S)-2-[[(2R,6S)-2,6-dimethylcyclohexyl]carbamoylamino]-3,3-dimethylbutanoyl]amino]-5,5-dimethyl-4-oxohexanoyl]amino]-2-[[(3R)-2,2-dimethylpentan-3-yl]amino]-2-oxoethyl]cyclopentane-1-carboxylic acid
> <PUBCHEM_IUPAC_SYSTEMATIC_NAME>
1-[(1S)-1-[[(2S)-2-[[(2S)-2-[[(2R,6S)-2,6-dimethylcyclohexyl]carbamoylamino]-3,3-dimethyl-butanoyl]amino]-5,5-dimethyl-4-oxidanylidene-hexanoyl]amino]-2-[[(3R)-2,2-dimethylpentan-3-yl]amino]-2-oxidanylidene-ethyl]cyclopentane-1-carboxylic acid
> <PUBCHEM_IUPAC_TRADITIONAL_NAME>
1-[(1S)-1-[[(2S)-2-[[(2S)-2-[[(2R,6S)-2,6-dimethylcyclohexyl]carbamoylamino]-3,3-dimethyl-butanoyl]amino]-4-keto-5,5-dimethyl-hexanoyl]amino]-2-[[(1R)-1-ethyl-2,2-dimethyl-propyl]amino]-2-keto-ethyl]cyclopentanecarboxylic acid
> <PUBCHEM_IUPAC_INCHI>
InChI=1S/C38H67N5O7/c1-13-25(35(4,5)6)40-32(47)29(38(33(48)49)19-14-15-20-38)42-30(45)24(21-26(44)36(7,8)9)39-31(46)28(37(10,11)12)43-34(50)41-27-22(2)17-16-18-23(27)3/h22-25,27-29H,13-21H2,1-12H3,(H,39,46)(H,40,47)(H,42,45)(H,48,49)(H2,41,43,50)/t22-,23+,24-,25+,27?,28+,29+/m0/s1
> <PUBCHEM_IUPAC_INCHIKEY>
XQZIDAGCVMXJQK-RCKWSNQZSA-N
> <PUBCHEM_XLOGP3_AA>
6.6
> <PUBCHEM_EXACT_MASS>
705.50404949
> <PUBCHEM_MOLECULAR_FORMULA>
C38H67N5O7
> <PUBCHEM_MOLECULAR_WEIGHT>
706.0
> <PUBCHEM_OPENEYE_CAN_SMILES>
CCC(C(C)(C)C)NC(=O)C(C1(CCCC1)C(=O)O)NC(=O)C(CC(=O)C(C)(C)C)NC(=O)C(C(C)(C)C)NC(=O)NC2C(CCCC2C)C
> <PUBCHEM_OPENEYE_ISO_SMILES>
CC[C@H](C(C)(C)C)NC(=O)[C@H](C1(CCCC1)C(=O)O)NC(=O)[C@H](CC(=O)C(C)(C)C)NC(=O)[C@H](C(C)(C)C)NC(=O)NC2[C@@H](CCC[C@@H]2C)C
> <PUBCHEM_CACTVS_TPSA>
183
> <PUBCHEM_MONOISOTOPIC_WEIGHT>
705.50404949
> <PUBCHEM_TOTAL_CHARGE>
0
> <PUBCHEM_HEAVY_ATOM_COUNT>
50
> <PUBCHEM_ATOM_DEF_STEREO_COUNT>
6
> <PUBCHEM_ATOM_UDEF_STEREO_COUNT>
0
> <PUBCHEM_BOND_DEF_STEREO_COUNT>
0
> <PUBCHEM_BOND_UDEF_STEREO_COUNT>
0
> <PUBCHEM_ISOTOPIC_ATOM_COUNT>
0
> <PUBCHEM_COMPONENT_COUNT>
1
> <PUBCHEM_CACTVS_TAUTO_COUNT>
-1
> <PUBCHEM_COORDINATE_TYPE>
1
5
255
> <PUBCHEM_BONDANNOTATIONS>
27  10  6
35  11  6
32  12  5
20  28  5
21  29  5
16  8  6
$$$$
