515278
  -OEChem-10302200282D
101101  0     1  0  0  0  0  0999 V2000
    8.0622    2.4806    0.0000 O   0  0  0  0  0  0  0  0  0  0  0  0
   11.5263    2.4806    0.0000 O   0  0  0  0  0  0  0  0  0  0  0  0
   11.5263   -4.5194    0.0000 O   0  0  0  0  0  0  0  0  0  0  0  0
   11.5263    1.4806    0.0000 O   0  0  0  0  0  0  0  0  0  0  0  0
   12.3923   -2.0194    0.0000 O   0  0  0  0  0  0  0  0  0  0  0  0
    5.4641   -0.0194    0.0000 O   0  0  0  0  0  0  0  0  0  0  0  0
   14.1244   -0.0194    0.0000 O   0  0  0  0  0  0  0  0  0  0  0  0
   13.2583   -1.5194    0.0000 O   0  0  0  0  0  0  0  0  0  0  0  0
   10.6603    3.9806    0.0000 N   0  0  0  0  0  0  0  0  0  0  0  0
    8.9282    0.9806    0.0000 N   0  0  0  0  0  0  0  0  0  0  0  0
   10.6603   -2.0194    0.0000 N   0  0  0  0  0  0  0  0  0  0  0  0
    6.3301    1.4806    0.0000 N   0  0  0  0  0  0  0  0  0  0  0  0
   10.6603   -0.0194    0.0000 N   0  0  0  0  0  0  0  0  0  0  0  0
    4.5981    1.4806    0.0000 N   0  0  0  0  0  0  0  0  0  0  0  0
    7.1962   -0.0194    0.0000 C   0  0  0  0  0  0  0  0  0  0  0  0
    9.7942   -4.5194    0.0000 C   0  0  0  0  0  0  0  0  0  0  0  0
    9.7942   -3.5194    0.0000 C   0  0  0  0  0  0  0  0  0  0  0  0
    7.1962    0.9806    0.0000 C   0  0  1  0  0  0  0  0  0  0  0  0
   10.6603   -3.0194    0.0000 C   0  0  1  0  0  0  0  0  0  0  0  0
   11.4693    4.5684    0.0000 C   0  0  0  0  0  0  0  0  0  0  0  0
    9.8512    4.5684    0.0000 C   0  0  0  0  0  0  0  0  0  0  0  0
   11.1603    5.5194    0.0000 C   0  0  0  0  0  0  0  0  0  0  0  0
   10.1603    5.5194    0.0000 C   0  0  0  0  0  0  0  0  0  0  0  0
    9.7942    1.4806    0.0000 C   0  0  1  0  0  0  0  0  0  0  0  0
    9.7942    2.4806    0.0000 C   0  0  0  0  0  0  0  0  0  0  0  0
    8.0622    1.4806    0.0000 C   0  0  0  0  0  0  0  0  0  0  0  0
    7.1962   -1.0194    0.0000 C   0  0  0  0  0  0  0  0  0  0  0  0
    6.1962   -0.0194    0.0000 C   0  0  0  0  0  0  0  0  0  0  0  0
    8.1962   -0.0194    0.0000 C   0  0  0  0  0  0  0  0  0  0  0  0
   10.6603    2.9806    0.0000 C   0  0  0  0  0  0  0  0  0  0  0  0
    9.7942   -5.5194    0.0000 C   0  0  0  0  0  0  0  0  0  0  0  0
    8.7942   -4.5194    0.0000 C   0  0  0  0  0  0  0  0  0  0  0  0
   10.7942   -4.5194    0.0000 C   0  0  0  0  0  0  0  0  0  0  0  0
   11.5263   -3.5194    0.0000 C   0  0  0  0  0  0  0  0  0  0  0  0
   11.5263   -0.5194    0.0000 C   0  0  2  0  0  0  0  0  0  0  0  0
   10.6603    0.9806    0.0000 C   0  0  0  0  0  0  0  0  0  0  0  0
   11.5263   -1.5194    0.0000 C   0  0  0  0  0  0  0  0  0  0  0  0
    5.4641    0.9806    0.0000 C   0  0  0  0  0  0  0  0  0  0  0  0
   12.3923   -0.0194    0.0000 C   0  0  0  0  0  0  0  0  0  0  0  0
    3.7320    0.9806    0.0000 C   0  0  0  0  0  0  0  0  0  0  0  0
    2.8660    1.4806    0.0000 C   0  0  0  0  0  0  0  0  0  0  0  0
    3.7320   -0.0194    0.0000 C   0  0  0  0  0  0  0  0  0  0  0  0
   13.2583   -0.5194    0.0000 C   0  0  0  0  0  0  0  0  0  0  0  0
    2.0000    0.9806    0.0000 C   0  0  0  0  0  0  0  0  0  0  0  0
    2.8660   -0.5194    0.0000 C   0  0  0  0  0  0  0  0  0  0  0  0
    9.5822   -2.9368    0.0000 H   0  0  0  0  0  0  0  0  0  0  0  0
    9.1836   -3.6271    0.0000 H   0  0  0  0  0  0  0  0  0  0  0  0
    6.6592    0.6706    0.0000 H   0  0  0  0  0  0  0  0  0  0  0  0
   11.1972   -2.7094    0.0000 H   0  0  0  0  0  0  0  0  0  0  0  0
   11.7793    4.0314    0.0000 H   0  0  0  0  0  0  0  0  0  0  0  0
   12.0357    4.8205    0.0000 H   0  0  0  0  0  0  0  0  0  0  0  0
    9.2848    4.8205    0.0000 H   0  0  0  0  0  0  0  0  0  0  0  0
    9.5412    4.0314    0.0000 H   0  0  0  0  0  0  0  0  0  0  0  0
   11.7667    5.6483    0.0000 H   0  0  0  0  0  0  0  0  0  0  0  0
   11.0954    6.1360    0.0000 H   0  0  0  0  0  0  0  0  0  0  0  0
   10.2251    6.1360    0.0000 H   0  0  0  0  0  0  0  0  0  0  0  0
    9.5538    5.6483    0.0000 H   0  0  0  0  0  0  0  0  0  0  0  0
    9.2573    1.7906    0.0000 H   0  0  0  0  0  0  0  0  0  0  0  0
    9.5822    3.0632    0.0000 H   0  0  0  0  0  0  0  0  0  0  0  0
    9.1836    2.3729    0.0000 H   0  0  0  0  0  0  0  0  0  0  0  0
    6.5762   -1.0194    0.0000 H   0  0  0  0  0  0  0  0  0  0  0  0
    7.1962   -1.6394    0.0000 H   0  0  0  0  0  0  0  0  0  0  0  0
    7.8162   -1.0194    0.0000 H   0  0  0  0  0  0  0  0  0  0  0  0
    6.1962    0.6006    0.0000 H   0  0  0  0  0  0  0  0  0  0  0  0
    5.5762   -0.0194    0.0000 H   0  0  0  0  0  0  0  0  0  0  0  0
    6.1962   -0.6394    0.0000 H   0  0  0  0  0  0  0  0  0  0  0  0
    8.1962   -0.6394    0.0000 H   0  0  0  0  0  0  0  0  0  0  0  0
    8.8162   -0.0194    0.0000 H   0  0  0  0  0  0  0  0  0  0  0  0
    8.1962    0.6006    0.0000 H   0  0  0  0  0  0  0  0  0  0  0  0
    9.1742   -5.5194    0.0000 H   0  0  0  0  0  0  0  0  0  0  0  0
    9.7942   -6.1394    0.0000 H   0  0  0  0  0  0  0  0  0  0  0  0
   10.4142   -5.5194    0.0000 H   0  0  0  0  0  0  0  0  0  0  0  0
    8.7942   -3.8994    0.0000 H   0  0  0  0  0  0  0  0  0  0  0  0
    8.1742   -4.5194    0.0000 H   0  0  0  0  0  0  0  0  0  0  0  0
    8.7942   -5.1394    0.0000 H   0  0  0  0  0  0  0  0  0  0  0  0
   10.7942   -5.1394    0.0000 H   0  0  0  0  0  0  0  0  0  0  0  0
   11.4142   -4.5194    0.0000 H   0  0  0  0  0  0  0  0  0  0  0  0
   10.7942   -3.8994    0.0000 H   0  0  0  0  0  0  0  0  0  0  0  0
    8.9282    0.3606    0.0000 H   0  0  0  0  0  0  0  0  0  0  0  0
   10.1233   -1.7094    0.0000 H   0  0  0  0  0  0  0  0  0  0  0  0
    6.3301    2.1006    0.0000 H   0  0  0  0  0  0  0  0  0  0  0  0
   12.1369   -3.6271    0.0000 H   0  0  0  0  0  0  0  0  0  0  0  0
   11.7383   -2.9368    0.0000 H   0  0  0  0  0  0  0  0  0  0  0  0
   10.9893   -0.8294    0.0000 H   0  0  0  0  0  0  0  0  0  0  0  0
   10.1233   -0.3294    0.0000 H   0  0  0  0  0  0  0  0  0  0  0  0
   12.7908    0.4555    0.0000 H   0  0  0  0  0  0  0  0  0  0  0  0
   11.9938    0.4555    0.0000 H   0  0  0  0  0  0  0  0  0  0  0  0
    3.7320    1.6006    0.0000 H   0  0  0  0  0  0  0  0  0  0  0  0
    4.5981    2.1006    0.0000 H   0  0  0  0  0  0  0  0  0  0  0  0
    3.2646    1.9555    0.0000 H   0  0  0  0  0  0  0  0  0  0  0  0
    2.4675    1.9555    0.0000 H   0  0  0  0  0  0  0  0  0  0  0  0
    3.9441   -0.6020    0.0000 H   0  0  0  0  0  0  0  0  0  0  0  0
    4.3426    0.0882    0.0000 H   0  0  0  0  0  0  0  0  0  0  0  0
   12.0632   -4.8294    0.0000 H   0  0  0  0  0  0  0  0  0  0  0  0
    1.6900    1.5175    0.0000 H   0  0  0  0  0  0  0  0  0  0  0  0
    1.4631    0.6706    0.0000 H   0  0  0  0  0  0  0  0  0  0  0  0
    2.3100    0.4436    0.0000 H   0  0  0  0  0  0  0  0  0  0  0  0
    2.5560    0.0175    0.0000 H   0  0  0  0  0  0  0  0  0  0  0  0
    2.3291   -0.8294    0.0000 H   0  0  0  0  0  0  0  0  0  0  0  0
    3.1760   -1.0564    0.0000 H   0  0  0  0  0  0  0  0  0  0  0  0
   14.6613   -0.3294    0.0000 H   0  0  0  0  0  0  0  0  0  0  0  0
  1 26  2  0  0  0  0
  2 30  2  0  0  0  0
  3 34  1  0  0  0  0
  3 94  1  0  0  0  0
  4 36  2  0  0  0  0
  5 37  2  0  0  0  0
  6 38  2  0  0  0  0
  7 43  1  0  0  0  0
  7101  1  0  0  0  0
  8 43  2  0  0  0  0
  9 20  1  0  0  0  0
  9 21  1  0  0  0  0
  9 30  1  0  0  0  0
 24 10  1  1  0  0  0
 10 26  1  0  0  0  0
 10 79  1  0  0  0  0
 19 11  1  6  0  0  0
 11 37  1  0  0  0  0
 11 80  1  0  0  0  0
 18 12  1  6  0  0  0
 12 38  1  0  0  0  0
 12 81  1  0  0  0  0
 35 13  1  1  0  0  0
 13 36  1  0  0  0  0
 13 85  1  0  0  0  0
 14 38  1  0  0  0  0
 14 40  1  0  0  0  0
 14 89  1  0  0  0  0
 15 18  1  0  0  0  0
 15 27  1  0  0  0  0
 15 28  1  0  0  0  0
 15 29  1  0  0  0  0
 16 17  1  0  0  0  0
 16 31  1  0  0  0  0
 16 32  1  0  0  0  0
 16 33  1  0  0  0  0
 17 19  1  0  0  0  0
 17 46  1  0  0  0  0
 17 47  1  0  0  0  0
 18 26  1  0  0  0  0
 18 48  1  0  0  0  0
 19 34  1  0  0  0  0
 19 49  1  0  0  0  0
 20 22  1  0  0  0  0
 20 50  1  0  0  0  0
 20 51  1  0  0  0  0
 21 23  1  0  0  0  0
 21 52  1  0  0  0  0
 21 53  1  0  0  0  0
 22 23  1  0  0  0  0
 22 54  1  0  0  0  0
 22 55  1  0  0  0  0
 23 56  1  0  0  0  0
 23 57  1  0  0  0  0
 24 25  1  0  0  0  0
 24 36  1  0  0  0  0
 24 58  1  0  0  0  0
 25 30  1  0  0  0  0
 25 59  1  0  0  0  0
 25 60  1  0  0  0  0
 27 61  1  0  0  0  0
 27 62  1  0  0  0  0
 27 63  1  0  0  0  0
 28 64  1  0  0  0  0
 28 65  1  0  0  0  0
 28 66  1  0  0  0  0
 29 67  1  0  0  0  0
 29 68  1  0  0  0  0
 29 69  1  0  0  0  0
 31 70  1  0  0  0  0
 31 71  1  0  0  0  0
 31 72  1  0  0  0  0
 32 73  1  0  0  0  0
 32 74  1  0  0  0  0
 32 75  1  0  0  0  0
 33 76  1  0  0  0  0
 33 77  1  0  0  0  0
 33 78  1  0  0  0  0
 34 82  1  0  0  0  0
 34 83  1  0  0  0  0
 35 37  1  0  0  0  0
 35 39  1  0  0  0  0
 35 84  1  0  0  0  0
 39 43  1  0  0  0  0
 39 86  1  0  0  0  0
 39 87  1  0  0  0  0
 40 41  1  0  0  0  0
 40 42  1  0  0  0  0
 40 88  1  0  0  0  0
 41 44  1  0  0  0  0
 41 90  1  0  0  0  0
 41 91  1  0  0  0  0
 42 45  1  0  0  0  0
 42 92  1  0  0  0  0
 42 93  1  0  0  0  0
 44 95  1  0  0  0  0
 44 96  1  0  0  0  0
 44 97  1  0  0  0  0
 45 98  1  0  0  0  0
 45 99  1  0  0  0  0
 45100  1  0  0  0  0
M  END
> <PUBCHEM_COMPOUND_CID>
515278
> <PUBCHEM_COMPOUND_CANONICALIZED>
1
> <PUBCHEM_CACTVS_COMPLEXITY>
1030
> <PUBCHEM_CACTVS_HBOND_ACCEPTOR>
8
> <PUBCHEM_CACTVS_HBOND_DONOR>
7
> <PUBCHEM_CACTVS_ROTATABLE_BOND>
18
> <PUBCHEM_CACTVS_SUBSKEYS>
AAADcfB7vAAAAAAAAAAAAAAAAAAAAWAAAAAAAAAAAAAAAAAAAAAAHgAQCAAADijhgAYDCAPAAgAIAAGQGAAAAAAAAAAAAIGIAACCUBoAwCAUQAAOFgKQAACnAAANAAAAAAAAAAAAAAAAAAAAAAAAAAAAAA==
> <PUBCHEM_IUPAC_OPENEYE_NAME>
(3S)-3-[[(2S)-2-[[(2S)-2-(1-ethylpropylcarbamoylamino)-3,3-dimethyl-butanoyl]amino]-4-oxo-4-pyrrolidin-1-yl-butanoyl]amino]-4-[[(1S)-1-(hydroxymethyl)-3,3-dimethyl-butyl]amino]-4-oxo-butanoic acid
> <PUBCHEM_IUPAC_CAS_NAME>
(3S)-3-[[(2S)-2-[[(2S)-3,3-dimethyl-1-oxo-2-[[oxo-(pentan-3-ylamino)methyl]amino]butyl]amino]-1,4-dioxo-4-(1-pyrrolidinyl)butyl]amino]-4-[[(2S)-1-hydroxy-4,4-dimethylpentan-2-yl]amino]-4-oxobutanoic acid
> <PUBCHEM_IUPAC_NAME_MARKUP>
(3<I>S</I>)-3-[[(2<I>S</I>)-2-[[(2<I>S</I>)-3,3-dimethyl-2-(pentan-3-ylcarbamoylamino)butanoyl]amino]-4-oxo-4-pyrrolidin-1-ylbutanoyl]amino]-4-[[(2<I>S</I>)-1-hydroxy-4,4-dimethylpentan-2-yl]amino]-4-oxobutanoic acid
> <PUBCHEM_IUPAC_NAME>
(3S)-3-[[(2S)-2-[[(2S)-3,3-dimethyl-2-(pentan-3-ylcarbamoylamino)butanoyl]amino]-4-oxo-4-pyrrolidin-1-ylbutanoyl]amino]-4-[[(2S)-1-hydroxy-4,4-dimethylpentan-2-yl]amino]-4-oxobutanoic acid
> <PUBCHEM_IUPAC_SYSTEMATIC_NAME>
(3S)-4-[[(2S)-4,4-dimethyl-1-oxidanyl-pentan-2-yl]amino]-3-[[(2S)-2-[[(2S)-3,3-dimethyl-2-(pentan-3-ylcarbamoylamino)butanoyl]amino]-4-oxidanylidene-4-pyrrolidin-1-yl-butanoyl]amino]-4-oxidanylidene-butanoic acid
> <PUBCHEM_IUPAC_TRADITIONAL_NAME>
(3S)-4-[[(1S)-3,3-dimethyl-1-methylol-butyl]amino]-3-[[(2S)-2-[[(2S)-2-(1-ethylpropylcarbamoylamino)-3,3-dimethyl-butanoyl]amino]-4-keto-4-pyrrolidino-butanoyl]amino]-4-keto-butyric acid
> <PUBCHEM_IUPAC_INCHI>
InChI=1S/C31H56N6O8/c1-9-19(10-2)33-29(45)36-25(31(6,7)8)28(44)35-21(15-23(39)37-13-11-12-14-37)27(43)34-22(16-24(40)41)26(42)32-20(18-38)17-30(3,4)5/h19-22,25,38H,9-18H2,1-8H3,(H,32,42)(H,34,43)(H,35,44)(H,40,41)(H2,33,36,45)/t20-,21-,22-,25+/m0/s1
> <PUBCHEM_IUPAC_INCHIKEY>
ZJTODRDPAGWPEJ-DEJKCJRPSA-N
> <PUBCHEM_XLOGP3_AA>
2
> <PUBCHEM_EXACT_MASS>
640.41596277
> <PUBCHEM_MOLECULAR_FORMULA>
C31H56N6O8
> <PUBCHEM_MOLECULAR_WEIGHT>
640.8
> <PUBCHEM_OPENEYE_CAN_SMILES>
CCC(CC)NC(=O)NC(C(=O)NC(CC(=O)N1CCCC1)C(=O)NC(CC(=O)O)C(=O)NC(CC(C)(C)C)CO)C(C)(C)C
> <PUBCHEM_OPENEYE_ISO_SMILES>
CCC(CC)NC(=O)N[C@H](C(=O)N[C@@H](CC(=O)N1CCCC1)C(=O)N[C@@H](CC(=O)O)C(=O)N[C@@H](CC(C)(C)C)CO)C(C)(C)C
> <PUBCHEM_CACTVS_TPSA>
206
> <PUBCHEM_MONOISOTOPIC_WEIGHT>
640.41596277
> <PUBCHEM_TOTAL_CHARGE>
0
> <PUBCHEM_HEAVY_ATOM_COUNT>
45
> <PUBCHEM_ATOM_DEF_STEREO_COUNT>
4
> <PUBCHEM_ATOM_UDEF_STEREO_COUNT>
0
> <PUBCHEM_BOND_DEF_STEREO_COUNT>
0
> <PUBCHEM_BOND_UDEF_STEREO_COUNT>
0
> <PUBCHEM_ISOTOPIC_ATOM_COUNT>
0
> <PUBCHEM_COMPONENT_COUNT>
1
> <PUBCHEM_CACTVS_TAUTO_COUNT>
-1
> <PUBCHEM_COORDINATE_TYPE>
1
5
255
> <PUBCHEM_BONDANNOTATIONS>
24  10  5
19  11  6
18  12  6
35  13  5
$$$$
