515211
  -OEChem-10302200282D
 38 40  0     1  0  0  0  0  0999 V2000
    3.4782    2.8090    0.0000 S   0  0  0  0  0  0  0  0  0  0  0  0
    6.1237   -1.7733    0.0000 O   0  0  0  0  0  0  0  0  0  0  0  0
    4.2269   -3.5334    0.0000 O   0  0  0  0  0  0  0  0  0  0  0  0
    7.3970   -3.4289    0.0000 O   0  0  0  0  0  0  0  0  0  0  0  0
    7.0468   -0.1855    0.0000 O   0  0  0  0  0  0  0  0  0  0  0  0
    5.3147    2.8145    0.0000 O   0  0  0  0  0  0  0  0  0  0  0  0
    5.3147   -0.1855    0.0000 N   0  0  0  0  0  0  0  0  0  0  0  0
    6.1808    1.3145    0.0000 N   0  0  0  0  0  0  0  0  0  0  0  0
    4.8147   -2.7244    0.0000 C   0  0  1  0  0  0  0  0  0  0  0  0
    5.3147   -1.1855    0.0000 C   0  0  1  0  0  0  0  0  0  0  0  0
    4.5057   -1.7733    0.0000 C   0  0  0  0  0  0  0  0  0  0  0  0
    5.8147   -2.7244    0.0000 C   0  0  1  0  0  0  0  0  0  0  0  0
    6.4025   -3.5334    0.0000 C   0  0  0  0  0  0  0  0  0  0  0  0
    4.4487    0.3145    0.0000 C   0  0  0  0  0  0  0  0  0  0  0  0
    6.1808    0.3145    0.0000 C   0  0  0  0  0  0  0  0  0  0  0  0
    4.4487    1.3145    0.0000 C   0  0  0  0  0  0  0  0  0  0  0  0
    5.3147    1.8145    0.0000 C   0  0  0  0  0  0  0  0  0  0  0  0
    3.5827    1.8145    0.0000 C   0  0  0  0  0  0  0  0  0  0  0  0
    2.6691    1.4077    0.0000 C   0  0  0  0  0  0  0  0  0  0  0  0
    2.5000    3.0169    0.0000 C   0  0  0  0  0  0  0  0  0  0  0  0
    2.0000    2.1509    0.0000 C   0  0  0  0  0  0  0  0  0  0  0  0
    2.0933    3.9304    0.0000 C   0  0  0  0  0  0  0  0  0  0  0  0
    5.8672   -0.9041    0.0000 H   0  0  0  0  0  0  0  0  0  0  0  0
    5.0962   -3.2768    0.0000 H   0  0  0  0  0  0  0  0  0  0  0  0
    4.1957   -1.2364    0.0000 H   0  0  0  0  0  0  0  0  0  0  0  0
    3.9393   -2.0255    0.0000 H   0  0  0  0  0  0  0  0  0  0  0  0
    6.4271   -2.6274    0.0000 H   0  0  0  0  0  0  0  0  0  0  0  0
    5.8453   -3.8052    0.0000 H   0  0  0  0  0  0  0  0  0  0  0  0
    6.5734   -4.1294    0.0000 H   0  0  0  0  0  0  0  0  0  0  0  0
    3.9118    0.0045    0.0000 H   0  0  0  0  0  0  0  0  0  0  0  0
    3.6103   -3.4686    0.0000 H   0  0  0  0  0  0  0  0  0  0  0  0
    6.7177    1.6245    0.0000 H   0  0  0  0  0  0  0  0  0  0  0  0
    7.7615   -3.9304    0.0000 H   0  0  0  0  0  0  0  0  0  0  0  0
    2.5402    0.8013    0.0000 H   0  0  0  0  0  0  0  0  0  0  0  0
    1.3834    2.0861    0.0000 H   0  0  0  0  0  0  0  0  0  0  0  0
    2.6597    4.1826    0.0000 H   0  0  0  0  0  0  0  0  0  0  0  0
    1.8411    4.4968    0.0000 H   0  0  0  0  0  0  0  0  0  0  0  0
    1.5269    3.6783    0.0000 H   0  0  0  0  0  0  0  0  0  0  0  0
  1 18  1  0  0  0  0
  1 20  1  0  0  0  0
  2 10  1  0  0  0  0
  2 12  1  0  0  0  0
  9  3  1  1  0  0  0
  3 31  1  0  0  0  0
  4 13  1  0  0  0  0
  4 33  1  0  0  0  0
  5 15  2  0  0  0  0
  6 17  2  0  0  0  0
 10  7  1  6  0  0  0
  7 14  1  0  0  0  0
  7 15  1  0  0  0  0
  8 15  1  0  0  0  0
  8 17  1  0  0  0  0
  8 32  1  0  0  0  0
  9 11  1  0  0  0  0
  9 12  1  0  0  0  0
  9 24  1  0  0  0  0
 10 11  1  0  0  0  0
 10 23  1  0  0  0  0
 11 25  1  0  0  0  0
 11 26  1  0  0  0  0
 12 13  1  6  0  0  0
 12 27  1  0  0  0  0
 13 28  1  0  0  0  0
 13 29  1  0  0  0  0
 14 16  2  0  0  0  0
 14 30  1  0  0  0  0
 16 17  1  0  0  0  0
 16 18  1  0  0  0  0
 18 19  2  0  0  0  0
 19 21  1  0  0  0  0
 19 34  1  0  0  0  0
 20 21  2  0  0  0  0
 20 22  1  0  0  0  0
 21 35  1  0  0  0  0
 22 36  1  0  0  0  0
 22 37  1  0  0  0  0
 22 38  1  0  0  0  0
M  END
> <PUBCHEM_COMPOUND_CID>
515211
> <PUBCHEM_COMPOUND_CANONICALIZED>
1
> <PUBCHEM_CACTVS_COMPLEXITY>
512
> <PUBCHEM_CACTVS_HBOND_ACCEPTOR>
6
> <PUBCHEM_CACTVS_HBOND_DONOR>
3
> <PUBCHEM_CACTVS_ROTATABLE_BOND>
3
> <PUBCHEM_CACTVS_SUBSKEYS>
AAADceBzOABAAAAAAAAAAAAAAAAAASJAAAAgAAAAAAAAAAABgAAAHgQQCAAADBTh0AYzAYPABgiMAiFWUACDAIAgCBBIiBkIAMiJMDKglRGOQAAvhyIriMe4uAKAAAAAAAAAAAAAAAAAAAAAAAAAAAAAAA==
> <PUBCHEM_IUPAC_OPENEYE_NAME>
1-[(2R,4S,5R)-4-hydroxy-5-(hydroxymethyl)tetrahydrofuran-2-yl]-5-(5-methyl-2-thienyl)pyrimidine-2,4-dione
> <PUBCHEM_IUPAC_CAS_NAME>
1-[(2R,4S,5R)-4-hydroxy-5-(hydroxymethyl)-2-oxolanyl]-5-(5-methyl-2-thiophenyl)pyrimidine-2,4-dione
> <PUBCHEM_IUPAC_NAME_MARKUP>
1-[(2<I>R</I>,4<I>S</I>,5<I>R</I>)-4-hydroxy-5-(hydroxymethyl)oxolan-2-yl]-5-(5-methylthiophen-2-yl)pyrimidine-2,4-dione
> <PUBCHEM_IUPAC_NAME>
1-[(2R,4S,5R)-4-hydroxy-5-(hydroxymethyl)oxolan-2-yl]-5-(5-methylthiophen-2-yl)pyrimidine-2,4-dione
> <PUBCHEM_IUPAC_SYSTEMATIC_NAME>
1-[(2R,4S,5R)-5-(hydroxymethyl)-4-oxidanyl-oxolan-2-yl]-5-(5-methylthiophen-2-yl)pyrimidine-2,4-dione
> <PUBCHEM_IUPAC_TRADITIONAL_NAME>
1-[(2R,4S,5R)-4-hydroxy-5-methylol-tetrahydrofuran-2-yl]-5-(5-methyl-2-thienyl)pyrimidine-2,4-quinone
> <PUBCHEM_IUPAC_INCHI>
InChI=1S/C14H16N2O5S/c1-7-2-3-11(22-7)8-5-16(14(20)15-13(8)19)12-4-9(18)10(6-17)21-12/h2-3,5,9-10,12,17-18H,4,6H2,1H3,(H,15,19,20)/t9-,10+,12+/m0/s1
> <PUBCHEM_IUPAC_INCHIKEY>
VKQMRHFTBNLVND-HOSYDEDBSA-N
> <PUBCHEM_XLOGP3>
0.2
> <PUBCHEM_EXACT_MASS>
324.07799279
> <PUBCHEM_MOLECULAR_FORMULA>
C14H16N2O5S
> <PUBCHEM_MOLECULAR_WEIGHT>
324.35
> <PUBCHEM_OPENEYE_CAN_SMILES>
CC1=CC=C(S1)C2=CN(C(=O)NC2=O)C3CC(C(O3)CO)O
> <PUBCHEM_OPENEYE_ISO_SMILES>
CC1=CC=C(S1)C2=CN(C(=O)NC2=O)[C@H]3C[C@@H]([C@H](O3)CO)O
> <PUBCHEM_CACTVS_TPSA>
127
> <PUBCHEM_MONOISOTOPIC_WEIGHT>
324.07799279
> <PUBCHEM_TOTAL_CHARGE>
0
> <PUBCHEM_HEAVY_ATOM_COUNT>
22
> <PUBCHEM_ATOM_DEF_STEREO_COUNT>
3
> <PUBCHEM_ATOM_UDEF_STEREO_COUNT>
0
> <PUBCHEM_BOND_DEF_STEREO_COUNT>
0
> <PUBCHEM_BOND_UDEF_STEREO_COUNT>
0
> <PUBCHEM_ISOTOPIC_ATOM_COUNT>
0
> <PUBCHEM_COMPONENT_COUNT>
1
> <PUBCHEM_CACTVS_TAUTO_COUNT>
-1
> <PUBCHEM_COORDINATE_TYPE>
1
5
255
> <PUBCHEM_BONDANNOTATIONS>
1  18  8
1  20  8
12  13  6
14  16  8
16  17  8
18  19  8
19  21  8
20  21  8
9  3  5
10  7  6
7  14  8
7  15  8
8  15  8
8  17  8
$$$$
