515293
  -OEChem-10302200282D
118119  0     1  0  0  0  0  0999 V2000
   10.2654    4.3390    0.0000 O   0  0  0  0  0  0  0  0  0  0  0  0
   11.1832    2.8701    0.0000 O   0  0  0  0  0  0  0  0  0  0  0  0
   10.6603    0.3700    0.0000 O   0  0  0  0  0  0  0  0  0  0  0  0
    9.7942   -0.1300    0.0000 O   0  0  0  0  0  0  0  0  0  0  0  0
    5.4641   -1.6300    0.0000 O   0  0  0  0  0  0  0  0  0  0  0  0
    6.3301   -1.1300    0.0000 O   0  0  0  0  0  0  0  0  0  0  0  0
    9.7942   -1.1300    0.0000 O   0  0  0  0  0  0  0  0  0  0  0  0
    8.9282    1.3700    0.0000 N   0  0  0  0  0  0  0  0  0  0  0  0
    3.7320   -1.6300    0.0000 N   0  0  0  0  0  0  0  0  0  0  0  0
   11.6603    1.3700    0.0000 N   0  0  0  0  0  0  0  0  0  0  0  0
    4.5981   -0.1300    0.0000 N   0  0  0  0  0  0  0  0  0  0  0  0
    9.4522    2.8097    0.0000 C   0  0  0  0  0  0  0  0  0  0  0  0
    8.5125    2.4676    0.0000 C   0  0  0  0  0  0  0  0  0  0  0  0
    9.4173    3.8090    0.0000 C   0  0  0  0  0  0  0  0  0  0  0  0
    9.7942    1.8700    0.0000 C   0  0  1  0  0  0  0  0  0  0  0  0
    7.8968    3.2556    0.0000 C   0  0  0  0  0  0  0  0  0  0  0  0
    8.4560    4.0847    0.0000 C   0  0  0  0  0  0  0  0  0  0  0  0
    3.7320   -2.6300    0.0000 C   0  0  0  0  0  0  0  0  0  0  0  0
    2.8660   -3.1300    0.0000 C   0  0  1  0  0  0  0  0  0  0  0  0
    4.5981   -3.1300    0.0000 C   0  0  2  0  0  0  0  0  0  0  0  0
   10.3003    3.3396    0.0000 C   0  0  0  0  0  0  0  0  0  0  0  0
    2.8660   -4.1300    0.0000 C   0  0  0  0  0  0  0  0  0  0  0  0
    4.5981   -4.1300    0.0000 C   0  0  0  0  0  0  0  0  0  0  0  0
    3.7320   -4.6300    0.0000 C   0  0  0  0  0  0  0  0  0  0  0  0
   10.6603    1.3700    0.0000 C   0  0  0  0  0  0  0  0  0  0  0  0
   12.1603    0.5039    0.0000 C   0  0  1  0  0  0  0  0  0  0  0  0
    2.0000   -2.6300    0.0000 C   0  0  0  0  0  0  0  0  0  0  0  0
    5.4641   -2.6300    0.0000 C   0  0  0  0  0  0  0  0  0  0  0  0
   13.1603    0.5039    0.0000 C   0  0  0  0  0  0  0  0  0  0  0  0
    8.9282    0.3700    0.0000 C   0  0  0  0  0  0  0  0  0  0  0  0
    8.0622   -0.1300    0.0000 C   0  0  2  0  0  0  0  0  0  0  0  0
    5.4641    0.3700    0.0000 C   0  0  1  0  0  0  0  0  0  0  0  0
    7.1962    0.3700    0.0000 C   0  0  0  0  0  0  0  0  0  0  0  0
    5.4641    1.3700    0.0000 C   0  0  0  0  0  0  0  0  0  0  0  0
   11.6603   -0.3621    0.0000 C   0  0  0  0  0  0  0  0  0  0  0  0
    4.5981   -1.1300    0.0000 C   0  0  0  0  0  0  0  0  0  0  0  0
    8.0622   -1.1300    0.0000 C   0  0  0  0  0  0  0  0  0  0  0  0
    6.3301   -0.1300    0.0000 C   0  0  0  0  0  0  0  0  0  0  0  0
   14.1603    0.5039    0.0000 C   0  0  0  0  0  0  0  0  0  0  0  0
   13.1603   -0.4961    0.0000 C   0  0  0  0  0  0  0  0  0  0  0  0
   13.1603    1.5039    0.0000 C   0  0  0  0  0  0  0  0  0  0  0  0
    8.9282   -1.6300    0.0000 C   0  0  0  0  0  0  0  0  0  0  0  0
    5.4641    2.3700    0.0000 C   0  0  0  0  0  0  0  0  0  0  0  0
    6.4641    1.3700    0.0000 C   0  0  0  0  0  0  0  0  0  0  0  0
    4.4641    1.3700    0.0000 C   0  0  0  0  0  0  0  0  0  0  0  0
   12.1603   -1.2281    0.0000 C   0  0  0  0  0  0  0  0  0  0  0  0
    8.9282   -2.6300    0.0000 C   0  0  0  0  0  0  0  0  0  0  0  0
    8.9282   -3.6300    0.0000 C   0  0  0  0  0  0  0  0  0  0  0  0
    7.9282   -2.6300    0.0000 C   0  0  0  0  0  0  0  0  0  0  0  0
    9.9282   -2.6300    0.0000 C   0  0  0  0  0  0  0  0  0  0  0  0
    7.9867    2.1391    0.0000 H   0  0  0  0  0  0  0  0  0  0  0  0
    8.7843    1.9104    0.0000 H   0  0  0  0  0  0  0  0  0  0  0  0
   10.0358    3.7658    0.0000 H   0  0  0  0  0  0  0  0  0  0  0  0
    9.5250    4.4196    0.0000 H   0  0  0  0  0  0  0  0  0  0  0  0
    9.7942    1.2500    0.0000 H   0  0  0  0  0  0  0  0  0  0  0  0
    7.4219    3.6542    0.0000 H   0  0  0  0  0  0  0  0  0  0  0  0
    7.4509    2.8250    0.0000 H   0  0  0  0  0  0  0  0  0  0  0  0
    8.6883    4.6595    0.0000 H   0  0  0  0  0  0  0  0  0  0  0  0
    7.9086    4.3758    0.0000 H   0  0  0  0  0  0  0  0  0  0  0  0
    4.2690   -2.3200    0.0000 H   0  0  0  0  0  0  0  0  0  0  0  0
    2.8660   -2.5100    0.0000 H   0  0  0  0  0  0  0  0  0  0  0  0
    5.1350   -3.4400    0.0000 H   0  0  0  0  0  0  0  0  0  0  0  0
    2.2554   -4.0224    0.0000 H   0  0  0  0  0  0  0  0  0  0  0  0
    2.6540   -4.7126    0.0000 H   0  0  0  0  0  0  0  0  0  0  0  0
    4.8101   -4.7126    0.0000 H   0  0  0  0  0  0  0  0  0  0  0  0
    5.2087   -4.0224    0.0000 H   0  0  0  0  0  0  0  0  0  0  0  0
    3.3335   -5.1050    0.0000 H   0  0  0  0  0  0  0  0  0  0  0  0
    4.1306   -5.1050    0.0000 H   0  0  0  0  0  0  0  0  0  0  0  0
    8.3913    1.6800    0.0000 H   0  0  0  0  0  0  0  0  0  0  0  0
   11.5403    0.5039    0.0000 H   0  0  0  0  0  0  0  0  0  0  0  0
    2.3100   -2.0931    0.0000 H   0  0  0  0  0  0  0  0  0  0  0  0
    1.4631   -2.3200    0.0000 H   0  0  0  0  0  0  0  0  0  0  0  0
    1.6900   -3.1670    0.0000 H   0  0  0  0  0  0  0  0  0  0  0  0
    5.7741   -3.1670    0.0000 H   0  0  0  0  0  0  0  0  0  0  0  0
    6.0010   -2.3200    0.0000 H   0  0  0  0  0  0  0  0  0  0  0  0
    5.1541   -2.0931    0.0000 H   0  0  0  0  0  0  0  0  0  0  0  0
    3.1951   -1.3200    0.0000 H   0  0  0  0  0  0  0  0  0  0  0  0
   11.9703    1.9069    0.0000 H   0  0  0  0  0  0  0  0  0  0  0  0
    8.5991    0.1800    0.0000 H   0  0  0  0  0  0  0  0  0  0  0  0
    5.4641   -0.2500    0.0000 H   0  0  0  0  0  0  0  0  0  0  0  0
    7.5947    0.8449    0.0000 H   0  0  0  0  0  0  0  0  0  0  0  0
    6.7976    0.8449    0.0000 H   0  0  0  0  0  0  0  0  0  0  0  0
   11.1853    0.0364    0.0000 H   0  0  0  0  0  0  0  0  0  0  0  0
   11.1853   -0.7606    0.0000 H   0  0  0  0  0  0  0  0  0  0  0  0
    9.7179    4.6300    0.0000 H   0  0  0  0  0  0  0  0  0  0  0  0
    7.4516   -1.0224    0.0000 H   0  0  0  0  0  0  0  0  0  0  0  0
    7.8501   -1.7126    0.0000 H   0  0  0  0  0  0  0  0  0  0  0  0
    4.0611    0.1800    0.0000 H   0  0  0  0  0  0  0  0  0  0  0  0
   14.1603   -0.1161    0.0000 H   0  0  0  0  0  0  0  0  0  0  0  0
   14.7803    0.5039    0.0000 H   0  0  0  0  0  0  0  0  0  0  0  0
   14.1603    1.1239    0.0000 H   0  0  0  0  0  0  0  0  0  0  0  0
   12.5403   -0.4961    0.0000 H   0  0  0  0  0  0  0  0  0  0  0  0
   13.1603   -1.1161    0.0000 H   0  0  0  0  0  0  0  0  0  0  0  0
   13.7803   -0.4961    0.0000 H   0  0  0  0  0  0  0  0  0  0  0  0
   13.7803    1.5039    0.0000 H   0  0  0  0  0  0  0  0  0  0  0  0
   13.1603    2.1239    0.0000 H   0  0  0  0  0  0  0  0  0  0  0  0
   12.5403    1.5039    0.0000 H   0  0  0  0  0  0  0  0  0  0  0  0
    6.0841    2.3700    0.0000 H   0  0  0  0  0  0  0  0  0  0  0  0
    5.4641    2.9900    0.0000 H   0  0  0  0  0  0  0  0  0  0  0  0
    4.8441    2.3700    0.0000 H   0  0  0  0  0  0  0  0  0  0  0  0
    6.4641    0.7500    0.0000 H   0  0  0  0  0  0  0  0  0  0  0  0
    7.0841    1.3700    0.0000 H   0  0  0  0  0  0  0  0  0  0  0  0
    6.4641    1.9900    0.0000 H   0  0  0  0  0  0  0  0  0  0  0  0
    4.4641    1.9900    0.0000 H   0  0  0  0  0  0  0  0  0  0  0  0
    3.8441    1.3700    0.0000 H   0  0  0  0  0  0  0  0  0  0  0  0
    4.4641    0.7500    0.0000 H   0  0  0  0  0  0  0  0  0  0  0  0
   11.6233   -1.5381    0.0000 H   0  0  0  0  0  0  0  0  0  0  0  0
   12.4703   -1.7650    0.0000 H   0  0  0  0  0  0  0  0  0  0  0  0
   12.6972   -0.9181    0.0000 H   0  0  0  0  0  0  0  0  0  0  0  0
    8.3082   -3.6300    0.0000 H   0  0  0  0  0  0  0  0  0  0  0  0
    8.9282   -4.2500    0.0000 H   0  0  0  0  0  0  0  0  0  0  0  0
    9.5482   -3.6300    0.0000 H   0  0  0  0  0  0  0  0  0  0  0  0
    7.9282   -2.0100    0.0000 H   0  0  0  0  0  0  0  0  0  0  0  0
    7.3082   -2.6300    0.0000 H   0  0  0  0  0  0  0  0  0  0  0  0
    7.9282   -3.2500    0.0000 H   0  0  0  0  0  0  0  0  0  0  0  0
    9.9282   -3.2500    0.0000 H   0  0  0  0  0  0  0  0  0  0  0  0
   10.5482   -2.6300    0.0000 H   0  0  0  0  0  0  0  0  0  0  0  0
    9.9282   -2.0100    0.0000 H   0  0  0  0  0  0  0  0  0  0  0  0
  1 21  1  0  0  0  0
  1 85  1  0  0  0  0
  2 21  2  0  0  0  0
  3 25  2  0  0  0  0
  4 30  2  0  0  0  0
  5 36  2  0  0  0  0
  6 38  2  0  0  0  0
  7 42  2  0  0  0  0
 15  8  1  1  0  0  0
  8 30  1  0  0  0  0
  8 69  1  0  0  0  0
  9 18  1  0  0  0  0
  9 36  1  0  0  0  0
  9 77  1  0  0  0  0
 10 25  1  0  0  0  0
 26 10  1  1  0  0  0
 10 78  1  0  0  0  0
 32 11  1  1  0  0  0
 11 36  1  0  0  0  0
 11 88  1  0  0  0  0
 12 13  1  0  0  0  0
 12 14  1  0  0  0  0
 12 15  1  0  0  0  0
 12 21  1  0  0  0  0
 13 16  1  0  0  0  0
 13 51  1  0  0  0  0
 13 52  1  0  0  0  0
 14 17  1  0  0  0  0
 14 53  1  0  0  0  0
 14 54  1  0  0  0  0
 15 25  1  0  0  0  0
 15 55  1  0  0  0  0
 16 17  1  0  0  0  0
 16 56  1  0  0  0  0
 16 57  1  0  0  0  0
 17 58  1  0  0  0  0
 17 59  1  0  0  0  0
 18 19  1  0  0  0  0
 18 20  1  0  0  0  0
 18 60  1  0  0  0  0
 19 22  1  0  0  0  0
 19 27  1  1  0  0  0
 19 61  1  0  0  0  0
 20 23  1  0  0  0  0
 20 28  1  1  0  0  0
 20 62  1  0  0  0  0
 22 24  1  0  0  0  0
 22 63  1  0  0  0  0
 22 64  1  0  0  0  0
 23 24  1  0  0  0  0
 23 65  1  0  0  0  0
 23 66  1  0  0  0  0
 24 67  1  0  0  0  0
 24 68  1  0  0  0  0
 26 29  1  0  0  0  0
 26 35  1  0  0  0  0
 26 70  1  0  0  0  0
 27 71  1  0  0  0  0
 27 72  1  0  0  0  0
 27 73  1  0  0  0  0
 28 74  1  0  0  0  0
 28 75  1  0  0  0  0
 28 76  1  0  0  0  0
 29 39  1  0  0  0  0
 29 40  1  0  0  0  0
 29 41  1  0  0  0  0
 30 31  1  0  0  0  0
 31 33  1  0  0  0  0
 31 37  1  1  0  0  0
 31 79  1  0  0  0  0
 32 34  1  0  0  0  0
 32 38  1  0  0  0  0
 32 80  1  0  0  0  0
 33 38  1  0  0  0  0
 33 81  1  0  0  0  0
 33 82  1  0  0  0  0
 34 43  1  0  0  0  0
 34 44  1  0  0  0  0
 34 45  1  0  0  0  0
 35 46  1  0  0  0  0
 35 83  1  0  0  0  0
 35 84  1  0  0  0  0
 37 42  1  0  0  0  0
 37 86  1  0  0  0  0
 37 87  1  0  0  0  0
 39 89  1  0  0  0  0
 39 90  1  0  0  0  0
 39 91  1  0  0  0  0
 40 92  1  0  0  0  0
 40 93  1  0  0  0  0
 40 94  1  0  0  0  0
 41 95  1  0  0  0  0
 41 96  1  0  0  0  0
 41 97  1  0  0  0  0
 42 47  1  0  0  0  0
 43 98  1  0  0  0  0
 43 99  1  0  0  0  0
 43100  1  0  0  0  0
 44101  1  0  0  0  0
 44102  1  0  0  0  0
 44103  1  0  0  0  0
 45104  1  0  0  0  0
 45105  1  0  0  0  0
 45106  1  0  0  0  0
 46107  1  0  0  0  0
 46108  1  0  0  0  0
 46109  1  0  0  0  0
 47 48  1  0  0  0  0
 47 49  1  0  0  0  0
 47 50  1  0  0  0  0
 48110  1  0  0  0  0
 48111  1  0  0  0  0
 48112  1  0  0  0  0
 49113  1  0  0  0  0
 49114  1  0  0  0  0
 49115  1  0  0  0  0
 50116  1  0  0  0  0
 50117  1  0  0  0  0
 50118  1  0  0  0  0
M  END
> <PUBCHEM_COMPOUND_CID>
515293
> <PUBCHEM_COMPOUND_CANONICALIZED>
1
> <PUBCHEM_CACTVS_COMPLEXITY>
1230
> <PUBCHEM_CACTVS_HBOND_ACCEPTOR>
7
> <PUBCHEM_CACTVS_HBOND_DONOR>
5
> <PUBCHEM_CACTVS_ROTATABLE_BOND>
17
> <PUBCHEM_CACTVS_SUBSKEYS>
AAADcfB/uAAAAAAAAAAAAAAAAAAAAYAAAAAwAAAAAAAAAAAAAAAAHgAQCAAADyzBgAQDCALAAgAIAIGQGAAAAAAAAAAAAIGIAACAQBoAgCAUQAAOFgKAAAG/y8C/AAAAAAAAAAAAAAQAAAQAAAAAAAAAAA==
> <PUBCHEM_IUPAC_OPENEYE_NAME>
1-[(1S)-1-[[(2S,5S)-5-[[(2R,6S)-2,6-dimethylcyclohexyl]carbamoylamino]-2-(3,3-dimethyl-2-oxo-butyl)-6,6-dimethyl-4-oxo-heptanoyl]amino]-2-[[(1R)-1-ethyl-2,2-dimethyl-propyl]amino]-2-oxo-ethyl]cyclopentanecarboxylic acid
> <PUBCHEM_IUPAC_CAS_NAME>
1-[(1S)-1-[[(2S,5S)-5-[[[[(2R,6S)-2,6-dimethylcyclohexyl]amino]-oxomethyl]amino]-2-(3,3-dimethyl-2-oxobutyl)-6,6-dimethyl-1,4-dioxoheptyl]amino]-2-[[(3R)-2,2-dimethylpentan-3-yl]amino]-2-oxoethyl]-1-cyclopentanecarboxylic acid
> <PUBCHEM_IUPAC_NAME_MARKUP>
1-[(1<I>S</I>)-1-[[(2<I>S</I>,5<I>S</I>)-5-[[(2<I>R</I>,6<I>S</I>)-2,6-dimethylcyclohexyl]carbamoylamino]-2-(3,3-dimethyl-2-oxobutyl)-6,6-dimethyl-4-oxoheptanoyl]amino]-2-[[(3<I>R</I>)-2,2-dimethylpentan-3-yl]amino]-2-oxoethyl]cyclopentane-1-carboxylic acid
> <PUBCHEM_IUPAC_NAME>
1-[(1S)-1-[[(2S,5S)-5-[[(2R,6S)-2,6-dimethylcyclohexyl]carbamoylamino]-2-(3,3-dimethyl-2-oxobutyl)-6,6-dimethyl-4-oxoheptanoyl]amino]-2-[[(3R)-2,2-dimethylpentan-3-yl]amino]-2-oxoethyl]cyclopentane-1-carboxylic acid
> <PUBCHEM_IUPAC_SYSTEMATIC_NAME>
1-[(1S)-1-[[(2S,5S)-5-[[(2R,6S)-2,6-dimethylcyclohexyl]carbamoylamino]-2-(3,3-dimethyl-2-oxidanylidene-butyl)-6,6-dimethyl-4-oxidanylidene-heptanoyl]amino]-2-[[(3R)-2,2-dimethylpentan-3-yl]amino]-2-oxidanylidene-ethyl]cyclopentane-1-carboxylic acid
> <PUBCHEM_IUPAC_TRADITIONAL_NAME>
1-[(1S)-1-[[(2S,5S)-5-[[(2R,6S)-2,6-dimethylcyclohexyl]carbamoylamino]-4-keto-2-(2-keto-3,3-dimethyl-butyl)-6,6-dimethyl-heptanoyl]amino]-2-[[(1R)-1-ethyl-2,2-dimethyl-propyl]amino]-2-keto-ethyl]cyclopentanecarboxylic acid
> <PUBCHEM_IUPAC_INCHI>
InChI=1S/C39H68N4O7/c1-13-27(36(4,5)6)40-33(47)31(39(34(48)49)19-14-15-20-39)42-32(46)25(22-28(45)37(7,8)9)21-26(44)30(38(10,11)12)43-35(50)41-29-23(2)17-16-18-24(29)3/h23-25,27,29-31H,13-22H2,1-12H3,(H,40,47)(H,42,46)(H,48,49)(H2,41,43,50)/t23-,24+,25-,27-,29?,30-,31-/m1/s1
> <PUBCHEM_IUPAC_INCHIKEY>
BICMJCLCIQRONK-CIPPQJCMSA-N
> <PUBCHEM_XLOGP3_AA>
6.8
> <PUBCHEM_EXACT_MASS>
704.50880052
> <PUBCHEM_MOLECULAR_FORMULA>
C39H68N4O7
> <PUBCHEM_MOLECULAR_WEIGHT>
705.0
> <PUBCHEM_OPENEYE_CAN_SMILES>
CCC(C(C)(C)C)NC(=O)C(C1(CCCC1)C(=O)O)NC(=O)C(CC(=O)C(C(C)(C)C)NC(=O)NC2C(CCCC2C)C)CC(=O)C(C)(C)C
> <PUBCHEM_OPENEYE_ISO_SMILES>
CC[C@H](C(C)(C)C)NC(=O)[C@H](C1(CCCC1)C(=O)O)NC(=O)[C@H](CC(=O)[C@H](C(C)(C)C)NC(=O)NC2[C@@H](CCC[C@@H]2C)C)CC(=O)C(C)(C)C
> <PUBCHEM_CACTVS_TPSA>
171
> <PUBCHEM_MONOISOTOPIC_WEIGHT>
704.50880052
> <PUBCHEM_TOTAL_CHARGE>
0
> <PUBCHEM_HEAVY_ATOM_COUNT>
50
> <PUBCHEM_ATOM_DEF_STEREO_COUNT>
6
> <PUBCHEM_ATOM_UDEF_STEREO_COUNT>
0
> <PUBCHEM_BOND_DEF_STEREO_COUNT>
0
> <PUBCHEM_BOND_UDEF_STEREO_COUNT>
0
> <PUBCHEM_ISOTOPIC_ATOM_COUNT>
0
> <PUBCHEM_COMPONENT_COUNT>
1
> <PUBCHEM_CACTVS_TAUTO_COUNT>
-1
> <PUBCHEM_COORDINATE_TYPE>
1
5
255
> <PUBCHEM_BONDANNOTATIONS>
26  10  5
32  11  5
19  27  5
20  28  5
31  37  5
15  8  5
$$$$
