515363
  -OEChem-10302200282D
 98 98  0     1  0  0  0  0  0999 V2000
   10.6603   -0.2694    0.0000 O   0  0  0  0  0  0  0  0  0  0  0  0
   11.5263    2.2306    0.0000 O   0  0  0  0  0  0  0  0  0  0  0  0
    9.7942   -3.7694    0.0000 O   0  0  0  0  0  0  0  0  0  0  0  0
    8.0622    2.2306    0.0000 O   0  0  0  0  0  0  0  0  0  0  0  0
    4.5981    1.2306    0.0000 O   0  0  0  0  0  0  0  0  0  0  0  0
    3.7320   -2.2694    0.0000 O   0  0  0  0  0  0  0  0  0  0  0  0
    5.4641    3.7306    0.0000 O   0  0  0  0  0  0  0  0  0  0  0  0
    5.4641   -2.2694    0.0000 O   0  0  0  0  0  0  0  0  0  0  0  0
    4.5981    2.2306    0.0000 O   0  0  0  0  0  0  0  0  0  0  0  0
   10.6603    3.7306    0.0000 N   0  0  0  0  0  0  0  0  0  0  0  0
   10.6603   -2.2694    0.0000 N   0  0  0  0  0  0  0  0  0  0  0  0
    8.9282   -0.2694    0.0000 N   0  0  0  0  0  0  0  0  0  0  0  0
    7.1962    0.7306    0.0000 N   0  0  0  0  0  0  0  0  0  0  0  0
    5.4641   -0.2694    0.0000 N   0  0  0  0  0  0  0  0  0  0  0  0
    8.9282   -2.2694    0.0000 C   0  0  0  0  0  0  0  0  0  0  0  0
    9.7942   -1.7694    0.0000 C   0  0  1  0  0  0  0  0  0  0  0  0
   11.4693    4.3184    0.0000 C   0  0  0  0  0  0  0  0  0  0  0  0
    9.8512    4.3184    0.0000 C   0  0  0  0  0  0  0  0  0  0  0  0
   11.1603    5.2694    0.0000 C   0  0  0  0  0  0  0  0  0  0  0  0
   10.1603    5.2694    0.0000 C   0  0  0  0  0  0  0  0  0  0  0  0
    8.9282    0.7306    0.0000 C   0  0  1  0  0  0  0  0  0  0  0  0
    8.0622   -2.7694    0.0000 C   0  0  0  0  0  0  0  0  0  0  0  0
    9.4282   -3.1354    0.0000 C   0  0  0  0  0  0  0  0  0  0  0  0
    8.4282   -1.4034    0.0000 C   0  0  0  0  0  0  0  0  0  0  0  0
    9.7942   -0.7694    0.0000 C   0  0  0  0  0  0  0  0  0  0  0  0
    9.7942    1.2306    0.0000 C   0  0  0  0  0  0  0  0  0  0  0  0
    9.7942    2.2306    0.0000 C   0  0  0  0  0  0  0  0  0  0  0  0
   10.6603    2.7306    0.0000 C   0  0  0  0  0  0  0  0  0  0  0  0
   11.5263   -3.7694    0.0000 C   0  0  0  0  0  0  0  0  0  0  0  0
   10.6603   -3.2694    0.0000 C   0  0  0  0  0  0  0  0  0  0  0  0
    8.0622    1.2306    0.0000 C   0  0  0  0  0  0  0  0  0  0  0  0
   11.5263   -4.7694    0.0000 C   0  0  0  0  0  0  0  0  0  0  0  0
   12.3923   -3.2694    0.0000 C   0  0  0  0  0  0  0  0  0  0  0  0
    6.3301    1.2306    0.0000 C   0  0  2  0  0  0  0  0  0  0  0  0
    4.5981   -0.7694    0.0000 C   0  0  1  0  0  0  0  0  0  0  0  0
    3.7320   -0.2694    0.0000 C   0  0  0  0  0  0  0  0  0  0  0  0
   12.3923   -5.2694    0.0000 C   0  0  0  0  0  0  0  0  0  0  0  0
   13.2583   -3.7694    0.0000 C   0  0  0  0  0  0  0  0  0  0  0  0
    5.4641    0.7306    0.0000 C   0  0  0  0  0  0  0  0  0  0  0  0
    6.3301    2.2306    0.0000 C   0  0  0  0  0  0  0  0  0  0  0  0
    2.8660   -0.7694    0.0000 C   0  0  0  0  0  0  0  0  0  0  0  0
    2.0000   -0.2694    0.0000 C   0  0  0  0  0  0  0  0  0  0  0  0
    2.8660   -1.7694    0.0000 C   0  0  0  0  0  0  0  0  0  0  0  0
    4.5981   -1.7694    0.0000 C   0  0  0  0  0  0  0  0  0  0  0  0
    5.4641    2.7306    0.0000 C   0  0  0  0  0  0  0  0  0  0  0  0
    9.7942   -2.3894    0.0000 H   0  0  0  0  0  0  0  0  0  0  0  0
   11.7793    3.7814    0.0000 H   0  0  0  0  0  0  0  0  0  0  0  0
   12.0357    4.5705    0.0000 H   0  0  0  0  0  0  0  0  0  0  0  0
    9.2848    4.5705    0.0000 H   0  0  0  0  0  0  0  0  0  0  0  0
    9.5412    3.7814    0.0000 H   0  0  0  0  0  0  0  0  0  0  0  0
   11.7667    5.3983    0.0000 H   0  0  0  0  0  0  0  0  0  0  0  0
   11.0954    5.8860    0.0000 H   0  0  0  0  0  0  0  0  0  0  0  0
   10.2251    5.8860    0.0000 H   0  0  0  0  0  0  0  0  0  0  0  0
    9.5538    5.3983    0.0000 H   0  0  0  0  0  0  0  0  0  0  0  0
    9.4651    0.4206    0.0000 H   0  0  0  0  0  0  0  0  0  0  0  0
    7.7522   -2.2325    0.0000 H   0  0  0  0  0  0  0  0  0  0  0  0
    7.5252   -3.0794    0.0000 H   0  0  0  0  0  0  0  0  0  0  0  0
    8.3722   -3.3064    0.0000 H   0  0  0  0  0  0  0  0  0  0  0  0
    8.8913   -3.4454    0.0000 H   0  0  0  0  0  0  0  0  0  0  0  0
    9.7382   -3.6724    0.0000 H   0  0  0  0  0  0  0  0  0  0  0  0
    9.9651   -2.8254    0.0000 H   0  0  0  0  0  0  0  0  0  0  0  0
    8.9651   -1.0934    0.0000 H   0  0  0  0  0  0  0  0  0  0  0  0
    8.1182   -0.8665    0.0000 H   0  0  0  0  0  0  0  0  0  0  0  0
    7.8913   -1.7134    0.0000 H   0  0  0  0  0  0  0  0  0  0  0  0
   10.0063    0.6480    0.0000 H   0  0  0  0  0  0  0  0  0  0  0  0
   10.4048    1.3382    0.0000 H   0  0  0  0  0  0  0  0  0  0  0  0
   11.1972   -1.9594    0.0000 H   0  0  0  0  0  0  0  0  0  0  0  0
    9.5822    2.8132    0.0000 H   0  0  0  0  0  0  0  0  0  0  0  0
    9.1836    2.1229    0.0000 H   0  0  0  0  0  0  0  0  0  0  0  0
    8.3913   -0.5794    0.0000 H   0  0  0  0  0  0  0  0  0  0  0  0
   12.0632   -4.0794    0.0000 H   0  0  0  0  0  0  0  0  0  0  0  0
   10.9157   -4.6618    0.0000 H   0  0  0  0  0  0  0  0  0  0  0  0
   11.3142   -5.3520    0.0000 H   0  0  0  0  0  0  0  0  0  0  0  0
   12.7908   -2.7945    0.0000 H   0  0  0  0  0  0  0  0  0  0  0  0
   11.9938   -2.7945    0.0000 H   0  0  0  0  0  0  0  0  0  0  0  0
    6.8671    1.5406    0.0000 H   0  0  0  0  0  0  0  0  0  0  0  0
    7.1962    0.1106    0.0000 H   0  0  0  0  0  0  0  0  0  0  0  0
    4.5981   -0.1494    0.0000 H   0  0  0  0  0  0  0  0  0  0  0  0
    4.1306    0.2055    0.0000 H   0  0  0  0  0  0  0  0  0  0  0  0
    3.3335    0.2055    0.0000 H   0  0  0  0  0  0  0  0  0  0  0  0
   12.0823   -5.8064    0.0000 H   0  0  0  0  0  0  0  0  0  0  0  0
   12.9292   -5.5794    0.0000 H   0  0  0  0  0  0  0  0  0  0  0  0
   12.7023   -4.7325    0.0000 H   0  0  0  0  0  0  0  0  0  0  0  0
   12.9483   -4.3064    0.0000 H   0  0  0  0  0  0  0  0  0  0  0  0
   13.7953   -4.0794    0.0000 H   0  0  0  0  0  0  0  0  0  0  0  0
   13.5683   -3.2325    0.0000 H   0  0  0  0  0  0  0  0  0  0  0  0
    6.9407    2.1229    0.0000 H   0  0  0  0  0  0  0  0  0  0  0  0
    6.5422    2.8132    0.0000 H   0  0  0  0  0  0  0  0  0  0  0  0
    2.8660   -0.1494    0.0000 H   0  0  0  0  0  0  0  0  0  0  0  0
    6.0010   -0.5794    0.0000 H   0  0  0  0  0  0  0  0  0  0  0  0
    2.3100    0.2675    0.0000 H   0  0  0  0  0  0  0  0  0  0  0  0
    1.4631    0.0406    0.0000 H   0  0  0  0  0  0  0  0  0  0  0  0
    1.6900   -0.8064    0.0000 H   0  0  0  0  0  0  0  0  0  0  0  0
    2.2460   -1.7694    0.0000 H   0  0  0  0  0  0  0  0  0  0  0  0
    2.8660   -2.3894    0.0000 H   0  0  0  0  0  0  0  0  0  0  0  0
    3.4860   -1.7694    0.0000 H   0  0  0  0  0  0  0  0  0  0  0  0
    3.7320   -2.8894    0.0000 H   0  0  0  0  0  0  0  0  0  0  0  0
    4.9272    4.0406    0.0000 H   0  0  0  0  0  0  0  0  0  0  0  0
  1 25  2  0  0  0  0
  2 28  2  0  0  0  0
  3 30  2  0  0  0  0
  4 31  2  0  0  0  0
  5 39  2  0  0  0  0
  6 44  1  0  0  0  0
  6 97  1  0  0  0  0
  7 45  1  0  0  0  0
  7 98  1  0  0  0  0
  8 44  2  0  0  0  0
  9 45  2  0  0  0  0
 10 17  1  0  0  0  0
 10 18  1  0  0  0  0
 10 28  1  0  0  0  0
 16 11  1  1  0  0  0
 11 30  1  0  0  0  0
 11 67  1  0  0  0  0
 21 12  1  6  0  0  0
 12 25  1  0  0  0  0
 12 70  1  0  0  0  0
 13 31  1  0  0  0  0
 34 13  1  6  0  0  0
 13 77  1  0  0  0  0
 35 14  1  6  0  0  0
 14 39  1  0  0  0  0
 14 90  1  0  0  0  0
 15 16  1  0  0  0  0
 15 22  1  0  0  0  0
 15 23  1  0  0  0  0
 15 24  1  0  0  0  0
 16 25  1  0  0  0  0
 16 46  1  0  0  0  0
 17 19  1  0  0  0  0
 17 47  1  0  0  0  0
 17 48  1  0  0  0  0
 18 20  1  0  0  0  0
 18 49  1  0  0  0  0
 18 50  1  0  0  0  0
 19 20  1  0  0  0  0
 19 51  1  0  0  0  0
 19 52  1  0  0  0  0
 20 53  1  0  0  0  0
 20 54  1  0  0  0  0
 21 26  1  0  0  0  0
 21 31  1  0  0  0  0
 21 55  1  0  0  0  0
 22 56  1  0  0  0  0
 22 57  1  0  0  0  0
 22 58  1  0  0  0  0
 23 59  1  0  0  0  0
 23 60  1  0  0  0  0
 23 61  1  0  0  0  0
 24 62  1  0  0  0  0
 24 63  1  0  0  0  0
 24 64  1  0  0  0  0
 26 27  1  0  0  0  0
 26 65  1  0  0  0  0
 26 66  1  0  0  0  0
 27 28  1  0  0  0  0
 27 68  1  0  0  0  0
 27 69  1  0  0  0  0
 29 30  1  0  0  0  0
 29 32  1  0  0  0  0
 29 33  1  0  0  0  0
 29 71  1  0  0  0  0
 32 37  1  0  0  0  0
 32 72  1  0  0  0  0
 32 73  1  0  0  0  0
 33 38  1  0  0  0  0
 33 74  1  0  0  0  0
 33 75  1  0  0  0  0
 34 39  1  0  0  0  0
 34 40  1  0  0  0  0
 34 76  1  0  0  0  0
 35 36  1  0  0  0  0
 35 44  1  0  0  0  0
 35 78  1  0  0  0  0
 36 41  1  0  0  0  0
 36 79  1  0  0  0  0
 36 80  1  0  0  0  0
 37 81  1  0  0  0  0
 37 82  1  0  0  0  0
 37 83  1  0  0  0  0
 38 84  1  0  0  0  0
 38 85  1  0  0  0  0
 38 86  1  0  0  0  0
 40 45  1  0  0  0  0
 40 87  1  0  0  0  0
 40 88  1  0  0  0  0
 41 42  1  0  0  0  0
 41 43  1  0  0  0  0
 41 89  1  0  0  0  0
 42 91  1  0  0  0  0
 42 92  1  0  0  0  0
 42 93  1  0  0  0  0
 43 94  1  0  0  0  0
 43 95  1  0  0  0  0
 43 96  1  0  0  0  0
M  END
> <PUBCHEM_COMPOUND_CID>
515363
> <PUBCHEM_COMPOUND_CANONICALIZED>
1
> <PUBCHEM_CACTVS_COMPLEXITY>
1060
> <PUBCHEM_CACTVS_HBOND_ACCEPTOR>
9
> <PUBCHEM_CACTVS_HBOND_DONOR>
6
> <PUBCHEM_CACTVS_ROTATABLE_BOND>
19
> <PUBCHEM_CACTVS_SUBSKEYS>
AAADcfB7vAAAAAAAAAAAAAAAAAAAAWAAAAAAAAAAAAAAAAAAAAAAHgAQCAAADyjBgAQCCAPAAgAIAAGQGAAAAAAAAAAAAIGIAAACQBoAgCAUQAAGFgCQAAC/AwAPAAAAAAAAAAAAAAAAAAAAAAAAAAAAAA==
> <PUBCHEM_IUPAC_OPENEYE_NAME>
(2S)-2-[[(2S)-3-carboxy-2-[[(2S)-2-[[(2S)-2-(2-ethylbutanoylamino)-3,3-dimethyl-butanoyl]amino]-5-oxo-5-pyrrolidin-1-yl-pentanoyl]amino]propanoyl]amino]-4-methyl-pentanoic acid
> <PUBCHEM_IUPAC_CAS_NAME>
(2S)-2-[[(2S)-3-carboxy-2-[[(2S)-2-[[(2S)-2-[(2-ethyl-1-oxobutyl)amino]-3,3-dimethyl-1-oxobutyl]amino]-1,5-dioxo-5-(1-pyrrolidinyl)pentyl]amino]-1-oxopropyl]amino]-4-methylpentanoic acid
> <PUBCHEM_IUPAC_NAME_MARKUP>
(2<I>S</I>)-2-[[(2<I>S</I>)-3-carboxy-2-[[(2<I>S</I>)-2-[[(2<I>S</I>)-2-(2-ethylbutanoylamino)-3,3-dimethylbutanoyl]amino]-5-oxo-5-pyrrolidin-1-ylpentanoyl]amino]propanoyl]amino]-4-methylpentanoic acid
> <PUBCHEM_IUPAC_NAME>
(2S)-2-[[(2S)-3-carboxy-2-[[(2S)-2-[[(2S)-2-(2-ethylbutanoylamino)-3,3-dimethylbutanoyl]amino]-5-oxo-5-pyrrolidin-1-ylpentanoyl]amino]propanoyl]amino]-4-methylpentanoic acid
> <PUBCHEM_IUPAC_SYSTEMATIC_NAME>
(2S)-2-[[(2S)-2-[[(2S)-2-[[(2S)-2-(2-ethylbutanoylamino)-3,3-dimethyl-butanoyl]amino]-5-oxidanylidene-5-pyrrolidin-1-yl-pentanoyl]amino]-4-oxidanyl-4-oxidanylidene-butanoyl]amino]-4-methyl-pentanoic acid
> <PUBCHEM_IUPAC_TRADITIONAL_NAME>
(2S)-2-[[(2S)-3-carboxy-2-[[(2S)-2-[[(2S)-2-(2-ethylbutanoylamino)-3,3-dimethyl-butanoyl]amino]-5-keto-5-pyrrolidino-pentanoyl]amino]propanoyl]amino]-4-methyl-valeric acid
> <PUBCHEM_IUPAC_INCHI>
InChI=1S/C31H53N5O9/c1-8-19(9-2)26(40)35-25(31(5,6)7)29(43)32-20(12-13-23(37)36-14-10-11-15-36)27(41)33-21(17-24(38)39)28(42)34-22(30(44)45)16-18(3)4/h18-22,25H,8-17H2,1-7H3,(H,32,43)(H,33,41)(H,34,42)(H,35,40)(H,38,39)(H,44,45)/t20-,21-,22-,25+/m0/s1
> <PUBCHEM_IUPAC_INCHIKEY>
ITJYGMPQOISOQU-DEJKCJRPSA-N
> <PUBCHEM_XLOGP3_AA>
2.3
> <PUBCHEM_EXACT_MASS>
639.38432829
> <PUBCHEM_MOLECULAR_FORMULA>
C31H53N5O9
> <PUBCHEM_MOLECULAR_WEIGHT>
639.8
> <PUBCHEM_OPENEYE_CAN_SMILES>
CCC(CC)C(=O)NC(C(=O)NC(CCC(=O)N1CCCC1)C(=O)NC(CC(=O)O)C(=O)NC(CC(C)C)C(=O)O)C(C)(C)C
> <PUBCHEM_OPENEYE_ISO_SMILES>
CCC(CC)C(=O)N[C@H](C(=O)N[C@@H](CCC(=O)N1CCCC1)C(=O)N[C@@H](CC(=O)O)C(=O)N[C@@H](CC(C)C)C(=O)O)C(C)(C)C
> <PUBCHEM_CACTVS_TPSA>
211
> <PUBCHEM_MONOISOTOPIC_WEIGHT>
639.38432829
> <PUBCHEM_TOTAL_CHARGE>
0
> <PUBCHEM_HEAVY_ATOM_COUNT>
45
> <PUBCHEM_ATOM_DEF_STEREO_COUNT>
4
> <PUBCHEM_ATOM_UDEF_STEREO_COUNT>
0
> <PUBCHEM_BOND_DEF_STEREO_COUNT>
0
> <PUBCHEM_BOND_UDEF_STEREO_COUNT>
0
> <PUBCHEM_ISOTOPIC_ATOM_COUNT>
0
> <PUBCHEM_COMPONENT_COUNT>
1
> <PUBCHEM_CACTVS_TAUTO_COUNT>
-1
> <PUBCHEM_COORDINATE_TYPE>
1
5
255
> <PUBCHEM_BONDANNOTATIONS>
16  11  5
21  12  6
34  13  6
35  14  6
$$$$
