515379
  -OEChem-10302200282D
 37 39  0     1  0  0  0  0  0999 V2000
    6.4504    3.3034    0.0000 P   0  0  0  0  0  0  0  0  0  0  0  0
    5.8055   -0.1498    0.0000 O   0  0  0  0  0  0  0  0  0  0  0  0
    8.1515   -1.2416    0.0000 O   0  0  0  0  0  0  0  0  0  0  0  0
    8.1552    0.9340    0.0000 O   0  0  0  0  0  0  0  0  0  0  0  0
    6.7577    2.3518    0.0000 O   0  0  0  0  0  0  0  0  0  0  0  0
    6.1430    4.2550    0.0000 O   0  0  0  0  0  0  0  0  0  0  0  0
    7.4020    3.6108    0.0000 O   0  0  0  0  0  0  0  0  0  0  0  0
    4.2690   -4.7150    0.0000 O   0  0  0  0  0  0  0  0  0  0  0  0
    5.4988    2.9960    0.0000 O   0  0  0  0  0  0  0  0  0  0  0  0
    2.5369   -3.7150    0.0000 O   0  0  0  0  0  0  0  0  0  0  0  0
    6.0812   -1.9103    0.0000 N   0  0  0  0  0  0  0  0  0  0  0  0
    6.0812   -3.5198    0.0000 N   0  0  0  0  0  0  0  0  0  0  0  0
    4.2690   -1.7150    0.0000 N   0  0  0  0  0  0  0  0  0  0  0  0
    3.4030   -3.2150    0.0000 N   0  0  0  0  0  0  0  0  0  0  0  0
    7.3435   -0.6524    0.0000 C   0  0  1  0  0  0  0  0  0  0  0  0
    7.3452    0.3476    0.0000 C   0  0  1  0  0  0  0  0  0  0  0  0
    6.3919   -0.9598    0.0000 C   0  0  1  0  0  0  0  0  0  0  0  0
    6.3947    0.6582    0.0000 C   0  0  1  0  0  0  0  0  0  0  0  0
    6.0873    1.6098    0.0000 C   0  0  0  0  0  0  0  0  0  0  0  0
    5.1350   -2.2150    0.0000 C   0  0  0  0  0  0  0  0  0  0  0  0
    6.6648   -2.7150    0.0000 C   0  0  0  0  0  0  0  0  0  0  0  0
    5.1350   -3.2150    0.0000 C   0  0  0  0  0  0  0  0  0  0  0  0
    4.2690   -3.7150    0.0000 C   0  0  0  0  0  0  0  0  0  0  0  0
    3.4030   -2.2150    0.0000 C   0  0  0  0  0  0  0  0  0  0  0  0
    7.8964   -0.3719    0.0000 H   0  0  0  0  0  0  0  0  0  0  0  0
    7.2493    0.9601    0.0000 H   0  0  0  0  0  0  0  0  0  0  0  0
    5.7794   -1.0557    0.0000 H   0  0  0  0  0  0  0  0  0  0  0  0
    5.7825    0.7563    0.0000 H   0  0  0  0  0  0  0  0  0  0  0  0
    5.7065    2.0991    0.0000 H   0  0  0  0  0  0  0  0  0  0  0  0
    5.5394    1.3197    0.0000 H   0  0  0  0  0  0  0  0  0  0  0  0
    8.7183   -0.9904    0.0000 H   0  0  0  0  0  0  0  0  0  0  0  0
    8.7212    0.6808    0.0000 H   0  0  0  0  0  0  0  0  0  0  0  0
    7.2848   -2.7150    0.0000 H   0  0  0  0  0  0  0  0  0  0  0  0
    2.8660   -1.9050    0.0000 H   0  0  0  0  0  0  0  0  0  0  0  0
    6.5587    4.7150    0.0000 H   0  0  0  0  0  0  0  0  0  0  0  0
    7.5319    4.2170    0.0000 H   0  0  0  0  0  0  0  0  0  0  0  0
    2.0000   -3.4050    0.0000 H   0  0  0  0  0  0  0  0  0  0  0  0
  1  5  1  0  0  0  0
  1  6  1  0  0  0  0
  1  7  1  0  0  0  0
  1  9  2  0  0  0  0
  2 17  1  0  0  0  0
  2 18  1  0  0  0  0
 15  3  1  6  0  0  0
  3 31  1  0  0  0  0
 16  4  1  1  0  0  0
  4 32  1  0  0  0  0
  5 19  1  0  0  0  0
  6 35  1  0  0  0  0
  7 36  1  0  0  0  0
  8 23  2  0  0  0  0
 10 14  1  0  0  0  0
 10 37  1  0  0  0  0
 17 11  1  6  0  0  0
 11 20  1  0  0  0  0
 11 21  1  0  0  0  0
 12 21  2  0  0  0  0
 12 22  1  0  0  0  0
 13 20  1  0  0  0  0
 13 24  2  0  0  0  0
 14 23  1  0  0  0  0
 14 24  1  0  0  0  0
 15 16  1  0  0  0  0
 15 17  1  0  0  0  0
 15 25  1  0  0  0  0
 16 18  1  0  0  0  0
 16 26  1  0  0  0  0
 17 27  1  0  0  0  0
 18 19  1  6  0  0  0
 18 28  1  0  0  0  0
 19 29  1  0  0  0  0
 19 30  1  0  0  0  0
 20 22  2  0  0  0  0
 21 33  1  0  0  0  0
 22 23  1  0  0  0  0
 24 34  1  0  0  0  0
M  END
> <PUBCHEM_COMPOUND_CID>
515379
> <PUBCHEM_COMPOUND_CANONICALIZED>
1
> <PUBCHEM_CACTVS_COMPLEXITY>
585
> <PUBCHEM_CACTVS_HBOND_ACCEPTOR>
11
> <PUBCHEM_CACTVS_HBOND_DONOR>
5
> <PUBCHEM_CACTVS_ROTATABLE_BOND>
4
> <PUBCHEM_CACTVS_SUBSKEYS>
AAADccBzvAIAAAAAAAAAAAAAAAAAAWJAAAAgAAAAAAAAAEABgAAAHgAECCAACBzhlgYFsBccFxCoQQdxdICAgC0XEKAhUAGoVECDWApAyCAeQIgPAgLTAGDwMAIAAAAAAAAAAAAAAAAAAAAAAAAAAAAAAA==
> <PUBCHEM_IUPAC_OPENEYE_NAME>
[(2R,3S,4S,5R)-3,4-dihydroxy-5-(1-hydroxy-6-oxo-purin-9-yl)tetrahydrofuran-2-yl]methyl dihydrogen phosphate
> <PUBCHEM_IUPAC_CAS_NAME>
[(2R,3S,4S,5R)-3,4-dihydroxy-5-(1-hydroxy-6-oxo-9-purinyl)-2-oxolanyl]methyl dihydrogen phosphate
> <PUBCHEM_IUPAC_NAME_MARKUP>
[(2<I>R</I>,3<I>S</I>,4<I>S</I>,5<I>R</I>)-3,4-dihydroxy-5-(1-hydroxy-6-oxopurin-9-yl)oxolan-2-yl]methyl dihydrogen phosphate
> <PUBCHEM_IUPAC_NAME>
[(2R,3S,4S,5R)-3,4-dihydroxy-5-(1-hydroxy-6-oxopurin-9-yl)oxolan-2-yl]methyl dihydrogen phosphate
> <PUBCHEM_IUPAC_SYSTEMATIC_NAME>
[(2R,3S,4S,5R)-3,4-bis(oxidanyl)-5-(1-oxidanyl-6-oxidanylidene-purin-9-yl)oxolan-2-yl]methyl dihydrogen phosphate
> <PUBCHEM_IUPAC_TRADITIONAL_NAME>
[(2R,3S,4S,5R)-3,4-dihydroxy-5-(1-hydroxy-6-keto-purin-9-yl)tetrahydrofuran-2-yl]methyl dihydrogen phosphate
> <PUBCHEM_IUPAC_INCHI>
InChI=1S/C10H13N4O9P/c15-6-4(1-22-24(19,20)21)23-10(7(6)16)13-2-11-5-8(13)12-3-14(18)9(5)17/h2-4,6-7,10,15-16,18H,1H2,(H2,19,20,21)/t4-,6-,7+,10-/m1/s1
> <PUBCHEM_IUPAC_INCHIKEY>
ZQTJRRFIPVKACB-UHTZMRCNSA-N
> <PUBCHEM_XLOGP3>
-3.3
> <PUBCHEM_EXACT_MASS>
364.04201500
> <PUBCHEM_MOLECULAR_FORMULA>
C10H13N4O9P
> <PUBCHEM_MOLECULAR_WEIGHT>
364.21
> <PUBCHEM_OPENEYE_CAN_SMILES>
C1=NC2=C(N1C3C(C(C(O3)COP(=O)(O)O)O)O)N=CN(C2=O)O
> <PUBCHEM_OPENEYE_ISO_SMILES>
C1=NC2=C(N1[C@H]3[C@H]([C@@H]([C@H](O3)COP(=O)(O)O)O)O)N=CN(C2=O)O
> <PUBCHEM_CACTVS_TPSA>
187
> <PUBCHEM_MONOISOTOPIC_WEIGHT>
364.04201500
> <PUBCHEM_TOTAL_CHARGE>
0
> <PUBCHEM_HEAVY_ATOM_COUNT>
24
> <PUBCHEM_ATOM_DEF_STEREO_COUNT>
4
> <PUBCHEM_ATOM_UDEF_STEREO_COUNT>
0
> <PUBCHEM_BOND_DEF_STEREO_COUNT>
0
> <PUBCHEM_BOND_UDEF_STEREO_COUNT>
0
> <PUBCHEM_ISOTOPIC_ATOM_COUNT>
0
> <PUBCHEM_COMPONENT_COUNT>
1
> <PUBCHEM_CACTVS_TAUTO_COUNT>
-1
> <PUBCHEM_COORDINATE_TYPE>
1
5
255
> <PUBCHEM_BONDANNOTATIONS>
17  11  6
11  20  8
11  21  8
12  21  8
12  22  8
13  20  8
13  24  8
14  23  8
14  24  8
18  19  6
20  22  8
22  23  8
15  3  6
16  4  5
$$$$
