515360
  -OEChem-10302200282D
 85 84  0     1  0  0  0  0  0999 V2000
    8.5991    2.8450    0.0000 O   0  0  0  0  0  0  0  0  0  0  0  0
   11.1972    0.3450    0.0000 O   0  0  0  0  0  0  0  0  0  0  0  0
    5.1350    1.8450    0.0000 O   0  0  0  0  0  0  0  0  0  0  0  0
    4.2690   -1.6550    0.0000 O   0  0  0  0  0  0  0  0  0  0  0  0
    6.8671   -4.1550    0.0000 O   0  0  0  0  0  0  0  0  0  0  0  0
    5.1350    2.8450    0.0000 O   0  0  0  0  0  0  0  0  0  0  0  0
    7.7331   -2.6550    0.0000 O   0  0  0  0  0  0  0  0  0  0  0  0
    2.5369    0.3450    0.0000 O   0  0  0  0  0  0  0  0  0  0  0  0
    3.4030   -1.1550    0.0000 O   0  0  0  0  0  0  0  0  0  0  0  0
    9.4651    0.3450    0.0000 N   0  0  0  0  0  0  0  0  0  0  0  0
    7.7331    1.3450    0.0000 N   0  0  0  0  0  0  0  0  0  0  0  0
    6.0010    0.3450    0.0000 N   0  0  0  0  0  0  0  0  0  0  0  0
    6.0010   -1.6550    0.0000 N   0  0  0  0  0  0  0  0  0  0  0  0
    6.0010    4.3450    0.0000 N   0  0  0  0  0  0  0  0  0  0  0  0
   10.3312    1.8450    0.0000 C   0  0  0  0  0  0  0  0  0  0  0  0
    9.4651    1.3450    0.0000 C   0  0  1  0  0  0  0  0  0  0  0  0
   11.1972    2.3450    0.0000 C   0  0  0  0  0  0  0  0  0  0  0  0
   10.8312    0.9790    0.0000 C   0  0  0  0  0  0  0  0  0  0  0  0
    9.8312    2.7110    0.0000 C   0  0  0  0  0  0  0  0  0  0  0  0
    8.5991    1.8450    0.0000 C   0  0  0  0  0  0  0  0  0  0  0  0
   10.3312   -1.1550    0.0000 C   0  0  0  0  0  0  0  0  0  0  0  0
   10.3312   -0.1550    0.0000 C   0  0  0  0  0  0  0  0  0  0  0  0
    6.8671    1.8450    0.0000 C   0  0  1  0  0  0  0  0  0  0  0  0
   11.1972   -1.6550    0.0000 C   0  0  0  0  0  0  0  0  0  0  0  0
    9.4651   -1.6550    0.0000 C   0  0  0  0  0  0  0  0  0  0  0  0
    6.8671    2.8450    0.0000 C   0  0  0  0  0  0  0  0  0  0  0  0
    6.0010    1.3450    0.0000 C   0  0  0  0  0  0  0  0  0  0  0  0
    5.1350   -3.1550    0.0000 C   0  0  0  0  0  0  0  0  0  0  0  0
    5.1350   -0.1550    0.0000 C   0  0  2  0  0  0  0  0  0  0  0  0
    6.0010   -2.6550    0.0000 C   0  0  1  0  0  0  0  0  0  0  0  0
    5.1350   -4.1550    0.0000 C   0  0  0  0  0  0  0  0  0  0  0  0
   11.1972   -2.6550    0.0000 C   0  0  0  0  0  0  0  0  0  0  0  0
    9.4651   -2.6550    0.0000 C   0  0  0  0  0  0  0  0  0  0  0  0
    5.1350   -1.1550    0.0000 C   0  0  0  0  0  0  0  0  0  0  0  0
    4.2690    0.3450    0.0000 C   0  0  0  0  0  0  0  0  0  0  0  0
    4.2690   -4.6550    0.0000 C   0  0  0  0  0  0  0  0  0  0  0  0
    6.0010   -4.6550    0.0000 C   0  0  0  0  0  0  0  0  0  0  0  0
    6.0010    3.3450    0.0000 C   0  0  0  0  0  0  0  0  0  0  0  0
    6.8671   -3.1550    0.0000 C   0  0  0  0  0  0  0  0  0  0  0  0
    3.4030   -0.1550    0.0000 C   0  0  0  0  0  0  0  0  0  0  0  0
   10.0021    1.0350    0.0000 H   0  0  0  0  0  0  0  0  0  0  0  0
   11.5072    1.8081    0.0000 H   0  0  0  0  0  0  0  0  0  0  0  0
   11.7341    2.6550    0.0000 H   0  0  0  0  0  0  0  0  0  0  0  0
   10.8872    2.8819    0.0000 H   0  0  0  0  0  0  0  0  0  0  0  0
   10.2942    0.6690    0.0000 H   0  0  0  0  0  0  0  0  0  0  0  0
   11.1412    0.4420    0.0000 H   0  0  0  0  0  0  0  0  0  0  0  0
   11.3681    1.2890    0.0000 H   0  0  0  0  0  0  0  0  0  0  0  0
   10.3681    3.0210    0.0000 H   0  0  0  0  0  0  0  0  0  0  0  0
    9.5212    3.2480    0.0000 H   0  0  0  0  0  0  0  0  0  0  0  0
    9.2942    2.4010    0.0000 H   0  0  0  0  0  0  0  0  0  0  0  0
    8.9282    0.0350    0.0000 H   0  0  0  0  0  0  0  0  0  0  0  0
   10.8681   -0.8450    0.0000 H   0  0  0  0  0  0  0  0  0  0  0  0
    7.7331    0.7250    0.0000 H   0  0  0  0  0  0  0  0  0  0  0  0
    7.4040    2.1550    0.0000 H   0  0  0  0  0  0  0  0  0  0  0  0
   11.8078   -1.7627    0.0000 H   0  0  0  0  0  0  0  0  0  0  0  0
   11.4092   -1.0724    0.0000 H   0  0  0  0  0  0  0  0  0  0  0  0
    9.2531   -1.0724    0.0000 H   0  0  0  0  0  0  0  0  0  0  0  0
    8.8546   -1.7627    0.0000 H   0  0  0  0  0  0  0  0  0  0  0  0
    7.4776    2.7373    0.0000 H   0  0  0  0  0  0  0  0  0  0  0  0
    7.0791    3.4276    0.0000 H   0  0  0  0  0  0  0  0  0  0  0  0
    4.9230   -2.5724    0.0000 H   0  0  0  0  0  0  0  0  0  0  0  0
    4.5244   -3.2627    0.0000 H   0  0  0  0  0  0  0  0  0  0  0  0
    5.1350    0.4650    0.0000 H   0  0  0  0  0  0  0  0  0  0  0  0
    6.5380   -2.3450    0.0000 H   0  0  0  0  0  0  0  0  0  0  0  0
    5.1350   -4.7750    0.0000 H   0  0  0  0  0  0  0  0  0  0  0  0
    6.5380    0.0350    0.0000 H   0  0  0  0  0  0  0  0  0  0  0  0
   10.5772   -2.6550    0.0000 H   0  0  0  0  0  0  0  0  0  0  0  0
   11.1972   -3.2750    0.0000 H   0  0  0  0  0  0  0  0  0  0  0  0
   11.8172   -2.6550    0.0000 H   0  0  0  0  0  0  0  0  0  0  0  0
    8.8451   -2.6550    0.0000 H   0  0  0  0  0  0  0  0  0  0  0  0
    9.4651   -3.2750    0.0000 H   0  0  0  0  0  0  0  0  0  0  0  0
   10.0851   -2.6550    0.0000 H   0  0  0  0  0  0  0  0  0  0  0  0
    6.5380   -1.3450    0.0000 H   0  0  0  0  0  0  0  0  0  0  0  0
    4.6675    0.8199    0.0000 H   0  0  0  0  0  0  0  0  0  0  0  0
    3.8705    0.8199    0.0000 H   0  0  0  0  0  0  0  0  0  0  0  0
    3.9590   -4.1181    0.0000 H   0  0  0  0  0  0  0  0  0  0  0  0
    3.7320   -4.9650    0.0000 H   0  0  0  0  0  0  0  0  0  0  0  0
    4.5790   -5.1919    0.0000 H   0  0  0  0  0  0  0  0  0  0  0  0
    5.6910   -5.1919    0.0000 H   0  0  0  0  0  0  0  0  0  0  0  0
    6.5380   -4.9650    0.0000 H   0  0  0  0  0  0  0  0  0  0  0  0
    6.3110   -4.1181    0.0000 H   0  0  0  0  0  0  0  0  0  0  0  0
    5.4641    4.6550    0.0000 H   0  0  0  0  0  0  0  0  0  0  0  0
    6.5380    4.6550    0.0000 H   0  0  0  0  0  0  0  0  0  0  0  0
    7.4040   -4.4650    0.0000 H   0  0  0  0  0  0  0  0  0  0  0  0
    2.0000    0.0350    0.0000 H   0  0  0  0  0  0  0  0  0  0  0  0
  1 20  2  0  0  0  0
  2 22  2  0  0  0  0
  3 27  2  0  0  0  0
  4 34  2  0  0  0  0
  5 39  1  0  0  0  0
  5 84  1  0  0  0  0
  6 38  2  0  0  0  0
  7 39  2  0  0  0  0
  8 40  1  0  0  0  0
  8 85  1  0  0  0  0
  9 40  2  0  0  0  0
 16 10  1  6  0  0  0
 10 22  1  0  0  0  0
 10 51  1  0  0  0  0
 11 20  1  0  0  0  0
 23 11  1  6  0  0  0
 11 53  1  0  0  0  0
 12 27  1  0  0  0  0
 29 12  1  6  0  0  0
 12 66  1  0  0  0  0
 30 13  1  6  0  0  0
 13 34  1  0  0  0  0
 13 73  1  0  0  0  0
 14 38  1  0  0  0  0
 14 82  1  0  0  0  0
 14 83  1  0  0  0  0
 15 16  1  0  0  0  0
 15 17  1  0  0  0  0
 15 18  1  0  0  0  0
 15 19  1  0  0  0  0
 16 20  1  0  0  0  0
 16 41  1  0  0  0  0
 17 42  1  0  0  0  0
 17 43  1  0  0  0  0
 17 44  1  0  0  0  0
 18 45  1  0  0  0  0
 18 46  1  0  0  0  0
 18 47  1  0  0  0  0
 19 48  1  0  0  0  0
 19 49  1  0  0  0  0
 19 50  1  0  0  0  0
 21 22  1  0  0  0  0
 21 24  1  0  0  0  0
 21 25  1  0  0  0  0
 21 52  1  0  0  0  0
 23 26  1  0  0  0  0
 23 27  1  0  0  0  0
 23 54  1  0  0  0  0
 24 32  1  0  0  0  0
 24 55  1  0  0  0  0
 24 56  1  0  0  0  0
 25 33  1  0  0  0  0
 25 57  1  0  0  0  0
 25 58  1  0  0  0  0
 26 38  1  0  0  0  0
 26 59  1  0  0  0  0
 26 60  1  0  0  0  0
 28 30  1  0  0  0  0
 28 31  1  0  0  0  0
 28 61  1  0  0  0  0
 28 62  1  0  0  0  0
 29 34  1  0  0  0  0
 29 35  1  0  0  0  0
 29 63  1  0  0  0  0
 30 39  1  0  0  0  0
 30 64  1  0  0  0  0
 31 36  1  0  0  0  0
 31 37  1  0  0  0  0
 31 65  1  0  0  0  0
 32 67  1  0  0  0  0
 32 68  1  0  0  0  0
 32 69  1  0  0  0  0
 33 70  1  0  0  0  0
 33 71  1  0  0  0  0
 33 72  1  0  0  0  0
 35 40  1  0  0  0  0
 35 74  1  0  0  0  0
 35 75  1  0  0  0  0
 36 76  1  0  0  0  0
 36 77  1  0  0  0  0
 36 78  1  0  0  0  0
 37 79  1  0  0  0  0
 37 80  1  0  0  0  0
 37 81  1  0  0  0  0
M  END
> <PUBCHEM_COMPOUND_CID>
515360
> <PUBCHEM_COMPOUND_CANONICALIZED>
1
> <PUBCHEM_CACTVS_COMPLEXITY>
941
> <PUBCHEM_CACTVS_HBOND_ACCEPTOR>
9
> <PUBCHEM_CACTVS_HBOND_DONOR>
7
> <PUBCHEM_CACTVS_ROTATABLE_BOND>
18
> <PUBCHEM_CACTVS_SUBSKEYS>
AAADcfB7vAAAAAAAAAAAAAAAAAAAAAAAAAAAAAAAAAAAAAAAAAAAHgAQCAAADyjBgAQCCALAAgAIAAGQGAAAAAAAAAAAAIGIAAACQBoAwCAUQAAGFgCQAACvAAAPAAAAAAAAAAAAAAAAAAAAAAAAAAAAAA==
> <PUBCHEM_IUPAC_OPENEYE_NAME>
(2S)-2-[[(2S)-2-[[(2S)-4-amino-2-[[(2S)-2-(2-ethylbutanoylamino)-3,3-dimethyl-butanoyl]amino]-4-oxo-butanoyl]amino]-3-carboxy-propanoyl]amino]-4-methyl-pentanoic acid
> <PUBCHEM_IUPAC_CAS_NAME>
(2S)-2-[[(2S)-2-[[(2S)-4-amino-2-[[(2S)-2-[(2-ethyl-1-oxobutyl)amino]-3,3-dimethyl-1-oxobutyl]amino]-1,4-dioxobutyl]amino]-3-carboxy-1-oxopropyl]amino]-4-methylpentanoic acid
> <PUBCHEM_IUPAC_NAME_MARKUP>
(2<I>S</I>)-2-[[(2<I>S</I>)-2-[[(2<I>S</I>)-4-amino-2-[[(2<I>S</I>)-2-(2-ethylbutanoylamino)-3,3-dimethylbutanoyl]amino]-4-oxobutanoyl]amino]-3-carboxypropanoyl]amino]-4-methylpentanoic acid
> <PUBCHEM_IUPAC_NAME>
(2S)-2-[[(2S)-2-[[(2S)-4-amino-2-[[(2S)-2-(2-ethylbutanoylamino)-3,3-dimethylbutanoyl]amino]-4-oxobutanoyl]amino]-3-carboxypropanoyl]amino]-4-methylpentanoic acid
> <PUBCHEM_IUPAC_SYSTEMATIC_NAME>
(2S)-2-[[(2S)-2-[[(2S)-4-azanyl-2-[[(2S)-2-(2-ethylbutanoylamino)-3,3-dimethyl-butanoyl]amino]-4-oxidanylidene-butanoyl]amino]-4-oxidanyl-4-oxidanylidene-butanoyl]amino]-4-methyl-pentanoic acid
> <PUBCHEM_IUPAC_TRADITIONAL_NAME>
(2S)-2-[[(2S)-2-[[(2S)-4-amino-2-[[(2S)-2-(2-ethylbutanoylamino)-3,3-dimethyl-butanoyl]amino]-4-keto-butanoyl]amino]-3-carboxy-propanoyl]amino]-4-methyl-valeric acid
> <PUBCHEM_IUPAC_INCHI>
InChI=1S/C26H45N5O9/c1-8-14(9-2)21(35)31-20(26(5,6)7)24(38)29-15(11-18(27)32)22(36)28-16(12-19(33)34)23(37)30-17(25(39)40)10-13(3)4/h13-17,20H,8-12H2,1-7H3,(H2,27,32)(H,28,36)(H,29,38)(H,30,37)(H,31,35)(H,33,34)(H,39,40)/t15-,16-,17-,20+/m0/s1
> <PUBCHEM_IUPAC_INCHIKEY>
CDOJYJABXYWZAA-OGNFBWPZSA-N
> <PUBCHEM_XLOGP3_AA>
0.8
> <PUBCHEM_EXACT_MASS>
571.32172803
> <PUBCHEM_MOLECULAR_FORMULA>
C26H45N5O9
> <PUBCHEM_MOLECULAR_WEIGHT>
571.7
> <PUBCHEM_OPENEYE_CAN_SMILES>
CCC(CC)C(=O)NC(C(=O)NC(CC(=O)N)C(=O)NC(CC(=O)O)C(=O)NC(CC(C)C)C(=O)O)C(C)(C)C
> <PUBCHEM_OPENEYE_ISO_SMILES>
CCC(CC)C(=O)N[C@H](C(=O)N[C@@H](CC(=O)N)C(=O)N[C@@H](CC(=O)O)C(=O)N[C@@H](CC(C)C)C(=O)O)C(C)(C)C
> <PUBCHEM_CACTVS_TPSA>
234
> <PUBCHEM_MONOISOTOPIC_WEIGHT>
571.32172803
> <PUBCHEM_TOTAL_CHARGE>
0
> <PUBCHEM_HEAVY_ATOM_COUNT>
40
> <PUBCHEM_ATOM_DEF_STEREO_COUNT>
4
> <PUBCHEM_ATOM_UDEF_STEREO_COUNT>
0
> <PUBCHEM_BOND_DEF_STEREO_COUNT>
0
> <PUBCHEM_BOND_UDEF_STEREO_COUNT>
0
> <PUBCHEM_ISOTOPIC_ATOM_COUNT>
0
> <PUBCHEM_COMPONENT_COUNT>
1
> <PUBCHEM_CACTVS_TAUTO_COUNT>
-1
> <PUBCHEM_COORDINATE_TYPE>
1
5
255
> <PUBCHEM_BONDANNOTATIONS>
16  10  6
23  11  6
29  12  6
30  13  6
$$$$
