515376
  -OEChem-10302200282D
 88 88  0     1  0  0  0  0  0999 V2000
    7.1962    2.1356    0.0000 O   0  0  0  0  0  0  0  0  0  0  0  0
   10.6603    2.1356    0.0000 O   0  0  0  0  0  0  0  0  0  0  0  0
    4.5981   -0.3644    0.0000 O   0  0  0  0  0  0  0  0  0  0  0  0
   10.6603    1.1356    0.0000 O   0  0  0  0  0  0  0  0  0  0  0  0
   11.5263   -2.3644    0.0000 O   0  0  0  0  0  0  0  0  0  0  0  0
   13.2583   -0.3644    0.0000 O   0  0  0  0  0  0  0  0  0  0  0  0
   12.3923   -1.8644    0.0000 O   0  0  0  0  0  0  0  0  0  0  0  0
    8.9282   -4.8644    0.0000 O   0  0  0  0  0  0  0  0  0  0  0  0
   10.6603   -4.8644    0.0000 O   0  0  0  0  0  0  0  0  0  0  0  0
    9.7942    3.6356    0.0000 N   0  0  0  0  0  0  0  0  0  0  0  0
    5.4641    1.1356    0.0000 N   0  0  0  0  0  0  0  0  0  0  0  0
    8.0622    0.6356    0.0000 N   0  0  0  0  0  0  0  0  0  0  0  0
    9.7942   -0.3644    0.0000 N   0  0  0  0  0  0  0  0  0  0  0  0
    9.7942   -2.3644    0.0000 N   0  0  0  0  0  0  0  0  0  0  0  0
    6.3301   -0.3644    0.0000 C   0  0  0  0  0  0  0  0  0  0  0  0
    6.3301    0.6356    0.0000 C   0  0  1  0  0  0  0  0  0  0  0  0
   10.6032    4.2234    0.0000 C   0  0  0  0  0  0  0  0  0  0  0  0
    8.9852    4.2234    0.0000 C   0  0  0  0  0  0  0  0  0  0  0  0
   10.2942    5.1744    0.0000 C   0  0  0  0  0  0  0  0  0  0  0  0
    9.2942    5.1744    0.0000 C   0  0  0  0  0  0  0  0  0  0  0  0
    8.9282    1.1356    0.0000 C   0  0  1  0  0  0  0  0  0  0  0  0
    6.3301   -1.3644    0.0000 C   0  0  0  0  0  0  0  0  0  0  0  0
    5.3301   -0.3644    0.0000 C   0  0  0  0  0  0  0  0  0  0  0  0
    7.3301   -0.3644    0.0000 C   0  0  0  0  0  0  0  0  0  0  0  0
    7.1962    1.1356    0.0000 C   0  0  0  0  0  0  0  0  0  0  0  0
    8.9282    2.1356    0.0000 C   0  0  0  0  0  0  0  0  0  0  0  0
    9.7942    2.6356    0.0000 C   0  0  0  0  0  0  0  0  0  0  0  0
    3.7320    1.1356    0.0000 C   0  0  0  0  0  0  0  0  0  0  0  0
    4.5981    0.6356    0.0000 C   0  0  0  0  0  0  0  0  0  0  0  0
    9.7942    0.6356    0.0000 C   0  0  0  0  0  0  0  0  0  0  0  0
    2.8660    0.6356    0.0000 C   0  0  0  0  0  0  0  0  0  0  0  0
    3.7320    2.1356    0.0000 C   0  0  0  0  0  0  0  0  0  0  0  0
   10.6603   -0.8644    0.0000 C   0  0  1  0  0  0  0  0  0  0  0  0
    2.0000    1.1356    0.0000 C   0  0  0  0  0  0  0  0  0  0  0  0
    2.8660    2.6356    0.0000 C   0  0  0  0  0  0  0  0  0  0  0  0
   11.5263   -0.3644    0.0000 C   0  0  0  0  0  0  0  0  0  0  0  0
   10.6603   -1.8644    0.0000 C   0  0  0  0  0  0  0  0  0  0  0  0
    9.7942   -3.3644    0.0000 C   0  0  0  0  0  0  0  0  0  0  0  0
   12.3923   -0.8644    0.0000 C   0  0  0  0  0  0  0  0  0  0  0  0
    8.9282   -3.8644    0.0000 C   0  0  0  0  0  0  0  0  0  0  0  0
   10.6603   -3.8644    0.0000 C   0  0  0  0  0  0  0  0  0  0  0  0
    5.7932    0.3256    0.0000 H   0  0  0  0  0  0  0  0  0  0  0  0
   10.9132    3.6864    0.0000 H   0  0  0  0  0  0  0  0  0  0  0  0
   11.1696    4.4755    0.0000 H   0  0  0  0  0  0  0  0  0  0  0  0
    8.4188    4.4755    0.0000 H   0  0  0  0  0  0  0  0  0  0  0  0
    8.6752    3.6864    0.0000 H   0  0  0  0  0  0  0  0  0  0  0  0
   10.9007    5.3033    0.0000 H   0  0  0  0  0  0  0  0  0  0  0  0
   10.2294    5.7910    0.0000 H   0  0  0  0  0  0  0  0  0  0  0  0
    9.3590    5.7910    0.0000 H   0  0  0  0  0  0  0  0  0  0  0  0
    8.6878    5.3033    0.0000 H   0  0  0  0  0  0  0  0  0  0  0  0
    8.9282    0.5156    0.0000 H   0  0  0  0  0  0  0  0  0  0  0  0
    5.7101   -1.3644    0.0000 H   0  0  0  0  0  0  0  0  0  0  0  0
    6.3301   -1.9844    0.0000 H   0  0  0  0  0  0  0  0  0  0  0  0
    6.9501   -1.3644    0.0000 H   0  0  0  0  0  0  0  0  0  0  0  0
    5.3301    0.2556    0.0000 H   0  0  0  0  0  0  0  0  0  0  0  0
    4.7101   -0.3644    0.0000 H   0  0  0  0  0  0  0  0  0  0  0  0
    5.3301   -0.9844    0.0000 H   0  0  0  0  0  0  0  0  0  0  0  0
    7.3301   -0.9844    0.0000 H   0  0  0  0  0  0  0  0  0  0  0  0
    7.9501   -0.3644    0.0000 H   0  0  0  0  0  0  0  0  0  0  0  0
    7.3301    0.2556    0.0000 H   0  0  0  0  0  0  0  0  0  0  0  0
    5.4641    1.7556    0.0000 H   0  0  0  0  0  0  0  0  0  0  0  0
    8.7162    2.7182    0.0000 H   0  0  0  0  0  0  0  0  0  0  0  0
    8.3176    2.0279    0.0000 H   0  0  0  0  0  0  0  0  0  0  0  0
    8.0622    0.0156    0.0000 H   0  0  0  0  0  0  0  0  0  0  0  0
    3.7320    0.5156    0.0000 H   0  0  0  0  0  0  0  0  0  0  0  0
    2.4675    0.1606    0.0000 H   0  0  0  0  0  0  0  0  0  0  0  0
    3.2646    0.1606    0.0000 H   0  0  0  0  0  0  0  0  0  0  0  0
    4.3426    2.0279    0.0000 H   0  0  0  0  0  0  0  0  0  0  0  0
    3.9441    2.7182    0.0000 H   0  0  0  0  0  0  0  0  0  0  0  0
    9.2573   -0.6744    0.0000 H   0  0  0  0  0  0  0  0  0  0  0  0
   10.6603   -0.2444    0.0000 H   0  0  0  0  0  0  0  0  0  0  0  0
    2.3100    1.6725    0.0000 H   0  0  0  0  0  0  0  0  0  0  0  0
    1.4631    1.4456    0.0000 H   0  0  0  0  0  0  0  0  0  0  0  0
    1.6900    0.5986    0.0000 H   0  0  0  0  0  0  0  0  0  0  0  0
    3.1760    3.1725    0.0000 H   0  0  0  0  0  0  0  0  0  0  0  0
    2.3291    2.9456    0.0000 H   0  0  0  0  0  0  0  0  0  0  0  0
    2.5560    2.0986    0.0000 H   0  0  0  0  0  0  0  0  0  0  0  0
   11.9248    0.1105    0.0000 H   0  0  0  0  0  0  0  0  0  0  0  0
   11.1278    0.1105    0.0000 H   0  0  0  0  0  0  0  0  0  0  0  0
    9.2573   -2.0544    0.0000 H   0  0  0  0  0  0  0  0  0  0  0  0
    9.2573   -3.0544    0.0000 H   0  0  0  0  0  0  0  0  0  0  0  0
    8.7162   -3.2818    0.0000 H   0  0  0  0  0  0  0  0  0  0  0  0
    8.3176   -3.9721    0.0000 H   0  0  0  0  0  0  0  0  0  0  0  0
   11.2708   -3.9721    0.0000 H   0  0  0  0  0  0  0  0  0  0  0  0
   10.8723   -3.2818    0.0000 H   0  0  0  0  0  0  0  0  0  0  0  0
   13.7953   -0.6744    0.0000 H   0  0  0  0  0  0  0  0  0  0  0  0
    8.3913   -5.1744    0.0000 H   0  0  0  0  0  0  0  0  0  0  0  0
   11.1972   -5.1744    0.0000 H   0  0  0  0  0  0  0  0  0  0  0  0
  1 25  2  0  0  0  0
  2 27  2  0  0  0  0
  3 29  2  0  0  0  0
  4 30  2  0  0  0  0
  5 37  2  0  0  0  0
  6 39  1  0  0  0  0
  6 86  1  0  0  0  0
  7 39  2  0  0  0  0
  8 40  1  0  0  0  0
  8 87  1  0  0  0  0
  9 41  1  0  0  0  0
  9 88  1  0  0  0  0
 10 17  1  0  0  0  0
 10 18  1  0  0  0  0
 10 27  1  0  0  0  0
 16 11  1  6  0  0  0
 11 29  1  0  0  0  0
 11 61  1  0  0  0  0
 21 12  1  1  0  0  0
 12 25  1  0  0  0  0
 12 64  1  0  0  0  0
 13 30  1  0  0  0  0
 33 13  1  1  0  0  0
 13 70  1  0  0  0  0
 14 37  1  0  0  0  0
 14 38  1  0  0  0  0
 14 80  1  0  0  0  0
 15 16  1  0  0  0  0
 15 22  1  0  0  0  0
 15 23  1  0  0  0  0
 15 24  1  0  0  0  0
 16 25  1  0  0  0  0
 16 42  1  0  0  0  0
 17 19  1  0  0  0  0
 17 43  1  0  0  0  0
 17 44  1  0  0  0  0
 18 20  1  0  0  0  0
 18 45  1  0  0  0  0
 18 46  1  0  0  0  0
 19 20  1  0  0  0  0
 19 47  1  0  0  0  0
 19 48  1  0  0  0  0
 20 49  1  0  0  0  0
 20 50  1  0  0  0  0
 21 26  1  0  0  0  0
 21 30  1  0  0  0  0
 21 51  1  0  0  0  0
 22 52  1  0  0  0  0
 22 53  1  0  0  0  0
 22 54  1  0  0  0  0
 23 55  1  0  0  0  0
 23 56  1  0  0  0  0
 23 57  1  0  0  0  0
 24 58  1  0  0  0  0
 24 59  1  0  0  0  0
 24 60  1  0  0  0  0
 26 27  1  0  0  0  0
 26 62  1  0  0  0  0
 26 63  1  0  0  0  0
 28 29  1  0  0  0  0
 28 31  1  0  0  0  0
 28 32  1  0  0  0  0
 28 65  1  0  0  0  0
 31 34  1  0  0  0  0
 31 66  1  0  0  0  0
 31 67  1  0  0  0  0
 32 35  1  0  0  0  0
 32 68  1  0  0  0  0
 32 69  1  0  0  0  0
 33 36  1  0  0  0  0
 33 37  1  0  0  0  0
 33 71  1  0  0  0  0
 34 72  1  0  0  0  0
 34 73  1  0  0  0  0
 34 74  1  0  0  0  0
 35 75  1  0  0  0  0
 35 76  1  0  0  0  0
 35 77  1  0  0  0  0
 36 39  1  0  0  0  0
 36 78  1  0  0  0  0
 36 79  1  0  0  0  0
 38 40  1  0  0  0  0
 38 41  1  0  0  0  0
 38 81  1  0  0  0  0
 40 82  1  0  0  0  0
 40 83  1  0  0  0  0
 41 84  1  0  0  0  0
 41 85  1  0  0  0  0
M  END
> <PUBCHEM_COMPOUND_CID>
515376
> <PUBCHEM_COMPOUND_CANONICALIZED>
1
> <PUBCHEM_CACTVS_COMPLEXITY>
923
> <PUBCHEM_CACTVS_HBOND_ACCEPTOR>
9
> <PUBCHEM_CACTVS_HBOND_DONOR>
7
> <PUBCHEM_CACTVS_ROTATABLE_BOND>
17
> <PUBCHEM_CACTVS_SUBSKEYS>
AAADcfB7vAAAAAAAAAAAAAAAAAAAAWAAAAAAAAAAAAAAAAAAAAAAHgAQCAAADyjhgAYCCAPAAgAIAAGQGAAAAAAAAAAAAIGIAAACUBoAwCAUQAAHFgCQAAAnAAALAAAAAAAAAAAAAAAAAAAAAAAAAAAAAA==
> <PUBCHEM_IUPAC_OPENEYE_NAME>
(3S)-3-[[(2S)-2-[[(2S)-2-(2-ethylbutanoylamino)-3,3-dimethyl-butanoyl]amino]-4-oxo-4-pyrrolidin-1-yl-butanoyl]amino]-4-[[2-hydroxy-1-(hydroxymethyl)ethyl]amino]-4-oxo-butanoic acid
> <PUBCHEM_IUPAC_CAS_NAME>
(3S)-4-(1,3-dihydroxypropan-2-ylamino)-3-[[(2S)-2-[[(2S)-2-[(2-ethyl-1-oxobutyl)amino]-3,3-dimethyl-1-oxobutyl]amino]-1,4-dioxo-4-(1-pyrrolidinyl)butyl]amino]-4-oxobutanoic acid
> <PUBCHEM_IUPAC_NAME_MARKUP>
(3<I>S</I>)-4-(1,3-dihydroxypropan-2-ylamino)-3-[[(2<I>S</I>)-2-[[(2<I>S</I>)-2-(2-ethylbutanoylamino)-3,3-dimethylbutanoyl]amino]-4-oxo-4-pyrrolidin-1-ylbutanoyl]amino]-4-oxobutanoic acid
> <PUBCHEM_IUPAC_NAME>
(3S)-4-(1,3-dihydroxypropan-2-ylamino)-3-[[(2S)-2-[[(2S)-2-(2-ethylbutanoylamino)-3,3-dimethylbutanoyl]amino]-4-oxo-4-pyrrolidin-1-ylbutanoyl]amino]-4-oxobutanoic acid
> <PUBCHEM_IUPAC_SYSTEMATIC_NAME>
(3S)-4-[1,3-bis(oxidanyl)propan-2-ylamino]-3-[[(2S)-2-[[(2S)-2-(2-ethylbutanoylamino)-3,3-dimethyl-butanoyl]amino]-4-oxidanylidene-4-pyrrolidin-1-yl-butanoyl]amino]-4-oxidanylidene-butanoic acid
> <PUBCHEM_IUPAC_TRADITIONAL_NAME>
(3S)-3-[[(2S)-2-[[(2S)-2-(2-ethylbutanoylamino)-3,3-dimethyl-butanoyl]amino]-4-keto-4-pyrrolidino-butanoyl]amino]-4-[(2-hydroxy-1-methylol-ethyl)amino]-4-keto-butyric acid
> <PUBCHEM_IUPAC_INCHI>
InChI=1S/C27H47N5O9/c1-6-16(7-2)23(38)31-22(27(3,4)5)26(41)30-18(12-20(35)32-10-8-9-11-32)25(40)29-19(13-21(36)37)24(39)28-17(14-33)15-34/h16-19,22,33-34H,6-15H2,1-5H3,(H,28,39)(H,29,40)(H,30,41)(H,31,38)(H,36,37)/t18-,19-,22+/m0/s1
> <PUBCHEM_IUPAC_INCHIKEY>
RMVVWOTUPFGMMQ-CNNODRBYSA-N
> <PUBCHEM_XLOGP3_AA>
-0.7
> <PUBCHEM_EXACT_MASS>
585.33737809
> <PUBCHEM_MOLECULAR_FORMULA>
C27H47N5O9
> <PUBCHEM_MOLECULAR_WEIGHT>
585.7
> <PUBCHEM_OPENEYE_CAN_SMILES>
CCC(CC)C(=O)NC(C(=O)NC(CC(=O)N1CCCC1)C(=O)NC(CC(=O)O)C(=O)NC(CO)CO)C(C)(C)C
> <PUBCHEM_OPENEYE_ISO_SMILES>
CCC(CC)C(=O)N[C@H](C(=O)N[C@@H](CC(=O)N1CCCC1)C(=O)N[C@@H](CC(=O)O)C(=O)NC(CO)CO)C(C)(C)C
> <PUBCHEM_CACTVS_TPSA>
215
> <PUBCHEM_MONOISOTOPIC_WEIGHT>
585.33737809
> <PUBCHEM_TOTAL_CHARGE>
0
> <PUBCHEM_HEAVY_ATOM_COUNT>
41
> <PUBCHEM_ATOM_DEF_STEREO_COUNT>
3
> <PUBCHEM_ATOM_UDEF_STEREO_COUNT>
0
> <PUBCHEM_BOND_DEF_STEREO_COUNT>
0
> <PUBCHEM_BOND_UDEF_STEREO_COUNT>
0
> <PUBCHEM_ISOTOPIC_ATOM_COUNT>
0
> <PUBCHEM_COMPONENT_COUNT>
1
> <PUBCHEM_CACTVS_TAUTO_COUNT>
-1
> <PUBCHEM_COORDINATE_TYPE>
1
5
255
> <PUBCHEM_BONDANNOTATIONS>
16  11  6
21  12  5
33  13  5
$$$$
