515382
  -OEChem-10302200282D
 42 44  0     1  0  0  0  0  0999 V2000
    5.9134    3.1624    0.0000 P   0  0  3  0  0  0  0  0  0  0  0  0
    5.2686   -0.2907    0.0000 O   0  0  0  0  0  0  0  0  0  0  0  0
    7.6146   -1.3826    0.0000 O   0  0  0  0  0  0  0  0  0  0  0  0
    7.6183    0.7930    0.0000 O   0  0  0  0  0  0  0  0  0  0  0  0
    6.2208    2.2109    0.0000 O   0  0  0  0  0  0  0  0  0  0  0  0
    5.6061    4.1140    0.0000 O   0  0  0  0  0  0  0  0  0  0  0  0
    6.8650    3.4698    0.0000 O   0  0  0  0  0  0  0  0  0  0  0  0
    3.7320   -4.8560    0.0000 O   0  0  0  0  0  0  0  0  0  0  0  0
    4.9618    2.8551    0.0000 O   0  0  0  0  0  0  0  0  0  0  0  0
    5.5443   -2.0513    0.0000 N   0  0  0  0  0  0  0  0  0  0  0  0
    5.5443   -3.6607    0.0000 N   0  0  0  0  0  0  0  0  0  0  0  0
    3.7320   -1.8560    0.0000 N   0  0  0  0  0  0  0  0  0  0  0  0
    2.8660   -3.3560    0.0000 N   0  0  0  0  0  0  0  0  0  0  0  0
    6.8066   -0.7934    0.0000 C   0  0  1  0  0  0  0  0  0  0  0  0
    6.8083    0.2066    0.0000 C   0  0  1  0  0  0  0  0  0  0  0  0
    5.8550   -1.1008    0.0000 C   0  0  1  0  0  0  0  0  0  0  0  0
    5.8578    0.5173    0.0000 C   0  0  1  0  0  0  0  0  0  0  0  0
    5.5504    1.4689    0.0000 C   0  0  0  0  0  0  0  0  0  0  0  0
    4.5981   -2.3560    0.0000 C   0  0  0  0  0  0  0  0  0  0  0  0
    6.1279   -2.8560    0.0000 C   0  0  0  0  0  0  0  0  0  0  0  0
    4.5981   -3.3560    0.0000 C   0  0  0  0  0  0  0  0  0  0  0  0
    3.7320   -3.8560    0.0000 C   0  0  0  0  0  0  0  0  0  0  0  0
    2.8660   -2.3560    0.0000 C   0  0  0  0  0  0  0  0  0  0  0  0
    2.0000   -3.8560    0.0000 C   0  0  0  0  0  0  0  0  0  0  0  0
    6.2765    4.8560    0.0000 C   0  0  0  0  0  0  0  0  0  0  0  0
    7.3595   -0.5129    0.0000 H   0  0  0  0  0  0  0  0  0  0  0  0
    6.7124    0.8191    0.0000 H   0  0  0  0  0  0  0  0  0  0  0  0
    6.2926   -1.5399    0.0000 H   0  0  0  0  0  0  0  0  0  0  0  0
    5.2456    0.6153    0.0000 H   0  0  0  0  0  0  0  0  0  0  0  0
    5.1695    1.9581    0.0000 H   0  0  0  0  0  0  0  0  0  0  0  0
    5.0025    1.1787    0.0000 H   0  0  0  0  0  0  0  0  0  0  0  0
    8.1814   -1.1314    0.0000 H   0  0  0  0  0  0  0  0  0  0  0  0
    8.1843    0.5398    0.0000 H   0  0  0  0  0  0  0  0  0  0  0  0
    6.7479   -2.8560    0.0000 H   0  0  0  0  0  0  0  0  0  0  0  0
    2.3291   -2.0460    0.0000 H   0  0  0  0  0  0  0  0  0  0  0  0
    1.6900   -3.3191    0.0000 H   0  0  0  0  0  0  0  0  0  0  0  0
    1.4631   -4.1660    0.0000 H   0  0  0  0  0  0  0  0  0  0  0  0
    2.3100   -4.3930    0.0000 H   0  0  0  0  0  0  0  0  0  0  0  0
    7.3250    3.0542    0.0000 H   0  0  0  0  0  0  0  0  0  0  0  0
    6.7365    4.4403    0.0000 H   0  0  0  0  0  0  0  0  0  0  0  0
    6.6921    5.3160    0.0000 H   0  0  0  0  0  0  0  0  0  0  0  0
    5.8164    5.2717    0.0000 H   0  0  0  0  0  0  0  0  0  0  0  0
  1  5  1  0  0  0  0
  1  6  1  0  0  0  0
  1  7  1  0  0  0  0
  1  9  2  0  0  0  0
  2 16  1  0  0  0  0
  2 17  1  0  0  0  0
 14  3  1  6  0  0  0
  3 32  1  0  0  0  0
 15  4  1  1  0  0  0
  4 33  1  0  0  0  0
  5 18  1  0  0  0  0
  6 25  1  0  0  0  0
  7 39  1  0  0  0  0
  8 22  2  0  0  0  0
 16 10  1  6  0  0  0
 10 19  1  0  0  0  0
 10 20  1  0  0  0  0
 11 20  2  0  0  0  0
 11 21  1  0  0  0  0
 12 19  1  0  0  0  0
 12 23  2  0  0  0  0
 13 22  1  0  0  0  0
 13 23  1  0  0  0  0
 13 24  1  0  0  0  0
 14 15  1  0  0  0  0
 14 16  1  0  0  0  0
 14 26  1  0  0  0  0
 15 17  1  0  0  0  0
 15 27  1  0  0  0  0
 16 28  1  0  0  0  0
 17 18  1  6  0  0  0
 17 29  1  0  0  0  0
 18 30  1  0  0  0  0
 18 31  1  0  0  0  0
 19 21  2  0  0  0  0
 20 34  1  0  0  0  0
 21 22  1  0  0  0  0
 23 35  1  0  0  0  0
 24 36  1  0  0  0  0
 24 37  1  0  0  0  0
 24 38  1  0  0  0  0
 25 40  1  0  0  0  0
 25 41  1  0  0  0  0
 25 42  1  0  0  0  0
M  END
> <PUBCHEM_COMPOUND_CID>
515382
> <PUBCHEM_COMPOUND_CANONICALIZED>
1
> <PUBCHEM_CACTVS_COMPLEXITY>
606
> <PUBCHEM_CACTVS_HBOND_ACCEPTOR>
10
> <PUBCHEM_CACTVS_HBOND_DONOR>
3
> <PUBCHEM_CACTVS_ROTATABLE_BOND>
5
> <PUBCHEM_CACTVS_SUBSKEYS>
AAADceBzvAIAAAAAAAAAAAAAAAAAAWJAAAAgAAAAAAAAAEABgAAAHgAACCAACBzhlgYHsBcMFxCoQQdxdICAgC0XEKABUAGoVECDWApAyCAeQIgPAgLTAGDwMAIAAAAAAAAAAAAAAAAAAAAAAAAAAAAAAA==
> <PUBCHEM_IUPAC_OPENEYE_NAME>
[(2R,3S,4S,5R)-3,4-dihydroxy-5-(1-methyl-6-oxo-purin-9-yl)tetrahydrofuran-2-yl]methyl methyl hydrogen phosphate
> <PUBCHEM_IUPAC_CAS_NAME>
[(2R,3S,4S,5R)-3,4-dihydroxy-5-(1-methyl-6-oxo-9-purinyl)-2-oxolanyl]methyl methyl hydrogen phosphate
> <PUBCHEM_IUPAC_NAME_MARKUP>
[(2<I>R</I>,3<I>S</I>,4<I>S</I>,5<I>R</I>)-3,4-dihydroxy-5-(1-methyl-6-oxopurin-9-yl)oxolan-2-yl]methyl methyl hydrogen phosphate
> <PUBCHEM_IUPAC_NAME>
[(2R,3S,4S,5R)-3,4-dihydroxy-5-(1-methyl-6-oxopurin-9-yl)oxolan-2-yl]methyl methyl hydrogen phosphate
> <PUBCHEM_IUPAC_SYSTEMATIC_NAME>
methyl [(2R,3S,4S,5R)-5-(1-methyl-6-oxidanylidene-purin-9-yl)-3,4-bis(oxidanyl)oxolan-2-yl]methyl hydrogen phosphate
> <PUBCHEM_IUPAC_TRADITIONAL_NAME>
[(2R,3S,4S,5R)-3,4-dihydroxy-5-(6-keto-1-methyl-purin-9-yl)tetrahydrofuran-2-yl]methyl methyl hydrogen phosphate
> <PUBCHEM_IUPAC_INCHI>
InChI=1S/C12H17N4O8P/c1-15-4-14-10-7(11(15)19)13-5-16(10)12-9(18)8(17)6(24-12)3-23-25(20,21)22-2/h4-6,8-9,12,17-18H,3H2,1-2H3,(H,20,21)/t6-,8-,9+,12-/m1/s1
> <PUBCHEM_IUPAC_INCHIKEY>
FJOIZLPKZPQWRH-QRKAXHLRSA-N
> <PUBCHEM_XLOGP3_AA>
-3.1
> <PUBCHEM_EXACT_MASS>
376.07840051
> <PUBCHEM_MOLECULAR_FORMULA>
C12H17N4O8P
> <PUBCHEM_MOLECULAR_WEIGHT>
376.26
> <PUBCHEM_OPENEYE_CAN_SMILES>
CN1C=NC2=C(C1=O)N=CN2C3C(C(C(O3)COP(=O)(O)OC)O)O
> <PUBCHEM_OPENEYE_ISO_SMILES>
CN1C=NC2=C(C1=O)N=CN2[C@H]3[C@H]([C@@H]([C@H](O3)COP(=O)(O)OC)O)O
> <PUBCHEM_CACTVS_TPSA>
156
> <PUBCHEM_MONOISOTOPIC_WEIGHT>
376.07840051
> <PUBCHEM_TOTAL_CHARGE>
0
> <PUBCHEM_HEAVY_ATOM_COUNT>
25
> <PUBCHEM_ATOM_DEF_STEREO_COUNT>
4
> <PUBCHEM_ATOM_UDEF_STEREO_COUNT>
0
> <PUBCHEM_BOND_DEF_STEREO_COUNT>
0
> <PUBCHEM_BOND_UDEF_STEREO_COUNT>
0
> <PUBCHEM_ISOTOPIC_ATOM_COUNT>
0
> <PUBCHEM_COMPONENT_COUNT>
1
> <PUBCHEM_CACTVS_TAUTO_COUNT>
-1
> <PUBCHEM_COORDINATE_TYPE>
1
5
255
> <PUBCHEM_BONDANNOTATIONS>
16  10  6
10  19  8
10  20  8
11  20  8
11  21  8
12  19  8
12  23  8
13  22  8
13  23  8
17  18  6
19  21  8
21  22  8
14  3  6
15  4  5
$$$$
