515349
  -OEChem-10302200282D
 89 89  0     1  0  0  0  0  0999 V2000
    9.7942    2.2306    0.0000 O   0  0  0  0  0  0  0  0  0  0  0  0
    6.3301    2.2306    0.0000 O   0  0  0  0  0  0  0  0  0  0  0  0
    9.7942    1.2306    0.0000 O   0  0  0  0  0  0  0  0  0  0  0  0
    3.7320   -0.2694    0.0000 O   0  0  0  0  0  0  0  0  0  0  0  0
   10.6603   -2.2694    0.0000 O   0  0  0  0  0  0  0  0  0  0  0  0
    8.0622   -4.7694    0.0000 O   0  0  0  0  0  0  0  0  0  0  0  0
    7.1962   -3.2694    0.0000 O   0  0  0  0  0  0  0  0  0  0  0  0
   12.3923   -0.2694    0.0000 O   0  0  0  0  0  0  0  0  0  0  0  0
   11.5263   -1.7694    0.0000 O   0  0  0  0  0  0  0  0  0  0  0  0
    8.9282    3.7306    0.0000 N   0  0  0  0  0  0  0  0  0  0  0  0
    7.1962    0.7306    0.0000 N   0  0  0  0  0  0  0  0  0  0  0  0
    4.5981    1.2306    0.0000 N   0  0  0  0  0  0  0  0  0  0  0  0
    8.9282   -0.2694    0.0000 N   0  0  0  0  0  0  0  0  0  0  0  0
    8.9282   -2.2694    0.0000 N   0  0  0  0  0  0  0  0  0  0  0  0
    9.7372    4.3184    0.0000 C   0  0  0  0  0  0  0  0  0  0  0  0
    8.1192    4.3184    0.0000 C   0  0  0  0  0  0  0  0  0  0  0  0
    9.4282    5.2694    0.0000 C   0  0  0  0  0  0  0  0  0  0  0  0
    8.4282    5.2694    0.0000 C   0  0  0  0  0  0  0  0  0  0  0  0
    5.4641   -0.2694    0.0000 C   0  0  3  0  0  0  0  0  0  0  0  0
    5.4641    0.7306    0.0000 C   0  0  1  0  0  0  0  0  0  0  0  0
    8.0622    1.2306    0.0000 C   0  0  1  0  0  0  0  0  0  0  0  0
    8.0622    2.2306    0.0000 C   0  0  0  0  0  0  0  0  0  0  0  0
    8.9282    2.7306    0.0000 C   0  0  0  0  0  0  0  0  0  0  0  0
    4.5981   -0.7694    0.0000 C   0  0  0  0  0  0  0  0  0  0  0  0
    6.3301    1.2306    0.0000 C   0  0  0  0  0  0  0  0  0  0  0  0
    8.9282    0.7306    0.0000 C   0  0  0  0  0  0  0  0  0  0  0  0
    6.3301   -0.7694    0.0000 C   0  0  0  0  0  0  0  0  0  0  0  0
    9.7942   -0.7694    0.0000 C   0  0  2  0  0  0  0  0  0  0  0  0
    4.5981   -1.7694    0.0000 C   0  0  0  0  0  0  0  0  0  0  0  0
    9.7942   -3.7694    0.0000 C   0  0  0  0  0  0  0  0  0  0  0  0
    8.9282   -3.2694    0.0000 C   0  0  1  0  0  0  0  0  0  0  0  0
    9.7942   -4.7694    0.0000 C   0  0  0  0  0  0  0  0  0  0  0  0
    3.7320    0.7306    0.0000 C   0  0  0  0  0  0  0  0  0  0  0  0
    2.8660    1.2306    0.0000 C   0  0  0  0  0  0  0  0  0  0  0  0
    9.7942   -1.7694    0.0000 C   0  0  0  0  0  0  0  0  0  0  0  0
   10.6603   -0.2694    0.0000 C   0  0  0  0  0  0  0  0  0  0  0  0
   10.6603   -5.2694    0.0000 C   0  0  0  0  0  0  0  0  0  0  0  0
    8.9282   -5.2694    0.0000 C   0  0  0  0  0  0  0  0  0  0  0  0
    2.0000    0.7306    0.0000 C   0  0  0  0  0  0  0  0  0  0  0  0
    2.8660    2.2306    0.0000 C   0  0  0  0  0  0  0  0  0  0  0  0
    8.0622   -3.7694    0.0000 C   0  0  0  0  0  0  0  0  0  0  0  0
   11.5263   -0.7694    0.0000 C   0  0  0  0  0  0  0  0  0  0  0  0
   10.0472    3.7814    0.0000 H   0  0  0  0  0  0  0  0  0  0  0  0
   10.3036    4.5705    0.0000 H   0  0  0  0  0  0  0  0  0  0  0  0
    7.5528    4.5705    0.0000 H   0  0  0  0  0  0  0  0  0  0  0  0
    7.8092    3.7814    0.0000 H   0  0  0  0  0  0  0  0  0  0  0  0
   10.0347    5.3983    0.0000 H   0  0  0  0  0  0  0  0  0  0  0  0
    9.3634    5.8860    0.0000 H   0  0  0  0  0  0  0  0  0  0  0  0
    8.4930    5.8860    0.0000 H   0  0  0  0  0  0  0  0  0  0  0  0
    7.8218    5.3983    0.0000 H   0  0  0  0  0  0  0  0  0  0  0  0
    5.4641   -0.8894    0.0000 H   0  0  0  0  0  0  0  0  0  0  0  0
    5.4641    1.3506    0.0000 H   0  0  0  0  0  0  0  0  0  0  0  0
    8.0622    0.6106    0.0000 H   0  0  0  0  0  0  0  0  0  0  0  0
    7.8501    2.8132    0.0000 H   0  0  0  0  0  0  0  0  0  0  0  0
    7.4516    2.1229    0.0000 H   0  0  0  0  0  0  0  0  0  0  0  0
    4.3860   -0.1868    0.0000 H   0  0  0  0  0  0  0  0  0  0  0  0
    3.9875   -0.8771    0.0000 H   0  0  0  0  0  0  0  0  0  0  0  0
    7.1962    0.1106    0.0000 H   0  0  0  0  0  0  0  0  0  0  0  0
    6.0201   -1.3064    0.0000 H   0  0  0  0  0  0  0  0  0  0  0  0
    6.8671   -1.0794    0.0000 H   0  0  0  0  0  0  0  0  0  0  0  0
    6.6401   -0.2325    0.0000 H   0  0  0  0  0  0  0  0  0  0  0  0
    4.5981    1.8506    0.0000 H   0  0  0  0  0  0  0  0  0  0  0  0
    9.2573   -1.0794    0.0000 H   0  0  0  0  0  0  0  0  0  0  0  0
    8.3913   -0.5794    0.0000 H   0  0  0  0  0  0  0  0  0  0  0  0
    3.9781   -1.7694    0.0000 H   0  0  0  0  0  0  0  0  0  0  0  0
    4.5981   -2.3894    0.0000 H   0  0  0  0  0  0  0  0  0  0  0  0
    5.2181   -1.7694    0.0000 H   0  0  0  0  0  0  0  0  0  0  0  0
   10.4048   -3.8771    0.0000 H   0  0  0  0  0  0  0  0  0  0  0  0
   10.0063   -3.1868    0.0000 H   0  0  0  0  0  0  0  0  0  0  0  0
    9.4651   -2.9594    0.0000 H   0  0  0  0  0  0  0  0  0  0  0  0
    9.2573   -4.4594    0.0000 H   0  0  0  0  0  0  0  0  0  0  0  0
    2.8660    0.6106    0.0000 H   0  0  0  0  0  0  0  0  0  0  0  0
   11.0588    0.2055    0.0000 H   0  0  0  0  0  0  0  0  0  0  0  0
   10.2617    0.2055    0.0000 H   0  0  0  0  0  0  0  0  0  0  0  0
    8.3913   -1.9594    0.0000 H   0  0  0  0  0  0  0  0  0  0  0  0
   10.3503   -5.8064    0.0000 H   0  0  0  0  0  0  0  0  0  0  0  0
   11.1972   -5.5794    0.0000 H   0  0  0  0  0  0  0  0  0  0  0  0
   10.9703   -4.7325    0.0000 H   0  0  0  0  0  0  0  0  0  0  0  0
    8.6182   -4.7325    0.0000 H   0  0  0  0  0  0  0  0  0  0  0  0
    8.3913   -5.5794    0.0000 H   0  0  0  0  0  0  0  0  0  0  0  0
    9.2382   -5.8064    0.0000 H   0  0  0  0  0  0  0  0  0  0  0  0
    1.6900    1.2675    0.0000 H   0  0  0  0  0  0  0  0  0  0  0  0
    1.4631    0.4206    0.0000 H   0  0  0  0  0  0  0  0  0  0  0  0
    2.3100    0.1936    0.0000 H   0  0  0  0  0  0  0  0  0  0  0  0
    3.4860    2.2306    0.0000 H   0  0  0  0  0  0  0  0  0  0  0  0
    2.8660    2.8506    0.0000 H   0  0  0  0  0  0  0  0  0  0  0  0
    2.2460    2.2306    0.0000 H   0  0  0  0  0  0  0  0  0  0  0  0
    7.5252   -5.0794    0.0000 H   0  0  0  0  0  0  0  0  0  0  0  0
   12.9292   -0.5794    0.0000 H   0  0  0  0  0  0  0  0  0  0  0  0
  1 23  2  0  0  0  0
  2 25  2  0  0  0  0
  3 26  2  0  0  0  0
  4 33  2  0  0  0  0
  5 35  2  0  0  0  0
  6 41  1  0  0  0  0
  6 88  1  0  0  0  0
  7 41  2  0  0  0  0
  8 42  1  0  0  0  0
  8 89  1  0  0  0  0
  9 42  2  0  0  0  0
 10 15  1  0  0  0  0
 10 16  1  0  0  0  0
 10 23  1  0  0  0  0
 21 11  1  1  0  0  0
 11 25  1  0  0  0  0
 11 58  1  0  0  0  0
 20 12  1  6  0  0  0
 12 33  1  0  0  0  0
 12 62  1  0  0  0  0
 13 26  1  0  0  0  0
 28 13  1  1  0  0  0
 13 64  1  0  0  0  0
 31 14  1  1  0  0  0
 14 35  1  0  0  0  0
 14 75  1  0  0  0  0
 15 17  1  0  0  0  0
 15 43  1  0  0  0  0
 15 44  1  0  0  0  0
 16 18  1  0  0  0  0
 16 45  1  0  0  0  0
 16 46  1  0  0  0  0
 17 18  1  0  0  0  0
 17 47  1  0  0  0  0
 17 48  1  0  0  0  0
 18 49  1  0  0  0  0
 18 50  1  0  0  0  0
 19 20  1  0  0  0  0
 19 24  1  0  0  0  0
 19 27  1  0  0  0  0
 19 51  1  0  0  0  0
 20 25  1  0  0  0  0
 20 52  1  0  0  0  0
 21 22  1  0  0  0  0
 21 26  1  0  0  0  0
 21 53  1  0  0  0  0
 22 23  1  0  0  0  0
 22 54  1  0  0  0  0
 22 55  1  0  0  0  0
 24 29  1  0  0  0  0
 24 56  1  0  0  0  0
 24 57  1  0  0  0  0
 27 59  1  0  0  0  0
 27 60  1  0  0  0  0
 27 61  1  0  0  0  0
 28 35  1  0  0  0  0
 28 36  1  0  0  0  0
 28 63  1  0  0  0  0
 29 65  1  0  0  0  0
 29 66  1  0  0  0  0
 29 67  1  0  0  0  0
 30 31  1  0  0  0  0
 30 32  1  0  0  0  0
 30 68  1  0  0  0  0
 30 69  1  0  0  0  0
 31 41  1  0  0  0  0
 31 70  1  0  0  0  0
 32 37  1  0  0  0  0
 32 38  1  0  0  0  0
 32 71  1  0  0  0  0
 33 34  1  0  0  0  0
 34 39  1  0  0  0  0
 34 40  1  0  0  0  0
 34 72  1  0  0  0  0
 36 42  1  0  0  0  0
 36 73  1  0  0  0  0
 36 74  1  0  0  0  0
 37 76  1  0  0  0  0
 37 77  1  0  0  0  0
 37 78  1  0  0  0  0
 38 79  1  0  0  0  0
 38 80  1  0  0  0  0
 38 81  1  0  0  0  0
 39 82  1  0  0  0  0
 39 83  1  0  0  0  0
 39 84  1  0  0  0  0
 40 85  1  0  0  0  0
 40 86  1  0  0  0  0
 40 87  1  0  0  0  0
M  END
> <PUBCHEM_COMPOUND_CID>
515349
> <PUBCHEM_COMPOUND_CANONICALIZED>
1
> <PUBCHEM_CACTVS_COMPLEXITY>
994
> <PUBCHEM_CACTVS_HBOND_ACCEPTOR>
9
> <PUBCHEM_CACTVS_HBOND_DONOR>
6
> <PUBCHEM_CACTVS_ROTATABLE_BOND>
17
> <PUBCHEM_CACTVS_SUBSKEYS>
AAADcfB7vAAAAAAAAAAAAAAAAAAAAWAAAAAAAAAAAAAAAAAAAAAAHgAQCAAADSjBgAQCCAPAAgAIAAGQGAAAAAAAAAAAAIGIAAACQBoAwCAUQAAGFgCQAAC/AAAOAAAAAAAAAAAAAAAAAAAAAAAAAAAAAA==
> <PUBCHEM_IUPAC_OPENEYE_NAME>
(2S)-2-[[(2S)-3-carboxy-2-[[(2S)-2-[[(2S)-3-methyl-2-(2-methylpropanoylamino)pentanoyl]amino]-4-oxo-4-pyrrolidin-1-yl-butanoyl]amino]propanoyl]amino]-4-methyl-pentanoic acid
> <PUBCHEM_IUPAC_CAS_NAME>
(2S)-2-[[(2S)-3-carboxy-2-[[(2S)-2-[[(2S)-3-methyl-2-[(2-methyl-1-oxopropyl)amino]-1-oxopentyl]amino]-1,4-dioxo-4-(1-pyrrolidinyl)butyl]amino]-1-oxopropyl]amino]-4-methylpentanoic acid
> <PUBCHEM_IUPAC_NAME_MARKUP>
(2<I>S</I>)-2-[[(2<I>S</I>)-3-carboxy-2-[[(2<I>S</I>)-2-[[(2<I>S</I>)-3-methyl-2-(2-methylpropanoylamino)pentanoyl]amino]-4-oxo-4-pyrrolidin-1-ylbutanoyl]amino]propanoyl]amino]-4-methylpentanoic acid
> <PUBCHEM_IUPAC_NAME>
(2S)-2-[[(2S)-3-carboxy-2-[[(2S)-2-[[(2S)-3-methyl-2-(2-methylpropanoylamino)pentanoyl]amino]-4-oxo-4-pyrrolidin-1-ylbutanoyl]amino]propanoyl]amino]-4-methylpentanoic acid
> <PUBCHEM_IUPAC_SYSTEMATIC_NAME>
(2S)-4-methyl-2-[[(2S)-2-[[(2S)-2-[[(2S)-3-methyl-2-(2-methylpropanoylamino)pentanoyl]amino]-4-oxidanylidene-4-pyrrolidin-1-yl-butanoyl]amino]-4-oxidanyl-4-oxidanylidene-butanoyl]amino]pentanoic acid
> <PUBCHEM_IUPAC_TRADITIONAL_NAME>
(2S)-2-[[(2S)-3-carboxy-2-[[(2S)-2-[[(2S)-2-(isobutyrylamino)-3-methyl-pentanoyl]amino]-4-keto-4-pyrrolidino-butanoyl]amino]propanoyl]amino]-4-methyl-valeric acid
> <PUBCHEM_IUPAC_INCHI>
InChI=1S/C28H47N5O9/c1-7-17(6)23(32-24(37)16(4)5)27(40)30-18(13-21(34)33-10-8-9-11-33)25(38)29-19(14-22(35)36)26(39)31-20(28(41)42)12-15(2)3/h15-20,23H,7-14H2,1-6H3,(H,29,38)(H,30,40)(H,31,39)(H,32,37)(H,35,36)(H,41,42)/t17?,18-,19-,20-,23-/m0/s1
> <PUBCHEM_IUPAC_INCHIKEY>
DWXKCTUFHMDBLQ-PEELRYGYSA-N
> <PUBCHEM_XLOGP3>
1
> <PUBCHEM_EXACT_MASS>
597.33737809
> <PUBCHEM_MOLECULAR_FORMULA>
C28H47N5O9
> <PUBCHEM_MOLECULAR_WEIGHT>
597.7
> <PUBCHEM_OPENEYE_CAN_SMILES>
CCC(C)C(C(=O)NC(CC(=O)N1CCCC1)C(=O)NC(CC(=O)O)C(=O)NC(CC(C)C)C(=O)O)NC(=O)C(C)C
> <PUBCHEM_OPENEYE_ISO_SMILES>
CCC(C)[C@@H](C(=O)N[C@@H](CC(=O)N1CCCC1)C(=O)N[C@@H](CC(=O)O)C(=O)N[C@@H](CC(C)C)C(=O)O)NC(=O)C(C)C
> <PUBCHEM_CACTVS_TPSA>
211
> <PUBCHEM_MONOISOTOPIC_WEIGHT>
597.33737809
> <PUBCHEM_TOTAL_CHARGE>
0
> <PUBCHEM_HEAVY_ATOM_COUNT>
42
> <PUBCHEM_ATOM_DEF_STEREO_COUNT>
4
> <PUBCHEM_ATOM_UDEF_STEREO_COUNT>
1
> <PUBCHEM_BOND_DEF_STEREO_COUNT>
0
> <PUBCHEM_BOND_UDEF_STEREO_COUNT>
0
> <PUBCHEM_ISOTOPIC_ATOM_COUNT>
0
> <PUBCHEM_COMPONENT_COUNT>
1
> <PUBCHEM_CACTVS_TAUTO_COUNT>
-1
> <PUBCHEM_COORDINATE_TYPE>
1
5
255
> <PUBCHEM_BONDANNOTATIONS>
21  11  5
20  12  6
28  13  5
31  14  5
19  27  3
$$$$
