515373
  -OEChem-10302200282D
 99 99  0     1  0  0  0  0  0999 V2000
    7.1962    2.4806    0.0000 O   0  0  0  0  0  0  0  0  0  0  0  0
   10.6603    2.4806    0.0000 O   0  0  0  0  0  0  0  0  0  0  0  0
   10.6603   -4.5194    0.0000 O   0  0  0  0  0  0  0  0  0  0  0  0
    4.5981   -0.0194    0.0000 O   0  0  0  0  0  0  0  0  0  0  0  0
   10.6603    1.4806    0.0000 O   0  0  0  0  0  0  0  0  0  0  0  0
   11.5263   -2.0194    0.0000 O   0  0  0  0  0  0  0  0  0  0  0  0
   13.2583   -0.0194    0.0000 O   0  0  0  0  0  0  0  0  0  0  0  0
   12.3923   -1.5194    0.0000 O   0  0  0  0  0  0  0  0  0  0  0  0
    9.7942    3.9806    0.0000 N   0  0  0  0  0  0  0  0  0  0  0  0
    5.4641    1.4806    0.0000 N   0  0  0  0  0  0  0  0  0  0  0  0
    8.0622    0.9806    0.0000 N   0  0  0  0  0  0  0  0  0  0  0  0
    9.7942   -2.0194    0.0000 N   0  0  0  0  0  0  0  0  0  0  0  0
    9.7942   -0.0194    0.0000 N   0  0  0  0  0  0  0  0  0  0  0  0
    6.3301   -0.0194    0.0000 C   0  0  0  0  0  0  0  0  0  0  0  0
    6.3301    0.9806    0.0000 C   0  0  1  0  0  0  0  0  0  0  0  0
    8.9282   -4.5194    0.0000 C   0  0  0  0  0  0  0  0  0  0  0  0
    8.9282   -3.5194    0.0000 C   0  0  0  0  0  0  0  0  0  0  0  0
    9.7942   -3.0194    0.0000 C   0  0  1  0  0  0  0  0  0  0  0  0
   10.6032    4.5684    0.0000 C   0  0  0  0  0  0  0  0  0  0  0  0
    8.9852    4.5684    0.0000 C   0  0  0  0  0  0  0  0  0  0  0  0
   10.2942    5.5194    0.0000 C   0  0  0  0  0  0  0  0  0  0  0  0
    9.2942    5.5194    0.0000 C   0  0  0  0  0  0  0  0  0  0  0  0
    8.9282    1.4806    0.0000 C   0  0  1  0  0  0  0  0  0  0  0  0
    7.1962    1.4806    0.0000 C   0  0  0  0  0  0  0  0  0  0  0  0
    6.3301   -1.0194    0.0000 C   0  0  0  0  0  0  0  0  0  0  0  0
    5.3301   -0.0194    0.0000 C   0  0  0  0  0  0  0  0  0  0  0  0
    7.3301   -0.0194    0.0000 C   0  0  0  0  0  0  0  0  0  0  0  0
    8.9282    2.4806    0.0000 C   0  0  0  0  0  0  0  0  0  0  0  0
    9.7942    2.9806    0.0000 C   0  0  0  0  0  0  0  0  0  0  0  0
    8.9282   -5.5194    0.0000 C   0  0  0  0  0  0  0  0  0  0  0  0
    7.9282   -4.5194    0.0000 C   0  0  0  0  0  0  0  0  0  0  0  0
    9.9282   -4.5194    0.0000 C   0  0  0  0  0  0  0  0  0  0  0  0
    3.7320    1.4806    0.0000 C   0  0  0  0  0  0  0  0  0  0  0  0
   10.6603   -3.5194    0.0000 C   0  0  0  0  0  0  0  0  0  0  0  0
    4.5981    0.9806    0.0000 C   0  0  0  0  0  0  0  0  0  0  0  0
   10.6603   -0.5194    0.0000 C   0  0  2  0  0  0  0  0  0  0  0  0
    9.7942    0.9806    0.0000 C   0  0  0  0  0  0  0  0  0  0  0  0
   10.6603   -1.5194    0.0000 C   0  0  0  0  0  0  0  0  0  0  0  0
    2.8660    0.9806    0.0000 C   0  0  0  0  0  0  0  0  0  0  0  0
    3.7320    2.4806    0.0000 C   0  0  0  0  0  0  0  0  0  0  0  0
   11.5263   -0.0194    0.0000 C   0  0  0  0  0  0  0  0  0  0  0  0
    2.0000    1.4806    0.0000 C   0  0  0  0  0  0  0  0  0  0  0  0
    2.8660    2.9806    0.0000 C   0  0  0  0  0  0  0  0  0  0  0  0
   12.3923   -0.5194    0.0000 C   0  0  0  0  0  0  0  0  0  0  0  0
    5.7932    0.6706    0.0000 H   0  0  0  0  0  0  0  0  0  0  0  0
    8.7162   -2.9368    0.0000 H   0  0  0  0  0  0  0  0  0  0  0  0
    8.3176   -3.6271    0.0000 H   0  0  0  0  0  0  0  0  0  0  0  0
    9.2573   -2.7094    0.0000 H   0  0  0  0  0  0  0  0  0  0  0  0
   10.9132    4.0314    0.0000 H   0  0  0  0  0  0  0  0  0  0  0  0
   11.1696    4.8205    0.0000 H   0  0  0  0  0  0  0  0  0  0  0  0
    8.4188    4.8205    0.0000 H   0  0  0  0  0  0  0  0  0  0  0  0
    8.6752    4.0314    0.0000 H   0  0  0  0  0  0  0  0  0  0  0  0
   10.9007    5.6483    0.0000 H   0  0  0  0  0  0  0  0  0  0  0  0
   10.2294    6.1360    0.0000 H   0  0  0  0  0  0  0  0  0  0  0  0
    9.3590    6.1360    0.0000 H   0  0  0  0  0  0  0  0  0  0  0  0
    8.6878    5.6483    0.0000 H   0  0  0  0  0  0  0  0  0  0  0  0
    8.9282    0.8606    0.0000 H   0  0  0  0  0  0  0  0  0  0  0  0
    5.7101   -1.0194    0.0000 H   0  0  0  0  0  0  0  0  0  0  0  0
    6.3301   -1.6394    0.0000 H   0  0  0  0  0  0  0  0  0  0  0  0
    6.9501   -1.0194    0.0000 H   0  0  0  0  0  0  0  0  0  0  0  0
    5.3301    0.6006    0.0000 H   0  0  0  0  0  0  0  0  0  0  0  0
    4.7101   -0.0194    0.0000 H   0  0  0  0  0  0  0  0  0  0  0  0
    5.3301   -0.6394    0.0000 H   0  0  0  0  0  0  0  0  0  0  0  0
    7.3301   -0.6394    0.0000 H   0  0  0  0  0  0  0  0  0  0  0  0
    7.9501   -0.0194    0.0000 H   0  0  0  0  0  0  0  0  0  0  0  0
    7.3301    0.6006    0.0000 H   0  0  0  0  0  0  0  0  0  0  0  0
    8.7162    3.0632    0.0000 H   0  0  0  0  0  0  0  0  0  0  0  0
    8.3176    2.3729    0.0000 H   0  0  0  0  0  0  0  0  0  0  0  0
    5.4641    2.1006    0.0000 H   0  0  0  0  0  0  0  0  0  0  0  0
    8.0622    0.3606    0.0000 H   0  0  0  0  0  0  0  0  0  0  0  0
    8.3082   -5.5194    0.0000 H   0  0  0  0  0  0  0  0  0  0  0  0
    8.9282   -6.1394    0.0000 H   0  0  0  0  0  0  0  0  0  0  0  0
    9.5482   -5.5194    0.0000 H   0  0  0  0  0  0  0  0  0  0  0  0
    7.9282   -3.8994    0.0000 H   0  0  0  0  0  0  0  0  0  0  0  0
    7.3082   -4.5194    0.0000 H   0  0  0  0  0  0  0  0  0  0  0  0
    7.9282   -5.1394    0.0000 H   0  0  0  0  0  0  0  0  0  0  0  0
    9.9282   -5.1394    0.0000 H   0  0  0  0  0  0  0  0  0  0  0  0
   10.5482   -4.5194    0.0000 H   0  0  0  0  0  0  0  0  0  0  0  0
    9.9282   -3.8994    0.0000 H   0  0  0  0  0  0  0  0  0  0  0  0
    3.7320    0.8606    0.0000 H   0  0  0  0  0  0  0  0  0  0  0  0
    9.2573   -1.7094    0.0000 H   0  0  0  0  0  0  0  0  0  0  0  0
   11.2708   -3.6271    0.0000 H   0  0  0  0  0  0  0  0  0  0  0  0
   10.8723   -2.9368    0.0000 H   0  0  0  0  0  0  0  0  0  0  0  0
   10.6603    0.1006    0.0000 H   0  0  0  0  0  0  0  0  0  0  0  0
    9.2573   -0.3294    0.0000 H   0  0  0  0  0  0  0  0  0  0  0  0
    2.4675    0.5056    0.0000 H   0  0  0  0  0  0  0  0  0  0  0  0
    3.2646    0.5056    0.0000 H   0  0  0  0  0  0  0  0  0  0  0  0
    4.3426    2.3729    0.0000 H   0  0  0  0  0  0  0  0  0  0  0  0
    3.9441    3.0632    0.0000 H   0  0  0  0  0  0  0  0  0  0  0  0
   11.9248    0.4555    0.0000 H   0  0  0  0  0  0  0  0  0  0  0  0
   11.1278    0.4555    0.0000 H   0  0  0  0  0  0  0  0  0  0  0  0
    2.3100    2.0175    0.0000 H   0  0  0  0  0  0  0  0  0  0  0  0
    1.4631    1.7906    0.0000 H   0  0  0  0  0  0  0  0  0  0  0  0
    1.6900    0.9436    0.0000 H   0  0  0  0  0  0  0  0  0  0  0  0
    3.1760    3.5175    0.0000 H   0  0  0  0  0  0  0  0  0  0  0  0
    2.3291    3.2906    0.0000 H   0  0  0  0  0  0  0  0  0  0  0  0
    2.5560    2.4436    0.0000 H   0  0  0  0  0  0  0  0  0  0  0  0
   11.1972   -4.8294    0.0000 H   0  0  0  0  0  0  0  0  0  0  0  0
   13.7953   -0.3294    0.0000 H   0  0  0  0  0  0  0  0  0  0  0  0
  1 24  2  0  0  0  0
  2 29  2  0  0  0  0
  3 34  1  0  0  0  0
  3 98  1  0  0  0  0
  4 35  2  0  0  0  0
  5 37  2  0  0  0  0
  6 38  2  0  0  0  0
  7 44  1  0  0  0  0
  7 99  1  0  0  0  0
  8 44  2  0  0  0  0
  9 19  1  0  0  0  0
  9 20  1  0  0  0  0
  9 29  1  0  0  0  0
 15 10  1  6  0  0  0
 10 35  1  0  0  0  0
 10 69  1  0  0  0  0
 23 11  1  1  0  0  0
 11 24  1  0  0  0  0
 11 70  1  0  0  0  0
 18 12  1  6  0  0  0
 12 38  1  0  0  0  0
 12 81  1  0  0  0  0
 36 13  1  1  0  0  0
 13 37  1  0  0  0  0
 13 85  1  0  0  0  0
 14 15  1  0  0  0  0
 14 25  1  0  0  0  0
 14 26  1  0  0  0  0
 14 27  1  0  0  0  0
 15 24  1  0  0  0  0
 15 45  1  0  0  0  0
 16 17  1  0  0  0  0
 16 30  1  0  0  0  0
 16 31  1  0  0  0  0
 16 32  1  0  0  0  0
 17 18  1  0  0  0  0
 17 46  1  0  0  0  0
 17 47  1  0  0  0  0
 18 34  1  0  0  0  0
 18 48  1  0  0  0  0
 19 21  1  0  0  0  0
 19 49  1  0  0  0  0
 19 50  1  0  0  0  0
 20 22  1  0  0  0  0
 20 51  1  0  0  0  0
 20 52  1  0  0  0  0
 21 22  1  0  0  0  0
 21 53  1  0  0  0  0
 21 54  1  0  0  0  0
 22 55  1  0  0  0  0
 22 56  1  0  0  0  0
 23 28  1  0  0  0  0
 23 37  1  0  0  0  0
 23 57  1  0  0  0  0
 25 58  1  0  0  0  0
 25 59  1  0  0  0  0
 25 60  1  0  0  0  0
 26 61  1  0  0  0  0
 26 62  1  0  0  0  0
 26 63  1  0  0  0  0
 27 64  1  0  0  0  0
 27 65  1  0  0  0  0
 27 66  1  0  0  0  0
 28 29  1  0  0  0  0
 28 67  1  0  0  0  0
 28 68  1  0  0  0  0
 30 71  1  0  0  0  0
 30 72  1  0  0  0  0
 30 73  1  0  0  0  0
 31 74  1  0  0  0  0
 31 75  1  0  0  0  0
 31 76  1  0  0  0  0
 32 77  1  0  0  0  0
 32 78  1  0  0  0  0
 32 79  1  0  0  0  0
 33 35  1  0  0  0  0
 33 39  1  0  0  0  0
 33 40  1  0  0  0  0
 33 80  1  0  0  0  0
 34 82  1  0  0  0  0
 34 83  1  0  0  0  0
 36 38  1  0  0  0  0
 36 41  1  0  0  0  0
 36 84  1  0  0  0  0
 39 42  1  0  0  0  0
 39 86  1  0  0  0  0
 39 87  1  0  0  0  0
 40 43  1  0  0  0  0
 40 88  1  0  0  0  0
 40 89  1  0  0  0  0
 41 44  1  0  0  0  0
 41 90  1  0  0  0  0
 41 91  1  0  0  0  0
 42 92  1  0  0  0  0
 42 93  1  0  0  0  0
 42 94  1  0  0  0  0
 43 95  1  0  0  0  0
 43 96  1  0  0  0  0
 43 97  1  0  0  0  0
M  END
> <PUBCHEM_COMPOUND_CID>
515373
> <PUBCHEM_COMPOUND_CANONICALIZED>
1
> <PUBCHEM_CACTVS_COMPLEXITY>
1010
> <PUBCHEM_CACTVS_HBOND_ACCEPTOR>
8
> <PUBCHEM_CACTVS_HBOND_DONOR>
6
> <PUBCHEM_CACTVS_ROTATABLE_BOND>
18
> <PUBCHEM_CACTVS_SUBSKEYS>
AAADcfB7vAAAAAAAAAAAAAAAAAAAAWAAAAAAAAAAAAAAAAAAAAAAHgAQCAAADyjhgAYCCAPAAgAIAAGQGAAAAAAAAAAAAIGIAAACUBoAwCAUQAAGFgCQAACnAAAPAAAAAAAAAAAAAAAAAAAAAAAAAAAAAA==
> <PUBCHEM_IUPAC_OPENEYE_NAME>
(3S)-3-[[(2S)-2-[[(2S)-2-(2-ethylbutanoylamino)-3,3-dimethyl-butanoyl]amino]-4-oxo-4-pyrrolidin-1-yl-butanoyl]amino]-4-[[(1S)-1-(hydroxymethyl)-3,3-dimethyl-butyl]amino]-4-oxo-butanoic acid
> <PUBCHEM_IUPAC_CAS_NAME>
(3S)-3-[[(2S)-2-[[(2S)-2-[(2-ethyl-1-oxobutyl)amino]-3,3-dimethyl-1-oxobutyl]amino]-1,4-dioxo-4-(1-pyrrolidinyl)butyl]amino]-4-[[(2S)-1-hydroxy-4,4-dimethylpentan-2-yl]amino]-4-oxobutanoic acid
> <PUBCHEM_IUPAC_NAME_MARKUP>
(3<I>S</I>)-3-[[(2<I>S</I>)-2-[[(2<I>S</I>)-2-(2-ethylbutanoylamino)-3,3-dimethylbutanoyl]amino]-4-oxo-4-pyrrolidin-1-ylbutanoyl]amino]-4-[[(2<I>S</I>)-1-hydroxy-4,4-dimethylpentan-2-yl]amino]-4-oxobutanoic acid
> <PUBCHEM_IUPAC_NAME>
(3S)-3-[[(2S)-2-[[(2S)-2-(2-ethylbutanoylamino)-3,3-dimethylbutanoyl]amino]-4-oxo-4-pyrrolidin-1-ylbutanoyl]amino]-4-[[(2S)-1-hydroxy-4,4-dimethylpentan-2-yl]amino]-4-oxobutanoic acid
> <PUBCHEM_IUPAC_SYSTEMATIC_NAME>
(3S)-4-[[(2S)-4,4-dimethyl-1-oxidanyl-pentan-2-yl]amino]-3-[[(2S)-2-[[(2S)-2-(2-ethylbutanoylamino)-3,3-dimethyl-butanoyl]amino]-4-oxidanylidene-4-pyrrolidin-1-yl-butanoyl]amino]-4-oxidanylidene-butanoic acid
> <PUBCHEM_IUPAC_TRADITIONAL_NAME>
(3S)-4-[[(1S)-3,3-dimethyl-1-methylol-butyl]amino]-3-[[(2S)-2-[[(2S)-2-(2-ethylbutanoylamino)-3,3-dimethyl-butanoyl]amino]-4-keto-4-pyrrolidino-butanoyl]amino]-4-keto-butyric acid
> <PUBCHEM_IUPAC_INCHI>
InChI=1S/C31H55N5O8/c1-9-19(10-2)26(41)35-25(31(6,7)8)29(44)34-21(15-23(38)36-13-11-12-14-36)28(43)33-22(16-24(39)40)27(42)32-20(18-37)17-30(3,4)5/h19-22,25,37H,9-18H2,1-8H3,(H,32,42)(H,33,43)(H,34,44)(H,35,41)(H,39,40)/t20-,21-,22-,25+/m0/s1
> <PUBCHEM_IUPAC_INCHIKEY>
FRGLXCLYMCTBIK-DEJKCJRPSA-N
> <PUBCHEM_XLOGP3_AA>
2
> <PUBCHEM_EXACT_MASS>
625.40506373
> <PUBCHEM_MOLECULAR_FORMULA>
C31H55N5O8
> <PUBCHEM_MOLECULAR_WEIGHT>
625.8
> <PUBCHEM_OPENEYE_CAN_SMILES>
CCC(CC)C(=O)NC(C(=O)NC(CC(=O)N1CCCC1)C(=O)NC(CC(=O)O)C(=O)NC(CC(C)(C)C)CO)C(C)(C)C
> <PUBCHEM_OPENEYE_ISO_SMILES>
CCC(CC)C(=O)N[C@H](C(=O)N[C@@H](CC(=O)N1CCCC1)C(=O)N[C@@H](CC(=O)O)C(=O)N[C@@H](CC(C)(C)C)CO)C(C)(C)C
> <PUBCHEM_CACTVS_TPSA>
194
> <PUBCHEM_MONOISOTOPIC_WEIGHT>
625.40506373
> <PUBCHEM_TOTAL_CHARGE>
0
> <PUBCHEM_HEAVY_ATOM_COUNT>
44
> <PUBCHEM_ATOM_DEF_STEREO_COUNT>
4
> <PUBCHEM_ATOM_UDEF_STEREO_COUNT>
0
> <PUBCHEM_BOND_DEF_STEREO_COUNT>
0
> <PUBCHEM_BOND_UDEF_STEREO_COUNT>
0
> <PUBCHEM_ISOTOPIC_ATOM_COUNT>
0
> <PUBCHEM_COMPONENT_COUNT>
1
> <PUBCHEM_CACTVS_TAUTO_COUNT>
-1
> <PUBCHEM_COORDINATE_TYPE>
1
5
255
> <PUBCHEM_BONDANNOTATIONS>
15  10  6
23  11  5
18  12  6
36  13  5
$$$$
