515405
  -OEChem-10302200282D
 64 68  0     1  0  0  0  0  0999 V2000
   15.9845    1.2878    0.0000 O   0  0  0  0  0  0  0  0  0  0  0  0
    2.0038    1.2878    0.0000 O   0  0  0  0  0  0  0  0  0  0  0  0
    8.9942   -1.7498    0.0000 O   0  0  0  0  0  0  0  0  0  0  0  0
   12.5205    1.2744    0.0000 O   0  0  0  0  0  0  0  0  0  0  0  0
    5.4679    1.2744    0.0000 O   0  0  0  0  0  0  0  0  0  0  0  0
   14.2564    0.2811    0.0000 N   0  0  0  0  0  0  0  0  0  0  0  0
    3.7320    0.2811    0.0000 N   0  0  0  0  0  0  0  0  0  0  0  0
   13.3923   -0.2223    0.0000 C   0  0  0  0  0  0  0  0  0  0  0  0
    4.5961   -0.2223    0.0000 C   0  0  0  0  0  0  0  0  0  0  0  0
   12.5243    0.2744    0.0000 C   0  0  3  0  0  0  0  0  0  0  0  0
    5.4641    0.2744    0.0000 C   0  0  3  0  0  0  0  0  0  0  0  0
   14.2525    1.2811    0.0000 C   0  0  0  0  0  0  0  0  0  0  0  0
   15.1243   -0.2156    0.0000 C   0  0  0  0  0  0  0  0  0  0  0  0
    3.7359    1.2811    0.0000 C   0  0  0  0  0  0  0  0  0  0  0  0
    2.8641   -0.2156    0.0000 C   0  0  0  0  0  0  0  0  0  0  0  0
    8.9942    0.2503    0.0000 C   0  0  0  0  0  0  0  0  0  0  0  0
   11.6602   -0.2289    0.0000 C   0  0  0  0  0  0  0  0  0  0  0  0
    6.3282   -0.2289    0.0000 C   0  0  0  0  0  0  0  0  0  0  0  0
    9.8602   -0.2497    0.0000 C   0  0  0  0  0  0  0  0  0  0  0  0
    8.1282   -0.2497    0.0000 C   0  0  0  0  0  0  0  0  0  0  0  0
   15.1166    1.7844    0.0000 C   0  0  0  0  0  0  0  0  0  0  0  0
   15.9884    0.2878    0.0000 C   0  0  0  0  0  0  0  0  0  0  0  0
    2.8718    1.7844    0.0000 C   0  0  0  0  0  0  0  0  0  0  0  0
    2.0000    0.2878    0.0000 C   0  0  0  0  0  0  0  0  0  0  0  0
   10.7542    0.2849    0.0000 C   0  0  0  0  0  0  0  0  0  0  0  0
    7.2342    0.2849    0.0000 C   0  0  0  0  0  0  0  0  0  0  0  0
    9.8602   -1.2498    0.0000 C   0  0  0  0  0  0  0  0  0  0  0  0
    8.1282   -1.2498    0.0000 C   0  0  0  0  0  0  0  0  0  0  0  0
   11.6602   -1.2706    0.0000 C   0  0  0  0  0  0  0  0  0  0  0  0
    6.3282   -1.2706    0.0000 C   0  0  0  0  0  0  0  0  0  0  0  0
   10.7542   -1.7844    0.0000 C   0  0  0  0  0  0  0  0  0  0  0  0
    7.2342   -1.7844    0.0000 C   0  0  0  0  0  0  0  0  0  0  0  0
   12.9956   -0.6987    0.0000 H   0  0  0  0  0  0  0  0  0  0  0  0
   13.7926   -0.6957    0.0000 H   0  0  0  0  0  0  0  0  0  0  0  0
    4.1958   -0.6957    0.0000 H   0  0  0  0  0  0  0  0  0  0  0  0
    4.9928   -0.6987    0.0000 H   0  0  0  0  0  0  0  0  0  0  0  0
   11.9862    0.5823    0.0000 H   0  0  0  0  0  0  0  0  0  0  0  0
    6.0022    0.5823    0.0000 H   0  0  0  0  0  0  0  0  0  0  0  0
   14.0382    1.8629    0.0000 H   0  0  0  0  0  0  0  0  0  0  0  0
   13.6424    1.1711    0.0000 H   0  0  0  0  0  0  0  0  0  0  0  0
   14.7276   -0.6921    0.0000 H   0  0  0  0  0  0  0  0  0  0  0  0
   15.5247   -0.6890    0.0000 H   0  0  0  0  0  0  0  0  0  0  0  0
    4.3460    1.1711    0.0000 H   0  0  0  0  0  0  0  0  0  0  0  0
    3.9502    1.8629    0.0000 H   0  0  0  0  0  0  0  0  0  0  0  0
    2.4637   -0.6890    0.0000 H   0  0  0  0  0  0  0  0  0  0  0  0
    3.2608   -0.6921    0.0000 H   0  0  0  0  0  0  0  0  0  0  0  0
    9.3927    0.7252    0.0000 H   0  0  0  0  0  0  0  0  0  0  0  0
    8.5957    0.7252    0.0000 H   0  0  0  0  0  0  0  0  0  0  0  0
   15.5133    2.2609    0.0000 H   0  0  0  0  0  0  0  0  0  0  0  0
   14.7162    2.2578    0.0000 H   0  0  0  0  0  0  0  0  0  0  0  0
   16.2027   -0.2940    0.0000 H   0  0  0  0  0  0  0  0  0  0  0  0
   16.5986    0.3978    0.0000 H   0  0  0  0  0  0  0  0  0  0  0  0
    3.2722    2.2578    0.0000 H   0  0  0  0  0  0  0  0  0  0  0  0
    2.4751    2.2609    0.0000 H   0  0  0  0  0  0  0  0  0  0  0  0
    1.3898    0.3978    0.0000 H   0  0  0  0  0  0  0  0  0  0  0  0
    1.7857   -0.2940    0.0000 H   0  0  0  0  0  0  0  0  0  0  0  0
   10.7470    0.9049    0.0000 H   0  0  0  0  0  0  0  0  0  0  0  0
    7.2414    0.9049    0.0000 H   0  0  0  0  0  0  0  0  0  0  0  0
   12.1960   -1.5826    0.0000 H   0  0  0  0  0  0  0  0  0  0  0  0
    5.7924   -1.5826    0.0000 H   0  0  0  0  0  0  0  0  0  0  0  0
   10.7470   -2.4044    0.0000 H   0  0  0  0  0  0  0  0  0  0  0  0
    7.2414   -2.4044    0.0000 H   0  0  0  0  0  0  0  0  0  0  0  0
   11.9823    1.5823    0.0000 H   0  0  0  0  0  0  0  0  0  0  0  0
    6.0061    1.5823    0.0000 H   0  0  0  0  0  0  0  0  0  0  0  0
  1 21  1  0  0  0  0
  1 22  1  0  0  0  0
  2 23  1  0  0  0  0
  2 24  1  0  0  0  0
  3 27  1  0  0  0  0
  3 28  1  0  0  0  0
  4 10  1  0  0  0  0
  4 63  1  0  0  0  0
  5 11  1  0  0  0  0
  5 64  1  0  0  0  0
  6  8  1  0  0  0  0
  6 12  1  0  0  0  0
  6 13  1  0  0  0  0
  7  9  1  0  0  0  0
  7 14  1  0  0  0  0
  7 15  1  0  0  0  0
  8 10  1  0  0  0  0
  8 33  1  0  0  0  0
  8 34  1  0  0  0  0
  9 11  1  0  0  0  0
  9 35  1  0  0  0  0
  9 36  1  0  0  0  0
 10 17  1  0  0  0  0
 10 37  1  0  0  0  0
 11 18  1  0  0  0  0
 11 38  1  0  0  0  0
 12 21  1  0  0  0  0
 12 39  1  0  0  0  0
 12 40  1  0  0  0  0
 13 22  1  0  0  0  0
 13 41  1  0  0  0  0
 13 42  1  0  0  0  0
 14 23  1  0  0  0  0
 14 43  1  0  0  0  0
 14 44  1  0  0  0  0
 15 24  1  0  0  0  0
 15 45  1  0  0  0  0
 15 46  1  0  0  0  0
 16 19  1  0  0  0  0
 16 20  1  0  0  0  0
 16 47  1  0  0  0  0
 16 48  1  0  0  0  0
 17 25  2  0  0  0  0
 17 29  1  0  0  0  0
 18 26  2  0  0  0  0
 18 30  1  0  0  0  0
 19 25  1  0  0  0  0
 19 27  2  0  0  0  0
 20 26  1  0  0  0  0
 20 28  2  0  0  0  0
 21 49  1  0  0  0  0
 21 50  1  0  0  0  0
 22 51  1  0  0  0  0
 22 52  1  0  0  0  0
 23 53  1  0  0  0  0
 23 54  1  0  0  0  0
 24 55  1  0  0  0  0
 24 56  1  0  0  0  0
 25 57  1  0  0  0  0
 26 58  1  0  0  0  0
 27 31  1  0  0  0  0
 28 32  1  0  0  0  0
 29 31  2  0  0  0  0
 29 59  1  0  0  0  0
 30 32  2  0  0  0  0
 30 60  1  0  0  0  0
 31 61  1  0  0  0  0
 32 62  1  0  0  0  0
M  END
> <PUBCHEM_COMPOUND_CID>
515405
> <PUBCHEM_COMPOUND_CANONICALIZED>
1
> <PUBCHEM_CACTVS_COMPLEXITY>
535
> <PUBCHEM_CACTVS_HBOND_ACCEPTOR>
7
> <PUBCHEM_CACTVS_HBOND_DONOR>
2
> <PUBCHEM_CACTVS_ROTATABLE_BOND>
6
> <PUBCHEM_CACTVS_SUBSKEYS>
AAADcfB7OAAAAAAAAAAAAAAAAAAAAAAAAAA8eJECAAAAAACRQAAAHgAACAAADBThmAYwBoMABgCAAiBCAAACCAAgIAAIiAAOCIgONiKEsRuHeCCkwBGYuAeQ4OwOIAACAAAIAABAAAQAABAAAAAAAAAAAA==
> <PUBCHEM_IUPAC_OPENEYE_NAME>
1-[7-(1-hydroxy-2-morpholino-ethyl)-9H-xanthen-2-yl]-2-morpholino-ethanol
> <PUBCHEM_IUPAC_CAS_NAME>
1-[7-[1-hydroxy-2-(4-morpholinyl)ethyl]-9H-xanthen-2-yl]-2-(4-morpholinyl)ethanol
> <PUBCHEM_IUPAC_NAME_MARKUP>
1-[7-(1-hydroxy-2-morpholin-4-ylethyl)-9<I>H</I>-xanthen-2-yl]-2-morpholin-4-ylethanol
> <PUBCHEM_IUPAC_NAME>
1-[7-(1-hydroxy-2-morpholin-4-ylethyl)-9H-xanthen-2-yl]-2-morpholin-4-ylethanol
> <PUBCHEM_IUPAC_SYSTEMATIC_NAME>
2-morpholin-4-yl-1-[7-(2-morpholin-4-yl-1-oxidanyl-ethyl)-9H-xanthen-2-yl]ethanol
> <PUBCHEM_IUPAC_TRADITIONAL_NAME>
1-[7-(1-hydroxy-2-morpholino-ethyl)-9H-xanthen-2-yl]-2-morpholino-ethanol
> <PUBCHEM_IUPAC_INCHI>
InChI=1S/C25H32N2O5/c28-22(16-26-5-9-30-10-6-26)18-1-3-24-20(13-18)15-21-14-19(2-4-25(21)32-24)23(29)17-27-7-11-31-12-8-27/h1-4,13-14,22-23,28-29H,5-12,15-17H2
> <PUBCHEM_IUPAC_INCHIKEY>
CUEHJUIRMPOHCU-UHFFFAOYSA-N
> <PUBCHEM_XLOGP3_AA>
1.1
> <PUBCHEM_EXACT_MASS>
440.23112213
> <PUBCHEM_MOLECULAR_FORMULA>
C25H32N2O5
> <PUBCHEM_MOLECULAR_WEIGHT>
440.5
> <PUBCHEM_OPENEYE_CAN_SMILES>
C1COCCN1CC(C2=CC3=C(C=C2)OC4=C(C3)C=C(C=C4)C(CN5CCOCC5)O)O
> <PUBCHEM_OPENEYE_ISO_SMILES>
C1COCCN1CC(C2=CC3=C(C=C2)OC4=C(C3)C=C(C=C4)C(CN5CCOCC5)O)O
> <PUBCHEM_CACTVS_TPSA>
74.6
> <PUBCHEM_MONOISOTOPIC_WEIGHT>
440.23112213
> <PUBCHEM_TOTAL_CHARGE>
0
> <PUBCHEM_HEAVY_ATOM_COUNT>
32
> <PUBCHEM_ATOM_DEF_STEREO_COUNT>
0
> <PUBCHEM_ATOM_UDEF_STEREO_COUNT>
2
> <PUBCHEM_BOND_DEF_STEREO_COUNT>
0
> <PUBCHEM_BOND_UDEF_STEREO_COUNT>
0
> <PUBCHEM_ISOTOPIC_ATOM_COUNT>
0
> <PUBCHEM_COMPONENT_COUNT>
1
> <PUBCHEM_CACTVS_TAUTO_COUNT>
-1
> <PUBCHEM_COORDINATE_TYPE>
1
5
255
> <PUBCHEM_BONDANNOTATIONS>
17  25  8
17  29  8
18  26  8
18  30  8
19  25  8
19  27  8
20  26  8
20  28  8
27  31  8
28  32  8
29  31  8
30  32  8
10  4  3
11  5  3
$$$$
