515622
  -OEChem-10302200282D
 21 21  0     1  0  0  0  0  0999 V2000
    2.0000   -0.3601    0.0000 O   0  0  0  0  0  0  0  0  0  0  0  0
    5.7281   -1.3383    0.0000 O   0  0  0  0  0  0  0  0  0  0  0  0
    3.7601   -0.6389    0.0000 N   0  0  0  0  0  0  0  0  0  0  0  0
    6.2633    0.3090    0.0000 N   0  0  0  0  0  0  0  0  0  0  0  0
    8.7006    1.3383    0.0000 N   0  0  0  0  0  0  0  0  0  0  0  0
    4.5691   -0.0511    0.0000 C   0  0  3  0  0  0  0  0  0  0  0  0
    4.2601    0.9000    0.0000 C   0  0  0  0  0  0  0  0  0  0  0  0
    3.2601    0.9000    0.0000 C   0  0  0  0  0  0  0  0  0  0  0  0
    2.9511   -0.0511    0.0000 C   0  0  0  0  0  0  0  0  0  0  0  0
    5.5202   -0.3601    0.0000 C   0  0  0  0  0  0  0  0  0  0  0  0
    7.2144    0.0000    0.0000 C   0  0  0  0  0  0  0  0  0  0  0  0
    7.9575    0.6691    0.0000 C   0  0  0  0  0  0  0  0  0  0  0  0
    4.6661   -0.6635    0.0000 H   0  0  0  0  0  0  0  0  0  0  0  0
    4.8665    1.0289    0.0000 H   0  0  0  0  0  0  0  0  0  0  0  0
    4.1953    1.5166    0.0000 H   0  0  0  0  0  0  0  0  0  0  0  0
    3.3249    1.5166    0.0000 H   0  0  0  0  0  0  0  0  0  0  0  0
    2.6536    1.0289    0.0000 H   0  0  0  0  0  0  0  0  0  0  0  0
    3.7601   -1.2589    0.0000 H   0  0  0  0  0  0  0  0  0  0  0  0
    6.1344    0.9155    0.0000 H   0  0  0  0  0  0  0  0  0  0  0  0
    6.9233   -0.5474    0.0000 H   0  0  0  0  0  0  0  0  0  0  0  0
    7.7029   -0.3817    0.0000 H   0  0  0  0  0  0  0  0  0  0  0  0
  1  9  2  0  0  0  0
  2 10  2  0  0  0  0
  3  6  1  0  0  0  0
  3  9  1  0  0  0  0
  3 18  1  0  0  0  0
  4 10  1  0  0  0  0
  4 11  1  0  0  0  0
  4 19  1  0  0  0  0
  5 12  3  0  0  0  0
  6  7  1  0  0  0  0
  6 10  1  0  0  0  0
  6 13  1  0  0  0  0
  7  8  1  0  0  0  0
  7 14  1  0  0  0  0
  7 15  1  0  0  0  0
  8  9  1  0  0  0  0
  8 16  1  0  0  0  0
  8 17  1  0  0  0  0
 11 12  1  0  0  0  0
 11 20  1  0  0  0  0
 11 21  1  0  0  0  0
M  END
> <PUBCHEM_COMPOUND_CID>
515622
> <PUBCHEM_COMPOUND_CANONICALIZED>
1
> <PUBCHEM_CACTVS_COMPLEXITY>
253
> <PUBCHEM_CACTVS_HBOND_ACCEPTOR>
3
> <PUBCHEM_CACTVS_HBOND_DONOR>
2
> <PUBCHEM_CACTVS_ROTATABLE_BOND>
2
> <PUBCHEM_CACTVS_SUBSKEYS>
AAADccBjMAAAAAAAAAAAAAAAAAAAAWAAAAAAAAAAAAAAAAAAAAAAHgAQAAAACCjBgAQAAALAAAAYBAEQEAAAAAAAAAAAAIGIAAAAQBIAgCAUAAAAFgCAAAAcAwAAAAAAAAAAAAAAAAAAAAAAAAAAAAAAAA==
> <PUBCHEM_IUPAC_OPENEYE_NAME>
N-(cyanomethyl)-5-oxo-pyrrolidine-2-carboxamide
> <PUBCHEM_IUPAC_CAS_NAME>
N-(cyanomethyl)-5-oxo-2-pyrrolidinecarboxamide
> <PUBCHEM_IUPAC_NAME_MARKUP>
<I>N</I>-(cyanomethyl)-5-oxopyrrolidine-2-carboxamide
> <PUBCHEM_IUPAC_NAME>
N-(cyanomethyl)-5-oxopyrrolidine-2-carboxamide
> <PUBCHEM_IUPAC_SYSTEMATIC_NAME>
N-(cyanomethyl)-5-oxidanylidene-pyrrolidine-2-carboxamide
> <PUBCHEM_IUPAC_TRADITIONAL_NAME>
N-(cyanomethyl)-5-keto-pyrrolidine-2-carboxamide
> <PUBCHEM_IUPAC_INCHI>
InChI=1S/C7H9N3O2/c8-3-4-9-7(12)5-1-2-6(11)10-5/h5H,1-2,4H2,(H,9,12)(H,10,11)
> <PUBCHEM_IUPAC_INCHIKEY>
FYCHIMHKWHKPSA-UHFFFAOYSA-N
> <PUBCHEM_XLOGP3_AA>
-1.2
> <PUBCHEM_EXACT_MASS>
167.069476538
> <PUBCHEM_MOLECULAR_FORMULA>
C7H9N3O2
> <PUBCHEM_MOLECULAR_WEIGHT>
167.17
> <PUBCHEM_OPENEYE_CAN_SMILES>
C1CC(=O)NC1C(=O)NCC#N
> <PUBCHEM_OPENEYE_ISO_SMILES>
C1CC(=O)NC1C(=O)NCC#N
> <PUBCHEM_CACTVS_TPSA>
82
> <PUBCHEM_MONOISOTOPIC_WEIGHT>
167.069476538
> <PUBCHEM_TOTAL_CHARGE>
0
> <PUBCHEM_HEAVY_ATOM_COUNT>
12
> <PUBCHEM_ATOM_DEF_STEREO_COUNT>
0
> <PUBCHEM_ATOM_UDEF_STEREO_COUNT>
1
> <PUBCHEM_BOND_DEF_STEREO_COUNT>
0
> <PUBCHEM_BOND_UDEF_STEREO_COUNT>
0
> <PUBCHEM_ISOTOPIC_ATOM_COUNT>
0
> <PUBCHEM_COMPONENT_COUNT>
1
> <PUBCHEM_CACTVS_TAUTO_COUNT>
-1
> <PUBCHEM_COORDINATE_TYPE>
1
5
255
> <PUBCHEM_BONDANNOTATIONS>
6  10  3
$$$$
