515635
  -OEChem-10302200282D
 32 32  0     1  0  0  0  0  0999 V2000
    6.8671   -1.3450    0.0000 O   0  0  0  0  0  0  0  0  0  0  0  0
    8.5991   -0.3450    0.0000 N   0  0  0  0  0  0  0  0  0  0  0  0
    6.0010    0.1550    0.0000 N   0  0  0  0  0  0  0  0  0  0  0  0
   10.3312   -0.3450    0.0000 N   0  0  0  0  0  0  0  0  0  0  0  0
    2.5369    0.1550    0.0000 N   0  0  0  0  0  0  0  0  0  0  0  0
    3.4030   -1.3450    0.0000 N   0  0  0  0  0  0  0  0  0  0  0  0
    7.7331    1.1550    0.0000 C   0  0  0  0  0  0  0  0  0  0  0  0
    7.7331    0.1550    0.0000 C   0  0  3  0  0  0  0  0  0  0  0  0
    8.5991    1.6550    0.0000 C   0  0  0  0  0  0  0  0  0  0  0  0
    9.4651    1.1550    0.0000 C   0  0  0  0  0  0  0  0  0  0  0  0
    9.4651    0.1550    0.0000 C   0  0  0  0  0  0  0  0  0  0  0  0
    6.8671   -0.3450    0.0000 C   0  0  0  0  0  0  0  0  0  0  0  0
    5.1350   -0.3450    0.0000 C   0  0  0  0  0  0  0  0  0  0  0  0
    4.2690    0.1550    0.0000 C   0  0  0  0  0  0  0  0  0  0  0  0
    3.4030   -0.3450    0.0000 C   0  0  0  0  0  0  0  0  0  0  0  0
    7.5210    1.7376    0.0000 H   0  0  0  0  0  0  0  0  0  0  0  0
    7.1225    1.0473    0.0000 H   0  0  0  0  0  0  0  0  0  0  0  0
    7.7331   -0.4650    0.0000 H   0  0  0  0  0  0  0  0  0  0  0  0
    8.9976    2.1300    0.0000 H   0  0  0  0  0  0  0  0  0  0  0  0
    8.2006    2.1300    0.0000 H   0  0  0  0  0  0  0  0  0  0  0  0
   10.0757    1.0473    0.0000 H   0  0  0  0  0  0  0  0  0  0  0  0
    9.6772    1.7376    0.0000 H   0  0  0  0  0  0  0  0  0  0  0  0
    6.0010    0.7750    0.0000 H   0  0  0  0  0  0  0  0  0  0  0  0
    4.7365   -0.8199    0.0000 H   0  0  0  0  0  0  0  0  0  0  0  0
    5.5335   -0.8199    0.0000 H   0  0  0  0  0  0  0  0  0  0  0  0
    4.6675    0.6299    0.0000 H   0  0  0  0  0  0  0  0  0  0  0  0
    3.8705    0.6299    0.0000 H   0  0  0  0  0  0  0  0  0  0  0  0
   10.8681   -0.0350    0.0000 H   0  0  0  0  0  0  0  0  0  0  0  0
   10.3312   -0.9650    0.0000 H   0  0  0  0  0  0  0  0  0  0  0  0
    2.0000   -0.1550    0.0000 H   0  0  0  0  0  0  0  0  0  0  0  0
    2.5369    0.7750    0.0000 H   0  0  0  0  0  0  0  0  0  0  0  0
    2.8660   -1.6550    0.0000 H   0  0  0  0  0  0  0  0  0  0  0  0
  1 12  2  0  0  0  0
  2  8  1  0  0  0  0
  2 11  2  0  0  0  0
  3 12  1  0  0  0  0
  3 13  1  0  0  0  0
  3 23  1  0  0  0  0
  4 11  1  0  0  0  0
  4 28  1  0  0  0  0
  4 29  1  0  0  0  0
  5 15  1  0  0  0  0
  5 30  1  0  0  0  0
  5 31  1  0  0  0  0
  6 15  2  0  0  0  0
  6 32  1  0  0  0  0
  7  8  1  0  0  0  0
  7  9  1  0  0  0  0
  7 16  1  0  0  0  0
  7 17  1  0  0  0  0
  8 12  1  0  0  0  0
  8 18  1  0  0  0  0
  9 10  1  0  0  0  0
  9 19  1  0  0  0  0
  9 20  1  0  0  0  0
 10 11  1  0  0  0  0
 10 21  1  0  0  0  0
 10 22  1  0  0  0  0
 13 14  1  0  0  0  0
 13 24  1  0  0  0  0
 13 25  1  0  0  0  0
 14 15  1  0  0  0  0
 14 26  1  0  0  0  0
 14 27  1  0  0  0  0
M  END
> <PUBCHEM_COMPOUND_CID>
515635
> <PUBCHEM_COMPOUND_CANONICALIZED>
1
> <PUBCHEM_CACTVS_COMPLEXITY>
286
> <PUBCHEM_CACTVS_HBOND_ACCEPTOR>
3
> <PUBCHEM_CACTVS_HBOND_DONOR>
4
> <PUBCHEM_CACTVS_ROTATABLE_BOND>
4
> <PUBCHEM_CACTVS_SUBSKEYS>
AAADceBzoAAAAAAAAAAAAAAAAAAAAAAAAAAgAAAAAAAAAAAAAAAAHgAQAAAACCjBgAQBAALAAAAoAAMwNAAAAAGAAAAAAIG4AAAAQBIAwAAUAAAAFgCAAAEYCAAAAAAAAAAAAAAAAAAAAAAAAAAAAAAAAA==
> <PUBCHEM_IUPAC_OPENEYE_NAME>
6-amino-N-(3-amino-3-imino-propyl)-2,3,4,5-tetrahydropyridine-2-carboxamide
> <PUBCHEM_IUPAC_CAS_NAME>
6-amino-N-(3-amino-3-iminopropyl)-2,3,4,5-tetrahydropyridine-2-carboxamide
> <PUBCHEM_IUPAC_NAME_MARKUP>
6-amino-<I>N</I>-(3-amino-3-iminopropyl)-2,3,4,5-tetrahydropyridine-2-carboxamide
> <PUBCHEM_IUPAC_NAME>
6-amino-N-(3-amino-3-iminopropyl)-2,3,4,5-tetrahydropyridine-2-carboxamide
> <PUBCHEM_IUPAC_SYSTEMATIC_NAME>
6-azanyl-N-(3-azanyl-3-azanylidene-propyl)-2,3,4,5-tetrahydropyridine-2-carboxamide
> <PUBCHEM_IUPAC_TRADITIONAL_NAME>
6-amino-N-(3-amino-3-imino-propyl)-2,3,4,5-tetrahydropyridine-2-carboxamide
> <PUBCHEM_IUPAC_INCHI>
InChI=1S/C9H17N5O/c10-7(11)4-5-13-9(15)6-2-1-3-8(12)14-6/h6H,1-5H2,(H3,10,11)(H2,12,14)(H,13,15)
> <PUBCHEM_IUPAC_INCHIKEY>
VQTKNKCOTOOXKO-UHFFFAOYSA-N
> <PUBCHEM_XLOGP3_AA>
-2
> <PUBCHEM_EXACT_MASS>
211.14331018
> <PUBCHEM_MOLECULAR_FORMULA>
C9H17N5O
> <PUBCHEM_MOLECULAR_WEIGHT>
211.26
> <PUBCHEM_OPENEYE_CAN_SMILES>
C1CC(N=C(C1)N)C(=O)NCCC(=N)N
> <PUBCHEM_OPENEYE_ISO_SMILES>
C1CC(N=C(C1)N)C(=O)NCCC(=N)N
> <PUBCHEM_CACTVS_TPSA>
117
> <PUBCHEM_MONOISOTOPIC_WEIGHT>
211.14331018
> <PUBCHEM_TOTAL_CHARGE>
0
> <PUBCHEM_HEAVY_ATOM_COUNT>
15
> <PUBCHEM_ATOM_DEF_STEREO_COUNT>
0
> <PUBCHEM_ATOM_UDEF_STEREO_COUNT>
1
> <PUBCHEM_BOND_DEF_STEREO_COUNT>
0
> <PUBCHEM_BOND_UDEF_STEREO_COUNT>
0
> <PUBCHEM_ISOTOPIC_ATOM_COUNT>
0
> <PUBCHEM_COMPONENT_COUNT>
1
> <PUBCHEM_CACTVS_TAUTO_COUNT>
-1
> <PUBCHEM_COORDINATE_TYPE>
1
5
255
> <PUBCHEM_BONDANNOTATIONS>
8  12  3
$$$$
