515625
  -OEChem-10302200282D
 25 25  0     1  0  0  0  0  0999 V2000
    6.1888   -1.1269    0.0000 O   0  0  0  0  0  0  0  0  0  0  0  0
    4.2208   -0.4275    0.0000 N   0  0  0  0  0  0  0  0  0  0  0  0
    6.7240    0.5204    0.0000 N   0  0  0  0  0  0  0  0  0  0  0  0
    2.4608   -0.1487    0.0000 N   0  0  0  0  0  0  0  0  0  0  0  0
   10.3204    0.2625    0.0000 N   0  0  0  0  0  0  0  0  0  0  0  0
    5.0298    0.1603    0.0000 C   0  0  3  0  0  0  0  0  0  0  0  0
    4.7208    1.1114    0.0000 C   0  0  0  0  0  0  0  0  0  0  0  0
    3.7208    1.1114    0.0000 C   0  0  0  0  0  0  0  0  0  0  0  0
    3.4118    0.1603    0.0000 C   0  0  0  0  0  0  0  0  0  0  0  0
    5.9809   -0.1487    0.0000 C   0  0  0  0  0  0  0  0  0  0  0  0
    7.6751    0.2114    0.0000 C   0  0  0  0  0  0  0  0  0  0  0  0
    8.4182    0.8805    0.0000 C   0  0  0  0  0  0  0  0  0  0  0  0
    9.3693    0.5715    0.0000 C   0  0  0  0  0  0  0  0  0  0  0  0
    5.1268   -0.4521    0.0000 H   0  0  0  0  0  0  0  0  0  0  0  0
    5.3273    1.2403    0.0000 H   0  0  0  0  0  0  0  0  0  0  0  0
    4.6560    1.7280    0.0000 H   0  0  0  0  0  0  0  0  0  0  0  0
    3.7856    1.7280    0.0000 H   0  0  0  0  0  0  0  0  0  0  0  0
    3.1144    1.2403    0.0000 H   0  0  0  0  0  0  0  0  0  0  0  0
    6.5951    1.1269    0.0000 H   0  0  0  0  0  0  0  0  0  0  0  0
    7.3840   -0.3360    0.0000 H   0  0  0  0  0  0  0  0  0  0  0  0
    8.1637   -0.1703    0.0000 H   0  0  0  0  0  0  0  0  0  0  0  0
    2.0000    0.2661    0.0000 H   0  0  0  0  0  0  0  0  0  0  0  0
    2.3318   -0.7552    0.0000 H   0  0  0  0  0  0  0  0  0  0  0  0
    8.7093    1.4280    0.0000 H   0  0  0  0  0  0  0  0  0  0  0  0
    7.9297    1.2622    0.0000 H   0  0  0  0  0  0  0  0  0  0  0  0
  1 10  2  0  0  0  0
  2  6  1  0  0  0  0
  2  9  2  0  0  0  0
  3 10  1  0  0  0  0
  3 11  1  0  0  0  0
  3 19  1  0  0  0  0
  4  9  1  0  0  0  0
  4 22  1  0  0  0  0
  4 23  1  0  0  0  0
  5 13  3  0  0  0  0
  6  7  1  0  0  0  0
  6 10  1  0  0  0  0
  6 14  1  0  0  0  0
  7  8  1  0  0  0  0
  7 15  1  0  0  0  0
  7 16  1  0  0  0  0
  8  9  1  0  0  0  0
  8 17  1  0  0  0  0
  8 18  1  0  0  0  0
 11 12  1  0  0  0  0
 11 20  1  0  0  0  0
 11 21  1  0  0  0  0
 12 13  1  0  0  0  0
 12 24  1  0  0  0  0
 12 25  1  0  0  0  0
M  END
> <PUBCHEM_COMPOUND_CID>
515625
> <PUBCHEM_COMPOUND_CANONICALIZED>
1
> <PUBCHEM_CACTVS_COMPLEXITY>
275
> <PUBCHEM_CACTVS_HBOND_ACCEPTOR>
3
> <PUBCHEM_CACTVS_HBOND_DONOR>
2
> <PUBCHEM_CACTVS_ROTATABLE_BOND>
3
> <PUBCHEM_CACTVS_SUBSKEYS>
AAADccBzoAAAAAAAAAAAAAAAAAAAAQAAAAAAAAAAAAAAAAAAAAAAHgAQAAAACCjBgAQBAALAAAA4BAMwNAAAAAEAAAAAAIG4AAAAwBIAgAAUAAAAFgCAAAAYAQAAAAAAAAAAAAAAAAAAAAAAAAAAAAAAAA==
> <PUBCHEM_IUPAC_OPENEYE_NAME>
5-amino-N-(2-cyanoethyl)-3,4-dihydro-2H-pyrrole-2-carboxamide
> <PUBCHEM_IUPAC_CAS_NAME>
5-amino-N-(2-cyanoethyl)-3,4-dihydro-2H-pyrrole-2-carboxamide
> <PUBCHEM_IUPAC_NAME_MARKUP>
5-amino-<I>N</I>-(2-cyanoethyl)-3,4-dihydro-2<I>H</I>-pyrrole-2-carboxamide
> <PUBCHEM_IUPAC_NAME>
5-amino-N-(2-cyanoethyl)-3,4-dihydro-2H-pyrrole-2-carboxamide
> <PUBCHEM_IUPAC_SYSTEMATIC_NAME>
5-azanyl-N-(2-cyanoethyl)-3,4-dihydro-2H-pyrrole-2-carboxamide
> <PUBCHEM_IUPAC_TRADITIONAL_NAME>
5-amino-N-(2-cyanoethyl)-1-pyrroline-2-carboxamide
> <PUBCHEM_IUPAC_INCHI>
InChI=1S/C8H12N4O/c9-4-1-5-11-8(13)6-2-3-7(10)12-6/h6H,1-3,5H2,(H2,10,12)(H,11,13)
> <PUBCHEM_IUPAC_INCHIKEY>
QAWYBKMLUMJCGC-UHFFFAOYSA-N
> <PUBCHEM_XLOGP3_AA>
-1.6
> <PUBCHEM_EXACT_MASS>
180.10111102
> <PUBCHEM_MOLECULAR_FORMULA>
C8H12N4O
> <PUBCHEM_MOLECULAR_WEIGHT>
180.21
> <PUBCHEM_OPENEYE_CAN_SMILES>
C1CC(=NC1C(=O)NCCC#N)N
> <PUBCHEM_OPENEYE_ISO_SMILES>
C1CC(=NC1C(=O)NCCC#N)N
> <PUBCHEM_CACTVS_TPSA>
91.3
> <PUBCHEM_MONOISOTOPIC_WEIGHT>
180.10111102
> <PUBCHEM_TOTAL_CHARGE>
0
> <PUBCHEM_HEAVY_ATOM_COUNT>
13
> <PUBCHEM_ATOM_DEF_STEREO_COUNT>
0
> <PUBCHEM_ATOM_UDEF_STEREO_COUNT>
1
> <PUBCHEM_BOND_DEF_STEREO_COUNT>
0
> <PUBCHEM_BOND_UDEF_STEREO_COUNT>
0
> <PUBCHEM_ISOTOPIC_ATOM_COUNT>
0
> <PUBCHEM_COMPONENT_COUNT>
1
> <PUBCHEM_CACTVS_TAUTO_COUNT>
-1
> <PUBCHEM_COORDINATE_TYPE>
1
5
255
> <PUBCHEM_BONDANNOTATIONS>
6  10  3
$$$$
