515793
  -OEChem-10302200282D
 94 97  0     1  0  0  0  0  0999 V2000
    7.3007    4.2820    0.0000 S   0  0  0  0  0  0  0  0  0  0  0  0
    4.5981   -4.2125    0.0000 O   0  0  0  0  0  0  0  0  0  0  0  0
    5.4641   -1.7125    0.0000 O   0  0  0  0  0  0  0  0  0  0  0  0
    8.0622   -1.2125    0.0000 O   0  0  0  0  0  0  0  0  0  0  0  0
    6.3301   -1.2125    0.0000 O   0  0  0  0  0  0  0  0  0  0  0  0
    6.3301    1.7875    0.0000 O   0  0  0  0  0  0  0  0  0  0  0  0
    4.5981    1.7875    0.0000 O   0  0  0  0  0  0  0  0  0  0  0  0
    3.7320   -1.7125    0.0000 N   0  0  0  0  0  0  0  0  0  0  0  0
    7.1962   -2.7125    0.0000 N   0  0  0  0  0  0  0  0  0  0  0  0
    5.4641    0.2875    0.0000 N   0  0  0  0  0  0  0  0  0  0  0  0
   11.5263   -1.2125    0.0000 N   0  0  0  0  0  0  0  0  0  0  0  0
    8.7788    3.6239    0.0000 N   0  0  0  0  0  0  0  0  0  0  0  0
    3.7320   -2.7125    0.0000 C   0  0  2  0  0  0  0  0  0  0  0  0
    4.5981   -3.2125    0.0000 C   0  0  2  0  0  0  0  0  0  0  0  0
    5.4641   -2.7125    0.0000 C   0  0  0  0  0  0  0  0  0  0  0  0
    6.3301   -3.2125    0.0000 C   0  0  2  0  0  0  0  0  0  0  0  0
    2.8660   -3.2125    0.0000 C   0  0  0  0  0  0  0  0  0  0  0  0
    6.3301   -4.2125    0.0000 C   0  0  0  0  0  0  0  0  0  0  0  0
    4.5981   -0.2125    0.0000 C   0  0  2  0  0  0  0  0  0  0  0  0
    4.5981   -1.2125    0.0000 C   0  0  0  0  0  0  0  0  0  0  0  0
    3.7320    0.2875    0.0000 C   0  0  0  0  0  0  0  0  0  0  0  0
    2.8660   -4.2125    0.0000 C   0  0  0  0  0  0  0  0  0  0  0  0
    7.1962   -4.7125    0.0000 C   0  0  0  0  0  0  0  0  0  0  0  0
    3.7320    1.2875    0.0000 C   0  0  0  0  0  0  0  0  0  0  0  0
    2.8660   -0.2125    0.0000 C   0  0  0  0  0  0  0  0  0  0  0  0
    3.7320   -4.7125    0.0000 C   0  0  0  0  0  0  0  0  0  0  0  0
    2.0000   -4.7125    0.0000 C   0  0  0  0  0  0  0  0  0  0  0  0
    7.1962   -1.7125    0.0000 C   0  0  0  0  0  0  0  0  0  0  0  0
    8.0622   -4.2125    0.0000 C   0  0  0  0  0  0  0  0  0  0  0  0
    7.1962   -5.7125    0.0000 C   0  0  0  0  0  0  0  0  0  0  0  0
    3.7320   -5.7125    0.0000 C   0  0  0  0  0  0  0  0  0  0  0  0
    2.0000   -5.7125    0.0000 C   0  0  0  0  0  0  0  0  0  0  0  0
    5.4641    1.2875    0.0000 C   0  0  0  0  0  0  0  0  0  0  0  0
    8.9282   -4.7125    0.0000 C   0  0  0  0  0  0  0  0  0  0  0  0
    8.0622   -6.2125    0.0000 C   0  0  0  0  0  0  0  0  0  0  0  0
    2.8660   -6.2125    0.0000 C   0  0  0  0  0  0  0  0  0  0  0  0
    8.9282   -5.7125    0.0000 C   0  0  0  0  0  0  0  0  0  0  0  0
    8.9282   -1.7125    0.0000 C   0  0  0  0  0  0  0  0  0  0  0  0
    6.3301    2.7875    0.0000 C   0  0  0  0  0  0  0  0  0  0  0  0
    9.7942   -1.2125    0.0000 C   0  0  0  0  0  0  0  0  0  0  0  0
    7.1962    3.2875    0.0000 C   0  0  0  0  0  0  0  0  0  0  0  0
    9.7942   -0.2125    0.0000 C   0  0  0  0  0  0  0  0  0  0  0  0
   10.6603   -1.7125    0.0000 C   0  0  0  0  0  0  0  0  0  0  0  0
    8.1097    2.8808    0.0000 C   0  0  0  0  0  0  0  0  0  0  0  0
   10.6603    0.2875    0.0000 C   0  0  0  0  0  0  0  0  0  0  0  0
    8.2788    4.4899    0.0000 C   0  0  0  0  0  0  0  0  0  0  0  0
   11.5263   -0.2125    0.0000 C   0  0  0  0  0  0  0  0  0  0  0  0
    8.6856    5.4035    0.0000 C   0  0  0  0  0  0  0  0  0  0  0  0
    8.0978    6.2125    0.0000 C   0  0  0  0  0  0  0  0  0  0  0  0
    4.2690   -2.4025    0.0000 H   0  0  0  0  0  0  0  0  0  0  0  0
    5.1350   -3.5225    0.0000 H   0  0  0  0  0  0  0  0  0  0  0  0
    5.8626   -2.2376    0.0000 H   0  0  0  0  0  0  0  0  0  0  0  0
    5.0656   -2.2376    0.0000 H   0  0  0  0  0  0  0  0  0  0  0  0
    6.8671   -3.5225    0.0000 H   0  0  0  0  0  0  0  0  0  0  0  0
    2.6540   -2.6299    0.0000 H   0  0  0  0  0  0  0  0  0  0  0  0
    2.2554   -3.3202    0.0000 H   0  0  0  0  0  0  0  0  0  0  0  0
    3.1951   -1.4025    0.0000 H   0  0  0  0  0  0  0  0  0  0  0  0
    5.7196   -4.1048    0.0000 H   0  0  0  0  0  0  0  0  0  0  0  0
    6.1181   -4.7951    0.0000 H   0  0  0  0  0  0  0  0  0  0  0  0
    4.5981    0.4075    0.0000 H   0  0  0  0  0  0  0  0  0  0  0  0
    3.7320   -0.3325    0.0000 H   0  0  0  0  0  0  0  0  0  0  0  0
    7.7331   -3.0225    0.0000 H   0  0  0  0  0  0  0  0  0  0  0  0
    5.1350   -4.5225    0.0000 H   0  0  0  0  0  0  0  0  0  0  0  0
    6.0010   -0.0225    0.0000 H   0  0  0  0  0  0  0  0  0  0  0  0
    4.3520    1.2875    0.0000 H   0  0  0  0  0  0  0  0  0  0  0  0
    3.7320    1.9075    0.0000 H   0  0  0  0  0  0  0  0  0  0  0  0
    3.1120    1.2875    0.0000 H   0  0  0  0  0  0  0  0  0  0  0  0
    2.5560    0.3244    0.0000 H   0  0  0  0  0  0  0  0  0  0  0  0
    2.3291   -0.5225    0.0000 H   0  0  0  0  0  0  0  0  0  0  0  0
    3.1760   -0.7494    0.0000 H   0  0  0  0  0  0  0  0  0  0  0  0
    4.2690   -4.4025    0.0000 H   0  0  0  0  0  0  0  0  0  0  0  0
    1.4631   -4.4025    0.0000 H   0  0  0  0  0  0  0  0  0  0  0  0
    8.0622   -3.5925    0.0000 H   0  0  0  0  0  0  0  0  0  0  0  0
    6.6592   -6.0225    0.0000 H   0  0  0  0  0  0  0  0  0  0  0  0
    4.2690   -6.0225    0.0000 H   0  0  0  0  0  0  0  0  0  0  0  0
    1.4631   -6.0225    0.0000 H   0  0  0  0  0  0  0  0  0  0  0  0
    9.4651   -4.4025    0.0000 H   0  0  0  0  0  0  0  0  0  0  0  0
    8.0622   -6.8325    0.0000 H   0  0  0  0  0  0  0  0  0  0  0  0
    2.8660   -6.8325    0.0000 H   0  0  0  0  0  0  0  0  0  0  0  0
    9.4651   -6.0225    0.0000 H   0  0  0  0  0  0  0  0  0  0  0  0
    8.5297   -2.1874    0.0000 H   0  0  0  0  0  0  0  0  0  0  0  0
    9.3267   -2.1874    0.0000 H   0  0  0  0  0  0  0  0  0  0  0  0
    6.1181    3.3701    0.0000 H   0  0  0  0  0  0  0  0  0  0  0  0
    5.7196    2.6798    0.0000 H   0  0  0  0  0  0  0  0  0  0  0  0
    9.2573    0.0975    0.0000 H   0  0  0  0  0  0  0  0  0  0  0  0
   10.6603   -2.3325    0.0000 H   0  0  0  0  0  0  0  0  0  0  0  0
    8.2386    2.2743    0.0000 H   0  0  0  0  0  0  0  0  0  0  0  0
   10.6603    0.9075    0.0000 H   0  0  0  0  0  0  0  0  0  0  0  0
   12.0632    0.0975    0.0000 H   0  0  0  0  0  0  0  0  0  0  0  0
    9.1996    5.0568    0.0000 H   0  0  0  0  0  0  0  0  0  0  0  0
    9.1163    5.8495    0.0000 H   0  0  0  0  0  0  0  0  0  0  0  0
    8.5994    6.5769    0.0000 H   0  0  0  0  0  0  0  0  0  0  0  0
    7.7334    6.7141    0.0000 H   0  0  0  0  0  0  0  0  0  0  0  0
    7.5962    5.8481    0.0000 H   0  0  0  0  0  0  0  0  0  0  0  0
  1 41  1  0  0  0  0
  1 46  1  0  0  0  0
 14  2  1  6  0  0  0
  2 63  1  0  0  0  0
  3 20  2  0  0  0  0
  4 28  1  0  0  0  0
  4 38  1  0  0  0  0
  5 28  2  0  0  0  0
  6 33  1  0  0  0  0
  6 39  1  0  0  0  0
  7 33  2  0  0  0  0
 13  8  1  6  0  0  0
  8 20  1  0  0  0  0
  8 57  1  0  0  0  0
 16  9  1  1  0  0  0
  9 28  1  0  0  0  0
  9 62  1  0  0  0  0
 19 10  1  6  0  0  0
 10 33  1  0  0  0  0
 10 64  1  0  0  0  0
 11 43  1  0  0  0  0
 11 47  2  0  0  0  0
 12 44  1  0  0  0  0
 12 46  2  0  0  0  0
 13 14  1  0  0  0  0
 13 17  1  0  0  0  0
 13 50  1  0  0  0  0
 14 15  1  0  0  0  0
 14 51  1  0  0  0  0
 15 16  1  0  0  0  0
 15 52  1  0  0  0  0
 15 53  1  0  0  0  0
 16 18  1  0  0  0  0
 16 54  1  0  0  0  0
 17 22  1  0  0  0  0
 17 55  1  0  0  0  0
 17 56  1  0  0  0  0
 18 23  1  0  0  0  0
 18 58  1  0  0  0  0
 18 59  1  0  0  0  0
 19 20  1  0  0  0  0
 19 21  1  0  0  0  0
 19 60  1  0  0  0  0
 21 24  1  0  0  0  0
 21 25  1  0  0  0  0
 21 61  1  0  0  0  0
 22 26  2  0  0  0  0
 22 27  1  0  0  0  0
 23 29  2  0  0  0  0
 23 30  1  0  0  0  0
 24 65  1  0  0  0  0
 24 66  1  0  0  0  0
 24 67  1  0  0  0  0
 25 68  1  0  0  0  0
 25 69  1  0  0  0  0
 25 70  1  0  0  0  0
 26 31  1  0  0  0  0
 26 71  1  0  0  0  0
 27 32  2  0  0  0  0
 27 72  1  0  0  0  0
 29 34  1  0  0  0  0
 29 73  1  0  0  0  0
 30 35  2  0  0  0  0
 30 74  1  0  0  0  0
 31 36  2  0  0  0  0
 31 75  1  0  0  0  0
 32 36  1  0  0  0  0
 32 76  1  0  0  0  0
 34 37  2  0  0  0  0
 34 77  1  0  0  0  0
 35 37  1  0  0  0  0
 35 78  1  0  0  0  0
 36 79  1  0  0  0  0
 37 80  1  0  0  0  0
 38 40  1  0  0  0  0
 38 81  1  0  0  0  0
 38 82  1  0  0  0  0
 39 41  1  0  0  0  0
 39 83  1  0  0  0  0
 39 84  1  0  0  0  0
 40 42  1  0  0  0  0
 40 43  2  0  0  0  0
 41 44  2  0  0  0  0
 42 45  2  0  0  0  0
 42 85  1  0  0  0  0
 43 86  1  0  0  0  0
 44 87  1  0  0  0  0
 45 47  1  0  0  0  0
 45 88  1  0  0  0  0
 46 48  1  0  0  0  0
 47 89  1  0  0  0  0
 48 49  1  0  0  0  0
 48 90  1  0  0  0  0
 48 91  1  0  0  0  0
 49 92  1  0  0  0  0
 49 93  1  0  0  0  0
 49 94  1  0  0  0  0
M  END
> <PUBCHEM_COMPOUND_CID>
515793
> <PUBCHEM_COMPOUND_CANONICALIZED>
1
> <PUBCHEM_CACTVS_COMPLEXITY>
994
> <PUBCHEM_CACTVS_HBOND_ACCEPTOR>
9
> <PUBCHEM_CACTVS_HBOND_DONOR>
4
> <PUBCHEM_CACTVS_ROTATABLE_BOND>
19
> <PUBCHEM_CACTVS_SUBSKEYS>
AAADcfB/uABAAAAAAAAAAAAAAAAAAWAAAAA8YIAAAAAAAAAB9AAAHgQQCAAADTzh2gY+iZLIFgisAjF3XACC8KBxCjhI2K24bJkKdvLgsbmccAhm1gH46AeQ0PIOAAAAAAAAAAAAAAAAAAAAAAAAAAAAAA==
> <PUBCHEM_IUPAC_OPENEYE_NAME>
3-pyridylmethyl N-[(1S,3S,4S)-1-benzyl-4-[[(2S)-2-[(2-ethylthiazol-5-yl)methoxycarbonylamino]-3-methyl-butanoyl]amino]-3-hydroxy-5-phenyl-pentyl]carbamate
> <PUBCHEM_IUPAC_CAS_NAME>
N-[(2S,4S,5S)-5-[[(2S)-2-[[(2-ethyl-5-thiazolyl)methoxy-oxomethyl]amino]-3-methyl-1-oxobutyl]amino]-4-hydroxy-1,6-diphenylhexan-2-yl]carbamic acid 3-pyridinylmethyl ester
> <PUBCHEM_IUPAC_NAME_MARKUP>
pyridin-3-ylmethyl <I>N</I>-[(2<I>S</I>,4<I>S</I>,5<I>S</I>)-5-[[(2<I>S</I>)-2-[(2-ethyl-1,3-thiazol-5-yl)methoxycarbonylamino]-3-methylbutanoyl]amino]-4-hydroxy-1,6-diphenylhexan-2-yl]carbamate
> <PUBCHEM_IUPAC_NAME>
pyridin-3-ylmethyl N-[(2S,4S,5S)-5-[[(2S)-2-[(2-ethyl-1,3-thiazol-5-yl)methoxycarbonylamino]-3-methylbutanoyl]amino]-4-hydroxy-1,6-diphenylhexan-2-yl]carbamate
> <PUBCHEM_IUPAC_SYSTEMATIC_NAME>
pyridin-3-ylmethyl N-[(2S,4S,5S)-5-[[(2S)-2-[(2-ethyl-1,3-thiazol-5-yl)methoxycarbonylamino]-3-methyl-butanoyl]amino]-4-oxidanyl-1,6-diphenyl-hexan-2-yl]carbamate
> <PUBCHEM_IUPAC_TRADITIONAL_NAME>
N-[(1S,3S,4S)-1-benzyl-4-[[(2S)-2-[(2-ethylthiazol-5-yl)methoxycarbonylamino]-3-methyl-butanoyl]amino]-3-hydroxy-5-phenyl-pentyl]carbamic acid 3-pyridylmethyl ester
> <PUBCHEM_IUPAC_INCHI>
InChI=1S/C37H45N5O6S/c1-4-33-39-22-30(49-33)24-48-37(46)42-34(25(2)3)35(44)41-31(19-27-14-9-6-10-15-27)32(43)20-29(18-26-12-7-5-8-13-26)40-36(45)47-23-28-16-11-17-38-21-28/h5-17,21-22,25,29,31-32,34,43H,4,18-20,23-24H2,1-3H3,(H,40,45)(H,41,44)(H,42,46)/t29-,31-,32-,34-/m0/s1
> <PUBCHEM_IUPAC_INCHIKEY>
KSVSLELYXREHIR-JKAXMSHYSA-N
> <PUBCHEM_XLOGP3_AA>
6
> <PUBCHEM_EXACT_MASS>
687.30905535
> <PUBCHEM_MOLECULAR_FORMULA>
C37H45N5O6S
> <PUBCHEM_MOLECULAR_WEIGHT>
687.8
> <PUBCHEM_OPENEYE_CAN_SMILES>
CCC1=NC=C(S1)COC(=O)NC(C(C)C)C(=O)NC(CC2=CC=CC=C2)C(CC(CC3=CC=CC=C3)NC(=O)OCC4=CN=CC=C4)O
> <PUBCHEM_OPENEYE_ISO_SMILES>
CCC1=NC=C(S1)COC(=O)N[C@@H](C(C)C)C(=O)N[C@@H](CC2=CC=CC=C2)[C@H](C[C@H](CC3=CC=CC=C3)NC(=O)OCC4=CN=CC=C4)O
> <PUBCHEM_CACTVS_TPSA>
180
> <PUBCHEM_MONOISOTOPIC_WEIGHT>
687.30905535
> <PUBCHEM_TOTAL_CHARGE>
0
> <PUBCHEM_HEAVY_ATOM_COUNT>
49
> <PUBCHEM_ATOM_DEF_STEREO_COUNT>
4
> <PUBCHEM_ATOM_UDEF_STEREO_COUNT>
0
> <PUBCHEM_BOND_DEF_STEREO_COUNT>
0
> <PUBCHEM_BOND_UDEF_STEREO_COUNT>
0
> <PUBCHEM_ISOTOPIC_ATOM_COUNT>
0
> <PUBCHEM_COMPONENT_COUNT>
1
> <PUBCHEM_CACTVS_TAUTO_COUNT>
-1
> <PUBCHEM_COORDINATE_TYPE>
1
5
255
> <PUBCHEM_BONDANNOTATIONS>
1  41  8
1  46  8
19  10  6
11  43  8
11  47  8
12  44  8
12  46  8
14  2  6
22  26  8
22  27  8
23  29  8
23  30  8
26  31  8
27  32  8
29  34  8
30  35  8
31  36  8
32  36  8
34  37  8
35  37  8
40  42  8
40  43  8
41  44  8
42  45  8
45  47  8
13  8  6
16  9  5
$$$$
