515715
  -OEChem-10302200282D
 38 39  0     1  0  0  0  0  0999 V2000
    5.4641    1.3856    0.0000 O   0  0  0  0  0  0  0  0  0  0  0  0
    5.4641    0.3856    0.0000 O   0  0  0  0  0  0  0  0  0  0  0  0
    4.5981   -1.1144    0.0000 O   0  0  0  0  0  0  0  0  0  0  0  0
    2.8660   -4.1144    0.0000 O   0  0  0  0  0  0  0  0  0  0  0  0
    3.7891    3.4734    0.0000 N   0  0  0  0  0  0  0  0  0  0  0  0
    3.7320    1.3856    0.0000 N   0  0  0  0  0  0  0  0  0  0  0  0
    4.5981    2.8856    0.0000 C   0  0  1  0  0  0  0  0  0  0  0  0
    5.4071    3.4734    0.0000 C   0  0  0  0  0  0  0  0  0  0  0  0
    5.0981    4.4244    0.0000 C   0  0  0  0  0  0  0  0  0  0  0  0
    4.0981    4.4244    0.0000 C   0  0  0  0  0  0  0  0  0  0  0  0
    4.5981    1.8856    0.0000 C   0  0  0  0  0  0  0  0  0  0  0  0
    3.7320    0.3856    0.0000 C   0  0  3  0  0  0  0  0  0  0  0  0
    2.8660   -0.1144    0.0000 C   0  0  0  0  0  0  0  0  0  0  0  0
    2.8660   -1.1144    0.0000 C   0  0  0  0  0  0  0  0  0  0  0  0
    4.5981   -0.1144    0.0000 C   0  0  0  0  0  0  0  0  0  0  0  0
    3.7320   -1.6144    0.0000 C   0  0  0  0  0  0  0  0  0  0  0  0
    2.0000   -1.6144    0.0000 C   0  0  0  0  0  0  0  0  0  0  0  0
    3.7320   -2.6144    0.0000 C   0  0  0  0  0  0  0  0  0  0  0  0
    2.0000   -2.6144    0.0000 C   0  0  0  0  0  0  0  0  0  0  0  0
    2.8660   -3.1144    0.0000 C   0  0  0  0  0  0  0  0  0  0  0  0
    4.0456    2.6041    0.0000 H   0  0  0  0  0  0  0  0  0  0  0  0
    5.7171    2.9364    0.0000 H   0  0  0  0  0  0  0  0  0  0  0  0
    5.9735    3.7255    0.0000 H   0  0  0  0  0  0  0  0  0  0  0  0
    5.7045    4.5533    0.0000 H   0  0  0  0  0  0  0  0  0  0  0  0
    5.0333    5.0410    0.0000 H   0  0  0  0  0  0  0  0  0  0  0  0
    4.1629    5.0410    0.0000 H   0  0  0  0  0  0  0  0  0  0  0  0
    3.4916    4.5533    0.0000 H   0  0  0  0  0  0  0  0  0  0  0  0
    3.1994    3.2818    0.0000 H   0  0  0  0  0  0  0  0  0  0  0  0
    4.2690    0.6956    0.0000 H   0  0  0  0  0  0  0  0  0  0  0  0
    3.1951    1.6956    0.0000 H   0  0  0  0  0  0  0  0  0  0  0  0
    2.6540    0.4682    0.0000 H   0  0  0  0  0  0  0  0  0  0  0  0
    2.2554   -0.2221    0.0000 H   0  0  0  0  0  0  0  0  0  0  0  0
    4.2690   -1.3044    0.0000 H   0  0  0  0  0  0  0  0  0  0  0  0
    1.4631   -1.3044    0.0000 H   0  0  0  0  0  0  0  0  0  0  0  0
    4.2690   -2.9244    0.0000 H   0  0  0  0  0  0  0  0  0  0  0  0
    1.4631   -2.9244    0.0000 H   0  0  0  0  0  0  0  0  0  0  0  0
    6.0010    0.0756    0.0000 H   0  0  0  0  0  0  0  0  0  0  0  0
    2.3291   -4.4244    0.0000 H   0  0  0  0  0  0  0  0  0  0  0  0
  1 11  2  0  0  0  0
  2 15  1  0  0  0  0
  2 37  1  0  0  0  0
  3 15  2  0  0  0  0
  4 20  1  0  0  0  0
  4 38  1  0  0  0  0
  5  7  1  0  0  0  0
  5 10  1  0  0  0  0
  5 28  1  0  0  0  0
  6 11  1  0  0  0  0
  6 12  1  0  0  0  0
  6 30  1  0  0  0  0
  7  8  1  0  0  0  0
  7 11  1  1  0  0  0
  7 21  1  0  0  0  0
  8  9  1  0  0  0  0
  8 22  1  0  0  0  0
  8 23  1  0  0  0  0
  9 10  1  0  0  0  0
  9 24  1  0  0  0  0
  9 25  1  0  0  0  0
 10 26  1  0  0  0  0
 10 27  1  0  0  0  0
 12 13  1  0  0  0  0
 12 15  1  0  0  0  0
 12 29  1  0  0  0  0
 13 14  1  0  0  0  0
 13 31  1  0  0  0  0
 13 32  1  0  0  0  0
 14 16  2  0  0  0  0
 14 17  1  0  0  0  0
 16 18  1  0  0  0  0
 16 33  1  0  0  0  0
 17 19  2  0  0  0  0
 17 34  1  0  0  0  0
 18 20  2  0  0  0  0
 18 35  1  0  0  0  0
 19 20  1  0  0  0  0
 19 36  1  0  0  0  0
M  END
> <PUBCHEM_COMPOUND_CID>
515715
> <PUBCHEM_COMPOUND_CANONICALIZED>
1
> <PUBCHEM_CACTVS_COMPLEXITY>
353
> <PUBCHEM_CACTVS_HBOND_ACCEPTOR>
5
> <PUBCHEM_CACTVS_HBOND_DONOR>
4
> <PUBCHEM_CACTVS_ROTATABLE_BOND>
5
> <PUBCHEM_CACTVS_SUBSKEYS>
AAADceBzOAAAAAAAAAAAAAAAAAAAAWAAAAAwAAAAAAAAAAABAAAAHgAQCAAADCzBmAQwDoLAAgCIAiHSGAACAAAgIAAIiIGOCIgKZjKCkTOUcAAk1hGYmAeYyaCOIAAAAAAAAABAAAAAAAAAAAAAAAAAAA==
> <PUBCHEM_IUPAC_OPENEYE_NAME>
3-(4-hydroxyphenyl)-2-[[(2S)-pyrrolidine-2-carbonyl]amino]propanoic acid
> <PUBCHEM_IUPAC_CAS_NAME>
3-(4-hydroxyphenyl)-2-[[oxo-[(2S)-2-pyrrolidinyl]methyl]amino]propanoic acid
> <PUBCHEM_IUPAC_NAME_MARKUP>
3-(4-hydroxyphenyl)-2-[[(2<I>S</I>)-pyrrolidine-2-carbonyl]amino]propanoic acid
> <PUBCHEM_IUPAC_NAME>
3-(4-hydroxyphenyl)-2-[[(2S)-pyrrolidine-2-carbonyl]amino]propanoic acid
> <PUBCHEM_IUPAC_SYSTEMATIC_NAME>
3-(4-hydroxyphenyl)-2-[[(2S)-pyrrolidin-2-yl]carbonylamino]propanoic acid
> <PUBCHEM_IUPAC_TRADITIONAL_NAME>
3-(4-hydroxyphenyl)-2-[[(2S)-prolyl]amino]propionic acid
> <PUBCHEM_IUPAC_INCHI>
InChI=1S/C14H18N2O4/c17-10-5-3-9(4-6-10)8-12(14(19)20)16-13(18)11-2-1-7-15-11/h3-6,11-12,15,17H,1-2,7-8H2,(H,16,18)(H,19,20)/t11-,12?/m0/s1
> <PUBCHEM_IUPAC_INCHIKEY>
OIDKVWTWGDWMHY-PXYINDEMSA-N
> <PUBCHEM_XLOGP3>
-2.4
> <PUBCHEM_EXACT_MASS>
278.12665706
> <PUBCHEM_MOLECULAR_FORMULA>
C14H18N2O4
> <PUBCHEM_MOLECULAR_WEIGHT>
278.30
> <PUBCHEM_OPENEYE_CAN_SMILES>
C1CC(NC1)C(=O)NC(CC2=CC=C(C=C2)O)C(=O)O
> <PUBCHEM_OPENEYE_ISO_SMILES>
C1C[C@H](NC1)C(=O)NC(CC2=CC=C(C=C2)O)C(=O)O
> <PUBCHEM_CACTVS_TPSA>
98.7
> <PUBCHEM_MONOISOTOPIC_WEIGHT>
278.12665706
> <PUBCHEM_TOTAL_CHARGE>
0
> <PUBCHEM_HEAVY_ATOM_COUNT>
20
> <PUBCHEM_ATOM_DEF_STEREO_COUNT>
1
> <PUBCHEM_ATOM_UDEF_STEREO_COUNT>
1
> <PUBCHEM_BOND_DEF_STEREO_COUNT>
0
> <PUBCHEM_BOND_UDEF_STEREO_COUNT>
0
> <PUBCHEM_ISOTOPIC_ATOM_COUNT>
0
> <PUBCHEM_COMPONENT_COUNT>
1
> <PUBCHEM_CACTVS_TAUTO_COUNT>
-1
> <PUBCHEM_COORDINATE_TYPE>
1
5
255
> <PUBCHEM_BONDANNOTATIONS>
12  13  3
14  16  8
14  17  8
16  18  8
17  19  8
18  20  8
19  20  8
7  11  5
$$$$
