515714
  -OEChem-10302200282D
 62 63  0     1  0  0  0  0  0999 V2000
    9.6730    5.8100    0.0000 O   0  0  0  0  0  0  0  0  0  0  0  0
    9.6730    4.8100    0.0000 O   0  0  0  0  0  0  0  0  0  0  0  0
    8.8070    3.3100    0.0000 O   0  0  0  0  0  0  0  0  0  0  0  0
    7.0749    0.3100    0.0000 O   0  0  0  0  0  0  0  0  0  0  0  0
    3.1350    7.5777    0.0000 O   0  0  0  0  0  0  0  0  0  0  0  0
    1.4030    1.5777    0.0000 O   0  0  0  0  0  0  0  0  0  0  0  0
    1.4030    7.5777    0.0000 O   0  0  0  0  0  0  0  0  0  0  0  0
    7.9979    7.8978    0.0000 N   0  0  0  0  0  0  0  0  0  0  0  0
    7.9409    5.8100    0.0000 N   0  0  0  0  0  0  0  0  0  0  0  0
    3.1350    5.5777    0.0000 N   0  0  0  0  0  0  0  0  0  0  0  0
    8.8070    7.3100    0.0000 C   0  0  1  0  0  0  0  0  0  0  0  0
    9.6160    7.8978    0.0000 C   0  0  0  0  0  0  0  0  0  0  0  0
    9.3070    8.8488    0.0000 C   0  0  0  0  0  0  0  0  0  0  0  0
    8.3070    8.8488    0.0000 C   0  0  0  0  0  0  0  0  0  0  0  0
    8.8070    6.3100    0.0000 C   0  0  0  0  0  0  0  0  0  0  0  0
    7.9409    4.8100    0.0000 C   0  0  1  0  0  0  0  0  0  0  0  0
    7.0749    4.3100    0.0000 C   0  0  0  0  0  0  0  0  0  0  0  0
    7.0749    3.3100    0.0000 C   0  0  0  0  0  0  0  0  0  0  0  0
    8.8070    4.3100    0.0000 C   0  0  0  0  0  0  0  0  0  0  0  0
    7.9409    2.8100    0.0000 C   0  0  0  0  0  0  0  0  0  0  0  0
    6.2089    2.8100    0.0000 C   0  0  0  0  0  0  0  0  0  0  0  0
    7.9409    1.8100    0.0000 C   0  0  0  0  0  0  0  0  0  0  0  0
    6.2089    1.8100    0.0000 C   0  0  0  0  0  0  0  0  0  0  0  0
    7.0749    1.3100    0.0000 C   0  0  0  0  0  0  0  0  0  0  0  0
    1.4030    5.5777    0.0000 C   0  0  0  0  0  0  0  0  0  0  0  0
    2.2690    6.0777    0.0000 C   0  0  1  0  0  0  0  0  0  0  0  0
    1.4030    4.5777    0.0000 C   0  0  0  0  0  0  0  0  0  0  0  0
    2.2690    4.0777    0.0000 C   0  0  0  0  0  0  0  0  0  0  0  0
    0.5369    4.0777    0.0000 C   0  0  0  0  0  0  0  0  0  0  0  0
    2.2690    7.0777    0.0000 C   0  0  0  0  0  0  0  0  0  0  0  0
    2.2690    3.0777    0.0000 C   0  0  0  0  0  0  0  0  0  0  0  0
    0.5369    3.0777    0.0000 C   0  0  0  0  0  0  0  0  0  0  0  0
    1.4030    2.5777    0.0000 C   0  0  0  0  0  0  0  0  0  0  0  0
    8.2545    7.0285    0.0000 H   0  0  0  0  0  0  0  0  0  0  0  0
    9.9260    7.3608    0.0000 H   0  0  0  0  0  0  0  0  0  0  0  0
   10.1824    8.1500    0.0000 H   0  0  0  0  0  0  0  0  0  0  0  0
    9.9134    8.9778    0.0000 H   0  0  0  0  0  0  0  0  0  0  0  0
    9.2422    9.4654    0.0000 H   0  0  0  0  0  0  0  0  0  0  0  0
    8.3718    9.4654    0.0000 H   0  0  0  0  0  0  0  0  0  0  0  0
    7.7005    8.9778    0.0000 H   0  0  0  0  0  0  0  0  0  0  0  0
    7.4083    7.7062    0.0000 H   0  0  0  0  0  0  0  0  0  0  0  0
    7.4040    6.1200    0.0000 H   0  0  0  0  0  0  0  0  0  0  0  0
    8.4779    5.1200    0.0000 H   0  0  0  0  0  0  0  0  0  0  0  0
    6.8629    4.8926    0.0000 H   0  0  0  0  0  0  0  0  0  0  0  0
    6.4643    4.2023    0.0000 H   0  0  0  0  0  0  0  0  0  0  0  0
    8.4779    3.1200    0.0000 H   0  0  0  0  0  0  0  0  0  0  0  0
    5.6720    3.1200    0.0000 H   0  0  0  0  0  0  0  0  0  0  0  0
    8.4779    1.5000    0.0000 H   0  0  0  0  0  0  0  0  0  0  0  0
    5.6720    1.5000    0.0000 H   0  0  0  0  0  0  0  0  0  0  0  0
   10.2099    4.5000    0.0000 H   0  0  0  0  0  0  0  0  0  0  0  0
    1.1909    6.1603    0.0000 H   0  0  0  0  0  0  0  0  0  0  0  0
    0.7924    5.4701    0.0000 H   0  0  0  0  0  0  0  0  0  0  0  0
    2.8059    6.3877    0.0000 H   0  0  0  0  0  0  0  0  0  0  0  0
    2.8059    4.3877    0.0000 H   0  0  0  0  0  0  0  0  0  0  0  0
    0.0000    4.3877    0.0000 H   0  0  0  0  0  0  0  0  0  0  0  0
    3.6720    5.8877    0.0000 H   0  0  0  0  0  0  0  0  0  0  0  0
    3.1350    4.9577    0.0000 H   0  0  0  0  0  0  0  0  0  0  0  0
    2.8059    2.7677    0.0000 H   0  0  0  0  0  0  0  0  0  0  0  0
    0.0000    2.7677    0.0000 H   0  0  0  0  0  0  0  0  0  0  0  0
    6.5380    0.0000    0.0000 H   0  0  0  0  0  0  0  0  0  0  0  0
    3.1350    8.1977    0.0000 H   0  0  0  0  0  0  0  0  0  0  0  0
    0.8660    1.2677    0.0000 H   0  0  0  0  0  0  0  0  0  0  0  0
  1 15  2  0  0  0  0
  2 19  1  0  0  0  0
  2 50  1  0  0  0  0
  3 19  2  0  0  0  0
  4 24  1  0  0  0  0
  4 60  1  0  0  0  0
  5 30  1  0  0  0  0
  5 61  1  0  0  0  0
  6 33  1  0  0  0  0
  6 62  1  0  0  0  0
  7 30  2  0  0  0  0
  8 11  1  0  0  0  0
  8 14  1  0  0  0  0
  8 41  1  0  0  0  0
  9 15  1  0  0  0  0
 16  9  1  6  0  0  0
  9 42  1  0  0  0  0
 26 10  1  1  0  0  0
 10 56  1  0  0  0  0
 10 57  1  0  0  0  0
 11 12  1  0  0  0  0
 11 15  1  1  0  0  0
 11 34  1  0  0  0  0
 12 13  1  0  0  0  0
 12 35  1  0  0  0  0
 12 36  1  0  0  0  0
 13 14  1  0  0  0  0
 13 37  1  0  0  0  0
 13 38  1  0  0  0  0
 14 39  1  0  0  0  0
 14 40  1  0  0  0  0
 16 17  1  0  0  0  0
 16 19  1  0  0  0  0
 16 43  1  0  0  0  0
 17 18  1  0  0  0  0
 17 44  1  0  0  0  0
 17 45  1  0  0  0  0
 18 20  2  0  0  0  0
 18 21  1  0  0  0  0
 20 22  1  0  0  0  0
 20 46  1  0  0  0  0
 21 23  2  0  0  0  0
 21 47  1  0  0  0  0
 22 24  2  0  0  0  0
 22 48  1  0  0  0  0
 23 24  1  0  0  0  0
 23 49  1  0  0  0  0
 25 26  1  0  0  0  0
 25 27  1  0  0  0  0
 25 51  1  0  0  0  0
 25 52  1  0  0  0  0
 26 30  1  0  0  0  0
 26 53  1  0  0  0  0
 27 28  2  0  0  0  0
 27 29  1  0  0  0  0
 28 31  1  0  0  0  0
 28 54  1  0  0  0  0
 29 32  2  0  0  0  0
 29 55  1  0  0  0  0
 31 33  2  0  0  0  0
 31 58  1  0  0  0  0
 32 33  1  0  0  0  0
 32 59  1  0  0  0  0
M  END
> <PUBCHEM_COMPOUND_CID>
515714
> <PUBCHEM_COMPOUND_CANONICALIZED>
1
> <PUBCHEM_CACTVS_COMPLEXITY>
529
> <PUBCHEM_CACTVS_HBOND_ACCEPTOR>
9
> <PUBCHEM_CACTVS_HBOND_DONOR>
7
> <PUBCHEM_CACTVS_ROTATABLE_BOND>
8
> <PUBCHEM_CACTVS_SUBSKEYS>
AAADceB7OAAAAAAAAAAAAAAAAAAAAWAAAAAwYAAAAAAAAAABQAAAHgAQCAAADCzBmAQwDoLAAgCIAiHSGAACAAAgIAAIiIGOCIgKZjKCkTOUcAAk1hGYmAeYyaCOIAAAAAAAAABAAAAAAAAAAAAAAAAAAA==
> <PUBCHEM_IUPAC_OPENEYE_NAME>
(2S)-2-amino-3-(4-hydroxyphenyl)propanoic acid;(2S)-3-(4-hydroxyphenyl)-2-[[(2S)-pyrrolidine-2-carbonyl]amino]propanoic acid
> <PUBCHEM_IUPAC_CAS_NAME>
(2S)-2-amino-3-(4-hydroxyphenyl)propanoic acid;(2S)-3-(4-hydroxyphenyl)-2-[[oxo-[(2S)-2-pyrrolidinyl]methyl]amino]propanoic acid
> <PUBCHEM_IUPAC_NAME_MARKUP>
(2<I>S</I>)-2-amino-3-(4-hydroxyphenyl)propanoic acid;(2<I>S</I>)-3-(4-hydroxyphenyl)-2-[[(2<I>S</I>)-pyrrolidine-2-carbonyl]amino]propanoic acid
> <PUBCHEM_IUPAC_NAME>
(2S)-2-amino-3-(4-hydroxyphenyl)propanoic acid;(2S)-3-(4-hydroxyphenyl)-2-[[(2S)-pyrrolidine-2-carbonyl]amino]propanoic acid
> <PUBCHEM_IUPAC_SYSTEMATIC_NAME>
(2S)-2-azanyl-3-(4-hydroxyphenyl)propanoic acid;(2S)-3-(4-hydroxyphenyl)-2-[[(2S)-pyrrolidin-2-yl]carbonylamino]propanoic acid
> <PUBCHEM_IUPAC_TRADITIONAL_NAME>
(2S)-2-amino-3-(4-hydroxyphenyl)propionic acid;(2S)-3-(4-hydroxyphenyl)-2-[[(2S)-prolyl]amino]propionic acid
> <PUBCHEM_IUPAC_INCHI>
InChI=1S/C14H18N2O4.C9H11NO3/c17-10-5-3-9(4-6-10)8-12(14(19)20)16-13(18)11-2-1-7-15-11;10-8(9(12)13)5-6-1-3-7(11)4-2-6/h3-6,11-12,15,17H,1-2,7-8H2,(H,16,18)(H,19,20);1-4,8,11H,5,10H2,(H,12,13)/t11-,12-;8-/m00/s1
> <PUBCHEM_IUPAC_INCHIKEY>
XDLBNVIOPAZNRB-TVDAKZJKSA-N
> <PUBCHEM_EXACT_MASS>
459.20055027
> <PUBCHEM_MOLECULAR_FORMULA>
C23H29N3O7
> <PUBCHEM_MOLECULAR_WEIGHT>
459.5
> <PUBCHEM_OPENEYE_CAN_SMILES>
C1CC(NC1)C(=O)NC(CC2=CC=C(C=C2)O)C(=O)O.C1=CC(=CC=C1CC(C(=O)O)N)O
> <PUBCHEM_OPENEYE_ISO_SMILES>
C1C[C@H](NC1)C(=O)N[C@@H](CC2=CC=C(C=C2)O)C(=O)O.C1=CC(=CC=C1C[C@@H](C(=O)O)N)O
> <PUBCHEM_CACTVS_TPSA>
182
> <PUBCHEM_MONOISOTOPIC_WEIGHT>
459.20055027
> <PUBCHEM_TOTAL_CHARGE>
0
> <PUBCHEM_HEAVY_ATOM_COUNT>
33
> <PUBCHEM_ATOM_DEF_STEREO_COUNT>
3
> <PUBCHEM_ATOM_UDEF_STEREO_COUNT>
0
> <PUBCHEM_BOND_DEF_STEREO_COUNT>
0
> <PUBCHEM_BOND_UDEF_STEREO_COUNT>
0
> <PUBCHEM_ISOTOPIC_ATOM_COUNT>
0
> <PUBCHEM_COMPONENT_COUNT>
2
> <PUBCHEM_CACTVS_TAUTO_COUNT>
-1
> <PUBCHEM_COORDINATE_TYPE>
1
5
255
> <PUBCHEM_BONDANNOTATIONS>
26  10  5
11  15  5
18  20  8
18  21  8
20  22  8
21  23  8
22  24  8
23  24  8
27  28  8
27  29  8
28  31  8
29  32  8
31  33  8
32  33  8
16  9  6
$$$$
