515789
  -OEChem-10302200282D
101105  0     1  0  0  0  0  0999 V2000
   11.9894    4.6061    0.0000 S   0  0  0  0  0  0  0  0  0  0  0  0
    9.7751   -4.9578    0.0000 O   0  0  0  0  0  0  0  0  0  0  0  0
   11.1317   -1.6172    0.0000 O   0  0  0  0  0  0  0  0  0  0  0  0
    5.3903   -3.6261    0.0000 O   0  0  0  0  0  0  0  0  0  0  0  0
    6.9726   -2.9216    0.0000 O   0  0  0  0  0  0  0  0  0  0  0  0
   10.4993    1.9325    0.0000 O   0  0  0  0  0  0  0  0  0  0  0  0
   11.1804    8.1939    0.0000 O   0  0  0  0  0  0  0  0  0  0  0  0
    8.9170    1.2280    0.0000 O   0  0  0  0  0  0  0  0  0  0  0  0
    9.5494   -2.3217    0.0000 N   0  0  0  0  0  0  0  0  0  0  0  0
    6.7916   -4.6442    0.0000 N   0  0  0  0  0  0  0  0  0  0  0  0
   10.3183    0.2099    0.0000 N   0  0  0  0  0  0  0  0  0  0  0  0
   11.1804    6.1939    0.0000 N   0  0  0  0  0  0  0  0  0  0  0  0
   10.3714    4.6061    0.0000 N   0  0  0  0  0  0  0  0  0  0  0  0
    2.4067   -3.3126    0.0000 N   0  0  0  0  0  0  0  0  0  0  0  0
    9.9562   -3.2352    0.0000 C   0  0  2  0  0  0  0  0  0  0  0  0
    9.3684   -4.0442    0.0000 C   0  0  2  0  0  0  0  0  0  0  0  0
    8.3739   -3.9397    0.0000 C   0  0  0  0  0  0  0  0  0  0  0  0
    7.7861   -4.7487    0.0000 C   0  0  2  0  0  0  0  0  0  0  0  0
   10.9507   -3.3398    0.0000 C   0  0  0  0  0  0  0  0  0  0  0  0
    8.1928   -5.6623    0.0000 C   0  0  0  0  0  0  0  0  0  0  0  0
    9.7305   -0.5991    0.0000 C   0  0  2  0  0  0  0  0  0  0  0  0
   10.1372   -1.5127    0.0000 C   0  0  0  0  0  0  0  0  0  0  0  0
    8.7360   -0.4946    0.0000 C   0  0  0  0  0  0  0  0  0  0  0  0
   11.3574   -4.2533    0.0000 C   0  0  0  0  0  0  0  0  0  0  0  0
    7.6050   -6.4713    0.0000 C   0  0  0  0  0  0  0  0  0  0  0  0
    8.1482   -1.3036    0.0000 C   0  0  0  0  0  0  0  0  0  0  0  0
    8.3292    0.4190    0.0000 C   0  0  0  0  0  0  0  0  0  0  0  0
   12.3520   -4.3578    0.0000 C   0  0  0  0  0  0  0  0  0  0  0  0
   10.7696   -5.0623    0.0000 C   0  0  0  0  0  0  0  0  0  0  0  0
    6.3848   -3.7307    0.0000 C   0  0  0  0  0  0  0  0  0  0  0  0
    8.0118   -7.3848    0.0000 C   0  0  0  0  0  0  0  0  0  0  0  0
    6.6105   -6.3668    0.0000 C   0  0  0  0  0  0  0  0  0  0  0  0
   12.7587   -5.2714    0.0000 C   0  0  0  0  0  0  0  0  0  0  0  0
   11.1764   -5.9759    0.0000 C   0  0  0  0  0  0  0  0  0  0  0  0
    9.9115    1.1234    0.0000 C   0  0  0  0  0  0  0  0  0  0  0  0
    7.4240   -8.1939    0.0000 C   0  0  0  0  0  0  0  0  0  0  0  0
    6.0227   -7.1758    0.0000 C   0  0  0  0  0  0  0  0  0  0  0  0
   12.1709   -6.0804    0.0000 C   0  0  0  0  0  0  0  0  0  0  0  0
    6.4295   -8.0893    0.0000 C   0  0  0  0  0  0  0  0  0  0  0  0
   12.0464    6.6939    0.0000 C   0  0  0  0  0  0  0  0  0  0  0  0
   10.3143    6.6939    0.0000 C   0  0  0  0  0  0  0  0  0  0  0  0
    4.9836   -2.7126    0.0000 C   0  0  0  0  0  0  0  0  0  0  0  0
   12.0464    7.6939    0.0000 C   0  0  0  0  0  0  0  0  0  0  0  0
   10.3143    7.6939    0.0000 C   0  0  0  0  0  0  0  0  0  0  0  0
   10.0926    2.8460    0.0000 C   0  0  0  0  0  0  0  0  0  0  0  0
   11.1804    5.1939    0.0000 C   0  0  0  0  0  0  0  0  0  0  0  0
   10.6804    3.6550    0.0000 C   0  0  0  0  0  0  0  0  0  0  0  0
    3.9890   -2.6081    0.0000 C   0  0  0  0  0  0  0  0  0  0  0  0
   11.6804    3.6550    0.0000 C   0  0  0  0  0  0  0  0  0  0  0  0
    3.5823   -1.6945    0.0000 C   0  0  0  0  0  0  0  0  0  0  0  0
    3.4013   -3.4171    0.0000 C   0  0  0  0  0  0  0  0  0  0  0  0
    2.5878   -1.5900    0.0000 C   0  0  0  0  0  0  0  0  0  0  0  0
    2.0000   -2.3990    0.0000 C   0  0  0  0  0  0  0  0  0  0  0  0
    9.3396   -3.1704    0.0000 H   0  0  0  0  0  0  0  0  0  0  0  0
    9.9850   -4.1091    0.0000 H   0  0  0  0  0  0  0  0  0  0  0  0
    8.5448   -3.3437    0.0000 H   0  0  0  0  0  0  0  0  0  0  0  0
    7.8166   -3.6679    0.0000 H   0  0  0  0  0  0  0  0  0  0  0  0
    7.5339   -4.1823    0.0000 H   0  0  0  0  0  0  0  0  0  0  0  0
   11.5523   -3.1898    0.0000 H   0  0  0  0  0  0  0  0  0  0  0  0
   10.9074   -2.7213    0.0000 H   0  0  0  0  0  0  0  0  0  0  0  0
    8.9328   -2.2569    0.0000 H   0  0  0  0  0  0  0  0  0  0  0  0
    8.6235   -6.1083    0.0000 H   0  0  0  0  0  0  0  0  0  0  0  0
    8.7068   -5.3156    0.0000 H   0  0  0  0  0  0  0  0  0  0  0  0
    9.4783   -0.0327    0.0000 H   0  0  0  0  0  0  0  0  0  0  0  0
    8.1194   -0.4298    0.0000 H   0  0  0  0  0  0  0  0  0  0  0  0
    6.4271   -5.1458    0.0000 H   0  0  0  0  0  0  0  0  0  0  0  0
    9.4107   -5.4594    0.0000 H   0  0  0  0  0  0  0  0  0  0  0  0
   10.9349    0.1451    0.0000 H   0  0  0  0  0  0  0  0  0  0  0  0
    7.6466   -0.9392    0.0000 H   0  0  0  0  0  0  0  0  0  0  0  0
    7.7838   -1.8052    0.0000 H   0  0  0  0  0  0  0  0  0  0  0  0
    8.6498   -1.6680    0.0000 H   0  0  0  0  0  0  0  0  0  0  0  0
    8.8956    0.6711    0.0000 H   0  0  0  0  0  0  0  0  0  0  0  0
    8.0770    0.9853    0.0000 H   0  0  0  0  0  0  0  0  0  0  0  0
    7.7628    0.1668    0.0000 H   0  0  0  0  0  0  0  0  0  0  0  0
   12.7164   -3.8562    0.0000 H   0  0  0  0  0  0  0  0  0  0  0  0
   10.1530   -4.9975    0.0000 H   0  0  0  0  0  0  0  0  0  0  0  0
    8.6284   -7.4496    0.0000 H   0  0  0  0  0  0  0  0  0  0  0  0
    6.3583   -5.8004    0.0000 H   0  0  0  0  0  0  0  0  0  0  0  0
   13.3753   -5.3362    0.0000 H   0  0  0  0  0  0  0  0  0  0  0  0
   10.8120   -6.4775    0.0000 H   0  0  0  0  0  0  0  0  0  0  0  0
    7.6762   -8.7603    0.0000 H   0  0  0  0  0  0  0  0  0  0  0  0
    5.4061   -7.1110    0.0000 H   0  0  0  0  0  0  0  0  0  0  0  0
   12.4231   -6.6468    0.0000 H   0  0  0  0  0  0  0  0  0  0  0  0
    6.0650   -8.5909    0.0000 H   0  0  0  0  0  0  0  0  0  0  0  0
   12.2584    6.1112    0.0000 H   0  0  0  0  0  0  0  0  0  0  0  0
   12.6570    6.8015    0.0000 H   0  0  0  0  0  0  0  0  0  0  0  0
    9.7038    6.8015    0.0000 H   0  0  0  0  0  0  0  0  0  0  0  0
   10.1023    6.1112    0.0000 H   0  0  0  0  0  0  0  0  0  0  0  0
    5.5851   -2.5626    0.0000 H   0  0  0  0  0  0  0  0  0  0  0  0
    4.9403   -2.0941    0.0000 H   0  0  0  0  0  0  0  0  0  0  0  0
   12.6570    7.5862    0.0000 H   0  0  0  0  0  0  0  0  0  0  0  0
   12.2584    8.2765    0.0000 H   0  0  0  0  0  0  0  0  0  0  0  0
   10.1023    8.2765    0.0000 H   0  0  0  0  0  0  0  0  0  0  0  0
    9.7038    7.5862    0.0000 H   0  0  0  0  0  0  0  0  0  0  0  0
    9.6619    3.2920    0.0000 H   0  0  0  0  0  0  0  0  0  0  0  0
    9.5786    2.4993    0.0000 H   0  0  0  0  0  0  0  0  0  0  0  0
   12.0448    3.1534    0.0000 H   0  0  0  0  0  0  0  0  0  0  0  0
    3.9467   -1.1929    0.0000 H   0  0  0  0  0  0  0  0  0  0  0  0
    3.6534   -3.9835    0.0000 H   0  0  0  0  0  0  0  0  0  0  0  0
    2.3356   -1.0236    0.0000 H   0  0  0  0  0  0  0  0  0  0  0  0
    1.3834   -2.3342    0.0000 H   0  0  0  0  0  0  0  0  0  0  0  0
  1 46  1  0  0  0  0
  1 49  1  0  0  0  0
 16  2  1  1  0  0  0
  2 67  1  0  0  0  0
  3 22  2  0  0  0  0
  4 30  1  0  0  0  0
  4 42  1  0  0  0  0
  5 30  2  0  0  0  0
  6 35  1  0  0  0  0
  6 45  1  0  0  0  0
  7 43  1  0  0  0  0
  7 44  1  0  0  0  0
  8 35  2  0  0  0  0
 15  9  1  1  0  0  0
  9 22  1  0  0  0  0
  9 61  1  0  0  0  0
 18 10  1  6  0  0  0
 10 30  1  0  0  0  0
 10 66  1  0  0  0  0
 21 11  1  6  0  0  0
 11 35  1  0  0  0  0
 11 68  1  0  0  0  0
 12 40  1  0  0  0  0
 12 41  1  0  0  0  0
 12 46  1  0  0  0  0
 13 46  2  0  0  0  0
 13 47  1  0  0  0  0
 14 51  1  0  0  0  0
 14 53  2  0  0  0  0
 15 16  1  0  0  0  0
 15 19  1  0  0  0  0
 15 54  1  0  0  0  0
 16 17  1  0  0  0  0
 16 55  1  0  0  0  0
 17 18  1  0  0  0  0
 17 56  1  0  0  0  0
 17 57  1  0  0  0  0
 18 20  1  0  0  0  0
 18 58  1  0  0  0  0
 19 24  1  0  0  0  0
 19 59  1  0  0  0  0
 19 60  1  0  0  0  0
 20 25  1  0  0  0  0
 20 62  1  0  0  0  0
 20 63  1  0  0  0  0
 21 22  1  0  0  0  0
 21 23  1  0  0  0  0
 21 64  1  0  0  0  0
 23 26  1  0  0  0  0
 23 27  1  0  0  0  0
 23 65  1  0  0  0  0
 24 28  2  0  0  0  0
 24 29  1  0  0  0  0
 25 31  2  0  0  0  0
 25 32  1  0  0  0  0
 26 69  1  0  0  0  0
 26 70  1  0  0  0  0
 26 71  1  0  0  0  0
 27 72  1  0  0  0  0
 27 73  1  0  0  0  0
 27 74  1  0  0  0  0
 28 33  1  0  0  0  0
 28 75  1  0  0  0  0
 29 34  2  0  0  0  0
 29 76  1  0  0  0  0
 31 36  1  0  0  0  0
 31 77  1  0  0  0  0
 32 37  2  0  0  0  0
 32 78  1  0  0  0  0
 33 38  2  0  0  0  0
 33 79  1  0  0  0  0
 34 38  1  0  0  0  0
 34 80  1  0  0  0  0
 36 39  2  0  0  0  0
 36 81  1  0  0  0  0
 37 39  1  0  0  0  0
 37 82  1  0  0  0  0
 38 83  1  0  0  0  0
 39 84  1  0  0  0  0
 40 43  1  0  0  0  0
 40 85  1  0  0  0  0
 40 86  1  0  0  0  0
 41 44  1  0  0  0  0
 41 87  1  0  0  0  0
 41 88  1  0  0  0  0
 42 48  1  0  0  0  0
 42 89  1  0  0  0  0
 42 90  1  0  0  0  0
 43 91  1  0  0  0  0
 43 92  1  0  0  0  0
 44 93  1  0  0  0  0
 44 94  1  0  0  0  0
 45 47  1  0  0  0  0
 45 95  1  0  0  0  0
 45 96  1  0  0  0  0
 47 49  2  0  0  0  0
 48 50  1  0  0  0  0
 48 51  2  0  0  0  0
 49 97  1  0  0  0  0
 50 52  2  0  0  0  0
 50 98  1  0  0  0  0
 51 99  1  0  0  0  0
 52 53  1  0  0  0  0
 52100  1  0  0  0  0
 53101  1  0  0  0  0
M  END
> <PUBCHEM_COMPOUND_CID>
515789
> <PUBCHEM_COMPOUND_CANONICALIZED>
1
> <PUBCHEM_CACTVS_COMPLEXITY>
1100
> <PUBCHEM_CACTVS_HBOND_ACCEPTOR>
11
> <PUBCHEM_CACTVS_HBOND_DONOR>
4
> <PUBCHEM_CACTVS_ROTATABLE_BOND>
19
> <PUBCHEM_CACTVS_SUBSKEYS>
AAADcfB/uABAAAAAAAAAAAAAAAAAAWAAAAA8eIEAAAAAAAAB9AAAHgQQCAAADTzl3ga/mZPIFgisAzV3fASC8KlxCjgJ2LW4bJmKdvLgubmfcAhu1gPY6CeQ0PIOAAAAAAAAAAAAAAAAAAAAAAAAAAAAAA==
> <PUBCHEM_IUPAC_OPENEYE_NAME>
3-pyridylmethyl N-[(1S,3S,4S)-1-benzyl-3-hydroxy-4-[[(2S)-3-methyl-2-[(2-morpholinothiazol-4-yl)methoxycarbonylamino]butanoyl]amino]-5-phenyl-pentyl]carbamate
> <PUBCHEM_IUPAC_CAS_NAME>
N-[(2S,4S,5S)-4-hydroxy-5-[[(2S)-3-methyl-2-[[[2-(4-morpholinyl)-4-thiazolyl]methoxy-oxomethyl]amino]-1-oxobutyl]amino]-1,6-diphenylhexan-2-yl]carbamic acid 3-pyridinylmethyl ester
> <PUBCHEM_IUPAC_NAME_MARKUP>
(2-morpholin-4-yl-1,3-thiazol-4-yl)methyl <I>N</I>-[(2<I>S</I>)-1-[[(2<I>S</I>,3<I>S</I>,5<I>S</I>)-3-hydroxy-1,6-diphenyl-5-(pyridin-3-ylmethoxycarbonylamino)hexan-2-yl]amino]-3-methyl-1-oxobutan-2-yl]carbamate
> <PUBCHEM_IUPAC_NAME>
(2-morpholin-4-yl-1,3-thiazol-4-yl)methyl N-[(2S)-1-[[(2S,3S,5S)-3-hydroxy-1,6-diphenyl-5-(pyridin-3-ylmethoxycarbonylamino)hexan-2-yl]amino]-3-methyl-1-oxobutan-2-yl]carbamate
> <PUBCHEM_IUPAC_SYSTEMATIC_NAME>
pyridin-3-ylmethyl N-[(2S,4S,5S)-5-[[(2S)-3-methyl-2-[(2-morpholin-4-yl-1,3-thiazol-4-yl)methoxycarbonylamino]butanoyl]amino]-4-oxidanyl-1,6-diphenyl-hexan-2-yl]carbamate
> <PUBCHEM_IUPAC_TRADITIONAL_NAME>
N-[(1S,3S,4S)-1-benzyl-3-hydroxy-4-[[(2S)-3-methyl-2-[(2-morpholinothiazol-4-yl)methoxycarbonylamino]butanoyl]amino]-5-phenyl-pentyl]carbamic acid 3-pyridylmethyl ester
> <PUBCHEM_IUPAC_INCHI>
InChI=1S/C39H48N6O7S/c1-27(2)35(44-39(49)52-25-32-26-53-37(41-32)45-16-18-50-19-17-45)36(47)43-33(21-29-12-7-4-8-13-29)34(46)22-31(20-28-10-5-3-6-11-28)42-38(48)51-24-30-14-9-15-40-23-30/h3-15,23,26-27,31,33-35,46H,16-22,24-25H2,1-2H3,(H,42,48)(H,43,47)(H,44,49)/t31-,33-,34-,35-/m0/s1
> <PUBCHEM_IUPAC_INCHIKEY>
CUIIPLKJCMMEAC-OZFLXDGESA-N
> <PUBCHEM_XLOGP3_AA>
5.2
> <PUBCHEM_EXACT_MASS>
744.33051906
> <PUBCHEM_MOLECULAR_FORMULA>
C39H48N6O7S
> <PUBCHEM_MOLECULAR_WEIGHT>
744.9
> <PUBCHEM_OPENEYE_CAN_SMILES>
CC(C)C(C(=O)NC(CC1=CC=CC=C1)C(CC(CC2=CC=CC=C2)NC(=O)OCC3=CN=CC=C3)O)NC(=O)OCC4=CSC(=N4)N5CCOCC5
> <PUBCHEM_OPENEYE_ISO_SMILES>
CC(C)[C@@H](C(=O)N[C@@H](CC1=CC=CC=C1)[C@H](C[C@H](CC2=CC=CC=C2)NC(=O)OCC3=CN=CC=C3)O)NC(=O)OCC4=CSC(=N4)N5CCOCC5
> <PUBCHEM_CACTVS_TPSA>
193
> <PUBCHEM_MONOISOTOPIC_WEIGHT>
744.33051906
> <PUBCHEM_TOTAL_CHARGE>
0
> <PUBCHEM_HEAVY_ATOM_COUNT>
53
> <PUBCHEM_ATOM_DEF_STEREO_COUNT>
4
> <PUBCHEM_ATOM_UDEF_STEREO_COUNT>
0
> <PUBCHEM_BOND_DEF_STEREO_COUNT>
0
> <PUBCHEM_BOND_UDEF_STEREO_COUNT>
0
> <PUBCHEM_ISOTOPIC_ATOM_COUNT>
0
> <PUBCHEM_COMPONENT_COUNT>
1
> <PUBCHEM_CACTVS_TAUTO_COUNT>
-1
> <PUBCHEM_COORDINATE_TYPE>
1
5
255
> <PUBCHEM_BONDANNOTATIONS>
1  46  8
1  49  8
18  10  6
21  11  6
13  46  8
13  47  8
14  51  8
14  53  8
16  2  5
24  28  8
24  29  8
25  31  8
25  32  8
28  33  8
29  34  8
31  36  8
32  37  8
33  38  8
34  38  8
36  39  8
37  39  8
47  49  8
48  50  8
48  51  8
50  52  8
52  53  8
15  9  5
$$$$
