515712
  -OEChem-10302200282D
 65 66  0     1  0  0  0  0  0999 V2000
    9.6730    5.8100    0.0000 O   0  0  0  0  0  0  0  0  0  0  0  0
    9.6730    4.8100    0.0000 O   0  0  0  0  0  0  0  0  0  0  0  0
    8.8070    3.3100    0.0000 O   0  0  0  0  0  0  0  0  0  0  0  0
    7.0749    0.3100    0.0000 O   0  0  0  0  0  0  0  0  0  0  0  0
    3.1350    8.2702    0.0000 O   0  0  0  0  0  0  0  0  0  0  0  0
    1.4030    2.2702    0.0000 O   0  0  0  0  0  0  0  0  0  0  0  0
    1.4030    8.2702    0.0000 O   0  0  0  0  0  0  0  0  0  0  0  0
    7.9409    5.8100    0.0000 N   0  0  0  0  0  0  0  0  0  0  0  0
    7.9409    7.8100    0.0000 N   0  0  0  0  0  0  0  0  0  0  0  0
    8.8640    9.3978    0.0000 N   0  0  0  0  0  0  0  0  0  0  0  0
   10.1730   10.3488    0.0000 N   0  0  0  0  0  0  0  0  0  0  0  0
    3.1350    6.2702    0.0000 N   0  0  0  0  0  0  0  0  0  0  0  0
    7.9409    4.8100    0.0000 C   0  0  1  0  0  0  0  0  0  0  0  0
    8.8070    7.3100    0.0000 C   0  0  1  0  0  0  0  0  0  0  0  0
    7.0749    4.3100    0.0000 C   0  0  0  0  0  0  0  0  0  0  0  0
    9.6730    7.8100    0.0000 C   0  0  0  0  0  0  0  0  0  0  0  0
    8.8070    6.3100    0.0000 C   0  0  0  0  0  0  0  0  0  0  0  0
    7.0749    3.3100    0.0000 C   0  0  0  0  0  0  0  0  0  0  0  0
    9.6730    8.8100    0.0000 C   0  0  0  0  0  0  0  0  0  0  0  0
    8.8070    4.3100    0.0000 C   0  0  0  0  0  0  0  0  0  0  0  0
    7.9409    2.8100    0.0000 C   0  0  0  0  0  0  0  0  0  0  0  0
    6.2089    2.8100    0.0000 C   0  0  0  0  0  0  0  0  0  0  0  0
   10.4820    9.3978    0.0000 C   0  0  0  0  0  0  0  0  0  0  0  0
    1.4030    6.2702    0.0000 C   0  0  0  0  0  0  0  0  0  0  0  0
    2.2690    6.7702    0.0000 C   0  0  1  0  0  0  0  0  0  0  0  0
    7.9409    1.8100    0.0000 C   0  0  0  0  0  0  0  0  0  0  0  0
    6.2089    1.8100    0.0000 C   0  0  0  0  0  0  0  0  0  0  0  0
    1.4030    5.2702    0.0000 C   0  0  0  0  0  0  0  0  0  0  0  0
    7.0749    1.3100    0.0000 C   0  0  0  0  0  0  0  0  0  0  0  0
    9.1730   10.3488    0.0000 C   0  0  0  0  0  0  0  0  0  0  0  0
    2.2690    4.7702    0.0000 C   0  0  0  0  0  0  0  0  0  0  0  0
    0.5369    4.7702    0.0000 C   0  0  0  0  0  0  0  0  0  0  0  0
    2.2690    7.7702    0.0000 C   0  0  0  0  0  0  0  0  0  0  0  0
    2.2690    3.7702    0.0000 C   0  0  0  0  0  0  0  0  0  0  0  0
    0.5369    3.7702    0.0000 C   0  0  0  0  0  0  0  0  0  0  0  0
    1.4030    3.2702    0.0000 C   0  0  0  0  0  0  0  0  0  0  0  0
    8.4779    5.1200    0.0000 H   0  0  0  0  0  0  0  0  0  0  0  0
    8.8070    7.9300    0.0000 H   0  0  0  0  0  0  0  0  0  0  0  0
    6.8629    4.8926    0.0000 H   0  0  0  0  0  0  0  0  0  0  0  0
    6.4643    4.2023    0.0000 H   0  0  0  0  0  0  0  0  0  0  0  0
    9.8850    7.2274    0.0000 H   0  0  0  0  0  0  0  0  0  0  0  0
   10.2836    7.9177    0.0000 H   0  0  0  0  0  0  0  0  0  0  0  0
    7.4040    6.1200    0.0000 H   0  0  0  0  0  0  0  0  0  0  0  0
    7.9409    8.4300    0.0000 H   0  0  0  0  0  0  0  0  0  0  0  0
    7.4040    7.5000    0.0000 H   0  0  0  0  0  0  0  0  0  0  0  0
    8.4779    3.1200    0.0000 H   0  0  0  0  0  0  0  0  0  0  0  0
    5.6720    3.1200    0.0000 H   0  0  0  0  0  0  0  0  0  0  0  0
    8.2743    9.2062    0.0000 H   0  0  0  0  0  0  0  0  0  0  0  0
    1.1909    6.8528    0.0000 H   0  0  0  0  0  0  0  0  0  0  0  0
    0.7924    6.1626    0.0000 H   0  0  0  0  0  0  0  0  0  0  0  0
   11.0717    9.2062    0.0000 H   0  0  0  0  0  0  0  0  0  0  0  0
    2.8059    7.0802    0.0000 H   0  0  0  0  0  0  0  0  0  0  0  0
    8.4779    1.5000    0.0000 H   0  0  0  0  0  0  0  0  0  0  0  0
    5.6720    1.5000    0.0000 H   0  0  0  0  0  0  0  0  0  0  0  0
    8.8086   10.8504    0.0000 H   0  0  0  0  0  0  0  0  0  0  0  0
    2.8059    5.0802    0.0000 H   0  0  0  0  0  0  0  0  0  0  0  0
    0.0000    5.0802    0.0000 H   0  0  0  0  0  0  0  0  0  0  0  0
   10.2099    4.5000    0.0000 H   0  0  0  0  0  0  0  0  0  0  0  0
    3.6720    6.5802    0.0000 H   0  0  0  0  0  0  0  0  0  0  0  0
    3.1350    5.6502    0.0000 H   0  0  0  0  0  0  0  0  0  0  0  0
    2.8059    3.4602    0.0000 H   0  0  0  0  0  0  0  0  0  0  0  0
    0.0000    3.4602    0.0000 H   0  0  0  0  0  0  0  0  0  0  0  0
    6.5380    0.0000    0.0000 H   0  0  0  0  0  0  0  0  0  0  0  0
    3.1350    8.8902    0.0000 H   0  0  0  0  0  0  0  0  0  0  0  0
    0.8660    1.9602    0.0000 H   0  0  0  0  0  0  0  0  0  0  0  0
  1 17  2  0  0  0  0
  2 20  1  0  0  0  0
  2 58  1  0  0  0  0
  3 20  2  0  0  0  0
  4 29  1  0  0  0  0
  4 63  1  0  0  0  0
  5 33  1  0  0  0  0
  5 64  1  0  0  0  0
  6 36  1  0  0  0  0
  6 65  1  0  0  0  0
  7 33  2  0  0  0  0
 13  8  1  6  0  0  0
  8 17  1  0  0  0  0
  8 43  1  0  0  0  0
 14  9  1  1  0  0  0
  9 44  1  0  0  0  0
  9 45  1  0  0  0  0
 10 19  1  0  0  0  0
 10 30  1  0  0  0  0
 10 48  1  0  0  0  0
 11 23  1  0  0  0  0
 11 30  2  0  0  0  0
 25 12  1  1  0  0  0
 12 59  1  0  0  0  0
 12 60  1  0  0  0  0
 13 15  1  0  0  0  0
 13 20  1  0  0  0  0
 13 37  1  0  0  0  0
 14 16  1  0  0  0  0
 14 17  1  0  0  0  0
 14 38  1  0  0  0  0
 15 18  1  0  0  0  0
 15 39  1  0  0  0  0
 15 40  1  0  0  0  0
 16 19  1  0  0  0  0
 16 41  1  0  0  0  0
 16 42  1  0  0  0  0
 18 21  2  0  0  0  0
 18 22  1  0  0  0  0
 19 23  2  0  0  0  0
 21 26  1  0  0  0  0
 21 46  1  0  0  0  0
 22 27  2  0  0  0  0
 22 47  1  0  0  0  0
 23 51  1  0  0  0  0
 24 25  1  0  0  0  0
 24 28  1  0  0  0  0
 24 49  1  0  0  0  0
 24 50  1  0  0  0  0
 25 33  1  0  0  0  0
 25 52  1  0  0  0  0
 26 29  2  0  0  0  0
 26 53  1  0  0  0  0
 27 29  1  0  0  0  0
 27 54  1  0  0  0  0
 28 31  2  0  0  0  0
 28 32  1  0  0  0  0
 30 55  1  0  0  0  0
 31 34  1  0  0  0  0
 31 56  1  0  0  0  0
 32 35  2  0  0  0  0
 32 57  1  0  0  0  0
 34 36  2  0  0  0  0
 34 61  1  0  0  0  0
 35 36  1  0  0  0  0
 35 62  1  0  0  0  0
M  END
> <PUBCHEM_COMPOUND_CID>
515712
> <PUBCHEM_COMPOUND_CANONICALIZED>
1
> <PUBCHEM_CACTVS_COMPLEXITY>
588
> <PUBCHEM_CACTVS_HBOND_ACCEPTOR>
10
> <PUBCHEM_CACTVS_HBOND_DONOR>
8
> <PUBCHEM_CACTVS_ROTATABLE_BOND>
10
> <PUBCHEM_CACTVS_SUBSKEYS>
AAADceB7uAAAAAAAAAAAAAAAAAAAAWAAAAAwYAAAAAAAAAAB0AAAHgAQCAAADCzBngQ9npbJkgCoAzX3fAACgC2xMqAJ2YG+eIiKbjLC2TOUcAAs1hPY2CecyaCOIAAAAAAAAABAAAAAAAAAAAAAAAAAAA==
> <PUBCHEM_IUPAC_OPENEYE_NAME>
(2S)-2-amino-3-(4-hydroxyphenyl)propanoic acid;(2S)-2-[[(2S)-2-amino-3-(1H-imidazol-5-yl)propanoyl]amino]-3-(4-hydroxyphenyl)propanoic acid
> <PUBCHEM_IUPAC_CAS_NAME>
(2S)-2-amino-3-(4-hydroxyphenyl)propanoic acid;(2S)-2-[[(2S)-2-amino-3-(1H-imidazol-5-yl)-1-oxopropyl]amino]-3-(4-hydroxyphenyl)propanoic acid
> <PUBCHEM_IUPAC_NAME_MARKUP>
(2<I>S</I>)-2-amino-3-(4-hydroxyphenyl)propanoic acid;(2<I>S</I>)-2-[[(2<I>S</I>)-2-amino-3-(1<I>H</I>-imidazol-5-yl)propanoyl]amino]-3-(4-hydroxyphenyl)propanoic acid
> <PUBCHEM_IUPAC_NAME>
(2S)-2-amino-3-(4-hydroxyphenyl)propanoic acid;(2S)-2-[[(2S)-2-amino-3-(1H-imidazol-5-yl)propanoyl]amino]-3-(4-hydroxyphenyl)propanoic acid
> <PUBCHEM_IUPAC_SYSTEMATIC_NAME>
(2S)-2-azanyl-3-(4-hydroxyphenyl)propanoic acid;(2S)-2-[[(2S)-2-azanyl-3-(1H-imidazol-5-yl)propanoyl]amino]-3-(4-hydroxyphenyl)propanoic acid
> <PUBCHEM_IUPAC_TRADITIONAL_NAME>
(2S)-2-amino-3-(4-hydroxyphenyl)propionic acid;(2S)-2-[[(2S)-2-amino-3-(1H-imidazol-5-yl)propanoyl]amino]-3-(4-hydroxyphenyl)propionic acid
> <PUBCHEM_IUPAC_INCHI>
InChI=1S/C15H18N4O4.C9H11NO3/c16-12(6-10-7-17-8-18-10)14(21)19-13(15(22)23)5-9-1-3-11(20)4-2-9;10-8(9(12)13)5-6-1-3-7(11)4-2-6/h1-4,7-8,12-13,20H,5-6,16H2,(H,17,18)(H,19,21)(H,22,23);1-4,8,11H,5,10H2,(H,12,13)/t12-,13-;8-/m00/s1
> <PUBCHEM_IUPAC_INCHIKEY>
XGPUFOQRZQJSJX-UILKYZMVSA-N
> <PUBCHEM_EXACT_MASS>
499.20669828
> <PUBCHEM_MOLECULAR_FORMULA>
C24H29N5O7
> <PUBCHEM_MOLECULAR_WEIGHT>
499.5
> <PUBCHEM_OPENEYE_CAN_SMILES>
C1=CC(=CC=C1CC(C(=O)O)N)O.C1=CC(=CC=C1CC(C(=O)O)NC(=O)C(CC2=CN=CN2)N)O
> <PUBCHEM_OPENEYE_ISO_SMILES>
C1=CC(=CC=C1C[C@@H](C(=O)O)N)O.C1=CC(=CC=C1C[C@@H](C(=O)O)NC(=O)[C@H](CC2=CN=CN2)N)O
> <PUBCHEM_CACTVS_TPSA>
225
> <PUBCHEM_MONOISOTOPIC_WEIGHT>
499.20669828
> <PUBCHEM_TOTAL_CHARGE>
0
> <PUBCHEM_HEAVY_ATOM_COUNT>
36
> <PUBCHEM_ATOM_DEF_STEREO_COUNT>
3
> <PUBCHEM_ATOM_UDEF_STEREO_COUNT>
0
> <PUBCHEM_BOND_DEF_STEREO_COUNT>
0
> <PUBCHEM_BOND_UDEF_STEREO_COUNT>
0
> <PUBCHEM_ISOTOPIC_ATOM_COUNT>
0
> <PUBCHEM_COMPONENT_COUNT>
2
> <PUBCHEM_CACTVS_TAUTO_COUNT>
-1
> <PUBCHEM_COORDINATE_TYPE>
1
5
255
> <PUBCHEM_BONDANNOTATIONS>
10  19  8
10  30  8
11  23  8
11  30  8
25  12  5
18  21  8
18  22  8
19  23  8
21  26  8
22  27  8
26  29  8
27  29  8
28  31  8
28  32  8
31  34  8
32  35  8
34  36  8
35  36  8
13  8  6
14  9  5
$$$$
