515885
  -OEChem-10302200282D
 93100  0     1  0  0  0  0  0999 V2000
   13.8535    1.5703    0.0000 O   0  0  0  0  0  0  0  0  0  0  0  0
   12.3932    2.7348    0.0000 O   0  0  0  0  0  0  0  0  0  0  0  0
   10.5723   -1.0464    0.0000 O   0  0  0  0  0  0  0  0  0  0  0  0
   12.1707   -0.4871    0.0000 N   0  0  0  0  0  0  0  0  0  0  0  0
   10.7619    0.6364    0.0000 N   0  0  0  0  0  0  0  0  0  0  0  0
    6.7619    2.3684    0.0000 N   0  0  0  0  0  0  0  0  0  0  0  0
    9.6240   -4.3169    0.0000 N   0  0  0  0  0  0  0  0  0  0  0  0
   10.2209   -5.1118    0.0000 N   0  0  0  0  0  0  0  0  0  0  0  0
    4.6783    4.0392    0.0000 N   0  0  0  0  0  0  0  0  0  0  0  0
    4.6783    2.4297    0.0000 N   0  0  0  0  0  0  0  0  0  0  0  0
   12.9525    0.1364    0.0000 C   0  0  1  0  0  0  0  0  0  0  0  0
   11.1958    1.5374    0.0000 C   0  0  1  0  0  0  0  0  0  0  0  0
   12.9525    1.1364    0.0000 C   0  0  1  0  0  0  0  0  0  0  0  0
   12.1707    1.7599    0.0000 C   0  0  1  0  0  0  0  0  0  0  0  0
   13.8535   -0.2975    0.0000 C   0  0  0  0  0  0  0  0  0  0  0  0
   10.5723    2.3192    0.0000 C   0  0  0  0  0  0  0  0  0  0  0  0
   11.1958   -0.2646    0.0000 C   0  0  0  0  0  0  0  0  0  0  0  0
   12.3932   -1.4620    0.0000 C   0  0  0  0  0  0  0  0  0  0  0  0
    9.7619    0.6364    0.0000 C   0  0  0  0  0  0  0  0  0  0  0  0
   14.6797    0.2658    0.0000 C   0  0  0  0  0  0  0  0  0  0  0  0
   10.9376    3.2500    0.0000 C   0  0  0  0  0  0  0  0  0  0  0  0
   11.6602   -2.1422    0.0000 C   0  0  0  0  0  0  0  0  0  0  0  0
    9.2619    1.5024    0.0000 C   0  0  0  0  0  0  0  0  0  0  0  0
   15.5807   -0.1681    0.0000 C   0  0  0  0  0  0  0  0  0  0  0  0
   14.6050    1.2630    0.0000 C   0  0  0  0  0  0  0  0  0  0  0  0
   10.3141    4.0319    0.0000 C   0  0  0  0  0  0  0  0  0  0  0  0
   11.9264    3.3991    0.0000 C   0  0  0  0  0  0  0  0  0  0  0  0
   11.8827   -3.1171    0.0000 C   0  0  0  0  0  0  0  0  0  0  0  0
   10.7046   -1.8475    0.0000 C   0  0  0  0  0  0  0  0  0  0  0  0
    8.2619    1.5024    0.0000 C   0  0  0  0  0  0  0  0  0  0  0  0
    9.7619    2.3684    0.0000 C   0  0  0  0  0  0  0  0  0  0  0  0
   11.1496   -3.7973    0.0000 C   0  0  0  0  0  0  0  0  0  0  0  0
   16.4069    0.3952    0.0000 C   0  0  0  0  0  0  0  0  0  0  0  0
   15.4312    1.8263    0.0000 C   0  0  0  0  0  0  0  0  0  0  0  0
   10.6795    4.9628    0.0000 C   0  0  0  0  0  0  0  0  0  0  0  0
   12.2918    4.3300    0.0000 C   0  0  0  0  0  0  0  0  0  0  0  0
    7.7619    2.3684    0.0000 C   0  0  0  0  0  0  0  0  0  0  0  0
    9.9715   -2.5276    0.0000 C   0  0  0  0  0  0  0  0  0  0  0  0
   10.1941   -3.5026    0.0000 C   0  0  0  0  0  0  0  0  0  0  0  0
    9.2619    3.2344    0.0000 C   0  0  0  0  0  0  0  0  0  0  0  0
   16.3322    1.3924    0.0000 C   0  0  0  0  0  0  0  0  0  0  0  0
   11.6683    5.1118    0.0000 C   0  0  0  0  0  0  0  0  0  0  0  0
    8.2619    3.2344    0.0000 C   0  0  0  0  0  0  0  0  0  0  0  0
   11.1619   -4.7913    0.0000 C   0  0  0  0  0  0  0  0  0  0  0  0
    6.2619    3.2344    0.0000 C   0  0  0  0  0  0  0  0  0  0  0  0
    5.2619    3.2344    0.0000 C   0  0  0  0  0  0  0  0  0  0  0  0
    3.7320    3.7344    0.0000 C   0  0  0  0  0  0  0  0  0  0  0  0
    3.7320    2.7344    0.0000 C   0  0  0  0  0  0  0  0  0  0  0  0
    2.8660    4.2344    0.0000 C   0  0  0  0  0  0  0  0  0  0  0  0
    2.8660    2.2344    0.0000 C   0  0  0  0  0  0  0  0  0  0  0  0
    2.0000    3.7344    0.0000 C   0  0  0  0  0  0  0  0  0  0  0  0
    2.0000    2.7344    0.0000 C   0  0  0  0  0  0  0  0  0  0  0  0
   13.0219   -0.4797    0.0000 H   0  0  0  0  0  0  0  0  0  0  0  0
   10.5797    1.4679    0.0000 H   0  0  0  0  0  0  0  0  0  0  0  0
   13.4775    0.8065    0.0000 H   0  0  0  0  0  0  0  0  0  0  0  0
   12.7559    1.9646    0.0000 H   0  0  0  0  0  0  0  0  0  0  0  0
   13.4916   -0.8009    0.0000 H   0  0  0  0  0  0  0  0  0  0  0  0
   14.2864   -0.7413    0.0000 H   0  0  0  0  0  0  0  0  0  0  0  0
   10.0432    2.6425    0.0000 H   0  0  0  0  0  0  0  0  0  0  0  0
   10.1620    1.8543    0.0000 H   0  0  0  0  0  0  0  0  0  0  0  0
   12.7296   -1.9829    0.0000 H   0  0  0  0  0  0  0  0  0  0  0  0
   12.9645   -1.2212    0.0000 H   0  0  0  0  0  0  0  0  0  0  0  0
    9.1793    0.4243    0.0000 H   0  0  0  0  0  0  0  0  0  0  0  0
    9.8695    0.0258    0.0000 H   0  0  0  0  0  0  0  0  0  0  0  0
   13.8998    2.1885    0.0000 H   0  0  0  0  0  0  0  0  0  0  0  0
   12.9857    2.9175    0.0000 H   0  0  0  0  0  0  0  0  0  0  0  0
   15.6270   -0.7863    0.0000 H   0  0  0  0  0  0  0  0  0  0  0  0
   14.0464    1.5320    0.0000 H   0  0  0  0  0  0  0  0  0  0  0  0
    9.7010    3.9395    0.0000 H   0  0  0  0  0  0  0  0  0  0  0  0
   12.3130    2.9144    0.0000 H   0  0  0  0  0  0  0  0  0  0  0  0
   12.4751   -3.2999    0.0000 H   0  0  0  0  0  0  0  0  0  0  0  0
   10.5666   -1.2430    0.0000 H   0  0  0  0  0  0  0  0  0  0  0  0
    7.9519    0.9655    0.0000 H   0  0  0  0  0  0  0  0  0  0  0  0
   10.3819    2.3684    0.0000 H   0  0  0  0  0  0  0  0  0  0  0  0
   16.9655    0.1262    0.0000 H   0  0  0  0  0  0  0  0  0  0  0  0
   15.3849    2.4446    0.0000 H   0  0  0  0  0  0  0  0  0  0  0  0
   10.2929    5.4475    0.0000 H   0  0  0  0  0  0  0  0  0  0  0  0
   12.9049    4.4224    0.0000 H   0  0  0  0  0  0  0  0  0  0  0  0
    9.3791   -2.3449    0.0000 H   0  0  0  0  0  0  0  0  0  0  0  0
    9.5719    3.7714    0.0000 H   0  0  0  0  0  0  0  0  0  0  0  0
   16.8445    1.7417    0.0000 H   0  0  0  0  0  0  0  0  0  0  0  0
   11.8948    5.6889    0.0000 H   0  0  0  0  0  0  0  0  0  0  0  0
    7.9519    3.7714    0.0000 H   0  0  0  0  0  0  0  0  0  0  0  0
   11.6683   -5.1491    0.0000 H   0  0  0  0  0  0  0  0  0  0  0  0
    6.4519    1.8315    0.0000 H   0  0  0  0  0  0  0  0  0  0  0  0
    9.0040   -4.3273    0.0000 H   0  0  0  0  0  0  0  0  0  0  0  0
    6.8445    3.4465    0.0000 H   0  0  0  0  0  0  0  0  0  0  0  0
    6.1542    3.8450    0.0000 H   0  0  0  0  0  0  0  0  0  0  0  0
    4.8709    4.6285    0.0000 H   0  0  0  0  0  0  0  0  0  0  0  0
    2.8660    4.8544    0.0000 H   0  0  0  0  0  0  0  0  0  0  0  0
    2.8660    1.6144    0.0000 H   0  0  0  0  0  0  0  0  0  0  0  0
    1.4631    4.0444    0.0000 H   0  0  0  0  0  0  0  0  0  0  0  0
    1.4631    2.4245    0.0000 H   0  0  0  0  0  0  0  0  0  0  0  0
 13  1  1  1  0  0  0
  1 65  1  0  0  0  0
 14  2  1  6  0  0  0
  2 66  1  0  0  0  0
  3 17  2  0  0  0  0
  4 11  1  0  0  0  0
  4 17  1  0  0  0  0
  4 18  1  0  0  0  0
  5 12  1  0  0  0  0
  5 17  1  0  0  0  0
  5 19  1  0  0  0  0
  6 37  1  0  0  0  0
  6 45  1  0  0  0  0
  6 85  1  0  0  0  0
  7  8  1  0  0  0  0
  7 39  1  0  0  0  0
  7 86  1  0  0  0  0
  8 44  2  0  0  0  0
  9 46  1  0  0  0  0
  9 47  1  0  0  0  0
  9 89  1  0  0  0  0
 10 46  2  0  0  0  0
 10 48  1  0  0  0  0
 11 13  1  0  0  0  0
 11 15  1  1  0  0  0
 11 53  1  0  0  0  0
 12 14  1  0  0  0  0
 12 16  1  6  0  0  0
 12 54  1  0  0  0  0
 13 14  1  0  0  0  0
 13 55  1  0  0  0  0
 14 56  1  0  0  0  0
 15 20  1  0  0  0  0
 15 57  1  0  0  0  0
 15 58  1  0  0  0  0
 16 21  1  0  0  0  0
 16 59  1  0  0  0  0
 16 60  1  0  0  0  0
 18 22  1  0  0  0  0
 18 61  1  0  0  0  0
 18 62  1  0  0  0  0
 19 23  1  0  0  0  0
 19 63  1  0  0  0  0
 19 64  1  0  0  0  0
 20 24  2  0  0  0  0
 20 25  1  0  0  0  0
 21 26  2  0  0  0  0
 21 27  1  0  0  0  0
 22 28  2  0  0  0  0
 22 29  1  0  0  0  0
 23 30  2  0  0  0  0
 23 31  1  0  0  0  0
 24 33  1  0  0  0  0
 24 67  1  0  0  0  0
 25 34  2  0  0  0  0
 25 68  1  0  0  0  0
 26 35  1  0  0  0  0
 26 69  1  0  0  0  0
 27 36  2  0  0  0  0
 27 70  1  0  0  0  0
 28 32  1  0  0  0  0
 28 71  1  0  0  0  0
 29 38  2  0  0  0  0
 29 72  1  0  0  0  0
 30 37  1  0  0  0  0
 30 73  1  0  0  0  0
 31 40  2  0  0  0  0
 31 74  1  0  0  0  0
 32 39  2  0  0  0  0
 32 44  1  0  0  0  0
 33 41  2  0  0  0  0
 33 75  1  0  0  0  0
 34 41  1  0  0  0  0
 34 76  1  0  0  0  0
 35 42  2  0  0  0  0
 35 77  1  0  0  0  0
 36 42  1  0  0  0  0
 36 78  1  0  0  0  0
 37 43  2  0  0  0  0
 38 39  1  0  0  0  0
 38 79  1  0  0  0  0
 40 43  1  0  0  0  0
 40 80  1  0  0  0  0
 41 81  1  0  0  0  0
 42 82  1  0  0  0  0
 43 83  1  0  0  0  0
 44 84  1  0  0  0  0
 45 46  1  0  0  0  0
 45 87  1  0  0  0  0
 45 88  1  0  0  0  0
 47 48  1  0  0  0  0
 47 49  2  0  0  0  0
 48 50  2  0  0  0  0
 49 51  1  0  0  0  0
 49 90  1  0  0  0  0
 50 52  1  0  0  0  0
 50 91  1  0  0  0  0
 51 52  2  0  0  0  0
 51 92  1  0  0  0  0
 52 93  1  0  0  0  0
M  END
> <PUBCHEM_COMPOUND_CID>
515885
> <PUBCHEM_COMPOUND_CANONICALIZED>
1
> <PUBCHEM_CACTVS_COMPLEXITY>
1130
> <PUBCHEM_CACTVS_HBOND_ACCEPTOR>
6
> <PUBCHEM_CACTVS_HBOND_DONOR>
5
> <PUBCHEM_CACTVS_ROTATABLE_BOND>
11
> <PUBCHEM_CACTVS_SUBSKEYS>
AAADcfB/sAAAAAAAAAAAAAAAAAAAAWLAAAAwYMGDBYAAAFgB/gAAHgAYCAAADDzhnwY90PfrkgCqAzZndACShC2hkqAZuaA4dJiLeKLA2dGU5AhungLZyCeQwPAOCAACQAACACAQAASAAAQAQAAAAAAAAA==
> <PUBCHEM_IUPAC_OPENEYE_NAME>
(4R,5S,6S,7R)-1-[[3-(1H-benzimidazol-2-ylmethylamino)phenyl]methyl]-4,7-dibenzyl-5,6-dihydroxy-3-(1H-indazol-5-ylmethyl)-1,3-diazepan-2-one
> <PUBCHEM_IUPAC_CAS_NAME>
(4R,5S,6S,7R)-1-[[3-(1H-benzimidazol-2-ylmethylamino)phenyl]methyl]-5,6-dihydroxy-3-(1H-indazol-5-ylmethyl)-4,7-bis(phenylmethyl)-1,3-diazepan-2-one
> <PUBCHEM_IUPAC_NAME_MARKUP>
(4<I>R</I>,5<I>S</I>,6<I>S</I>,7<I>R</I>)-1-[[3-(1<I>H</I>-benzimidazol-2-ylmethylamino)phenyl]methyl]-4,7-dibenzyl-5,6-dihydroxy-3-(1<I>H</I>-indazol-5-ylmethyl)-1,3-diazepan-2-one
> <PUBCHEM_IUPAC_NAME>
(4R,5S,6S,7R)-1-[[3-(1H-benzimidazol-2-ylmethylamino)phenyl]methyl]-4,7-dibenzyl-5,6-dihydroxy-3-(1H-indazol-5-ylmethyl)-1,3-diazepan-2-one
> <PUBCHEM_IUPAC_SYSTEMATIC_NAME>
(4R,5S,6S,7R)-1-[[3-(1H-benzimidazol-2-ylmethylamino)phenyl]methyl]-3-(1H-indazol-5-ylmethyl)-5,6-bis(oxidanyl)-4,7-bis(phenylmethyl)-1,3-diazepan-2-one
> <PUBCHEM_IUPAC_TRADITIONAL_NAME>
(4R,5S,6S,7R)-1-[3-(1H-benzimidazol-2-ylmethylamino)benzyl]-4,7-dibenzyl-5,6-dihydroxy-3-(1H-indazol-5-ylmethyl)-1,3-diazepan-2-one
> <PUBCHEM_IUPAC_INCHI>
InChI=1S/C42H41N7O3/c50-40-37(22-28-10-3-1-4-11-28)48(26-30-14-9-15-33(21-30)43-25-39-45-35-16-7-8-17-36(35)46-39)42(52)49(27-31-18-19-34-32(20-31)24-44-47-34)38(41(40)51)23-29-12-5-2-6-13-29/h1-21,24,37-38,40-41,43,50-51H,22-23,25-27H2,(H,44,47)(H,45,46)/t37-,38-,40+,41+/m1/s1
> <PUBCHEM_IUPAC_INCHIKEY>
ZZEQQJBEFIZMSK-ZAGYQXHLSA-N
> <PUBCHEM_XLOGP3_AA>
6
> <PUBCHEM_EXACT_MASS>
691.32708820
> <PUBCHEM_MOLECULAR_FORMULA>
C42H41N7O3
> <PUBCHEM_MOLECULAR_WEIGHT>
691.8
> <PUBCHEM_OPENEYE_CAN_SMILES>
C1=CC=C(C=C1)CC2C(C(C(N(C(=O)N2CC3=CC(=CC=C3)NCC4=NC5=CC=CC=C5N4)CC6=CC7=C(C=C6)NN=C7)CC8=CC=CC=C8)O)O
> <PUBCHEM_OPENEYE_ISO_SMILES>
C1=CC=C(C=C1)C[C@@H]2[C@@H]([C@H]([C@H](N(C(=O)N2CC3=CC(=CC=C3)NCC4=NC5=CC=CC=C5N4)CC6=CC7=C(C=C6)NN=C7)CC8=CC=CC=C8)O)O
> <PUBCHEM_CACTVS_TPSA>
133
> <PUBCHEM_MONOISOTOPIC_WEIGHT>
691.32708820
> <PUBCHEM_TOTAL_CHARGE>
0
> <PUBCHEM_HEAVY_ATOM_COUNT>
52
> <PUBCHEM_ATOM_DEF_STEREO_COUNT>
4
> <PUBCHEM_ATOM_UDEF_STEREO_COUNT>
0
> <PUBCHEM_BOND_DEF_STEREO_COUNT>
0
> <PUBCHEM_BOND_UDEF_STEREO_COUNT>
0
> <PUBCHEM_ISOTOPIC_ATOM_COUNT>
0
> <PUBCHEM_COMPONENT_COUNT>
1
> <PUBCHEM_CACTVS_TAUTO_COUNT>
-1
> <PUBCHEM_COORDINATE_TYPE>
1
5
255
> <PUBCHEM_BONDANNOTATIONS>
13  1  5
10  46  8
10  48  8
11  15  5
12  16  6
14  2  6
20  24  8
20  25  8
21  26  8
21  27  8
22  28  8
22  29  8
23  30  8
23  31  8
24  33  8
25  34  8
26  35  8
27  36  8
28  32  8
29  38  8
30  37  8
31  40  8
32  39  8
32  44  8
33  41  8
34  41  8
35  42  8
36  42  8
37  43  8
38  39  8
40  43  8
47  48  8
47  49  8
48  50  8
49  51  8
50  52  8
51  52  8
7  39  8
7  8  8
8  44  8
9  46  8
9  47  8
$$$$
