515859
  -OEChem-10302200282D
 77 82  0     1  0  0  0  0  0999 V2000
    5.7264    4.5765    0.0000 F   0  0  0  0  0  0  0  0  0  0  0  0
    6.6458   -2.8804    0.0000 O   0  0  0  0  0  0  0  0  0  0  0  0
    4.7988   -2.6020    0.0000 O   0  0  0  0  0  0  0  0  0  0  0  0
    6.3321    1.3047    0.0000 O   0  0  0  0  0  0  0  0  0  0  0  0
    7.0093   -0.2474    0.0000 N   0  0  0  0  0  0  0  0  0  0  0  0
    5.2275    0.0211    0.0000 N   0  0  0  0  0  0  0  0  0  0  0  0
   11.4196   -1.5522    0.0000 N   0  0  0  0  0  0  0  0  0  0  0  0
   12.0033   -0.7474    0.0000 N   0  0  0  0  0  0  0  0  0  0  0  0
    7.0867    3.1104    0.0000 N   0  0  0  0  0  0  0  0  0  0  0  0
    7.0841   -1.2446    0.0000 C   0  0  1  0  0  0  0  0  0  0  0  0
    4.8622   -0.9097    0.0000 C   0  0  1  0  0  0  0  0  0  0  0  0
    6.3510   -1.9248    0.0000 C   0  0  1  0  0  0  0  0  0  0  0  0
    5.3622   -1.7758    0.0000 C   0  0  1  0  0  0  0  0  0  0  0  0
    8.0149   -1.6100    0.0000 C   0  0  0  0  0  0  0  0  0  0  0  0
    3.8650   -0.9845    0.0000 C   0  0  0  0  0  0  0  0  0  0  0  0
    6.1831    0.3159    0.0000 C   0  0  0  0  0  0  0  0  0  0  0  0
    7.8754    0.2526    0.0000 C   0  0  0  0  0  0  0  0  0  0  0  0
    4.5473    0.7542    0.0000 C   0  0  0  0  0  0  0  0  0  0  0  0
    8.1640   -2.5988    0.0000 C   0  0  0  0  0  0  0  0  0  0  0  0
    3.4311   -1.8854    0.0000 C   0  0  0  0  0  0  0  0  0  0  0  0
    8.7414   -0.2474    0.0000 C   0  0  0  0  0  0  0  0  0  0  0  0
    4.8421    1.7098    0.0000 C   0  0  0  0  0  0  0  0  0  0  0  0
    7.3821   -3.2223    0.0000 C   0  0  0  0  0  0  0  0  0  0  0  0
    9.0948   -2.9642    0.0000 C   0  0  0  0  0  0  0  0  0  0  0  0
    2.4339   -1.9602    0.0000 C   0  0  0  0  0  0  0  0  0  0  0  0
    3.9944   -2.7117    0.0000 C   0  0  0  0  0  0  0  0  0  0  0  0
    9.6074    0.2526    0.0000 C   0  0  0  0  0  0  0  0  0  0  0  0
    8.7414   -1.2474    0.0000 C   0  0  0  0  0  0  0  0  0  0  0  0
    5.8170    1.9323    0.0000 C   0  0  0  0  0  0  0  0  0  0  0  0
    4.1619    2.4428    0.0000 C   0  0  0  0  0  0  0  0  0  0  0  0
   10.4734   -0.2474    0.0000 C   0  0  0  0  0  0  0  0  0  0  0  0
    7.5312   -4.2111    0.0000 C   0  0  0  0  0  0  0  0  0  0  0  0
    9.2439   -3.9530    0.0000 C   0  0  0  0  0  0  0  0  0  0  0  0
    2.0000   -2.8611    0.0000 C   0  0  0  0  0  0  0  0  0  0  0  0
    3.5605   -3.6126    0.0000 C   0  0  0  0  0  0  0  0  0  0  0  0
    9.6074   -1.7474    0.0000 C   0  0  0  0  0  0  0  0  0  0  0  0
   10.4734   -1.2474    0.0000 C   0  0  0  0  0  0  0  0  0  0  0  0
    6.1118    2.8878    0.0000 C   0  0  0  0  0  0  0  0  0  0  0  0
    8.4621   -4.5765    0.0000 C   0  0  0  0  0  0  0  0  0  0  0  0
    2.5633   -3.6874    0.0000 C   0  0  0  0  0  0  0  0  0  0  0  0
    4.4567    3.3984    0.0000 C   0  0  0  0  0  0  0  0  0  0  0  0
    5.4316    3.6209    0.0000 C   0  0  0  0  0  0  0  0  0  0  0  0
   11.4196    0.0573    0.0000 C   0  0  0  0  0  0  0  0  0  0  0  0
    7.5829   -0.8765    0.0000 H   0  0  0  0  0  0  0  0  0  0  0  0
    4.4940   -0.4109    0.0000 H   0  0  0  0  0  0  0  0  0  0  0  0
    6.9499   -2.0853    0.0000 H   0  0  0  0  0  0  0  0  0  0  0  0
    5.6101   -2.3440    0.0000 H   0  0  0  0  0  0  0  0  0  0  0  0
    8.6347   -1.6254    0.0000 H   0  0  0  0  0  0  0  0  0  0  0  0
    8.1378   -1.0023    0.0000 H   0  0  0  0  0  0  0  0  0  0  0  0
    3.9267   -0.3676    0.0000 H   0  0  0  0  0  0  0  0  0  0  0  0
    3.2681   -0.8166    0.0000 H   0  0  0  0  0  0  0  0  0  0  0  0
    8.2739    0.7275    0.0000 H   0  0  0  0  0  0  0  0  0  0  0  0
    7.4768    0.7275    0.0000 H   0  0  0  0  0  0  0  0  0  0  0  0
    3.9956    1.0370    0.0000 H   0  0  0  0  0  0  0  0  0  0  0  0
    4.1730    0.2600    0.0000 H   0  0  0  0  0  0  0  0  0  0  0  0
    6.2240   -3.3349    0.0000 H   0  0  0  0  0  0  0  0  0  0  0  0
    5.0679   -3.1606    0.0000 H   0  0  0  0  0  0  0  0  0  0  0  0
    6.8050   -2.9958    0.0000 H   0  0  0  0  0  0  0  0  0  0  0  0
    9.5796   -2.5776    0.0000 H   0  0  0  0  0  0  0  0  0  0  0  0
    2.0846   -1.4479    0.0000 H   0  0  0  0  0  0  0  0  0  0  0  0
    4.6127   -2.6654    0.0000 H   0  0  0  0  0  0  0  0  0  0  0  0
    9.6074    0.8726    0.0000 H   0  0  0  0  0  0  0  0  0  0  0  0
    8.2044   -1.5574    0.0000 H   0  0  0  0  0  0  0  0  0  0  0  0
    6.2387    1.4778    0.0000 H   0  0  0  0  0  0  0  0  0  0  0  0
    3.5575    2.3048    0.0000 H   0  0  0  0  0  0  0  0  0  0  0  0
    7.0464   -4.5977    0.0000 H   0  0  0  0  0  0  0  0  0  0  0  0
    9.8210   -4.1795    0.0000 H   0  0  0  0  0  0  0  0  0  0  0  0
    1.3817   -2.9075    0.0000 H   0  0  0  0  0  0  0  0  0  0  0  0
    3.9098   -4.1249    0.0000 H   0  0  0  0  0  0  0  0  0  0  0  0
    9.6074   -2.3674    0.0000 H   0  0  0  0  0  0  0  0  0  0  0  0
    8.5545   -5.1896    0.0000 H   0  0  0  0  0  0  0  0  0  0  0  0
    2.2943   -4.2460    0.0000 H   0  0  0  0  0  0  0  0  0  0  0  0
    4.0350    3.8529    0.0000 H   0  0  0  0  0  0  0  0  0  0  0  0
   11.6123    0.6466    0.0000 H   0  0  0  0  0  0  0  0  0  0  0  0
   11.6123   -2.1415    0.0000 H   0  0  0  0  0  0  0  0  0  0  0  0
    7.2695    3.7028    0.0000 H   0  0  0  0  0  0  0  0  0  0  0  0
    7.5084    2.6559    0.0000 H   0  0  0  0  0  0  0  0  0  0  0  0
  1 42  1  0  0  0  0
 12  2  1  6  0  0  0
  2 56  1  0  0  0  0
 13  3  1  1  0  0  0
  3 57  1  0  0  0  0
  4 16  2  0  0  0  0
  5 10  1  0  0  0  0
  5 16  1  0  0  0  0
  5 17  1  0  0  0  0
  6 11  1  0  0  0  0
  6 16  1  0  0  0  0
  6 18  1  0  0  0  0
  7  8  1  0  0  0  0
  7 37  1  0  0  0  0
  7 75  1  0  0  0  0
  8 43  2  0  0  0  0
  9 38  1  0  0  0  0
  9 76  1  0  0  0  0
  9 77  1  0  0  0  0
 10 12  1  0  0  0  0
 10 14  1  6  0  0  0
 10 44  1  0  0  0  0
 11 13  1  0  0  0  0
 11 15  1  1  0  0  0
 11 45  1  0  0  0  0
 12 13  1  0  0  0  0
 12 46  1  0  0  0  0
 13 47  1  0  0  0  0
 14 19  1  0  0  0  0
 14 48  1  0  0  0  0
 14 49  1  0  0  0  0
 15 20  1  0  0  0  0
 15 50  1  0  0  0  0
 15 51  1  0  0  0  0
 17 21  1  0  0  0  0
 17 52  1  0  0  0  0
 17 53  1  0  0  0  0
 18 22  1  0  0  0  0
 18 54  1  0  0  0  0
 18 55  1  0  0  0  0
 19 23  2  0  0  0  0
 19 24  1  0  0  0  0
 20 25  2  0  0  0  0
 20 26  1  0  0  0  0
 21 27  2  0  0  0  0
 21 28  1  0  0  0  0
 22 29  2  0  0  0  0
 22 30  1  0  0  0  0
 23 32  1  0  0  0  0
 23 58  1  0  0  0  0
 24 33  2  0  0  0  0
 24 59  1  0  0  0  0
 25 34  1  0  0  0  0
 25 60  1  0  0  0  0
 26 35  2  0  0  0  0
 26 61  1  0  0  0  0
 27 31  1  0  0  0  0
 27 62  1  0  0  0  0
 28 36  2  0  0  0  0
 28 63  1  0  0  0  0
 29 38  1  0  0  0  0
 29 64  1  0  0  0  0
 30 41  2  0  0  0  0
 30 65  1  0  0  0  0
 31 37  2  0  0  0  0
 31 43  1  0  0  0  0
 32 39  2  0  0  0  0
 32 66  1  0  0  0  0
 33 39  1  0  0  0  0
 33 67  1  0  0  0  0
 34 40  2  0  0  0  0
 34 68  1  0  0  0  0
 35 40  1  0  0  0  0
 35 69  1  0  0  0  0
 36 37  1  0  0  0  0
 36 70  1  0  0  0  0
 38 42  2  0  0  0  0
 39 71  1  0  0  0  0
 40 72  1  0  0  0  0
 41 42  1  0  0  0  0
 41 73  1  0  0  0  0
 43 74  1  0  0  0  0
M  END
> <PUBCHEM_COMPOUND_CID>
515859
> <PUBCHEM_COMPOUND_CANONICALIZED>
1
> <PUBCHEM_CACTVS_COMPLEXITY>
901
> <PUBCHEM_CACTVS_HBOND_ACCEPTOR>
6
> <PUBCHEM_CACTVS_HBOND_DONOR>
4
> <PUBCHEM_CACTVS_ROTATABLE_BOND>
8
> <PUBCHEM_CACTVS_SUBSKEYS>
AAADcfB/sQAAAAAAAAAAAAAAAAAAAWAAAAAwYMGABYAAAFgB9AAAHwAYCAAADDzhng49wPNjAgCqAzRnUACSBAAgggAYuSA4ZJiLMKKA0dGE5AhungKZyAeQwPAOCAACQAACAAAQAASAAAQAAAAAAAAAAA==
> <PUBCHEM_IUPAC_OPENEYE_NAME>
(4R,5S,6S,7R)-1-[(3-amino-4-fluoro-phenyl)methyl]-4,7-dibenzyl-5,6-dihydroxy-3-(1H-indazol-5-ylmethyl)-1,3-diazepan-2-one
> <PUBCHEM_IUPAC_CAS_NAME>
(4R,5S,6S,7R)-1-[(3-amino-4-fluorophenyl)methyl]-5,6-dihydroxy-3-(1H-indazol-5-ylmethyl)-4,7-bis(phenylmethyl)-1,3-diazepan-2-one
> <PUBCHEM_IUPAC_NAME_MARKUP>
(4<I>R</I>,5<I>S</I>,6<I>S</I>,7<I>R</I>)-1-[(3-amino-4-fluorophenyl)methyl]-4,7-dibenzyl-5,6-dihydroxy-3-(1<I>H</I>-indazol-5-ylmethyl)-1,3-diazepan-2-one
> <PUBCHEM_IUPAC_NAME>
(4R,5S,6S,7R)-1-[(3-amino-4-fluorophenyl)methyl]-4,7-dibenzyl-5,6-dihydroxy-3-(1H-indazol-5-ylmethyl)-1,3-diazepan-2-one
> <PUBCHEM_IUPAC_SYSTEMATIC_NAME>
(4R,5S,6S,7R)-1-[(3-azanyl-4-fluoranyl-phenyl)methyl]-3-(1H-indazol-5-ylmethyl)-5,6-bis(oxidanyl)-4,7-bis(phenylmethyl)-1,3-diazepan-2-one
> <PUBCHEM_IUPAC_TRADITIONAL_NAME>
(4R,5S,6S,7R)-1-(3-amino-4-fluoro-benzyl)-4,7-dibenzyl-5,6-dihydroxy-3-(1H-indazol-5-ylmethyl)-1,3-diazepan-2-one
> <PUBCHEM_IUPAC_INCHI>
InChI=1S/C34H34FN5O3/c35-27-13-11-25(16-28(27)36)21-40-31(18-23-9-5-2-6-10-23)33(42)32(41)30(17-22-7-3-1-4-8-22)39(34(40)43)20-24-12-14-29-26(15-24)19-37-38-29/h1-16,19,30-33,41-42H,17-18,20-21,36H2,(H,37,38)/t30-,31-,32+,33+/m1/s1
> <PUBCHEM_IUPAC_INCHIKEY>
GUUBIMLFZZKWRX-FYZVQMPESA-N
> <PUBCHEM_XLOGP3_AA>
4.4
> <PUBCHEM_EXACT_MASS>
579.26456813
> <PUBCHEM_MOLECULAR_FORMULA>
C34H34FN5O3
> <PUBCHEM_MOLECULAR_WEIGHT>
579.7
> <PUBCHEM_OPENEYE_CAN_SMILES>
C1=CC=C(C=C1)CC2C(C(C(N(C(=O)N2CC3=CC4=C(C=C3)NN=C4)CC5=CC(=C(C=C5)F)N)CC6=CC=CC=C6)O)O
> <PUBCHEM_OPENEYE_ISO_SMILES>
C1=CC=C(C=C1)C[C@@H]2[C@@H]([C@H]([C@H](N(C(=O)N2CC3=CC4=C(C=C3)NN=C4)CC5=CC(=C(C=C5)F)N)CC6=CC=CC=C6)O)O
> <PUBCHEM_CACTVS_TPSA>
119
> <PUBCHEM_MONOISOTOPIC_WEIGHT>
579.26456813
> <PUBCHEM_TOTAL_CHARGE>
0
> <PUBCHEM_HEAVY_ATOM_COUNT>
43
> <PUBCHEM_ATOM_DEF_STEREO_COUNT>
4
> <PUBCHEM_ATOM_UDEF_STEREO_COUNT>
0
> <PUBCHEM_BOND_DEF_STEREO_COUNT>
0
> <PUBCHEM_BOND_UDEF_STEREO_COUNT>
0
> <PUBCHEM_ISOTOPIC_ATOM_COUNT>
0
> <PUBCHEM_COMPONENT_COUNT>
1
> <PUBCHEM_CACTVS_TAUTO_COUNT>
-1
> <PUBCHEM_COORDINATE_TYPE>
1
5
255
> <PUBCHEM_BONDANNOTATIONS>
10  14  6
11  15  5
19  23  8
19  24  8
12  2  6
20  25  8
20  26  8
21  27  8
21  28  8
22  29  8
22  30  8
23  32  8
24  33  8
25  34  8
26  35  8
27  31  8
28  36  8
29  38  8
13  3  5
30  41  8
31  37  8
31  43  8
32  39  8
33  39  8
34  40  8
35  40  8
36  37  8
38  42  8
41  42  8
7  37  8
7  8  8
8  43  8
$$$$
