515830
  -OEChem-10302200282D
101104  0     1  0  0  0  0  0999 V2000
   10.1603    3.6581    0.0000 S   0  0  0  0  0  0  0  0  0  0  0  0
    8.9757   -1.9740    0.0000 S   0  0  0  0  0  0  0  0  0  0  0  0
    2.8660   -0.3807    0.0000 O   0  0  0  0  0  0  0  0  0  0  0  0
    6.3301   -0.3807    0.0000 O   0  0  0  0  0  0  0  0  0  0  0  0
    6.3301   -2.3807    0.0000 O   0  0  0  0  0  0  0  0  0  0  0  0
    5.4641   -0.8807    0.0000 O   0  0  0  0  0  0  0  0  0  0  0  0
    8.9282    2.1193    0.0000 O   0  0  0  0  0  0  0  0  0  0  0  0
    5.4641    1.1193    0.0000 N   0  0  0  0  0  0  0  0  0  0  0  0
    4.5981   -2.3807    0.0000 N   0  0  0  0  0  0  0  0  0  0  0  0
    8.0622    0.6193    0.0000 N   0  0  0  0  0  0  0  0  0  0  0  0
    9.7942    0.6193    0.0000 N   0  0  0  0  0  0  0  0  0  0  0  0
   11.4693    2.7071    0.0000 N   0  0  0  0  0  0  0  0  0  0  0  0
    9.1448   -3.5831    0.0000 N   0  0  0  0  0  0  0  0  0  0  0  0
    3.7320   -0.8807    0.0000 C   0  0  1  0  0  0  0  0  0  0  0  0
    4.5981   -0.3807    0.0000 C   0  0  0  0  0  0  0  0  0  0  0  0
    4.5981    0.6193    0.0000 C   0  0  2  0  0  0  0  0  0  0  0  0
    3.7320   -1.8807    0.0000 C   0  0  2  0  0  0  0  0  0  0  0  0
    3.7320    1.1193    0.0000 C   0  0  0  0  0  0  0  0  0  0  0  0
    2.8660   -2.3807    0.0000 C   0  0  0  0  0  0  0  0  0  0  0  0
    3.7320    2.1193    0.0000 C   0  0  0  0  0  0  0  0  0  0  0  0
    2.8660   -3.3807    0.0000 C   0  0  0  0  0  0  0  0  0  0  0  0
    6.3301    0.6193    0.0000 C   0  0  0  0  0  0  0  0  0  0  0  0
    7.1962    1.1193    0.0000 C   0  0  2  0  0  0  0  0  0  0  0  0
    2.8660    2.6193    0.0000 C   0  0  0  0  0  0  0  0  0  0  0  0
    4.5981    2.6193    0.0000 C   0  0  0  0  0  0  0  0  0  0  0  0
    5.4641   -1.8807    0.0000 C   0  0  0  0  0  0  0  0  0  0  0  0
    3.7320   -3.8807    0.0000 C   0  0  0  0  0  0  0  0  0  0  0  0
    2.0000   -3.8807    0.0000 C   0  0  0  0  0  0  0  0  0  0  0  0
    7.1962    2.1193    0.0000 C   0  0  0  0  0  0  0  0  0  0  0  0
    9.7942   -0.3807    0.0000 C   0  0  0  0  0  0  0  0  0  0  0  0
   10.6603   -0.8807    0.0000 C   0  0  0  0  0  0  0  0  0  0  0  0
    8.9282    1.1193    0.0000 C   0  0  0  0  0  0  0  0  0  0  0  0
   10.6603    1.1193    0.0000 C   0  0  0  0  0  0  0  0  0  0  0  0
    2.8660    3.6193    0.0000 C   0  0  0  0  0  0  0  0  0  0  0  0
    4.5981    3.6193    0.0000 C   0  0  0  0  0  0  0  0  0  0  0  0
    3.7320   -4.8807    0.0000 C   0  0  0  0  0  0  0  0  0  0  0  0
    2.0000   -4.8807    0.0000 C   0  0  0  0  0  0  0  0  0  0  0  0
    3.7320    4.1193    0.0000 C   0  0  0  0  0  0  0  0  0  0  0  0
    2.8660   -5.3807    0.0000 C   0  0  0  0  0  0  0  0  0  0  0  0
   10.6603   -1.8807    0.0000 C   0  0  0  0  0  0  0  0  0  0  0  0
   11.5263   -0.3807    0.0000 C   0  0  0  0  0  0  0  0  0  0  0  0
   10.6603    2.1193    0.0000 C   0  0  0  0  0  0  0  0  0  0  0  0
    7.1962   -1.8807    0.0000 C   0  0  0  0  0  0  0  0  0  0  0  0
   11.1603    3.6581    0.0000 C   0  0  0  0  0  0  0  0  0  0  0  0
    9.8512    2.7071    0.0000 C   0  0  0  0  0  0  0  0  0  0  0  0
   11.7480    4.4672    0.0000 C   0  0  0  0  0  0  0  0  0  0  0  0
    8.0622   -2.3807    0.0000 C   0  0  0  0  0  0  0  0  0  0  0  0
   12.7426    4.3626    0.0000 C   0  0  0  0  0  0  0  0  0  0  0  0
   11.3413    5.3807    0.0000 C   0  0  0  0  0  0  0  0  0  0  0  0
    8.1667   -3.3752    0.0000 C   0  0  0  0  0  0  0  0  0  0  0  0
    9.6448   -2.7171    0.0000 C   0  0  0  0  0  0  0  0  0  0  0  0
    3.7320   -0.2607    0.0000 H   0  0  0  0  0  0  0  0  0  0  0  0
    4.8101   -0.9633    0.0000 H   0  0  0  0  0  0  0  0  0  0  0  0
    5.2087   -0.2730    0.0000 H   0  0  0  0  0  0  0  0  0  0  0  0
    4.5981    1.2393    0.0000 H   0  0  0  0  0  0  0  0  0  0  0  0
    3.7320   -2.5007    0.0000 H   0  0  0  0  0  0  0  0  0  0  0  0
    3.1215    1.2270    0.0000 H   0  0  0  0  0  0  0  0  0  0  0  0
    3.5200    0.5367    0.0000 H   0  0  0  0  0  0  0  0  0  0  0  0
    2.6540   -1.7981    0.0000 H   0  0  0  0  0  0  0  0  0  0  0  0
    2.2554   -2.4884    0.0000 H   0  0  0  0  0  0  0  0  0  0  0  0
    5.4641    1.7393    0.0000 H   0  0  0  0  0  0  0  0  0  0  0  0
    4.5981   -3.0007    0.0000 H   0  0  0  0  0  0  0  0  0  0  0  0
    2.8660    0.2393    0.0000 H   0  0  0  0  0  0  0  0  0  0  0  0
    7.7331    1.4293    0.0000 H   0  0  0  0  0  0  0  0  0  0  0  0
    2.3291    2.3093    0.0000 H   0  0  0  0  0  0  0  0  0  0  0  0
    5.1350    2.3093    0.0000 H   0  0  0  0  0  0  0  0  0  0  0  0
    4.2690   -3.5707    0.0000 H   0  0  0  0  0  0  0  0  0  0  0  0
    1.4631   -3.5707    0.0000 H   0  0  0  0  0  0  0  0  0  0  0  0
    8.0622   -0.0007    0.0000 H   0  0  0  0  0  0  0  0  0  0  0  0
    7.8162    2.1193    0.0000 H   0  0  0  0  0  0  0  0  0  0  0  0
    7.1962    2.7393    0.0000 H   0  0  0  0  0  0  0  0  0  0  0  0
    6.5762    2.1193    0.0000 H   0  0  0  0  0  0  0  0  0  0  0  0
    9.1836   -0.2730    0.0000 H   0  0  0  0  0  0  0  0  0  0  0  0
    9.5822   -0.9633    0.0000 H   0  0  0  0  0  0  0  0  0  0  0  0
   11.1972   -1.1907    0.0000 H   0  0  0  0  0  0  0  0  0  0  0  0
   10.8723    0.5367    0.0000 H   0  0  0  0  0  0  0  0  0  0  0  0
   11.2708    1.2270    0.0000 H   0  0  0  0  0  0  0  0  0  0  0  0
    2.3291    3.9293    0.0000 H   0  0  0  0  0  0  0  0  0  0  0  0
    5.1350    3.9293    0.0000 H   0  0  0  0  0  0  0  0  0  0  0  0
    4.2690   -5.1907    0.0000 H   0  0  0  0  0  0  0  0  0  0  0  0
    1.4631   -5.1907    0.0000 H   0  0  0  0  0  0  0  0  0  0  0  0
    3.7320    4.7393    0.0000 H   0  0  0  0  0  0  0  0  0  0  0  0
    2.8660   -6.0007    0.0000 H   0  0  0  0  0  0  0  0  0  0  0  0
   10.0403   -1.8807    0.0000 H   0  0  0  0  0  0  0  0  0  0  0  0
   10.6603   -2.5007    0.0000 H   0  0  0  0  0  0  0  0  0  0  0  0
   11.2803   -1.8807    0.0000 H   0  0  0  0  0  0  0  0  0  0  0  0
   11.8363   -0.9176    0.0000 H   0  0  0  0  0  0  0  0  0  0  0  0
   12.0632   -0.0707    0.0000 H   0  0  0  0  0  0  0  0  0  0  0  0
   11.2163    0.1562    0.0000 H   0  0  0  0  0  0  0  0  0  0  0  0
    7.5947   -1.4058    0.0000 H   0  0  0  0  0  0  0  0  0  0  0  0
    6.7976   -1.4058    0.0000 H   0  0  0  0  0  0  0  0  0  0  0  0
    9.2616    2.5155    0.0000 H   0  0  0  0  0  0  0  0  0  0  0  0
   11.1314    4.5320    0.0000 H   0  0  0  0  0  0  0  0  0  0  0  0
   12.6778    3.7460    0.0000 H   0  0  0  0  0  0  0  0  0  0  0  0
   13.3592    4.2978    0.0000 H   0  0  0  0  0  0  0  0  0  0  0  0
   12.8074    4.9792    0.0000 H   0  0  0  0  0  0  0  0  0  0  0  0
   11.9077    5.6329    0.0000 H   0  0  0  0  0  0  0  0  0  0  0  0
   11.0891    5.9471    0.0000 H   0  0  0  0  0  0  0  0  0  0  0  0
   10.7749    5.1285    0.0000 H   0  0  0  0  0  0  0  0  0  0  0  0
    7.7060   -3.7901    0.0000 H   0  0  0  0  0  0  0  0  0  0  0  0
   10.2615   -2.6523    0.0000 H   0  0  0  0  0  0  0  0  0  0  0  0
  1 44  1  0  0  0  0
  1 45  1  0  0  0  0
  2 47  1  0  0  0  0
  2 51  1  0  0  0  0
 14  3  1  1  0  0  0
  3 63  1  0  0  0  0
  4 22  2  0  0  0  0
  5 26  1  0  0  0  0
  5 43  1  0  0  0  0
  6 26  2  0  0  0  0
  7 32  2  0  0  0  0
 16  8  1  6  0  0  0
  8 22  1  0  0  0  0
  8 61  1  0  0  0  0
 17  9  1  1  0  0  0
  9 26  1  0  0  0  0
  9 62  1  0  0  0  0
 23 10  1  6  0  0  0
 10 32  1  0  0  0  0
 10 69  1  0  0  0  0
 11 30  1  0  0  0  0
 11 32  1  0  0  0  0
 11 33  1  0  0  0  0
 12 42  1  0  0  0  0
 12 44  2  0  0  0  0
 13 50  1  0  0  0  0
 13 51  2  0  0  0  0
 14 15  1  0  0  0  0
 14 17  1  0  0  0  0
 14 52  1  0  0  0  0
 15 16  1  0  0  0  0
 15 53  1  0  0  0  0
 15 54  1  0  0  0  0
 16 18  1  0  0  0  0
 16 55  1  0  0  0  0
 17 19  1  0  0  0  0
 17 56  1  0  0  0  0
 18 20  1  0  0  0  0
 18 57  1  0  0  0  0
 18 58  1  0  0  0  0
 19 21  1  0  0  0  0
 19 59  1  0  0  0  0
 19 60  1  0  0  0  0
 20 24  2  0  0  0  0
 20 25  1  0  0  0  0
 21 27  2  0  0  0  0
 21 28  1  0  0  0  0
 22 23  1  0  0  0  0
 23 29  1  0  0  0  0
 23 64  1  0  0  0  0
 24 34  1  0  0  0  0
 24 65  1  0  0  0  0
 25 35  2  0  0  0  0
 25 66  1  0  0  0  0
 27 36  1  0  0  0  0
 27 67  1  0  0  0  0
 28 37  2  0  0  0  0
 28 68  1  0  0  0  0
 29 70  1  0  0  0  0
 29 71  1  0  0  0  0
 29 72  1  0  0  0  0
 30 31  1  0  0  0  0
 30 73  1  0  0  0  0
 30 74  1  0  0  0  0
 31 40  1  0  0  0  0
 31 41  1  0  0  0  0
 31 75  1  0  0  0  0
 33 42  1  0  0  0  0
 33 76  1  0  0  0  0
 33 77  1  0  0  0  0
 34 38  2  0  0  0  0
 34 78  1  0  0  0  0
 35 38  1  0  0  0  0
 35 79  1  0  0  0  0
 36 39  2  0  0  0  0
 36 80  1  0  0  0  0
 37 39  1  0  0  0  0
 37 81  1  0  0  0  0
 38 82  1  0  0  0  0
 39 83  1  0  0  0  0
 40 84  1  0  0  0  0
 40 85  1  0  0  0  0
 40 86  1  0  0  0  0
 41 87  1  0  0  0  0
 41 88  1  0  0  0  0
 41 89  1  0  0  0  0
 42 45  2  0  0  0  0
 43 47  1  0  0  0  0
 43 90  1  0  0  0  0
 43 91  1  0  0  0  0
 44 46  1  0  0  0  0
 45 92  1  0  0  0  0
 46 48  1  0  0  0  0
 46 49  1  0  0  0  0
 46 93  1  0  0  0  0
 47 50  2  0  0  0  0
 48 94  1  0  0  0  0
 48 95  1  0  0  0  0
 48 96  1  0  0  0  0
 49 97  1  0  0  0  0
 49 98  1  0  0  0  0
 49 99  1  0  0  0  0
 50100  1  0  0  0  0
 51101  1  0  0  0  0
M  END
> <PUBCHEM_COMPOUND_CID>
515830
> <PUBCHEM_COMPOUND_CANONICALIZED>
1
> <PUBCHEM_CACTVS_COMPLEXITY>
1060
> <PUBCHEM_CACTVS_HBOND_ACCEPTOR>
9
> <PUBCHEM_CACTVS_HBOND_DONOR>
4
> <PUBCHEM_CACTVS_ROTATABLE_BOND>
19
> <PUBCHEM_CACTVS_SUBSKEYS>
AAADcfB/uABgAAAAAAAAAAAAAAAAAWLAAAAwYAAAAAAAAAAB9AAAHgQQCAAADTzl3ga/iZPIFgisAzV3XACC8KBxCjhI2J24bImKdCLgsTmcYAgulgL4qAeQwPAOAAAAAAAAAAAAAAAAAAAAAAAAAAAAAA==
> <PUBCHEM_IUPAC_OPENEYE_NAME>
thiazol-5-ylmethyl N-[(1S,2S,4S)-1-benzyl-2-hydroxy-4-[[(2S)-2-[[isobutyl-[(2-isopropylthiazol-4-yl)methyl]carbamoyl]amino]propanoyl]amino]-5-phenyl-pentyl]carbamate
> <PUBCHEM_IUPAC_CAS_NAME>
N-[(2S,3S,5S)-3-hydroxy-5-[[(2S)-2-[[[2-methylpropyl-[(2-propan-2-yl-4-thiazolyl)methyl]amino]-oxomethyl]amino]-1-oxopropyl]amino]-1,6-diphenylhexan-2-yl]carbamic acid 5-thiazolylmethyl ester
> <PUBCHEM_IUPAC_NAME_MARKUP>
1,3-thiazol-5-ylmethyl <I>N</I>-[(2<I>S</I>,3<I>S</I>,5<I>S</I>)-3-hydroxy-5-[[(2<I>S</I>)-2-[[2-methylpropyl-[(2-propan-2-yl-1,3-thiazol-4-yl)methyl]carbamoyl]amino]propanoyl]amino]-1,6-diphenylhexan-2-yl]carbamate
> <PUBCHEM_IUPAC_NAME>
1,3-thiazol-5-ylmethyl N-[(2S,3S,5S)-3-hydroxy-5-[[(2S)-2-[[2-methylpropyl-[(2-propan-2-yl-1,3-thiazol-4-yl)methyl]carbamoyl]amino]propanoyl]amino]-1,6-diphenylhexan-2-yl]carbamate
> <PUBCHEM_IUPAC_SYSTEMATIC_NAME>
1,3-thiazol-5-ylmethyl N-[(2S,3S,5S)-5-[[(2S)-2-[[2-methylpropyl-[(2-propan-2-yl-1,3-thiazol-4-yl)methyl]carbamoyl]amino]propanoyl]amino]-3-oxidanyl-1,6-diphenyl-hexan-2-yl]carbamate
> <PUBCHEM_IUPAC_TRADITIONAL_NAME>
N-[(1S,2S,4S)-1-benzyl-2-hydroxy-4-[[(2S)-2-[[isobutyl-[(2-isopropylthiazol-4-yl)methyl]carbamoyl]amino]propanoyl]amino]-5-phenyl-pentyl]carbamic acid thiazol-5-ylmethyl ester
> <PUBCHEM_IUPAC_INCHI>
InChI=1S/C38H50N6O5S2/c1-25(2)20-44(21-31-23-50-36(42-31)26(3)4)37(47)40-27(5)35(46)41-30(16-28-12-8-6-9-13-28)18-34(45)33(17-29-14-10-7-11-15-29)43-38(48)49-22-32-19-39-24-51-32/h6-15,19,23-27,30,33-34,45H,16-18,20-22H2,1-5H3,(H,40,47)(H,41,46)(H,43,48)/t27-,30-,33-,34-/m0/s1
> <PUBCHEM_IUPAC_INCHIKEY>
LMTAQPJKAHXXDO-YNGBUGJMSA-N
> <PUBCHEM_XLOGP3_AA>
6.4
> <PUBCHEM_EXACT_MASS>
734.32841106
> <PUBCHEM_MOLECULAR_FORMULA>
C38H50N6O5S2
> <PUBCHEM_MOLECULAR_WEIGHT>
735.0
> <PUBCHEM_OPENEYE_CAN_SMILES>
CC(C)CN(CC1=CSC(=N1)C(C)C)C(=O)NC(C)C(=O)NC(CC2=CC=CC=C2)CC(C(CC3=CC=CC=C3)NC(=O)OCC4=CN=CS4)O
> <PUBCHEM_OPENEYE_ISO_SMILES>
C[C@@H](C(=O)N[C@@H](CC1=CC=CC=C1)C[C@@H]([C@H](CC2=CC=CC=C2)NC(=O)OCC3=CN=CS3)O)NC(=O)N(CC4=CSC(=N4)C(C)C)CC(C)C
> <PUBCHEM_CACTVS_TPSA>
202
> <PUBCHEM_MONOISOTOPIC_WEIGHT>
734.32841106
> <PUBCHEM_TOTAL_CHARGE>
0
> <PUBCHEM_HEAVY_ATOM_COUNT>
51
> <PUBCHEM_ATOM_DEF_STEREO_COUNT>
4
> <PUBCHEM_ATOM_UDEF_STEREO_COUNT>
0
> <PUBCHEM_BOND_DEF_STEREO_COUNT>
0
> <PUBCHEM_BOND_UDEF_STEREO_COUNT>
0
> <PUBCHEM_ISOTOPIC_ATOM_COUNT>
0
> <PUBCHEM_COMPONENT_COUNT>
1
> <PUBCHEM_CACTVS_TAUTO_COUNT>
-1
> <PUBCHEM_COORDINATE_TYPE>
1
5
255
> <PUBCHEM_BONDANNOTATIONS>
1  44  8
1  45  8
23  10  6
12  42  8
12  44  8
13  50  8
13  51  8
2  47  8
2  51  8
20  24  8
20  25  8
21  27  8
21  28  8
24  34  8
25  35  8
27  36  8
28  37  8
14  3  5
34  38  8
35  38  8
36  39  8
37  39  8
42  45  8
47  50  8
16  8  6
17  9  5
$$$$
