515873
  -OEChem-10302200282D
 81 87  0     1  0  0  0  0  0999 V2000
    4.7401    2.9217    0.0000 O   0  0  0  0  0  0  0  0  0  0  0  0
    4.0577    1.1830    0.0000 O   0  0  0  0  0  0  0  0  0  0  0  0
    8.2077    0.5575    0.0000 O   0  0  0  0  0  0  0  0  0  0  0  0
    7.2021    1.9200    0.0000 N   0  0  0  0  0  0  0  0  0  0  0  0
    6.5438    0.2427    0.0000 N   0  0  0  0  0  0  0  0  0  0  0  0
   11.6124    0.6153    0.0000 N   0  0  0  0  0  0  0  0  0  0  0  0
   12.1960    1.4200    0.0000 N   0  0  0  0  0  0  0  0  0  0  0  0
    7.0140   -4.4134    0.0000 N   0  0  0  0  0  0  0  0  0  0  0  0
    5.4679   -4.8903    0.0000 N   0  0  0  0  0  0  0  0  0  0  0  0
    6.9990   -5.4132    0.0000 N   0  0  0  0  0  0  0  0  0  0  0  0
    6.3758    2.4834    0.0000 C   0  0  1  0  0  0  0  0  0  0  0  0
    5.5549    0.3917    0.0000 C   0  0  1  0  0  0  0  0  0  0  0  0
    5.4203    2.1886    0.0000 C   0  0  1  0  0  0  0  0  0  0  0  0
    5.0549    1.2577    0.0000 C   0  0  1  0  0  0  0  0  0  0  0  0
    6.5249    3.4722    0.0000 C   0  0  0  0  0  0  0  0  0  0  0  0
    4.9916   -0.4345    0.0000 C   0  0  0  0  0  0  0  0  0  0  0  0
    7.2768    0.9228    0.0000 C   0  0  0  0  0  0  0  0  0  0  0  0
    8.0681    2.4200    0.0000 C   0  0  0  0  0  0  0  0  0  0  0  0
    6.8385   -0.7129    0.0000 C   0  0  0  0  0  0  0  0  0  0  0  0
    5.7431    4.0957    0.0000 C   0  0  0  0  0  0  0  0  0  0  0  0
    3.9944   -0.3598    0.0000 C   0  0  0  0  0  0  0  0  0  0  0  0
    8.9341    1.9200    0.0000 C   0  0  0  0  0  0  0  0  0  0  0  0
    6.1583   -1.4460    0.0000 C   0  0  0  0  0  0  0  0  0  0  0  0
    4.8122    3.7303    0.0000 C   0  0  0  0  0  0  0  0  0  0  0  0
    5.8921    5.0845    0.0000 C   0  0  0  0  0  0  0  0  0  0  0  0
    3.5605    0.5412    0.0000 C   0  0  0  0  0  0  0  0  0  0  0  0
    3.4311   -1.1860    0.0000 C   0  0  0  0  0  0  0  0  0  0  0  0
    9.8002    2.4200    0.0000 C   0  0  0  0  0  0  0  0  0  0  0  0
    8.9341    0.9200    0.0000 C   0  0  0  0  0  0  0  0  0  0  0  0
    6.4531   -2.4015    0.0000 C   0  0  0  0  0  0  0  0  0  0  0  0
    5.1834   -1.2234    0.0000 C   0  0  0  0  0  0  0  0  0  0  0  0
   10.6662    1.9200    0.0000 C   0  0  0  0  0  0  0  0  0  0  0  0
    4.0304    4.3538    0.0000 C   0  0  0  0  0  0  0  0  0  0  0  0
    5.1103    5.7080    0.0000 C   0  0  0  0  0  0  0  0  0  0  0  0
    2.5633    0.6159    0.0000 C   0  0  0  0  0  0  0  0  0  0  0  0
    2.4339   -1.1113    0.0000 C   0  0  0  0  0  0  0  0  0  0  0  0
    9.8002    0.4200    0.0000 C   0  0  0  0  0  0  0  0  0  0  0  0
    5.7729   -3.1346    0.0000 C   0  0  0  0  0  0  0  0  0  0  0  0
   10.6662    0.9200    0.0000 C   0  0  0  0  0  0  0  0  0  0  0  0
    4.5032   -1.9565    0.0000 C   0  0  0  0  0  0  0  0  0  0  0  0
    4.1794    5.3427    0.0000 C   0  0  0  0  0  0  0  0  0  0  0  0
    2.0000   -0.2103    0.0000 C   0  0  0  0  0  0  0  0  0  0  0  0
    4.7980   -2.9121    0.0000 C   0  0  0  0  0  0  0  0  0  0  0  0
   11.6124    2.2248    0.0000 C   0  0  0  0  0  0  0  0  0  0  0  0
    6.0677   -4.0902    0.0000 C   0  0  0  0  0  0  0  0  0  0  0  0
    6.0435   -5.7080    0.0000 C   0  0  0  0  0  0  0  0  0  0  0  0
    6.9441    2.7313    0.0000 H   0  0  0  0  0  0  0  0  0  0  0  0
    5.8029   -0.1766    0.0000 H   0  0  0  0  0  0  0  0  0  0  0  0
    4.8111    2.0733    0.0000 H   0  0  0  0  0  0  0  0  0  0  0  0
    4.7652    0.7096    0.0000 H   0  0  0  0  0  0  0  0  0  0  0  0
    7.1126    3.2747    0.0000 H   0  0  0  0  0  0  0  0  0  0  0  0
    6.8214    4.0167    0.0000 H   0  0  0  0  0  0  0  0  0  0  0  0
    4.8386   -1.0354    0.0000 H   0  0  0  0  0  0  0  0  0  0  0  0
    5.5568   -0.6895    0.0000 H   0  0  0  0  0  0  0  0  0  0  0  0
    8.4666    2.8950    0.0000 H   0  0  0  0  0  0  0  0  0  0  0  0
    7.6696    2.8950    0.0000 H   0  0  0  0  0  0  0  0  0  0  0  0
    7.2129   -1.2071    0.0000 H   0  0  0  0  0  0  0  0  0  0  0  0
    7.3902   -0.4301    0.0000 H   0  0  0  0  0  0  0  0  0  0  0  0
    4.1356    2.7837    0.0000 H   0  0  0  0  0  0  0  0  0  0  0  0
    3.7085    1.6953    0.0000 H   0  0  0  0  0  0  0  0  0  0  0  0
    4.7198    3.1173    0.0000 H   0  0  0  0  0  0  0  0  0  0  0  0
    6.4692    5.3110    0.0000 H   0  0  0  0  0  0  0  0  0  0  0  0
    3.9098    1.0534    0.0000 H   0  0  0  0  0  0  0  0  0  0  0  0
    3.7001   -1.7446    0.0000 H   0  0  0  0  0  0  0  0  0  0  0  0
    9.8002    3.0400    0.0000 H   0  0  0  0  0  0  0  0  0  0  0  0
    8.3972    0.6100    0.0000 H   0  0  0  0  0  0  0  0  0  0  0  0
    7.0576   -2.5395    0.0000 H   0  0  0  0  0  0  0  0  0  0  0  0
    5.0007   -0.6310    0.0000 H   0  0  0  0  0  0  0  0  0  0  0  0
    3.4532    4.1273    0.0000 H   0  0  0  0  0  0  0  0  0  0  0  0
    5.2027    6.3211    0.0000 H   0  0  0  0  0  0  0  0  0  0  0  0
    2.2943    1.1745    0.0000 H   0  0  0  0  0  0  0  0  0  0  0  0
    2.0846   -1.6236    0.0000 H   0  0  0  0  0  0  0  0  0  0  0  0
    9.8002   -0.2000    0.0000 H   0  0  0  0  0  0  0  0  0  0  0  0
    3.8988   -1.8185    0.0000 H   0  0  0  0  0  0  0  0  0  0  0  0
    3.6947    5.7292    0.0000 H   0  0  0  0  0  0  0  0  0  0  0  0
    1.3817   -0.1640    0.0000 H   0  0  0  0  0  0  0  0  0  0  0  0
    4.3763   -3.3666    0.0000 H   0  0  0  0  0  0  0  0  0  0  0  0
   11.8050    2.8141    0.0000 H   0  0  0  0  0  0  0  0  0  0  0  0
   11.8050    0.0260    0.0000 H   0  0  0  0  0  0  0  0  0  0  0  0
    7.5210   -4.0565    0.0000 H   0  0  0  0  0  0  0  0  0  0  0  0
    5.8431   -6.2947    0.0000 H   0  0  0  0  0  0  0  0  0  0  0  0
 13  1  1  1  0  0  0
  1 59  1  0  0  0  0
 14  2  1  6  0  0  0
  2 60  1  0  0  0  0
  3 17  2  0  0  0  0
  4 11  1  0  0  0  0
  4 17  1  0  0  0  0
  4 18  1  0  0  0  0
  5 12  1  0  0  0  0
  5 17  1  0  0  0  0
  5 19  1  0  0  0  0
  6  7  1  0  0  0  0
  6 39  1  0  0  0  0
  6 79  1  0  0  0  0
  7 44  2  0  0  0  0
  8 10  1  0  0  0  0
  8 45  1  0  0  0  0
  8 80  1  0  0  0  0
  9 45  2  0  0  0  0
  9 46  1  0  0  0  0
 10 46  2  0  0  0  0
 11 13  1  0  0  0  0
 11 15  1  1  0  0  0
 11 47  1  0  0  0  0
 12 14  1  0  0  0  0
 12 16  1  6  0  0  0
 12 48  1  0  0  0  0
 13 14  1  0  0  0  0
 13 49  1  0  0  0  0
 14 50  1  0  0  0  0
 15 20  1  0  0  0  0
 15 51  1  0  0  0  0
 15 52  1  0  0  0  0
 16 21  1  0  0  0  0
 16 53  1  0  0  0  0
 16 54  1  0  0  0  0
 18 22  1  0  0  0  0
 18 55  1  0  0  0  0
 18 56  1  0  0  0  0
 19 23  1  0  0  0  0
 19 57  1  0  0  0  0
 19 58  1  0  0  0  0
 20 24  2  0  0  0  0
 20 25  1  0  0  0  0
 21 26  2  0  0  0  0
 21 27  1  0  0  0  0
 22 28  2  0  0  0  0
 22 29  1  0  0  0  0
 23 30  2  0  0  0  0
 23 31  1  0  0  0  0
 24 33  1  0  0  0  0
 24 61  1  0  0  0  0
 25 34  2  0  0  0  0
 25 62  1  0  0  0  0
 26 35  1  0  0  0  0
 26 63  1  0  0  0  0
 27 36  2  0  0  0  0
 27 64  1  0  0  0  0
 28 32  1  0  0  0  0
 28 65  1  0  0  0  0
 29 37  2  0  0  0  0
 29 66  1  0  0  0  0
 30 38  1  0  0  0  0
 30 67  1  0  0  0  0
 31 40  2  0  0  0  0
 31 68  1  0  0  0  0
 32 39  2  0  0  0  0
 32 44  1  0  0  0  0
 33 41  2  0  0  0  0
 33 69  1  0  0  0  0
 34 41  1  0  0  0  0
 34 70  1  0  0  0  0
 35 42  2  0  0  0  0
 35 71  1  0  0  0  0
 36 42  1  0  0  0  0
 36 72  1  0  0  0  0
 37 39  1  0  0  0  0
 37 73  1  0  0  0  0
 38 43  2  0  0  0  0
 38 45  1  0  0  0  0
 40 43  1  0  0  0  0
 40 74  1  0  0  0  0
 41 75  1  0  0  0  0
 42 76  1  0  0  0  0
 43 77  1  0  0  0  0
 44 78  1  0  0  0  0
 46 81  1  0  0  0  0
M  END
> <PUBCHEM_COMPOUND_CID>
515873
> <PUBCHEM_COMPOUND_CANONICALIZED>
1
> <PUBCHEM_CACTVS_COMPLEXITY>
977
> <PUBCHEM_CACTVS_HBOND_ACCEPTOR>
6
> <PUBCHEM_CACTVS_HBOND_DONOR>
4
> <PUBCHEM_CACTVS_ROTATABLE_BOND>
9
> <PUBCHEM_CACTVS_SUBSKEYS>
AAADcfB/sAAAAAAAAAAAAAAAAAAAAWLAAAAwYMGABYAAAFgB/AAAHgAYCAAADDzhnwY90PdrEgCqAzZndACShAuwgqAd+SA4ZJiLOKKA2dGE5AhungKZyAeQwPAOCAACAAACAAAQAAQAAAQAAAAAAAAAAA==
> <PUBCHEM_IUPAC_OPENEYE_NAME>
(4R,5S,6S,7R)-4,7-dibenzyl-5,6-dihydroxy-1-(1H-indazol-5-ylmethyl)-3-[[3-(1H-1,2,4-triazol-5-yl)phenyl]methyl]-1,3-diazepan-2-one
> <PUBCHEM_IUPAC_CAS_NAME>
(4R,5S,6S,7R)-5,6-dihydroxy-1-(1H-indazol-5-ylmethyl)-4,7-bis(phenylmethyl)-3-[[3-(1H-1,2,4-triazol-5-yl)phenyl]methyl]-1,3-diazepan-2-one
> <PUBCHEM_IUPAC_NAME_MARKUP>
(4<I>R</I>,5<I>S</I>,6<I>S</I>,7<I>R</I>)-4,7-dibenzyl-5,6-dihydroxy-1-(1<I>H</I>-indazol-5-ylmethyl)-3-[[3-(1<I>H</I>-1,2,4-triazol-5-yl)phenyl]methyl]-1,3-diazepan-2-one
> <PUBCHEM_IUPAC_NAME>
(4R,5S,6S,7R)-4,7-dibenzyl-5,6-dihydroxy-1-(1H-indazol-5-ylmethyl)-3-[[3-(1H-1,2,4-triazol-5-yl)phenyl]methyl]-1,3-diazepan-2-one
> <PUBCHEM_IUPAC_SYSTEMATIC_NAME>
(4R,5S,6S,7R)-1-(1H-indazol-5-ylmethyl)-5,6-bis(oxidanyl)-4,7-bis(phenylmethyl)-3-[[3-(1H-1,2,4-triazol-5-yl)phenyl]methyl]-1,3-diazepan-2-one
> <PUBCHEM_IUPAC_TRADITIONAL_NAME>
(4R,5S,6S,7R)-4,7-dibenzyl-5,6-dihydroxy-1-(1H-indazol-5-ylmethyl)-3-[3-(1H-1,2,4-triazol-5-yl)benzyl]-1,3-diazepan-2-one
> <PUBCHEM_IUPAC_INCHI>
InChI=1S/C36H35N7O3/c44-33-31(18-24-8-3-1-4-9-24)42(21-26-12-7-13-28(16-26)35-37-23-39-41-35)36(46)43(22-27-14-15-30-29(17-27)20-38-40-30)32(34(33)45)19-25-10-5-2-6-11-25/h1-17,20,23,31-34,44-45H,18-19,21-22H2,(H,38,40)(H,37,39,41)/t31-,32-,33+,34+/m1/s1
> <PUBCHEM_IUPAC_INCHIKEY>
XNMNZSWFRFPRFY-WZJLIZBTSA-N
> <PUBCHEM_XLOGP3_AA>
4.7
> <PUBCHEM_EXACT_MASS>
613.28013800
> <PUBCHEM_MOLECULAR_FORMULA>
C36H35N7O3
> <PUBCHEM_MOLECULAR_WEIGHT>
613.7
> <PUBCHEM_OPENEYE_CAN_SMILES>
C1=CC=C(C=C1)CC2C(C(C(N(C(=O)N2CC3=CC(=CC=C3)C4=NC=NN4)CC5=CC6=C(C=C5)NN=C6)CC7=CC=CC=C7)O)O
> <PUBCHEM_OPENEYE_ISO_SMILES>
C1=CC=C(C=C1)C[C@@H]2[C@@H]([C@H]([C@H](N(C(=O)N2CC3=CC(=CC=C3)C4=NC=NN4)CC5=CC6=C(C=C5)NN=C6)CC7=CC=CC=C7)O)O
> <PUBCHEM_CACTVS_TPSA>
134
> <PUBCHEM_MONOISOTOPIC_WEIGHT>
613.28013800
> <PUBCHEM_TOTAL_CHARGE>
0
> <PUBCHEM_HEAVY_ATOM_COUNT>
46
> <PUBCHEM_ATOM_DEF_STEREO_COUNT>
4
> <PUBCHEM_ATOM_UDEF_STEREO_COUNT>
0
> <PUBCHEM_BOND_DEF_STEREO_COUNT>
0
> <PUBCHEM_BOND_UDEF_STEREO_COUNT>
0
> <PUBCHEM_ISOTOPIC_ATOM_COUNT>
0
> <PUBCHEM_COMPONENT_COUNT>
1
> <PUBCHEM_CACTVS_TAUTO_COUNT>
-1
> <PUBCHEM_COORDINATE_TYPE>
1
5
255
> <PUBCHEM_BONDANNOTATIONS>
13  1  5
10  46  8
11  15  5
12  16  6
14  2  6
20  24  8
20  25  8
21  26  8
21  27  8
22  28  8
22  29  8
23  30  8
23  31  8
24  33  8
25  34  8
26  35  8
27  36  8
28  32  8
29  37  8
30  38  8
31  40  8
32  39  8
32  44  8
33  41  8
34  41  8
35  42  8
36  42  8
37  39  8
38  43  8
40  43  8
6  39  8
6  7  8
7  44  8
8  10  8
8  45  8
9  45  8
9  46  8
$$$$
