515812
  -OEChem-10302200282D
 92 95  0     1  0  0  0  0  0999 V2000
    5.4641    2.2694    0.0000 O   0  0  0  0  0  0  0  0  0  0  0  0
    8.9282    3.2694    0.0000 O   0  0  0  0  0  0  0  0  0  0  0  0
    6.3301   -2.2306    0.0000 O   0  0  0  0  0  0  0  0  0  0  0  0
    7.1962   -0.7306    0.0000 O   0  0  0  0  0  0  0  0  0  0  0  0
   12.3923    2.2694    0.0000 O   0  0  0  0  0  0  0  0  0  0  0  0
   11.5263    0.7694    0.0000 O   0  0  0  0  0  0  0  0  0  0  0  0
    7.6962   -5.2694    0.0000 O   0  0  0  0  0  0  0  0  0  0  0  0
    8.0622    1.7694    0.0000 N   0  0  0  0  0  0  0  0  0  0  0  0
    5.4641   -0.7306    0.0000 N   0  0  0  0  0  0  0  0  0  0  0  0
   10.6603    2.2694    0.0000 N   0  0  0  0  0  0  0  0  0  0  0  0
   14.9904    1.7694    0.0000 N   0  0  0  0  0  0  0  0  0  0  0  0
    7.1962    2.2694    0.0000 C   0  0  2  0  0  0  0  0  0  0  0  0
    6.3301    1.7694    0.0000 C   0  0  2  0  0  0  0  0  0  0  0  0
    6.3301    0.7694    0.0000 C   0  0  0  0  0  0  0  0  0  0  0  0
    5.4641    0.2694    0.0000 C   0  0  2  0  0  0  0  0  0  0  0  0
    7.1962    3.2694    0.0000 C   0  0  0  0  0  0  0  0  0  0  0  0
    4.5981    0.7694    0.0000 C   0  0  0  0  0  0  0  0  0  0  0  0
    9.7942    1.7694    0.0000 C   0  0  2  0  0  0  0  0  0  0  0  0
    8.9282    2.2694    0.0000 C   0  0  0  0  0  0  0  0  0  0  0  0
    9.7942    0.7694    0.0000 C   0  0  0  0  0  0  0  0  0  0  0  0
    6.3301    3.7694    0.0000 C   0  0  0  0  0  0  0  0  0  0  0  0
    3.7320    0.2694    0.0000 C   0  0  0  0  0  0  0  0  0  0  0  0
    8.9282    0.2694    0.0000 C   0  0  0  0  0  0  0  0  0  0  0  0
   10.6603    0.2694    0.0000 C   0  0  0  0  0  0  0  0  0  0  0  0
    6.3301    4.7694    0.0000 C   0  0  0  0  0  0  0  0  0  0  0  0
    5.4641    3.2694    0.0000 C   0  0  0  0  0  0  0  0  0  0  0  0
    6.3301   -1.2306    0.0000 C   0  0  0  0  0  0  0  0  0  0  0  0
    3.7320   -0.7306    0.0000 C   0  0  0  0  0  0  0  0  0  0  0  0
    2.8660    0.7694    0.0000 C   0  0  0  0  0  0  0  0  0  0  0  0
    5.4641    5.2694    0.0000 C   0  0  0  0  0  0  0  0  0  0  0  0
    4.5981    3.7694    0.0000 C   0  0  0  0  0  0  0  0  0  0  0  0
   11.5263    1.7694    0.0000 C   0  0  0  0  0  0  0  0  0  0  0  0
    2.8660   -1.2306    0.0000 C   0  0  0  0  0  0  0  0  0  0  0  0
    2.0000    0.2694    0.0000 C   0  0  0  0  0  0  0  0  0  0  0  0
    4.5981    4.7694    0.0000 C   0  0  0  0  0  0  0  0  0  0  0  0
    2.0000   -0.7306    0.0000 C   0  0  0  0  0  0  0  0  0  0  0  0
    7.1962   -2.7306    0.0000 C   0  0  0  0  0  0  0  0  0  0  0  0
   13.2583    1.7694    0.0000 C   0  0  0  0  0  0  0  0  0  0  0  0
    7.1962   -3.7306    0.0000 C   0  0  0  0  0  0  0  0  0  0  0  0
   14.1244    2.2694    0.0000 C   0  0  0  0  0  0  0  0  0  0  0  0
    6.3871   -4.3184    0.0000 C   0  0  0  0  0  0  0  0  0  0  0  0
    8.0052   -4.3184    0.0000 C   0  0  0  0  0  0  0  0  0  0  0  0
    6.6962   -5.2694    0.0000 C   0  0  0  0  0  0  0  0  0  0  0  0
   14.1244    3.2694    0.0000 C   0  0  0  0  0  0  0  0  0  0  0  0
   15.8564    2.2694    0.0000 C   0  0  0  0  0  0  0  0  0  0  0  0
   14.9904    3.7694    0.0000 C   0  0  0  0  0  0  0  0  0  0  0  0
   15.8564    3.2694    0.0000 C   0  0  0  0  0  0  0  0  0  0  0  0
   16.7224    1.7694    0.0000 C   0  0  0  0  0  0  0  0  0  0  0  0
    7.7331    2.5794    0.0000 H   0  0  0  0  0  0  0  0  0  0  0  0
    5.7932    1.4594    0.0000 H   0  0  0  0  0  0  0  0  0  0  0  0
    6.5422    0.1868    0.0000 H   0  0  0  0  0  0  0  0  0  0  0  0
    6.9407    0.8771    0.0000 H   0  0  0  0  0  0  0  0  0  0  0  0
    6.0010   -0.0406    0.0000 H   0  0  0  0  0  0  0  0  0  0  0  0
    7.8067    3.1618    0.0000 H   0  0  0  0  0  0  0  0  0  0  0  0
    7.4082    3.8520    0.0000 H   0  0  0  0  0  0  0  0  0  0  0  0
    8.0622    1.1494    0.0000 H   0  0  0  0  0  0  0  0  0  0  0  0
    4.9966    1.2444    0.0000 H   0  0  0  0  0  0  0  0  0  0  0  0
    4.1996    1.2444    0.0000 H   0  0  0  0  0  0  0  0  0  0  0  0
    9.7942    2.3894    0.0000 H   0  0  0  0  0  0  0  0  0  0  0  0
    9.2573    1.0794    0.0000 H   0  0  0  0  0  0  0  0  0  0  0  0
    4.9272   -1.0406    0.0000 H   0  0  0  0  0  0  0  0  0  0  0  0
    4.9272    1.9594    0.0000 H   0  0  0  0  0  0  0  0  0  0  0  0
   10.6603    2.8894    0.0000 H   0  0  0  0  0  0  0  0  0  0  0  0
    8.6182    0.8064    0.0000 H   0  0  0  0  0  0  0  0  0  0  0  0
    8.3913   -0.0406    0.0000 H   0  0  0  0  0  0  0  0  0  0  0  0
    9.2382   -0.2675    0.0000 H   0  0  0  0  0  0  0  0  0  0  0  0
   10.3503   -0.2675    0.0000 H   0  0  0  0  0  0  0  0  0  0  0  0
   11.1972   -0.0406    0.0000 H   0  0  0  0  0  0  0  0  0  0  0  0
   10.9703    0.8064    0.0000 H   0  0  0  0  0  0  0  0  0  0  0  0
    6.8671    5.0794    0.0000 H   0  0  0  0  0  0  0  0  0  0  0  0
    5.4641    2.6494    0.0000 H   0  0  0  0  0  0  0  0  0  0  0  0
    4.2690   -1.0406    0.0000 H   0  0  0  0  0  0  0  0  0  0  0  0
    2.8660    1.3894    0.0000 H   0  0  0  0  0  0  0  0  0  0  0  0
    5.4641    5.8894    0.0000 H   0  0  0  0  0  0  0  0  0  0  0  0
    4.0611    3.4594    0.0000 H   0  0  0  0  0  0  0  0  0  0  0  0
    2.8660   -1.8506    0.0000 H   0  0  0  0  0  0  0  0  0  0  0  0
    1.4631    0.5794    0.0000 H   0  0  0  0  0  0  0  0  0  0  0  0
    4.0611    5.0794    0.0000 H   0  0  0  0  0  0  0  0  0  0  0  0
    1.4631   -1.0406    0.0000 H   0  0  0  0  0  0  0  0  0  0  0  0
    7.8067   -2.8382    0.0000 H   0  0  0  0  0  0  0  0  0  0  0  0
    7.4082   -2.1480    0.0000 H   0  0  0  0  0  0  0  0  0  0  0  0
   12.8598    1.2945    0.0000 H   0  0  0  0  0  0  0  0  0  0  0  0
   13.6569    1.2945    0.0000 H   0  0  0  0  0  0  0  0  0  0  0  0
    5.7975   -4.1268    0.0000 H   0  0  0  0  0  0  0  0  0  0  0  0
    8.5948   -4.1268    0.0000 H   0  0  0  0  0  0  0  0  0  0  0  0
    6.3317   -5.7710    0.0000 H   0  0  0  0  0  0  0  0  0  0  0  0
   13.5874    3.5794    0.0000 H   0  0  0  0  0  0  0  0  0  0  0  0
   14.9904    4.3894    0.0000 H   0  0  0  0  0  0  0  0  0  0  0  0
   16.3933    3.5794    0.0000 H   0  0  0  0  0  0  0  0  0  0  0  0
   16.4124    1.2325    0.0000 H   0  0  0  0  0  0  0  0  0  0  0  0
   17.2594    1.4594    0.0000 H   0  0  0  0  0  0  0  0  0  0  0  0
   17.0324    2.3064    0.0000 H   0  0  0  0  0  0  0  0  0  0  0  0
 13  1  1  6  0  0  0
  1 62  1  0  0  0  0
  2 19  2  0  0  0  0
  3 27  1  0  0  0  0
  3 37  1  0  0  0  0
  4 27  2  0  0  0  0
  5 32  1  0  0  0  0
  5 38  1  0  0  0  0
  6 32  2  0  0  0  0
  7 42  1  0  0  0  0
  7 43  1  0  0  0  0
 12  8  1  6  0  0  0
  8 19  1  0  0  0  0
  8 56  1  0  0  0  0
 15  9  1  1  0  0  0
  9 27  1  0  0  0  0
  9 61  1  0  0  0  0
 18 10  1  1  0  0  0
 10 32  1  0  0  0  0
 10 63  1  0  0  0  0
 11 40  1  0  0  0  0
 11 45  2  0  0  0  0
 12 13  1  0  0  0  0
 12 16  1  0  0  0  0
 12 49  1  0  0  0  0
 13 14  1  0  0  0  0
 13 50  1  0  0  0  0
 14 15  1  0  0  0  0
 14 51  1  0  0  0  0
 14 52  1  0  0  0  0
 15 17  1  0  0  0  0
 15 53  1  0  0  0  0
 16 21  1  0  0  0  0
 16 54  1  0  0  0  0
 16 55  1  0  0  0  0
 17 22  1  0  0  0  0
 17 57  1  0  0  0  0
 17 58  1  0  0  0  0
 18 19  1  0  0  0  0
 18 20  1  0  0  0  0
 18 59  1  0  0  0  0
 20 23  1  0  0  0  0
 20 24  1  0  0  0  0
 20 60  1  0  0  0  0
 21 25  2  0  0  0  0
 21 26  1  0  0  0  0
 22 28  2  0  0  0  0
 22 29  1  0  0  0  0
 23 64  1  0  0  0  0
 23 65  1  0  0  0  0
 23 66  1  0  0  0  0
 24 67  1  0  0  0  0
 24 68  1  0  0  0  0
 24 69  1  0  0  0  0
 25 30  1  0  0  0  0
 25 70  1  0  0  0  0
 26 31  2  0  0  0  0
 26 71  1  0  0  0  0
 28 33  1  0  0  0  0
 28 72  1  0  0  0  0
 29 34  2  0  0  0  0
 29 73  1  0  0  0  0
 30 35  2  0  0  0  0
 30 74  1  0  0  0  0
 31 35  1  0  0  0  0
 31 75  1  0  0  0  0
 33 36  2  0  0  0  0
 33 76  1  0  0  0  0
 34 36  1  0  0  0  0
 34 77  1  0  0  0  0
 35 78  1  0  0  0  0
 36 79  1  0  0  0  0
 37 39  1  0  0  0  0
 37 80  1  0  0  0  0
 37 81  1  0  0  0  0
 38 40  1  0  0  0  0
 38 82  1  0  0  0  0
 38 83  1  0  0  0  0
 39 41  1  0  0  0  0
 39 42  2  0  0  0  0
 40 44  2  0  0  0  0
 41 43  2  0  0  0  0
 41 84  1  0  0  0  0
 42 85  1  0  0  0  0
 43 86  1  0  0  0  0
 44 46  1  0  0  0  0
 44 87  1  0  0  0  0
 45 47  1  0  0  0  0
 45 48  1  0  0  0  0
 46 47  2  0  0  0  0
 46 88  1  0  0  0  0
 47 89  1  0  0  0  0
 48 90  1  0  0  0  0
 48 91  1  0  0  0  0
 48 92  1  0  0  0  0
M  END
> <PUBCHEM_COMPOUND_CID>
515812
> <PUBCHEM_COMPOUND_CANONICALIZED>
1
> <PUBCHEM_CACTVS_COMPLEXITY>
971
> <PUBCHEM_CACTVS_HBOND_ACCEPTOR>
8
> <PUBCHEM_CACTVS_HBOND_DONOR>
4
> <PUBCHEM_CACTVS_ROTATABLE_BOND>
18
> <PUBCHEM_CACTVS_SUBSKEYS>
AAADcfB/uAAAAAAAAAAAAAAAAAAAASAAAAA8YIAAAAAAAAAB9AAAHgAQCAAADTzhngYyjJLIFkCoAy1y3ASCiCAlIiAImKG+bNkOd/bEtbufeSjn9hHY6YfSwPAOAAAAAAAAAAAAAAAAAAAAAAAAAAAAAA==
> <PUBCHEM_IUPAC_OPENEYE_NAME>
(6-methyl-2-pyridyl)methyl N-[(1S)-1-[[(1S,2S,4S)-1-benzyl-4-(3-furylmethoxycarbonylamino)-2-hydroxy-5-phenyl-pentyl]carbamoyl]-2-methyl-propyl]carbamate
> <PUBCHEM_IUPAC_CAS_NAME>
N-[(2S)-1-[[(2S,3S,5S)-5-[[3-furanylmethoxy(oxo)methyl]amino]-3-hydroxy-1,6-diphenylhexan-2-yl]amino]-3-methyl-1-oxobutan-2-yl]carbamic acid (6-methyl-2-pyridinyl)methyl ester
> <PUBCHEM_IUPAC_NAME_MARKUP>
(6-methylpyridin-2-yl)methyl <I>N</I>-[(2<I>S</I>)-1-[[(2<I>S</I>,3<I>S</I>,5<I>S</I>)-5-(furan-3-ylmethoxycarbonylamino)-3-hydroxy-1,6-diphenylhexan-2-yl]amino]-3-methyl-1-oxobutan-2-yl]carbamate
> <PUBCHEM_IUPAC_NAME>
(6-methylpyridin-2-yl)methyl N-[(2S)-1-[[(2S,3S,5S)-5-(furan-3-ylmethoxycarbonylamino)-3-hydroxy-1,6-diphenylhexan-2-yl]amino]-3-methyl-1-oxobutan-2-yl]carbamate
> <PUBCHEM_IUPAC_SYSTEMATIC_NAME>
(6-methylpyridin-2-yl)methyl N-[(2S)-1-[[(2S,3S,5S)-5-(furan-3-ylmethoxycarbonylamino)-3-oxidanyl-1,6-diphenyl-hexan-2-yl]amino]-3-methyl-1-oxidanylidene-butan-2-yl]carbamate
> <PUBCHEM_IUPAC_TRADITIONAL_NAME>
N-[(1S)-1-[[(1S,2S,4S)-1-benzyl-4-(3-furfuryloxycarbonylamino)-2-hydroxy-5-phenyl-pentyl]carbamoyl]-2-methyl-propyl]carbamic acid (6-methyl-2-pyridyl)methyl ester
> <PUBCHEM_IUPAC_INCHI>
InChI=1S/C37H44N4O7/c1-25(2)34(41-37(45)48-24-30-16-10-11-26(3)38-30)35(43)40-32(20-28-14-8-5-9-15-28)33(42)21-31(19-27-12-6-4-7-13-27)39-36(44)47-23-29-17-18-46-22-29/h4-18,22,25,31-34,42H,19-21,23-24H2,1-3H3,(H,39,44)(H,40,43)(H,41,45)/t31-,32-,33-,34-/m0/s1
> <PUBCHEM_IUPAC_INCHIKEY>
CEFFMOXWPCMZBI-CUPIEXAXSA-N
> <PUBCHEM_XLOGP3_AA>
5.6
> <PUBCHEM_EXACT_MASS>
656.32099976
> <PUBCHEM_MOLECULAR_FORMULA>
C37H44N4O7
> <PUBCHEM_MOLECULAR_WEIGHT>
656.8
> <PUBCHEM_OPENEYE_CAN_SMILES>
CC1=NC(=CC=C1)COC(=O)NC(C(C)C)C(=O)NC(CC2=CC=CC=C2)C(CC(CC3=CC=CC=C3)NC(=O)OCC4=COC=C4)O
> <PUBCHEM_OPENEYE_ISO_SMILES>
CC1=NC(=CC=C1)COC(=O)N[C@@H](C(C)C)C(=O)N[C@@H](CC2=CC=CC=C2)[C@H](C[C@H](CC3=CC=CC=C3)NC(=O)OCC4=COC=C4)O
> <PUBCHEM_CACTVS_TPSA>
152
> <PUBCHEM_MONOISOTOPIC_WEIGHT>
656.32099976
> <PUBCHEM_TOTAL_CHARGE>
0
> <PUBCHEM_HEAVY_ATOM_COUNT>
48
> <PUBCHEM_ATOM_DEF_STEREO_COUNT>
4
> <PUBCHEM_ATOM_UDEF_STEREO_COUNT>
0
> <PUBCHEM_BOND_DEF_STEREO_COUNT>
0
> <PUBCHEM_BOND_UDEF_STEREO_COUNT>
0
> <PUBCHEM_ISOTOPIC_ATOM_COUNT>
0
> <PUBCHEM_COMPONENT_COUNT>
1
> <PUBCHEM_CACTVS_TAUTO_COUNT>
-1
> <PUBCHEM_COORDINATE_TYPE>
1
5
255
> <PUBCHEM_BONDANNOTATIONS>
13  1  6
18  10  5
11  40  8
11  45  8
21  25  8
21  26  8
22  28  8
22  29  8
25  30  8
26  31  8
28  33  8
29  34  8
30  35  8
31  35  8
33  36  8
34  36  8
39  41  8
39  42  8
40  44  8
41  43  8
44  46  8
45  47  8
46  47  8
7  42  8
7  43  8
12  8  6
15  9  5
$$$$
