515879
  -OEChem-10302200282D
 89 95  0     1  0  0  0  0  0999 V2000
    4.7401    3.9126    0.0000 O   0  0  0  0  0  0  0  0  0  0  0  0
    4.0577    2.1740    0.0000 O   0  0  0  0  0  0  0  0  0  0  0  0
    8.2077    1.5485    0.0000 O   0  0  0  0  0  0  0  0  0  0  0  0
    7.0426   -3.3217    0.0000 O   0  0  0  0  0  0  0  0  0  0  0  0
    7.2021    2.9110    0.0000 N   0  0  0  0  0  0  0  0  0  0  0  0
    6.5438    1.2336    0.0000 N   0  0  0  0  0  0  0  0  0  0  0  0
   11.6124    1.6063    0.0000 N   0  0  0  0  0  0  0  0  0  0  0  0
   12.1960    2.4110    0.0000 N   0  0  0  0  0  0  0  0  0  0  0  0
    5.0021   -5.5209    0.0000 N   0  0  0  0  0  0  0  0  0  0  0  0
    6.3758    3.4743    0.0000 C   0  0  1  0  0  0  0  0  0  0  0  0
    5.5549    1.3827    0.0000 C   0  0  1  0  0  0  0  0  0  0  0  0
    5.4203    3.1796    0.0000 C   0  0  1  0  0  0  0  0  0  0  0  0
    5.0549    2.2487    0.0000 C   0  0  1  0  0  0  0  0  0  0  0  0
    6.5249    4.4632    0.0000 C   0  0  0  0  0  0  0  0  0  0  0  0
    4.9916    0.5564    0.0000 C   0  0  0  0  0  0  0  0  0  0  0  0
    7.2768    1.9138    0.0000 C   0  0  0  0  0  0  0  0  0  0  0  0
    8.0681    3.4110    0.0000 C   0  0  0  0  0  0  0  0  0  0  0  0
    6.8385    0.2781    0.0000 C   0  0  0  0  0  0  0  0  0  0  0  0
    5.7431    5.0866    0.0000 C   0  0  0  0  0  0  0  0  0  0  0  0
    3.9944    0.6312    0.0000 C   0  0  0  0  0  0  0  0  0  0  0  0
    8.9341    2.9110    0.0000 C   0  0  0  0  0  0  0  0  0  0  0  0
    6.1583   -0.4550    0.0000 C   0  0  0  0  0  0  0  0  0  0  0  0
    4.8122    4.7213    0.0000 C   0  0  0  0  0  0  0  0  0  0  0  0
    5.8921    6.0755    0.0000 C   0  0  0  0  0  0  0  0  0  0  0  0
    3.4311   -0.1951    0.0000 C   0  0  0  0  0  0  0  0  0  0  0  0
    3.5605    1.5321    0.0000 C   0  0  0  0  0  0  0  0  0  0  0  0
    9.8002    3.4110    0.0000 C   0  0  0  0  0  0  0  0  0  0  0  0
    8.9341    1.9110    0.0000 C   0  0  0  0  0  0  0  0  0  0  0  0
    6.4531   -1.4106    0.0000 C   0  0  0  0  0  0  0  0  0  0  0  0
    5.1834   -0.2325    0.0000 C   0  0  0  0  0  0  0  0  0  0  0  0
   10.6662    2.9110    0.0000 C   0  0  0  0  0  0  0  0  0  0  0  0
    4.0304    5.3448    0.0000 C   0  0  0  0  0  0  0  0  0  0  0  0
    5.1103    6.6990    0.0000 C   0  0  0  0  0  0  0  0  0  0  0  0
    2.4339   -0.1203    0.0000 C   0  0  0  0  0  0  0  0  0  0  0  0
    2.5633    1.6069    0.0000 C   0  0  0  0  0  0  0  0  0  0  0  0
    9.8002    1.4110    0.0000 C   0  0  0  0  0  0  0  0  0  0  0  0
    5.7729   -2.1436    0.0000 C   0  0  0  0  0  0  0  0  0  0  0  0
   10.6662    1.9110    0.0000 C   0  0  0  0  0  0  0  0  0  0  0  0
    4.5032   -0.9655    0.0000 C   0  0  0  0  0  0  0  0  0  0  0  0
    4.1794    6.3336    0.0000 C   0  0  0  0  0  0  0  0  0  0  0  0
    2.0000    0.7806    0.0000 C   0  0  0  0  0  0  0  0  0  0  0  0
    4.7980   -1.9211    0.0000 C   0  0  0  0  0  0  0  0  0  0  0  0
   11.6124    3.2157    0.0000 C   0  0  0  0  0  0  0  0  0  0  0  0
    6.0677   -3.0992    0.0000 C   0  0  0  0  0  0  0  0  0  0  0  0
    5.3875   -3.8322    0.0000 C   0  0  0  0  0  0  0  0  0  0  0  0
    5.6823   -4.7878    0.0000 C   0  0  0  0  0  0  0  0  0  0  0  0
    6.6572   -5.0103    0.0000 C   0  0  0  0  0  0  0  0  0  0  0  0
    6.9520   -5.9659    0.0000 C   0  0  0  0  0  0  0  0  0  0  0  0
    5.2968   -6.4764    0.0000 C   0  0  0  0  0  0  0  0  0  0  0  0
    6.2718   -6.6990    0.0000 C   0  0  0  0  0  0  0  0  0  0  0  0
    6.9441    3.7223    0.0000 H   0  0  0  0  0  0  0  0  0  0  0  0
    5.8029    0.8144    0.0000 H   0  0  0  0  0  0  0  0  0  0  0  0
    4.8111    3.0643    0.0000 H   0  0  0  0  0  0  0  0  0  0  0  0
    4.7652    1.7005    0.0000 H   0  0  0  0  0  0  0  0  0  0  0  0
    7.1126    4.2657    0.0000 H   0  0  0  0  0  0  0  0  0  0  0  0
    6.8214    5.0076    0.0000 H   0  0  0  0  0  0  0  0  0  0  0  0
    4.8386   -0.0444    0.0000 H   0  0  0  0  0  0  0  0  0  0  0  0
    5.5568    0.3014    0.0000 H   0  0  0  0  0  0  0  0  0  0  0  0
    8.4666    3.8860    0.0000 H   0  0  0  0  0  0  0  0  0  0  0  0
    7.6696    3.8860    0.0000 H   0  0  0  0  0  0  0  0  0  0  0  0
    7.2129   -0.2162    0.0000 H   0  0  0  0  0  0  0  0  0  0  0  0
    7.3902    0.5609    0.0000 H   0  0  0  0  0  0  0  0  0  0  0  0
    4.1356    3.7747    0.0000 H   0  0  0  0  0  0  0  0  0  0  0  0
    3.7085    2.6862    0.0000 H   0  0  0  0  0  0  0  0  0  0  0  0
    4.7198    4.1082    0.0000 H   0  0  0  0  0  0  0  0  0  0  0  0
    6.4692    6.3020    0.0000 H   0  0  0  0  0  0  0  0  0  0  0  0
    3.7001   -0.7537    0.0000 H   0  0  0  0  0  0  0  0  0  0  0  0
    3.9098    2.0444    0.0000 H   0  0  0  0  0  0  0  0  0  0  0  0
    9.8002    4.0310    0.0000 H   0  0  0  0  0  0  0  0  0  0  0  0
    8.3972    1.6010    0.0000 H   0  0  0  0  0  0  0  0  0  0  0  0
    7.0576   -1.5485    0.0000 H   0  0  0  0  0  0  0  0  0  0  0  0
    5.0007    0.3600    0.0000 H   0  0  0  0  0  0  0  0  0  0  0  0
    3.4532    5.1183    0.0000 H   0  0  0  0  0  0  0  0  0  0  0  0
    5.2027    7.3120    0.0000 H   0  0  0  0  0  0  0  0  0  0  0  0
    2.0846   -0.6326    0.0000 H   0  0  0  0  0  0  0  0  0  0  0  0
    2.2943    2.1655    0.0000 H   0  0  0  0  0  0  0  0  0  0  0  0
    9.8002    0.7910    0.0000 H   0  0  0  0  0  0  0  0  0  0  0  0
    3.8988   -0.8276    0.0000 H   0  0  0  0  0  0  0  0  0  0  0  0
    3.6947    6.7202    0.0000 H   0  0  0  0  0  0  0  0  0  0  0  0
    1.3817    0.8270    0.0000 H   0  0  0  0  0  0  0  0  0  0  0  0
    4.3763   -2.3756    0.0000 H   0  0  0  0  0  0  0  0  0  0  0  0
   11.8050    3.8051    0.0000 H   0  0  0  0  0  0  0  0  0  0  0  0
   11.8050    1.0170    0.0000 H   0  0  0  0  0  0  0  0  0  0  0  0
    5.0132   -3.3380    0.0000 H   0  0  0  0  0  0  0  0  0  0  0  0
    4.8358   -4.1151    0.0000 H   0  0  0  0  0  0  0  0  0  0  0  0
    7.0789   -4.5559    0.0000 H   0  0  0  0  0  0  0  0  0  0  0  0
    7.5564   -6.1039    0.0000 H   0  0  0  0  0  0  0  0  0  0  0  0
    4.8751   -6.9309    0.0000 H   0  0  0  0  0  0  0  0  0  0  0  0
    6.4545   -7.2914    0.0000 H   0  0  0  0  0  0  0  0  0  0  0  0
 12  1  1  1  0  0  0
  1 63  1  0  0  0  0
 13  2  1  6  0  0  0
  2 64  1  0  0  0  0
  3 16  2  0  0  0  0
  4 44  2  0  0  0  0
  5 10  1  0  0  0  0
  5 16  1  0  0  0  0
  5 17  1  0  0  0  0
  6 11  1  0  0  0  0
  6 16  1  0  0  0  0
  6 18  1  0  0  0  0
  7  8  1  0  0  0  0
  7 38  1  0  0  0  0
  7 83  1  0  0  0  0
  8 43  2  0  0  0  0
  9 46  1  0  0  0  0
  9 49  2  0  0  0  0
 10 12  1  0  0  0  0
 10 14  1  1  0  0  0
 10 51  1  0  0  0  0
 11 13  1  0  0  0  0
 11 15  1  6  0  0  0
 11 52  1  0  0  0  0
 12 13  1  0  0  0  0
 12 53  1  0  0  0  0
 13 54  1  0  0  0  0
 14 19  1  0  0  0  0
 14 55  1  0  0  0  0
 14 56  1  0  0  0  0
 15 20  1  0  0  0  0
 15 57  1  0  0  0  0
 15 58  1  0  0  0  0
 17 21  1  0  0  0  0
 17 59  1  0  0  0  0
 17 60  1  0  0  0  0
 18 22  1  0  0  0  0
 18 61  1  0  0  0  0
 18 62  1  0  0  0  0
 19 23  2  0  0  0  0
 19 24  1  0  0  0  0
 20 25  2  0  0  0  0
 20 26  1  0  0  0  0
 21 27  2  0  0  0  0
 21 28  1  0  0  0  0
 22 29  2  0  0  0  0
 22 30  1  0  0  0  0
 23 32  1  0  0  0  0
 23 65  1  0  0  0  0
 24 33  2  0  0  0  0
 24 66  1  0  0  0  0
 25 34  1  0  0  0  0
 25 67  1  0  0  0  0
 26 35  2  0  0  0  0
 26 68  1  0  0  0  0
 27 31  1  0  0  0  0
 27 69  1  0  0  0  0
 28 36  2  0  0  0  0
 28 70  1  0  0  0  0
 29 37  1  0  0  0  0
 29 71  1  0  0  0  0
 30 39  2  0  0  0  0
 30 72  1  0  0  0  0
 31 38  2  0  0  0  0
 31 43  1  0  0  0  0
 32 40  2  0  0  0  0
 32 73  1  0  0  0  0
 33 40  1  0  0  0  0
 33 74  1  0  0  0  0
 34 41  2  0  0  0  0
 34 75  1  0  0  0  0
 35 41  1  0  0  0  0
 35 76  1  0  0  0  0
 36 38  1  0  0  0  0
 36 77  1  0  0  0  0
 37 42  2  0  0  0  0
 37 44  1  0  0  0  0
 39 42  1  0  0  0  0
 39 78  1  0  0  0  0
 40 79  1  0  0  0  0
 41 80  1  0  0  0  0
 42 81  1  0  0  0  0
 43 82  1  0  0  0  0
 44 45  1  0  0  0  0
 45 46  1  0  0  0  0
 45 84  1  0  0  0  0
 45 85  1  0  0  0  0
 46 47  2  0  0  0  0
 47 48  1  0  0  0  0
 47 86  1  0  0  0  0
 48 50  2  0  0  0  0
 48 87  1  0  0  0  0
 49 50  1  0  0  0  0
 49 88  1  0  0  0  0
 50 89  1  0  0  0  0
M  END
> <PUBCHEM_COMPOUND_CID>
515879
> <PUBCHEM_COMPOUND_CANONICALIZED>
1
> <PUBCHEM_CACTVS_COMPLEXITY>
1100
> <PUBCHEM_CACTVS_HBOND_ACCEPTOR>
6
> <PUBCHEM_CACTVS_HBOND_DONOR>
3
> <PUBCHEM_CACTVS_ROTATABLE_BOND>
11
> <PUBCHEM_CACTVS_SUBSKEYS>
AAADcfB/uAAAAAAAAAAAAAAAAAAAAWAAAAA8YMGCBYAAAFgB/AAAHgAYCAAADDzhngY9wPNrEgCqA7R3VACShCA1giAY+SE4ZNiLMPrA1dGE5QhungLZyYeYyfCOCAACAAACAAAQAAQAAAQAAAAAAAAAAA==
> <PUBCHEM_IUPAC_OPENEYE_NAME>
(4R,5S,6S,7R)-4,7-dibenzyl-5,6-dihydroxy-1-(1H-indazol-5-ylmethyl)-3-[[3-[2-(2-pyridyl)acetyl]phenyl]methyl]-1,3-diazepan-2-one
> <PUBCHEM_IUPAC_CAS_NAME>
(4R,5S,6S,7R)-5,6-dihydroxy-1-(1H-indazol-5-ylmethyl)-3-[[3-[1-oxo-2-(2-pyridinyl)ethyl]phenyl]methyl]-4,7-bis(phenylmethyl)-1,3-diazepan-2-one
> <PUBCHEM_IUPAC_NAME_MARKUP>
(4<I>R</I>,5<I>S</I>,6<I>S</I>,7<I>R</I>)-4,7-dibenzyl-5,6-dihydroxy-1-(1<I>H</I>-indazol-5-ylmethyl)-3-[[3-(2-pyridin-2-ylacetyl)phenyl]methyl]-1,3-diazepan-2-one
> <PUBCHEM_IUPAC_NAME>
(4R,5S,6S,7R)-4,7-dibenzyl-5,6-dihydroxy-1-(1H-indazol-5-ylmethyl)-3-[[3-(2-pyridin-2-ylacetyl)phenyl]methyl]-1,3-diazepan-2-one
> <PUBCHEM_IUPAC_SYSTEMATIC_NAME>
(4R,5S,6S,7R)-1-(1H-indazol-5-ylmethyl)-5,6-bis(oxidanyl)-4,7-bis(phenylmethyl)-3-[[3-(2-pyridin-2-ylethanoyl)phenyl]methyl]-1,3-diazepan-2-one
> <PUBCHEM_IUPAC_TRADITIONAL_NAME>
(4R,5S,6S,7R)-4,7-dibenzyl-5,6-dihydroxy-1-(1H-indazol-5-ylmethyl)-3-[3-[2-(2-pyridyl)acetyl]benzyl]-1,3-diazepan-2-one
> <PUBCHEM_IUPAC_INCHI>
InChI=1S/C41H39N5O4/c47-38(24-34-16-7-8-19-42-34)32-15-9-14-30(20-32)26-45-36(22-28-10-3-1-4-11-28)39(48)40(49)37(23-29-12-5-2-6-13-29)46(41(45)50)27-31-17-18-35-33(21-31)25-43-44-35/h1-21,25,36-37,39-40,48-49H,22-24,26-27H2,(H,43,44)/t36-,37-,39+,40+/m1/s1
> <PUBCHEM_IUPAC_INCHIKEY>
FEICASSQSGPGGQ-QQGWDPLKSA-N
> <PUBCHEM_XLOGP3_AA>
5.2
> <PUBCHEM_EXACT_MASS>
665.30020474
> <PUBCHEM_MOLECULAR_FORMULA>
C41H39N5O4
> <PUBCHEM_MOLECULAR_WEIGHT>
665.8
> <PUBCHEM_OPENEYE_CAN_SMILES>
C1=CC=C(C=C1)CC2C(C(C(N(C(=O)N2CC3=CC(=CC=C3)C(=O)CC4=CC=CC=N4)CC5=CC6=C(C=C5)NN=C6)CC7=CC=CC=C7)O)O
> <PUBCHEM_OPENEYE_ISO_SMILES>
C1=CC=C(C=C1)C[C@@H]2[C@@H]([C@H]([C@H](N(C(=O)N2CC3=CC(=CC=C3)C(=O)CC4=CC=CC=N4)CC5=CC6=C(C=C5)NN=C6)CC7=CC=CC=C7)O)O
> <PUBCHEM_CACTVS_TPSA>
123
> <PUBCHEM_MONOISOTOPIC_WEIGHT>
665.30020474
> <PUBCHEM_TOTAL_CHARGE>
0
> <PUBCHEM_HEAVY_ATOM_COUNT>
50
> <PUBCHEM_ATOM_DEF_STEREO_COUNT>
4
> <PUBCHEM_ATOM_UDEF_STEREO_COUNT>
0
> <PUBCHEM_BOND_DEF_STEREO_COUNT>
0
> <PUBCHEM_BOND_UDEF_STEREO_COUNT>
0
> <PUBCHEM_ISOTOPIC_ATOM_COUNT>
0
> <PUBCHEM_COMPONENT_COUNT>
1
> <PUBCHEM_CACTVS_TAUTO_COUNT>
-1
> <PUBCHEM_COORDINATE_TYPE>
1
5
255
> <PUBCHEM_BONDANNOTATIONS>
12  1  5
10  14  5
11  15  6
19  23  8
19  24  8
13  2  6
20  25  8
20  26  8
21  27  8
21  28  8
22  29  8
22  30  8
23  32  8
24  33  8
25  34  8
26  35  8
27  31  8
28  36  8
29  37  8
30  39  8
31  38  8
31  43  8
32  40  8
33  40  8
34  41  8
35  41  8
36  38  8
37  42  8
39  42  8
46  47  8
47  48  8
48  50  8
49  50  8
7  38  8
7  8  8
8  43  8
9  46  8
9  49  8
$$$$
