515850
  -OEChem-10302200282D
 77 83  0     1  0  0  0  0  0999 V2000
    5.4641    1.5374    0.0000 O   0  0  0  0  0  0  0  0  0  0  0  0
    8.9282   -0.4626    0.0000 O   0  0  0  0  0  0  0  0  0  0  0  0
    7.1962   -0.4626    0.0000 N   0  0  0  0  0  0  0  0  0  0  0  0
    8.0622    1.0374    0.0000 N   0  0  0  0  0  0  0  0  0  0  0  0
    3.8611   -3.6296    0.0000 N   0  0  0  0  0  0  0  0  0  0  0  0
   12.4725   -0.2673    0.0000 N   0  0  0  0  0  0  0  0  0  0  0  0
    4.2662   -4.5374    0.0000 N   0  0  0  0  0  0  0  0  0  0  0  0
   13.0561    0.5374    0.0000 N   0  0  0  0  0  0  0  0  0  0  0  0
    6.3301    0.0374    0.0000 C   0  0  1  0  0  0  0  0  0  0  0  0
    7.1962    1.5374    0.0000 C   0  0  1  0  0  0  0  0  0  0  0  0
    6.3301    1.0374    0.0000 C   0  0  2  0  0  0  0  0  0  0  0  0
    5.4641   -0.4626    0.0000 C   0  0  0  0  0  0  0  0  0  0  0  0
    7.1962    2.5374    0.0000 C   0  0  0  0  0  0  0  0  0  0  0  0
    8.0622    0.0374    0.0000 C   0  0  0  0  0  0  0  0  0  0  0  0
    7.1962   -1.4626    0.0000 C   0  0  0  0  0  0  0  0  0  0  0  0
    8.9282    1.5374    0.0000 C   0  0  0  0  0  0  0  0  0  0  0  0
    4.5981    0.0374    0.0000 C   0  0  0  0  0  0  0  0  0  0  0  0
    6.3301    3.0374    0.0000 C   0  0  0  0  0  0  0  0  0  0  0  0
    6.3301   -1.9626    0.0000 C   0  0  0  0  0  0  0  0  0  0  0  0
    9.7942    1.0374    0.0000 C   0  0  0  0  0  0  0  0  0  0  0  0
    3.7320   -0.4626    0.0000 C   0  0  0  0  0  0  0  0  0  0  0  0
    5.4641    2.5374    0.0000 C   0  0  0  0  0  0  0  0  0  0  0  0
    6.3301    4.0374    0.0000 C   0  0  0  0  0  0  0  0  0  0  0  0
    6.3301   -2.9626    0.0000 C   0  0  0  0  0  0  0  0  0  0  0  0
   10.6603    1.5374    0.0000 C   0  0  0  0  0  0  0  0  0  0  0  0
    5.4641   -1.4626    0.0000 C   0  0  0  0  0  0  0  0  0  0  0  0
    9.7942    0.0374    0.0000 C   0  0  0  0  0  0  0  0  0  0  0  0
    3.7320   -1.4626    0.0000 C   0  0  0  0  0  0  0  0  0  0  0  0
    2.8660    0.0374    0.0000 C   0  0  0  0  0  0  0  0  0  0  0  0
    5.4641   -3.4626    0.0000 C   0  0  0  0  0  0  0  0  0  0  0  0
   11.5263    1.0374    0.0000 C   0  0  0  0  0  0  0  0  0  0  0  0
    4.5981    3.0374    0.0000 C   0  0  0  0  0  0  0  0  0  0  0  0
    5.4641    4.5374    0.0000 C   0  0  0  0  0  0  0  0  0  0  0  0
    4.5981   -1.9626    0.0000 C   0  0  0  0  0  0  0  0  0  0  0  0
   10.6603   -0.4626    0.0000 C   0  0  0  0  0  0  0  0  0  0  0  0
    4.5981   -2.9626    0.0000 C   0  0  0  0  0  0  0  0  0  0  0  0
   11.5263    0.0374    0.0000 C   0  0  0  0  0  0  0  0  0  0  0  0
    4.5981    4.0374    0.0000 C   0  0  0  0  0  0  0  0  0  0  0  0
    2.8660   -1.9626    0.0000 C   0  0  0  0  0  0  0  0  0  0  0  0
    2.0000   -0.4626    0.0000 C   0  0  0  0  0  0  0  0  0  0  0  0
    5.2549   -4.4344    0.0000 C   0  0  0  0  0  0  0  0  0  0  0  0
    2.0000   -1.4626    0.0000 C   0  0  0  0  0  0  0  0  0  0  0  0
   12.4725    1.3422    0.0000 C   0  0  0  0  0  0  0  0  0  0  0  0
    6.3301   -0.5826    0.0000 H   0  0  0  0  0  0  0  0  0  0  0  0
    7.7331    1.8474    0.0000 H   0  0  0  0  0  0  0  0  0  0  0  0
    5.7932    0.7274    0.0000 H   0  0  0  0  0  0  0  0  0  0  0  0
    5.0656   -0.9375    0.0000 H   0  0  0  0  0  0  0  0  0  0  0  0
    5.8626   -0.9375    0.0000 H   0  0  0  0  0  0  0  0  0  0  0  0
    7.8067    2.4298    0.0000 H   0  0  0  0  0  0  0  0  0  0  0  0
    7.4082    3.1200    0.0000 H   0  0  0  0  0  0  0  0  0  0  0  0
    7.4082   -2.0452    0.0000 H   0  0  0  0  0  0  0  0  0  0  0  0
    7.8067   -1.3549    0.0000 H   0  0  0  0  0  0  0  0  0  0  0  0
    9.3267    2.0124    0.0000 H   0  0  0  0  0  0  0  0  0  0  0  0
    8.5297    2.0124    0.0000 H   0  0  0  0  0  0  0  0  0  0  0  0
    4.9966    0.5124    0.0000 H   0  0  0  0  0  0  0  0  0  0  0  0
    4.1996    0.5124    0.0000 H   0  0  0  0  0  0  0  0  0  0  0  0
    4.9272    1.2274    0.0000 H   0  0  0  0  0  0  0  0  0  0  0  0
    5.4641    1.9174    0.0000 H   0  0  0  0  0  0  0  0  0  0  0  0
    6.8671    4.3474    0.0000 H   0  0  0  0  0  0  0  0  0  0  0  0
    6.8671   -3.2726    0.0000 H   0  0  0  0  0  0  0  0  0  0  0  0
   10.6603    2.1574    0.0000 H   0  0  0  0  0  0  0  0  0  0  0  0
    5.4641   -0.8426    0.0000 H   0  0  0  0  0  0  0  0  0  0  0  0
    9.2573   -0.2726    0.0000 H   0  0  0  0  0  0  0  0  0  0  0  0
    4.2690   -1.7726    0.0000 H   0  0  0  0  0  0  0  0  0  0  0  0
    2.8660    0.6574    0.0000 H   0  0  0  0  0  0  0  0  0  0  0  0
    4.0611    2.7274    0.0000 H   0  0  0  0  0  0  0  0  0  0  0  0
    5.4641    5.1574    0.0000 H   0  0  0  0  0  0  0  0  0  0  0  0
    4.0611   -1.6526    0.0000 H   0  0  0  0  0  0  0  0  0  0  0  0
   10.6603   -1.0826    0.0000 H   0  0  0  0  0  0  0  0  0  0  0  0
    4.0611    4.3474    0.0000 H   0  0  0  0  0  0  0  0  0  0  0  0
    2.8660   -2.5826    0.0000 H   0  0  0  0  0  0  0  0  0  0  0  0
    1.4631   -0.1526    0.0000 H   0  0  0  0  0  0  0  0  0  0  0  0
    5.6690   -4.8958    0.0000 H   0  0  0  0  0  0  0  0  0  0  0  0
    1.4631   -1.7726    0.0000 H   0  0  0  0  0  0  0  0  0  0  0  0
   12.6651    1.9315    0.0000 H   0  0  0  0  0  0  0  0  0  0  0  0
    3.2544   -3.5018    0.0000 H   0  0  0  0  0  0  0  0  0  0  0  0
   12.6651   -0.8566    0.0000 H   0  0  0  0  0  0  0  0  0  0  0  0
 11  1  1  1  0  0  0
  1 57  1  0  0  0  0
  2 14  2  0  0  0  0
  3  9  1  0  0  0  0
  3 14  1  0  0  0  0
  3 15  1  0  0  0  0
  4 10  1  0  0  0  0
  4 14  1  0  0  0  0
  4 16  1  0  0  0  0
  5  7  1  0  0  0  0
  5 36  1  0  0  0  0
  5 76  1  0  0  0  0
  6  8  1  0  0  0  0
  6 37  1  0  0  0  0
  6 77  1  0  0  0  0
  7 41  2  0  0  0  0
  8 43  2  0  0  0  0
  9 11  1  0  0  0  0
  9 12  1  6  0  0  0
  9 44  1  0  0  0  0
 10 11  1  0  0  0  0
 10 13  1  1  0  0  0
 10 45  1  0  0  0  0
 11 46  1  0  0  0  0
 12 17  1  0  0  0  0
 12 47  1  0  0  0  0
 12 48  1  0  0  0  0
 13 18  1  0  0  0  0
 13 49  1  0  0  0  0
 13 50  1  0  0  0  0
 15 19  1  0  0  0  0
 15 51  1  0  0  0  0
 15 52  1  0  0  0  0
 16 20  1  0  0  0  0
 16 53  1  0  0  0  0
 16 54  1  0  0  0  0
 17 21  1  0  0  0  0
 17 55  1  0  0  0  0
 17 56  1  0  0  0  0
 18 22  2  0  0  0  0
 18 23  1  0  0  0  0
 19 24  2  0  0  0  0
 19 26  1  0  0  0  0
 20 25  2  0  0  0  0
 20 27  1  0  0  0  0
 21 28  2  0  0  0  0
 21 29  1  0  0  0  0
 22 32  1  0  0  0  0
 22 58  1  0  0  0  0
 23 33  2  0  0  0  0
 23 59  1  0  0  0  0
 24 30  1  0  0  0  0
 24 60  1  0  0  0  0
 25 31  1  0  0  0  0
 25 61  1  0  0  0  0
 26 34  2  0  0  0  0
 26 62  1  0  0  0  0
 27 35  2  0  0  0  0
 27 63  1  0  0  0  0
 28 39  1  0  0  0  0
 28 64  1  0  0  0  0
 29 40  2  0  0  0  0
 29 65  1  0  0  0  0
 30 36  2  0  0  0  0
 30 41  1  0  0  0  0
 31 37  2  0  0  0  0
 31 43  1  0  0  0  0
 32 38  2  0  0  0  0
 32 66  1  0  0  0  0
 33 38  1  0  0  0  0
 33 67  1  0  0  0  0
 34 36  1  0  0  0  0
 34 68  1  0  0  0  0
 35 37  1  0  0  0  0
 35 69  1  0  0  0  0
 38 70  1  0  0  0  0
 39 42  2  0  0  0  0
 39 71  1  0  0  0  0
 40 42  1  0  0  0  0
 40 72  1  0  0  0  0
 41 73  1  0  0  0  0
 42 74  1  0  0  0  0
 43 75  1  0  0  0  0
M  END
> <PUBCHEM_COMPOUND_CID>
515850
> <PUBCHEM_COMPOUND_CANONICALIZED>
1
> <PUBCHEM_CACTVS_COMPLEXITY>
909
> <PUBCHEM_CACTVS_HBOND_ACCEPTOR>
4
> <PUBCHEM_CACTVS_HBOND_DONOR>
3
> <PUBCHEM_CACTVS_ROTATABLE_BOND>
9
> <PUBCHEM_CACTVS_SUBSKEYS>
AAADcfB/sAAAAAAAAAAAAAAAAAAAAWLAAAA8YMGCAAAAAFgB/gAAHgAYCAAADDzhngY9wPNjAgCqAzRnUACSBAAgggAYuSA4ZJiKMKKA0dGE5AhsngKYyAeQwPAOCAACAAACAAAQAAQAAAQAAAAAAAAAAA==
> <PUBCHEM_IUPAC_OPENEYE_NAME>
(4R,5R,6R)-4-benzyl-5-hydroxy-1,3-bis(1H-indazol-5-ylmethyl)-6-(2-phenylethyl)hexahydropyrimidin-2-one
> <PUBCHEM_IUPAC_CAS_NAME>
(4R,5R,6R)-5-hydroxy-1,3-bis(1H-indazol-5-ylmethyl)-4-(2-phenylethyl)-6-(phenylmethyl)-1,3-diazinan-2-one
> <PUBCHEM_IUPAC_NAME_MARKUP>
(4<I>R</I>,5<I>R</I>,6<I>R</I>)-4-benzyl-5-hydroxy-1,3-bis(1<I>H</I>-indazol-5-ylmethyl)-6-(2-phenylethyl)-1,3-diazinan-2-one
> <PUBCHEM_IUPAC_NAME>
(4R,5R,6R)-4-benzyl-5-hydroxy-1,3-bis(1H-indazol-5-ylmethyl)-6-(2-phenylethyl)-1,3-diazinan-2-one
> <PUBCHEM_IUPAC_SYSTEMATIC_NAME>
(4R,5R,6R)-1,3-bis(1H-indazol-5-ylmethyl)-5-oxidanyl-4-(2-phenylethyl)-6-(phenylmethyl)-1,3-diazinan-2-one
> <PUBCHEM_IUPAC_TRADITIONAL_NAME>
(4R,5R,6R)-4-benzyl-5-hydroxy-1,3-bis(1H-indazol-5-ylmethyl)-6-phenethyl-hexahydropyrimidin-2-one
> <PUBCHEM_IUPAC_INCHI>
InChI=1S/C35H34N6O2/c42-34-32(16-13-24-7-3-1-4-8-24)40(22-26-11-14-30-28(17-26)20-36-38-30)35(43)41(33(34)19-25-9-5-2-6-10-25)23-27-12-15-31-29(18-27)21-37-39-31/h1-12,14-15,17-18,20-21,32-34,42H,13,16,19,22-23H2,(H,36,38)(H,37,39)/t32-,33-,34-/m1/s1
> <PUBCHEM_IUPAC_INCHIKEY>
XYUHJAIPECDEBR-CKOYEXALSA-N
> <PUBCHEM_XLOGP3_AA>
5.5
> <PUBCHEM_EXACT_MASS>
570.27432435
> <PUBCHEM_MOLECULAR_FORMULA>
C35H34N6O2
> <PUBCHEM_MOLECULAR_WEIGHT>
570.7
> <PUBCHEM_OPENEYE_CAN_SMILES>
C1=CC=C(C=C1)CCC2C(C(N(C(=O)N2CC3=CC4=C(C=C3)NN=C4)CC5=CC6=C(C=C5)NN=C6)CC7=CC=CC=C7)O
> <PUBCHEM_OPENEYE_ISO_SMILES>
C1=CC=C(C=C1)CC[C@@H]2[C@H]([C@H](N(C(=O)N2CC3=CC4=C(C=C3)NN=C4)CC5=CC6=C(C=C5)NN=C6)CC7=CC=CC=C7)O
> <PUBCHEM_CACTVS_TPSA>
101
> <PUBCHEM_MONOISOTOPIC_WEIGHT>
570.27432435
> <PUBCHEM_TOTAL_CHARGE>
0
> <PUBCHEM_HEAVY_ATOM_COUNT>
43
> <PUBCHEM_ATOM_DEF_STEREO_COUNT>
3
> <PUBCHEM_ATOM_UDEF_STEREO_COUNT>
0
> <PUBCHEM_BOND_DEF_STEREO_COUNT>
0
> <PUBCHEM_BOND_UDEF_STEREO_COUNT>
0
> <PUBCHEM_ISOTOPIC_ATOM_COUNT>
0
> <PUBCHEM_COMPONENT_COUNT>
1
> <PUBCHEM_CACTVS_TAUTO_COUNT>
-1
> <PUBCHEM_COORDINATE_TYPE>
1
5
255
> <PUBCHEM_BONDANNOTATIONS>
11  1  5
10  13  5
18  22  8
18  23  8
19  24  8
19  26  8
20  25  8
20  27  8
21  28  8
21  29  8
22  32  8
23  33  8
24  30  8
25  31  8
26  34  8
27  35  8
28  39  8
29  40  8
30  36  8
30  41  8
31  37  8
31  43  8
32  38  8
33  38  8
34  36  8
35  37  8
39  42  8
40  42  8
5  36  8
5  7  8
6  37  8
6  8  8
7  41  8
8  43  8
9  12  6
$$$$
