515801
  -OEChem-10302200282D
 94 97  0     1  0  0  0  0  0999 V2000
    8.0052    5.0684    0.0000 S   0  0  0  0  0  0  0  0  0  0  0  0
    4.5981   -4.0194    0.0000 O   0  0  0  0  0  0  0  0  0  0  0  0
    5.4641   -1.5194    0.0000 O   0  0  0  0  0  0  0  0  0  0  0  0
    8.0622   -1.0194    0.0000 O   0  0  0  0  0  0  0  0  0  0  0  0
    6.3301   -1.0194    0.0000 O   0  0  0  0  0  0  0  0  0  0  0  0
    6.3301    1.9806    0.0000 O   0  0  0  0  0  0  0  0  0  0  0  0
    4.5981    1.9806    0.0000 O   0  0  0  0  0  0  0  0  0  0  0  0
    3.7320   -1.5194    0.0000 N   0  0  0  0  0  0  0  0  0  0  0  0
    7.1962   -2.5194    0.0000 N   0  0  0  0  0  0  0  0  0  0  0  0
    5.4641    0.4806    0.0000 N   0  0  0  0  0  0  0  0  0  0  0  0
   11.5263   -1.0194    0.0000 N   0  0  0  0  0  0  0  0  0  0  0  0
    6.6962    6.0194    0.0000 N   0  0  0  0  0  0  0  0  0  0  0  0
    3.7320   -2.5194    0.0000 C   0  0  2  0  0  0  0  0  0  0  0  0
    4.5981   -3.0194    0.0000 C   0  0  2  0  0  0  0  0  0  0  0  0
    5.4641   -2.5194    0.0000 C   0  0  0  0  0  0  0  0  0  0  0  0
    6.3301   -3.0194    0.0000 C   0  0  2  0  0  0  0  0  0  0  0  0
    2.8660   -3.0194    0.0000 C   0  0  0  0  0  0  0  0  0  0  0  0
    6.3301   -4.0194    0.0000 C   0  0  0  0  0  0  0  0  0  0  0  0
    4.5981   -0.0194    0.0000 C   0  0  2  0  0  0  0  0  0  0  0  0
    4.5981   -1.0194    0.0000 C   0  0  0  0  0  0  0  0  0  0  0  0
    3.7320    0.4806    0.0000 C   0  0  0  0  0  0  0  0  0  0  0  0
    2.8660   -4.0194    0.0000 C   0  0  0  0  0  0  0  0  0  0  0  0
    7.1962   -4.5194    0.0000 C   0  0  0  0  0  0  0  0  0  0  0  0
    3.7320    1.4806    0.0000 C   0  0  0  0  0  0  0  0  0  0  0  0
    2.8660   -0.0194    0.0000 C   0  0  0  0  0  0  0  0  0  0  0  0
    3.7320   -4.5194    0.0000 C   0  0  0  0  0  0  0  0  0  0  0  0
    2.0000   -4.5194    0.0000 C   0  0  0  0  0  0  0  0  0  0  0  0
    7.1962   -1.5194    0.0000 C   0  0  0  0  0  0  0  0  0  0  0  0
    8.0622   -4.0194    0.0000 C   0  0  0  0  0  0  0  0  0  0  0  0
    7.1962   -5.5194    0.0000 C   0  0  0  0  0  0  0  0  0  0  0  0
    3.7320   -5.5194    0.0000 C   0  0  0  0  0  0  0  0  0  0  0  0
    2.0000   -5.5194    0.0000 C   0  0  0  0  0  0  0  0  0  0  0  0
    5.4641    1.4806    0.0000 C   0  0  0  0  0  0  0  0  0  0  0  0
    8.9282   -4.5194    0.0000 C   0  0  0  0  0  0  0  0  0  0  0  0
    8.0622   -6.0194    0.0000 C   0  0  0  0  0  0  0  0  0  0  0  0
    2.8660   -6.0194    0.0000 C   0  0  0  0  0  0  0  0  0  0  0  0
    8.9282   -5.5194    0.0000 C   0  0  0  0  0  0  0  0  0  0  0  0
    8.9282   -1.5194    0.0000 C   0  0  0  0  0  0  0  0  0  0  0  0
    6.3301    2.9806    0.0000 C   0  0  0  0  0  0  0  0  0  0  0  0
    9.7942   -1.0194    0.0000 C   0  0  0  0  0  0  0  0  0  0  0  0
    7.1962    3.4806    0.0000 C   0  0  0  0  0  0  0  0  0  0  0  0
    7.1962    4.4806    0.0000 C   0  0  0  0  0  0  0  0  0  0  0  0
    9.7942   -0.0194    0.0000 C   0  0  0  0  0  0  0  0  0  0  0  0
   10.6603   -1.5194    0.0000 C   0  0  0  0  0  0  0  0  0  0  0  0
    6.3871    5.0684    0.0000 C   0  0  0  0  0  0  0  0  0  0  0  0
   10.6603    0.4806    0.0000 C   0  0  0  0  0  0  0  0  0  0  0  0
   11.5263   -0.0194    0.0000 C   0  0  0  0  0  0  0  0  0  0  0  0
    5.4361    4.7594    0.0000 C   0  0  0  0  0  0  0  0  0  0  0  0
    7.6962    6.0194    0.0000 C   0  0  0  0  0  0  0  0  0  0  0  0
    4.2690   -2.2094    0.0000 H   0  0  0  0  0  0  0  0  0  0  0  0
    5.1350   -3.3294    0.0000 H   0  0  0  0  0  0  0  0  0  0  0  0
    5.8626   -2.0445    0.0000 H   0  0  0  0  0  0  0  0  0  0  0  0
    5.0656   -2.0445    0.0000 H   0  0  0  0  0  0  0  0  0  0  0  0
    6.8671   -3.3294    0.0000 H   0  0  0  0  0  0  0  0  0  0  0  0
    2.6540   -2.4368    0.0000 H   0  0  0  0  0  0  0  0  0  0  0  0
    2.2554   -3.1271    0.0000 H   0  0  0  0  0  0  0  0  0  0  0  0
    3.1951   -1.2094    0.0000 H   0  0  0  0  0  0  0  0  0  0  0  0
    5.7196   -3.9118    0.0000 H   0  0  0  0  0  0  0  0  0  0  0  0
    6.1181   -4.6020    0.0000 H   0  0  0  0  0  0  0  0  0  0  0  0
    4.5981    0.6006    0.0000 H   0  0  0  0  0  0  0  0  0  0  0  0
    3.7320   -0.1394    0.0000 H   0  0  0  0  0  0  0  0  0  0  0  0
    7.7331   -2.8294    0.0000 H   0  0  0  0  0  0  0  0  0  0  0  0
    5.1350   -4.3294    0.0000 H   0  0  0  0  0  0  0  0  0  0  0  0
    6.0010    0.1706    0.0000 H   0  0  0  0  0  0  0  0  0  0  0  0
    4.3520    1.4806    0.0000 H   0  0  0  0  0  0  0  0  0  0  0  0
    3.7320    2.1006    0.0000 H   0  0  0  0  0  0  0  0  0  0  0  0
    3.1120    1.4806    0.0000 H   0  0  0  0  0  0  0  0  0  0  0  0
    2.5560    0.5175    0.0000 H   0  0  0  0  0  0  0  0  0  0  0  0
    2.3291   -0.3294    0.0000 H   0  0  0  0  0  0  0  0  0  0  0  0
    3.1760   -0.5564    0.0000 H   0  0  0  0  0  0  0  0  0  0  0  0
    4.2690   -4.2094    0.0000 H   0  0  0  0  0  0  0  0  0  0  0  0
    1.4631   -4.2094    0.0000 H   0  0  0  0  0  0  0  0  0  0  0  0
    8.0622   -3.3994    0.0000 H   0  0  0  0  0  0  0  0  0  0  0  0
    6.6592   -5.8294    0.0000 H   0  0  0  0  0  0  0  0  0  0  0  0
    4.2690   -5.8294    0.0000 H   0  0  0  0  0  0  0  0  0  0  0  0
    1.4631   -5.8294    0.0000 H   0  0  0  0  0  0  0  0  0  0  0  0
    9.4651   -4.2094    0.0000 H   0  0  0  0  0  0  0  0  0  0  0  0
    8.0622   -6.6394    0.0000 H   0  0  0  0  0  0  0  0  0  0  0  0
    2.8660   -6.6394    0.0000 H   0  0  0  0  0  0  0  0  0  0  0  0
    9.4651   -5.8294    0.0000 H   0  0  0  0  0  0  0  0  0  0  0  0
    8.5297   -1.9944    0.0000 H   0  0  0  0  0  0  0  0  0  0  0  0
    9.3267   -1.9944    0.0000 H   0  0  0  0  0  0  0  0  0  0  0  0
    6.1181    3.5632    0.0000 H   0  0  0  0  0  0  0  0  0  0  0  0
    5.7196    2.8729    0.0000 H   0  0  0  0  0  0  0  0  0  0  0  0
    7.4082    2.8980    0.0000 H   0  0  0  0  0  0  0  0  0  0  0  0
    7.8067    3.5882    0.0000 H   0  0  0  0  0  0  0  0  0  0  0  0
    9.2573    0.2906    0.0000 H   0  0  0  0  0  0  0  0  0  0  0  0
   10.6603   -2.1394    0.0000 H   0  0  0  0  0  0  0  0  0  0  0  0
   10.6603    1.1006    0.0000 H   0  0  0  0  0  0  0  0  0  0  0  0
    5.2445    5.3490    0.0000 H   0  0  0  0  0  0  0  0  0  0  0  0
    4.8464    4.5678    0.0000 H   0  0  0  0  0  0  0  0  0  0  0  0
    5.6277    4.1697    0.0000 H   0  0  0  0  0  0  0  0  0  0  0  0
   12.0632    0.2906    0.0000 H   0  0  0  0  0  0  0  0  0  0  0  0
    8.0606    6.5210    0.0000 H   0  0  0  0  0  0  0  0  0  0  0  0
  1 42  1  0  0  0  0
  1 49  1  0  0  0  0
 14  2  1  6  0  0  0
  2 63  1  0  0  0  0
  3 20  2  0  0  0  0
  4 28  1  0  0  0  0
  4 38  1  0  0  0  0
  5 28  2  0  0  0  0
  6 33  1  0  0  0  0
  6 39  1  0  0  0  0
  7 33  2  0  0  0  0
 13  8  1  6  0  0  0
  8 20  1  0  0  0  0
  8 57  1  0  0  0  0
 16  9  1  1  0  0  0
  9 28  1  0  0  0  0
  9 62  1  0  0  0  0
 19 10  1  6  0  0  0
 10 33  1  0  0  0  0
 10 64  1  0  0  0  0
 11 44  1  0  0  0  0
 11 47  2  0  0  0  0
 12 45  1  0  0  0  0
 12 49  2  0  0  0  0
 13 14  1  0  0  0  0
 13 17  1  0  0  0  0
 13 50  1  0  0  0  0
 14 15  1  0  0  0  0
 14 51  1  0  0  0  0
 15 16  1  0  0  0  0
 15 52  1  0  0  0  0
 15 53  1  0  0  0  0
 16 18  1  0  0  0  0
 16 54  1  0  0  0  0
 17 22  1  0  0  0  0
 17 55  1  0  0  0  0
 17 56  1  0  0  0  0
 18 23  1  0  0  0  0
 18 58  1  0  0  0  0
 18 59  1  0  0  0  0
 19 20  1  0  0  0  0
 19 21  1  0  0  0  0
 19 60  1  0  0  0  0
 21 24  1  0  0  0  0
 21 25  1  0  0  0  0
 21 61  1  0  0  0  0
 22 26  2  0  0  0  0
 22 27  1  0  0  0  0
 23 29  2  0  0  0  0
 23 30  1  0  0  0  0
 24 65  1  0  0  0  0
 24 66  1  0  0  0  0
 24 67  1  0  0  0  0
 25 68  1  0  0  0  0
 25 69  1  0  0  0  0
 25 70  1  0  0  0  0
 26 31  1  0  0  0  0
 26 71  1  0  0  0  0
 27 32  2  0  0  0  0
 27 72  1  0  0  0  0
 29 34  1  0  0  0  0
 29 73  1  0  0  0  0
 30 35  2  0  0  0  0
 30 74  1  0  0  0  0
 31 36  2  0  0  0  0
 31 75  1  0  0  0  0
 32 36  1  0  0  0  0
 32 76  1  0  0  0  0
 34 37  2  0  0  0  0
 34 77  1  0  0  0  0
 35 37  1  0  0  0  0
 35 78  1  0  0  0  0
 36 79  1  0  0  0  0
 37 80  1  0  0  0  0
 38 40  1  0  0  0  0
 38 81  1  0  0  0  0
 38 82  1  0  0  0  0
 39 41  1  0  0  0  0
 39 83  1  0  0  0  0
 39 84  1  0  0  0  0
 40 43  1  0  0  0  0
 40 44  2  0  0  0  0
 41 42  1  0  0  0  0
 41 85  1  0  0  0  0
 41 86  1  0  0  0  0
 42 45  2  0  0  0  0
 43 46  2  0  0  0  0
 43 87  1  0  0  0  0
 44 88  1  0  0  0  0
 45 48  1  0  0  0  0
 46 47  1  0  0  0  0
 46 89  1  0  0  0  0
 47 93  1  0  0  0  0
 48 90  1  0  0  0  0
 48 91  1  0  0  0  0
 48 92  1  0  0  0  0
 49 94  1  0  0  0  0
M  END
> <PUBCHEM_COMPOUND_CID>
515801
> <PUBCHEM_COMPOUND_CANONICALIZED>
1
> <PUBCHEM_CACTVS_COMPLEXITY>
994
> <PUBCHEM_CACTVS_HBOND_ACCEPTOR>
9
> <PUBCHEM_CACTVS_HBOND_DONOR>
4
> <PUBCHEM_CACTVS_ROTATABLE_BOND>
19
> <PUBCHEM_CACTVS_SUBSKEYS>
AAADcfB/uABAAAAAAAAAAAAAAAAAAWAAAAA8YIAAAAAAAAAB9AAAHgQQCAAADTzh3ga+iZLIFgisAzV3XACC8KBxCjgI2LW4bJkKdvLgsbmccAhm1gHY6Aew0PIOAAAAAAAAAAAAAAAAAAAAAAAAAAAAAA==
> <PUBCHEM_IUPAC_OPENEYE_NAME>
3-pyridylmethyl N-[(1S,3S,4S)-1-benzyl-3-hydroxy-4-[[(2S)-3-methyl-2-[2-(4-methylthiazol-5-yl)ethoxycarbonylamino]butanoyl]amino]-5-phenyl-pentyl]carbamate
> <PUBCHEM_IUPAC_CAS_NAME>
N-[(2S,4S,5S)-4-hydroxy-5-[[(2S)-3-methyl-2-[[2-(4-methyl-5-thiazolyl)ethoxy-oxomethyl]amino]-1-oxobutyl]amino]-1,6-diphenylhexan-2-yl]carbamic acid 3-pyridinylmethyl ester
> <PUBCHEM_IUPAC_NAME_MARKUP>
2-(4-methyl-1,3-thiazol-5-yl)ethyl <I>N</I>-[(2<I>S</I>)-1-[[(2<I>S</I>,3<I>S</I>,5<I>S</I>)-3-hydroxy-1,6-diphenyl-5-(pyridin-3-ylmethoxycarbonylamino)hexan-2-yl]amino]-3-methyl-1-oxobutan-2-yl]carbamate
> <PUBCHEM_IUPAC_NAME>
2-(4-methyl-1,3-thiazol-5-yl)ethyl N-[(2S)-1-[[(2S,3S,5S)-3-hydroxy-1,6-diphenyl-5-(pyridin-3-ylmethoxycarbonylamino)hexan-2-yl]amino]-3-methyl-1-oxobutan-2-yl]carbamate
> <PUBCHEM_IUPAC_SYSTEMATIC_NAME>
pyridin-3-ylmethyl N-[(2S,4S,5S)-5-[[(2S)-3-methyl-2-[2-(4-methyl-1,3-thiazol-5-yl)ethoxycarbonylamino]butanoyl]amino]-4-oxidanyl-1,6-diphenyl-hexan-2-yl]carbamate
> <PUBCHEM_IUPAC_TRADITIONAL_NAME>
N-[(1S,3S,4S)-1-benzyl-3-hydroxy-4-[[(2S)-3-methyl-2-[2-(4-methylthiazol-5-yl)ethoxycarbonylamino]butanoyl]amino]-5-phenyl-pentyl]carbamic acid 3-pyridylmethyl ester
> <PUBCHEM_IUPAC_INCHI>
InChI=1S/C37H45N5O6S/c1-25(2)34(42-37(46)47-18-16-33-26(3)39-24-49-33)35(44)41-31(20-28-13-8-5-9-14-28)32(43)21-30(19-27-11-6-4-7-12-27)40-36(45)48-23-29-15-10-17-38-22-29/h4-15,17,22,24-25,30-32,34,43H,16,18-21,23H2,1-3H3,(H,40,45)(H,41,44)(H,42,46)/t30-,31-,32-,34-/m0/s1
> <PUBCHEM_IUPAC_INCHIKEY>
LHPKZVCMOKUDGT-SUGCFTRWSA-N
> <PUBCHEM_XLOGP3_AA>
6
> <PUBCHEM_EXACT_MASS>
687.30905535
> <PUBCHEM_MOLECULAR_FORMULA>
C37H45N5O6S
> <PUBCHEM_MOLECULAR_WEIGHT>
687.8
> <PUBCHEM_OPENEYE_CAN_SMILES>
CC1=C(SC=N1)CCOC(=O)NC(C(C)C)C(=O)NC(CC2=CC=CC=C2)C(CC(CC3=CC=CC=C3)NC(=O)OCC4=CN=CC=C4)O
> <PUBCHEM_OPENEYE_ISO_SMILES>
CC1=C(SC=N1)CCOC(=O)N[C@@H](C(C)C)C(=O)N[C@@H](CC2=CC=CC=C2)[C@H](C[C@H](CC3=CC=CC=C3)NC(=O)OCC4=CN=CC=C4)O
> <PUBCHEM_CACTVS_TPSA>
180
> <PUBCHEM_MONOISOTOPIC_WEIGHT>
687.30905535
> <PUBCHEM_TOTAL_CHARGE>
0
> <PUBCHEM_HEAVY_ATOM_COUNT>
49
> <PUBCHEM_ATOM_DEF_STEREO_COUNT>
4
> <PUBCHEM_ATOM_UDEF_STEREO_COUNT>
0
> <PUBCHEM_BOND_DEF_STEREO_COUNT>
0
> <PUBCHEM_BOND_UDEF_STEREO_COUNT>
0
> <PUBCHEM_ISOTOPIC_ATOM_COUNT>
0
> <PUBCHEM_COMPONENT_COUNT>
1
> <PUBCHEM_CACTVS_TAUTO_COUNT>
-1
> <PUBCHEM_COORDINATE_TYPE>
1
5
255
> <PUBCHEM_BONDANNOTATIONS>
1  42  8
1  49  8
19  10  6
11  44  8
11  47  8
12  45  8
12  49  8
14  2  6
22  26  8
22  27  8
23  29  8
23  30  8
26  31  8
27  32  8
29  34  8
30  35  8
31  36  8
32  36  8
34  37  8
35  37  8
40  43  8
40  44  8
42  45  8
43  46  8
46  47  8
13  8  6
16  9  5
$$$$
