515899
  -OEChem-10302200282D
106110  0     1  0  0  0  0  0999 V2000
   10.7282   -3.4330    0.0000 Cl  0  0  0  0  0  0  0  0  0  0  0  0
    5.5321    0.5670    0.0000 O   0  0  0  0  0  0  0  0  0  0  0  0
    7.2641    3.5670    0.0000 O   0  0  0  0  0  0  0  0  0  0  0  0
    4.4494   -3.6354    0.0000 O   0  0  0  0  0  0  0  0  0  0  0  0
    5.5321   -0.4330    0.0000 O   0  0  0  0  0  0  0  0  0  0  0  0
    6.3981   -3.9330    0.0000 O   0  0  0  0  0  0  0  0  0  0  0  0
    5.5321    2.5670    0.0000 N   0  0  3  0  0  0  0  0  0  0  0  0
    6.3981    5.0670    0.0000 N   0  0  0  0  0  0  0  0  0  0  0  0
    7.2641   -0.4330    0.0000 N   0  0  0  0  0  0  0  0  0  0  0  0
    7.2641   -2.4330    0.0000 N   0  0  0  0  0  0  0  0  0  0  0  0
    8.9962   -3.4330    0.0000 N   0  0  0  0  0  0  0  0  0  0  0  0
    8.9962   -5.4330    0.0000 N   0  0  0  0  0  0  0  0  0  0  0  0
    7.2641   -5.4330    0.0000 N   0  0  0  0  0  0  0  0  0  0  0  0
   10.7282   -5.4330    0.0000 N   0  0  0  0  0  0  0  0  0  0  0  0
    3.8000    3.5670    0.0000 C   0  0  2  0  0  0  0  0  0  0  0  0
    3.8000    2.5670    0.0000 C   0  0  1  0  0  0  0  0  0  0  0  0
    4.6660    4.0670    0.0000 C   0  0  0  0  0  0  0  0  0  0  0  0
    4.6660    2.0670    0.0000 C   0  0  0  0  0  0  0  0  0  0  0  0
    2.9061    4.1016    0.0000 C   0  0  0  0  0  0  0  0  0  0  0  0
    2.9061    2.0323    0.0000 C   0  0  0  0  0  0  0  0  0  0  0  0
    5.5321    3.5670    0.0000 C   0  0  1  0  0  0  0  0  0  0  0  0
    2.0000    3.5878    0.0000 C   0  0  0  0  0  0  0  0  0  0  0  0
    2.0000    2.5462    0.0000 C   0  0  0  0  0  0  0  0  0  0  0  0
    6.3981    2.0670    0.0000 C   0  0  0  0  0  0  0  0  0  0  0  0
    6.3981    4.0670    0.0000 C   0  0  0  0  0  0  0  0  0  0  0  0
    6.3981    1.0670    0.0000 C   0  0  2  0  0  0  0  0  0  0  0  0
    7.2641    0.5670    0.0000 C   0  0  2  0  0  0  0  0  0  0  0  0
    7.2641    5.5670    0.0000 C   0  0  0  0  0  0  0  0  0  0  0  0
    8.1301    1.0670    0.0000 C   0  0  0  0  0  0  0  0  0  0  0  0
    8.1301    6.0670    0.0000 C   0  0  0  0  0  0  0  0  0  0  0  0
    6.7641    6.4330    0.0000 C   0  0  0  0  0  0  0  0  0  0  0  0
    7.7641    4.7010    0.0000 C   0  0  0  0  0  0  0  0  0  0  0  0
    6.3981   -0.9330    0.0000 C   0  0  0  0  0  0  0  0  0  0  0  0
    6.3981   -1.9330    0.0000 C   0  0  2  0  0  0  0  0  0  0  0  0
    8.9962    0.5670    0.0000 C   0  0  0  0  0  0  0  0  0  0  0  0
    5.5321   -2.4330    0.0000 C   0  0  1  0  0  0  0  0  0  0  0  0
    4.6185   -2.0263    0.0000 C   0  0  0  0  0  0  0  0  0  0  0  0
    5.4275   -3.4275    0.0000 C   0  0  0  0  0  0  0  0  0  0  0  0
    3.9494   -2.7694    0.0000 C   0  0  0  0  0  0  0  0  0  0  0  0
    9.8622    1.0670    0.0000 C   0  0  0  0  0  0  0  0  0  0  0  0
    8.9962   -0.4330    0.0000 C   0  0  0  0  0  0  0  0  0  0  0  0
   10.7282    0.5670    0.0000 C   0  0  0  0  0  0  0  0  0  0  0  0
    9.8622   -0.9330    0.0000 C   0  0  0  0  0  0  0  0  0  0  0  0
    7.2641   -3.4330    0.0000 C   0  0  0  0  0  0  0  0  0  0  0  0
   10.7282   -0.4330    0.0000 C   0  0  0  0  0  0  0  0  0  0  0  0
    8.1301   -3.9330    0.0000 C   0  0  0  0  0  0  0  0  0  0  0  0
    8.1301   -4.9330    0.0000 C   0  0  0  0  0  0  0  0  0  0  0  0
    9.8622   -3.9330    0.0000 C   0  0  0  0  0  0  0  0  0  0  0  0
    9.8622   -4.9330    0.0000 C   0  0  0  0  0  0  0  0  0  0  0  0
   10.7282   -6.4330    0.0000 C   0  0  0  0  0  0  0  0  0  0  0  0
   11.5942   -4.9330    0.0000 C   0  0  0  0  0  0  0  0  0  0  0  0
    3.8066    4.4170    0.0000 H   0  0  0  0  0  0  0  0  0  0  0  0
    3.8066    1.7170    0.0000 H   0  0  0  0  0  0  0  0  0  0  0  0
    5.0646    4.5419    0.0000 H   0  0  0  0  0  0  0  0  0  0  0  0
    4.2675    4.5419    0.0000 H   0  0  0  0  0  0  0  0  0  0  0  0
    4.2675    1.5920    0.0000 H   0  0  0  0  0  0  0  0  0  0  0  0
    5.0646    1.5920    0.0000 H   0  0  0  0  0  0  0  0  0  0  0  0
    3.3107    4.5714    0.0000 H   0  0  0  0  0  0  0  0  0  0  0  0
    2.5124    4.5807    0.0000 H   0  0  0  0  0  0  0  0  0  0  0  0
    2.5124    1.5533    0.0000 H   0  0  0  0  0  0  0  0  0  0  0  0
    3.3107    1.5625    0.0000 H   0  0  0  0  0  0  0  0  0  0  0  0
    6.0690    3.2570    0.0000 H   0  0  0  0  0  0  0  0  0  0  0  0
    1.7909    4.1715    0.0000 H   0  0  0  0  0  0  0  0  0  0  0  0
    1.3891    3.4817    0.0000 H   0  0  0  0  0  0  0  0  0  0  0  0
    1.3891    2.6523    0.0000 H   0  0  0  0  0  0  0  0  0  0  0  0
    1.7909    1.9625    0.0000 H   0  0  0  0  0  0  0  0  0  0  0  0
    7.0087    1.9593    0.0000 H   0  0  0  0  0  0  0  0  0  0  0  0
    6.6101    2.6496    0.0000 H   0  0  0  0  0  0  0  0  0  0  0  0
    6.3981    0.4470    0.0000 H   0  0  0  0  0  0  0  0  0  0  0  0
    7.8010    0.2570    0.0000 H   0  0  0  0  0  0  0  0  0  0  0  0
    5.8612    5.3770    0.0000 H   0  0  0  0  0  0  0  0  0  0  0  0
    8.5287    1.5419    0.0000 H   0  0  0  0  0  0  0  0  0  0  0  0
    7.7316    1.5419    0.0000 H   0  0  0  0  0  0  0  0  0  0  0  0
    4.9951    0.8770    0.0000 H   0  0  0  0  0  0  0  0  0  0  0  0
    7.8010   -0.7430    0.0000 H   0  0  0  0  0  0  0  0  0  0  0  0
    8.4401    5.5300    0.0000 H   0  0  0  0  0  0  0  0  0  0  0  0
    8.6671    6.3770    0.0000 H   0  0  0  0  0  0  0  0  0  0  0  0
    7.8201    6.6039    0.0000 H   0  0  0  0  0  0  0  0  0  0  0  0
    7.3010    6.7430    0.0000 H   0  0  0  0  0  0  0  0  0  0  0  0
    6.4541    6.9700    0.0000 H   0  0  0  0  0  0  0  0  0  0  0  0
    6.2272    6.1230    0.0000 H   0  0  0  0  0  0  0  0  0  0  0  0
    7.2272    4.3910    0.0000 H   0  0  0  0  0  0  0  0  0  0  0  0
    8.0741    4.1640    0.0000 H   0  0  0  0  0  0  0  0  0  0  0  0
    8.3010    5.0110    0.0000 H   0  0  0  0  0  0  0  0  0  0  0  0
    6.3981   -2.5530    0.0000 H   0  0  0  0  0  0  0  0  0  0  0  0
    5.4876   -1.5842    0.0000 H   0  0  0  0  0  0  0  0  0  0  0  0
    4.9285   -1.4893    0.0000 H   0  0  0  0  0  0  0  0  0  0  0  0
    4.1169   -1.6618    0.0000 H   0  0  0  0  0  0  0  0  0  0  0  0
    5.4923   -4.0441    0.0000 H   0  0  0  0  0  0  0  0  0  0  0  0
    6.0475   -3.4275    0.0000 H   0  0  0  0  0  0  0  0  0  0  0  0
    3.5345   -2.3087    0.0000 H   0  0  0  0  0  0  0  0  0  0  0  0
    3.4478   -3.1338    0.0000 H   0  0  0  0  0  0  0  0  0  0  0  0
    7.8010   -2.1230    0.0000 H   0  0  0  0  0  0  0  0  0  0  0  0
    9.8622    1.6870    0.0000 H   0  0  0  0  0  0  0  0  0  0  0  0
    8.4592   -0.7430    0.0000 H   0  0  0  0  0  0  0  0  0  0  0  0
   11.2651    0.8770    0.0000 H   0  0  0  0  0  0  0  0  0  0  0  0
    9.8622   -1.5530    0.0000 H   0  0  0  0  0  0  0  0  0  0  0  0
   11.2651   -0.7430    0.0000 H   0  0  0  0  0  0  0  0  0  0  0  0
    7.2641   -6.0530    0.0000 H   0  0  0  0  0  0  0  0  0  0  0  0
    6.7272   -5.1230    0.0000 H   0  0  0  0  0  0  0  0  0  0  0  0
   10.1082   -6.4330    0.0000 H   0  0  0  0  0  0  0  0  0  0  0  0
   10.7282   -7.0530    0.0000 H   0  0  0  0  0  0  0  0  0  0  0  0
   11.3482   -6.4330    0.0000 H   0  0  0  0  0  0  0  0  0  0  0  0
   11.9042   -5.4700    0.0000 H   0  0  0  0  0  0  0  0  0  0  0  0
   12.1312   -4.6230    0.0000 H   0  0  0  0  0  0  0  0  0  0  0  0
   11.2842   -4.3961    0.0000 H   0  0  0  0  0  0  0  0  0  0  0  0
  1 48  1  0  0  0  0
 26  2  1  6  0  0  0
  2 74  1  0  0  0  0
  3 25  2  0  0  0  0
  4 38  1  0  0  0  0
  4 39  1  0  0  0  0
  5 33  2  0  0  0  0
  6 44  2  0  0  0  0
  7 18  1  0  0  0  0
  7 21  1  0  0  0  0
  7 24  1  0  0  0  0
  8 25  1  0  0  0  0
  8 28  1  0  0  0  0
  8 71  1  0  0  0  0
 27  9  1  6  0  0  0
  9 33  1  0  0  0  0
  9 75  1  0  0  0  0
 34 10  1  1  0  0  0
 10 44  1  0  0  0  0
 10 93  1  0  0  0  0
 11 46  1  0  0  0  0
 11 48  2  0  0  0  0
 12 47  1  0  0  0  0
 12 49  2  0  0  0  0
 13 47  1  0  0  0  0
 13 99  1  0  0  0  0
 13100  1  0  0  0  0
 14 49  1  0  0  0  0
 14 50  1  0  0  0  0
 14 51  1  0  0  0  0
 15 16  1  0  0  0  0
 15 17  1  0  0  0  0
 15 19  1  0  0  0  0
 15 52  1  6  0  0  0
 16 18  1  0  0  0  0
 16 20  1  0  0  0  0
 16 53  1  6  0  0  0
 17 21  1  0  0  0  0
 17 54  1  0  0  0  0
 17 55  1  0  0  0  0
 18 56  1  0  0  0  0
 18 57  1  0  0  0  0
 19 22  1  0  0  0  0
 19 58  1  0  0  0  0
 19 59  1  0  0  0  0
 20 23  1  0  0  0  0
 20 60  1  0  0  0  0
 20 61  1  0  0  0  0
 21 25  1  1  0  0  0
 21 62  1  0  0  0  0
 22 23  1  0  0  0  0
 22 63  1  0  0  0  0
 22 64  1  0  0  0  0
 23 65  1  0  0  0  0
 23 66  1  0  0  0  0
 24 26  1  0  0  0  0
 24 67  1  0  0  0  0
 24 68  1  0  0  0  0
 26 27  1  0  0  0  0
 26 69  1  0  0  0  0
 27 29  1  0  0  0  0
 27 70  1  0  0  0  0
 28 30  1  0  0  0  0
 28 31  1  0  0  0  0
 28 32  1  0  0  0  0
 29 35  1  0  0  0  0
 29 72  1  0  0  0  0
 29 73  1  0  0  0  0
 30 76  1  0  0  0  0
 30 77  1  0  0  0  0
 30 78  1  0  0  0  0
 31 79  1  0  0  0  0
 31 80  1  0  0  0  0
 31 81  1  0  0  0  0
 32 82  1  0  0  0  0
 32 83  1  0  0  0  0
 32 84  1  0  0  0  0
 33 34  1  0  0  0  0
 34 36  1  0  0  0  0
 34 85  1  0  0  0  0
 35 40  2  0  0  0  0
 35 41  1  0  0  0  0
 36 37  1  0  0  0  0
 36 38  1  0  0  0  0
 36 86  1  1  0  0  0
 37 39  1  0  0  0  0
 37 87  1  0  0  0  0
 37 88  1  0  0  0  0
 38 89  1  0  0  0  0
 38 90  1  0  0  0  0
 39 91  1  0  0  0  0
 39 92  1  0  0  0  0
 40 42  1  0  0  0  0
 40 94  1  0  0  0  0
 41 43  2  0  0  0  0
 41 95  1  0  0  0  0
 42 45  2  0  0  0  0
 42 96  1  0  0  0  0
 43 45  1  0  0  0  0
 43 97  1  0  0  0  0
 44 46  1  0  0  0  0
 45 98  1  0  0  0  0
 46 47  2  0  0  0  0
 48 49  1  0  0  0  0
 50101  1  0  0  0  0
 50102  1  0  0  0  0
 50103  1  0  0  0  0
 51104  1  0  0  0  0
 51105  1  0  0  0  0
 51106  1  0  0  0  0
M  END
> <PUBCHEM_COMPOUND_CID>
515899
> <PUBCHEM_COMPOUND_CANONICALIZED>
1
> <PUBCHEM_CACTVS_COMPLEXITY>
1170
> <PUBCHEM_CACTVS_HBOND_ACCEPTOR>
10
> <PUBCHEM_CACTVS_HBOND_DONOR>
5
> <PUBCHEM_CACTVS_ROTATABLE_BOND>
13
> <PUBCHEM_CACTVS_SUBSKEYS>
AAADcfB/+AAEAAAAAAAAAAAAAAAAASAAAAA8eIEAAAAAAACxwAAAHgIQCAAADb7hniYzsJPIFgCoAydydACCgC0nECAJmIGoVMiKcHrA0THWYIgulgLYiGe63KKOgAAAAAAAAAAAAAAAACAAAAAAAAAAAA==
> <PUBCHEM_IUPAC_OPENEYE_NAME>
(3S,4aS,8aS)-2-[(2R,3S)-3-[[(2S)-2-[[3-amino-6-chloro-5-(dimethylamino)pyrazine-2-carbonyl]amino]-2-[(3R)-tetrahydrofuran-3-yl]acetyl]amino]-2-hydroxy-4-phenyl-butyl]-N-tert-butyl-3,4,4a,5,6,7,8,8a-octahydro-1H-isoquinoline-3-carboxamide
> <PUBCHEM_IUPAC_CAS_NAME>
(3S,4aS,8aS)-2-[(2R,3S)-3-[[(2S)-2-[[[3-amino-6-chloro-5-(dimethylamino)-2-pyrazinyl]-oxomethyl]amino]-1-oxo-2-[(3R)-3-oxolanyl]ethyl]amino]-2-hydroxy-4-phenylbutyl]-N-tert-butyl-3,4,4a,5,6,7,8,8a-octahydro-1H-isoquinoline-3-carboxamide
> <PUBCHEM_IUPAC_NAME_MARKUP>
(3<I>S</I>,4<I>a</I><I>S</I>,8<I>a</I><I>S</I>)-2-[(2<I>R</I>,3<I>S</I>)-3-[[(2<I>S</I>)-2-[[3-amino-6-chloro-5-(dimethylamino)pyrazine-2-carbonyl]amino]-2-[(3<I>R</I>)-oxolan-3-yl]acetyl]amino]-2-hydroxy-4-phenylbutyl]-<I>N</I>-<I>tert</I>-butyl-3,4,4<I>a</I>,5,6,7,8,8<I>a</I>-octahydro-1<I>H</I>-isoquinoline-3-carboxamide
> <PUBCHEM_IUPAC_NAME>
(3S,4aS,8aS)-2-[(2R,3S)-3-[[(2S)-2-[[3-amino-6-chloro-5-(dimethylamino)pyrazine-2-carbonyl]amino]-2-[(3R)-oxolan-3-yl]acetyl]amino]-2-hydroxy-4-phenylbutyl]-N-tert-butyl-3,4,4a,5,6,7,8,8a-octahydro-1H-isoquinoline-3-carboxamide
> <PUBCHEM_IUPAC_SYSTEMATIC_NAME>
(3S,4aS,8aS)-2-[(2R,3S)-3-[[(2S)-2-[[3-azanyl-6-chloranyl-5-(dimethylamino)pyrazin-2-yl]carbonylamino]-2-[(3R)-oxolan-3-yl]ethanoyl]amino]-2-oxidanyl-4-phenyl-butyl]-N-tert-butyl-3,4,4a,5,6,7,8,8a-octahydro-1H-isoquinoline-3-carboxamide
> <PUBCHEM_IUPAC_TRADITIONAL_NAME>
(3S,4aS,8aS)-2-[(2R,3S)-3-[[(2S)-2-[[3-amino-6-chloro-5-(dimethylamino)pyrazinoyl]amino]-2-[(3R)-tetrahydrofuran-3-yl]acetyl]amino]-2-hydroxy-4-phenyl-butyl]-N-tert-butyl-3,4,4a,5,6,7,8,8a-octahydro-1H-isoquinoline-3-carboxamide
> <PUBCHEM_IUPAC_INCHI>
InChI=1S/C37H55ClN8O5/c1-37(2,3)44-34(48)27-18-23-13-9-10-14-24(23)19-46(27)20-28(47)26(17-22-11-7-6-8-12-22)40-35(49)29(25-15-16-51-21-25)42-36(50)30-32(39)43-33(45(4)5)31(38)41-30/h6-8,11-12,23-29,47H,9-10,13-21H2,1-5H3,(H2,39,43)(H,40,49)(H,42,50)(H,44,48)/t23-,24+,25-,26-,27-,28+,29-/m0/s1
> <PUBCHEM_IUPAC_INCHIKEY>
NPEMYFWDGCYISM-DFTYQABXSA-N
> <PUBCHEM_XLOGP3_AA>
4.8
> <PUBCHEM_EXACT_MASS>
726.3983946
> <PUBCHEM_MOLECULAR_FORMULA>
C37H55ClN8O5
> <PUBCHEM_MOLECULAR_WEIGHT>
727.3
> <PUBCHEM_OPENEYE_CAN_SMILES>
CC(C)(C)NC(=O)C1CC2CCCCC2CN1CC(C(CC3=CC=CC=C3)NC(=O)C(C4CCOC4)NC(=O)C5=C(N=C(C(=N5)Cl)N(C)C)N)O
> <PUBCHEM_OPENEYE_ISO_SMILES>
CC(C)(C)NC(=O)[C@@H]1C[C@@H]2CCCC[C@@H]2CN1C[C@H]([C@H](CC3=CC=CC=C3)NC(=O)[C@H]([C@H]4CCOC4)NC(=O)C5=C(N=C(C(=N5)Cl)N(C)C)N)O
> <PUBCHEM_CACTVS_TPSA>
175
> <PUBCHEM_MONOISOTOPIC_WEIGHT>
726.3983946
> <PUBCHEM_TOTAL_CHARGE>
0
> <PUBCHEM_HEAVY_ATOM_COUNT>
51
> <PUBCHEM_ATOM_DEF_STEREO_COUNT>
7
> <PUBCHEM_ATOM_UDEF_STEREO_COUNT>
0
> <PUBCHEM_BOND_DEF_STEREO_COUNT>
0
> <PUBCHEM_BOND_UDEF_STEREO_COUNT>
0
> <PUBCHEM_ISOTOPIC_ATOM_COUNT>
0
> <PUBCHEM_COMPONENT_COUNT>
1
> <PUBCHEM_CACTVS_TAUTO_COUNT>
-1
> <PUBCHEM_COORDINATE_TYPE>
1
5
255
> <PUBCHEM_BONDANNOTATIONS>
34  10  5
11  46  8
11  48  8
12  47  8
12  49  8
15  52  6
16  53  6
26  2  6
21  25  5
35  40  8
35  41  8
36  86  5
40  42  8
41  43  8
42  45  8
43  45  8
46  47  8
48  49  8
27  9  6
$$$$
