515877
  -OEChem-10302200282D
 91 97  0     1  0  0  0  0  0999 V2000
    4.7401    4.1679    0.0000 O   0  0  0  0  0  0  0  0  0  0  0  0
    4.0577    2.4292    0.0000 O   0  0  0  0  0  0  0  0  0  0  0  0
    8.2077    1.8037    0.0000 O   0  0  0  0  0  0  0  0  0  0  0  0
    7.0426   -3.0664    0.0000 O   0  0  0  0  0  0  0  0  0  0  0  0
    7.2021    3.1663    0.0000 N   0  0  0  0  0  0  0  0  0  0  0  0
    6.5438    1.4889    0.0000 N   0  0  0  0  0  0  0  0  0  0  0  0
   11.6124    1.8615    0.0000 N   0  0  0  0  0  0  0  0  0  0  0  0
   12.1960    2.6663    0.0000 N   0  0  0  0  0  0  0  0  0  0  0  0
    5.3875   -3.5770    0.0000 N   0  0  0  0  0  0  0  0  0  0  0  0
    5.0021   -5.2656    0.0000 N   0  0  0  0  0  0  0  0  0  0  0  0
    6.3758    3.7296    0.0000 C   0  0  1  0  0  0  0  0  0  0  0  0
    5.5549    1.6379    0.0000 C   0  0  1  0  0  0  0  0  0  0  0  0
    5.4203    3.4348    0.0000 C   0  0  1  0  0  0  0  0  0  0  0  0
    5.0549    2.5040    0.0000 C   0  0  1  0  0  0  0  0  0  0  0  0
    6.5249    4.7184    0.0000 C   0  0  0  0  0  0  0  0  0  0  0  0
    4.9916    0.8117    0.0000 C   0  0  0  0  0  0  0  0  0  0  0  0
    7.2768    2.1691    0.0000 C   0  0  0  0  0  0  0  0  0  0  0  0
    8.0681    3.6663    0.0000 C   0  0  0  0  0  0  0  0  0  0  0  0
    6.8385    0.5333    0.0000 C   0  0  0  0  0  0  0  0  0  0  0  0
    5.7431    5.3419    0.0000 C   0  0  0  0  0  0  0  0  0  0  0  0
    3.9944    0.8864    0.0000 C   0  0  0  0  0  0  0  0  0  0  0  0
    8.9341    3.1663    0.0000 C   0  0  0  0  0  0  0  0  0  0  0  0
    6.1583   -0.1997    0.0000 C   0  0  0  0  0  0  0  0  0  0  0  0
    5.8921    6.3307    0.0000 C   0  0  0  0  0  0  0  0  0  0  0  0
    4.8122    4.9766    0.0000 C   0  0  0  0  0  0  0  0  0  0  0  0
    3.5605    1.7874    0.0000 C   0  0  0  0  0  0  0  0  0  0  0  0
    3.4311    0.0602    0.0000 C   0  0  0  0  0  0  0  0  0  0  0  0
    9.8002    3.6663    0.0000 C   0  0  0  0  0  0  0  0  0  0  0  0
    8.9341    2.1663    0.0000 C   0  0  0  0  0  0  0  0  0  0  0  0
    6.4531   -1.1553    0.0000 C   0  0  0  0  0  0  0  0  0  0  0  0
    5.1834    0.0228    0.0000 C   0  0  0  0  0  0  0  0  0  0  0  0
   10.6662    3.1663    0.0000 C   0  0  0  0  0  0  0  0  0  0  0  0
    5.1103    6.9542    0.0000 C   0  0  0  0  0  0  0  0  0  0  0  0
    4.0304    5.6001    0.0000 C   0  0  0  0  0  0  0  0  0  0  0  0
    2.5633    1.8621    0.0000 C   0  0  0  0  0  0  0  0  0  0  0  0
    2.4339    0.1349    0.0000 C   0  0  0  0  0  0  0  0  0  0  0  0
    9.8002    1.6663    0.0000 C   0  0  0  0  0  0  0  0  0  0  0  0
   10.6662    2.1663    0.0000 C   0  0  0  0  0  0  0  0  0  0  0  0
    5.7729   -1.8884    0.0000 C   0  0  0  0  0  0  0  0  0  0  0  0
    4.1794    6.5889    0.0000 C   0  0  0  0  0  0  0  0  0  0  0  0
    2.0000    1.0359    0.0000 C   0  0  0  0  0  0  0  0  0  0  0  0
    4.5032   -0.7103    0.0000 C   0  0  0  0  0  0  0  0  0  0  0  0
    4.7980   -1.6658    0.0000 C   0  0  0  0  0  0  0  0  0  0  0  0
   11.6124    3.4710    0.0000 C   0  0  0  0  0  0  0  0  0  0  0  0
    6.0677   -2.8439    0.0000 C   0  0  0  0  0  0  0  0  0  0  0  0
    5.6823   -4.5325    0.0000 C   0  0  0  0  0  0  0  0  0  0  0  0
    6.6572   -4.7551    0.0000 C   0  0  0  0  0  0  0  0  0  0  0  0
    5.2968   -6.2212    0.0000 C   0  0  0  0  0  0  0  0  0  0  0  0
    6.9520   -5.7106    0.0000 C   0  0  0  0  0  0  0  0  0  0  0  0
    6.2718   -6.4437    0.0000 C   0  0  0  0  0  0  0  0  0  0  0  0
    4.6167   -6.9542    0.0000 C   0  0  0  0  0  0  0  0  0  0  0  0
    6.9441    3.9775    0.0000 H   0  0  0  0  0  0  0  0  0  0  0  0
    5.8029    1.0697    0.0000 H   0  0  0  0  0  0  0  0  0  0  0  0
    4.8111    3.3196    0.0000 H   0  0  0  0  0  0  0  0  0  0  0  0
    4.7652    1.9558    0.0000 H   0  0  0  0  0  0  0  0  0  0  0  0
    7.1126    4.5210    0.0000 H   0  0  0  0  0  0  0  0  0  0  0  0
    6.8214    5.2629    0.0000 H   0  0  0  0  0  0  0  0  0  0  0  0
    4.8386    0.2109    0.0000 H   0  0  0  0  0  0  0  0  0  0  0  0
    5.5568    0.5567    0.0000 H   0  0  0  0  0  0  0  0  0  0  0  0
    8.4666    4.1412    0.0000 H   0  0  0  0  0  0  0  0  0  0  0  0
    7.6696    4.1412    0.0000 H   0  0  0  0  0  0  0  0  0  0  0  0
    7.2129    0.0391    0.0000 H   0  0  0  0  0  0  0  0  0  0  0  0
    7.3902    0.8162    0.0000 H   0  0  0  0  0  0  0  0  0  0  0  0
    4.1356    4.0299    0.0000 H   0  0  0  0  0  0  0  0  0  0  0  0
    3.7085    2.9415    0.0000 H   0  0  0  0  0  0  0  0  0  0  0  0
    6.4692    6.5572    0.0000 H   0  0  0  0  0  0  0  0  0  0  0  0
    4.7198    4.3635    0.0000 H   0  0  0  0  0  0  0  0  0  0  0  0
    3.9098    2.2997    0.0000 H   0  0  0  0  0  0  0  0  0  0  0  0
    3.7001   -0.4984    0.0000 H   0  0  0  0  0  0  0  0  0  0  0  0
    9.8002    4.2863    0.0000 H   0  0  0  0  0  0  0  0  0  0  0  0
    8.3972    1.8563    0.0000 H   0  0  0  0  0  0  0  0  0  0  0  0
    7.0576   -1.2933    0.0000 H   0  0  0  0  0  0  0  0  0  0  0  0
    5.0007    0.6152    0.0000 H   0  0  0  0  0  0  0  0  0  0  0  0
    5.2027    7.5673    0.0000 H   0  0  0  0  0  0  0  0  0  0  0  0
    3.4532    5.3736    0.0000 H   0  0  0  0  0  0  0  0  0  0  0  0
    2.2943    2.4207    0.0000 H   0  0  0  0  0  0  0  0  0  0  0  0
    2.0846   -0.3774    0.0000 H   0  0  0  0  0  0  0  0  0  0  0  0
    9.8002    1.0463    0.0000 H   0  0  0  0  0  0  0  0  0  0  0  0
    3.6947    6.9754    0.0000 H   0  0  0  0  0  0  0  0  0  0  0  0
    3.8988   -0.5723    0.0000 H   0  0  0  0  0  0  0  0  0  0  0  0
    1.3817    1.0822    0.0000 H   0  0  0  0  0  0  0  0  0  0  0  0
    4.3763   -2.1203    0.0000 H   0  0  0  0  0  0  0  0  0  0  0  0
   11.8050    4.0603    0.0000 H   0  0  0  0  0  0  0  0  0  0  0  0
   11.8050    1.2722    0.0000 H   0  0  0  0  0  0  0  0  0  0  0  0
    4.7830   -3.4390    0.0000 H   0  0  0  0  0  0  0  0  0  0  0  0
    7.0789   -4.3006    0.0000 H   0  0  0  0  0  0  0  0  0  0  0  0
    7.5564   -5.8486    0.0000 H   0  0  0  0  0  0  0  0  0  0  0  0
    6.4545   -7.0362    0.0000 H   0  0  0  0  0  0  0  0  0  0  0  0
    4.1622   -6.5325    0.0000 H   0  0  0  0  0  0  0  0  0  0  0  0
    4.1950   -7.4087    0.0000 H   0  0  0  0  0  0  0  0  0  0  0  0
    5.0712   -7.3759    0.0000 H   0  0  0  0  0  0  0  0  0  0  0  0
 13  1  1  1  0  0  0
  1 64  1  0  0  0  0
 14  2  1  6  0  0  0
  2 65  1  0  0  0  0
  3 17  2  0  0  0  0
  4 45  2  0  0  0  0
  5 11  1  0  0  0  0
  5 17  1  0  0  0  0
  5 18  1  0  0  0  0
  6 12  1  0  0  0  0
  6 17  1  0  0  0  0
  6 19  1  0  0  0  0
  7  8  1  0  0  0  0
  7 38  1  0  0  0  0
  7 84  1  0  0  0  0
  8 44  2  0  0  0  0
  9 45  1  0  0  0  0
  9 46  1  0  0  0  0
  9 85  1  0  0  0  0
 10 46  1  0  0  0  0
 10 48  2  0  0  0  0
 11 13  1  0  0  0  0
 11 15  1  1  0  0  0
 11 52  1  0  0  0  0
 12 14  1  0  0  0  0
 12 16  1  6  0  0  0
 12 53  1  0  0  0  0
 13 14  1  0  0  0  0
 13 54  1  0  0  0  0
 14 55  1  0  0  0  0
 15 20  1  0  0  0  0
 15 56  1  0  0  0  0
 15 57  1  0  0  0  0
 16 21  1  0  0  0  0
 16 58  1  0  0  0  0
 16 59  1  0  0  0  0
 18 22  1  0  0  0  0
 18 60  1  0  0  0  0
 18 61  1  0  0  0  0
 19 23  1  0  0  0  0
 19 62  1  0  0  0  0
 19 63  1  0  0  0  0
 20 24  2  0  0  0  0
 20 25  1  0  0  0  0
 21 26  2  0  0  0  0
 21 27  1  0  0  0  0
 22 28  2  0  0  0  0
 22 29  1  0  0  0  0
 23 30  2  0  0  0  0
 23 31  1  0  0  0  0
 24 33  1  0  0  0  0
 24 66  1  0  0  0  0
 25 34  2  0  0  0  0
 25 67  1  0  0  0  0
 26 35  1  0  0  0  0
 26 68  1  0  0  0  0
 27 36  2  0  0  0  0
 27 69  1  0  0  0  0
 28 32  1  0  0  0  0
 28 70  1  0  0  0  0
 29 37  2  0  0  0  0
 29 71  1  0  0  0  0
 30 39  1  0  0  0  0
 30 72  1  0  0  0  0
 31 42  2  0  0  0  0
 31 73  1  0  0  0  0
 32 38  2  0  0  0  0
 32 44  1  0  0  0  0
 33 40  2  0  0  0  0
 33 74  1  0  0  0  0
 34 40  1  0  0  0  0
 34 75  1  0  0  0  0
 35 41  2  0  0  0  0
 35 76  1  0  0  0  0
 36 41  1  0  0  0  0
 36 77  1  0  0  0  0
 37 38  1  0  0  0  0
 37 78  1  0  0  0  0
 39 43  2  0  0  0  0
 39 45  1  0  0  0  0
 40 79  1  0  0  0  0
 41 81  1  0  0  0  0
 42 43  1  0  0  0  0
 42 80  1  0  0  0  0
 43 82  1  0  0  0  0
 44 83  1  0  0  0  0
 46 47  2  0  0  0  0
 47 49  1  0  0  0  0
 47 86  1  0  0  0  0
 48 50  1  0  0  0  0
 48 51  1  0  0  0  0
 49 50  2  0  0  0  0
 49 87  1  0  0  0  0
 50 88  1  0  0  0  0
 51 89  1  0  0  0  0
 51 90  1  0  0  0  0
 51 91  1  0  0  0  0
M  END
> <PUBCHEM_COMPOUND_CID>
515877
> <PUBCHEM_COMPOUND_CANONICALIZED>
1
> <PUBCHEM_CACTVS_COMPLEXITY>
1130
> <PUBCHEM_CACTVS_HBOND_ACCEPTOR>
6
> <PUBCHEM_CACTVS_HBOND_DONOR>
4
> <PUBCHEM_CACTVS_ROTATABLE_BOND>
10
> <PUBCHEM_CACTVS_SUBSKEYS>
AAADcfB/uAAAAAAAAAAAAAAAAAAAAWAAAAA8YMGCBYAAAFgB/AAAHgAYCAAADDzhngY/8PPrEgCqAzd3dACShCklgiAZuSE4ZNiLMPLA3dGE5QhunwLZyaeYyfCOCAACAAACAAAQAAQAAAQAAAAAAAAAAA==
> <PUBCHEM_IUPAC_OPENEYE_NAME>
3-[[(4R,5S,6S,7R)-4,7-dibenzyl-5,6-dihydroxy-3-(1H-indazol-5-ylmethyl)-2-oxo-1,3-diazepan-1-yl]methyl]-N-(6-methyl-2-pyridyl)benzamide
> <PUBCHEM_IUPAC_CAS_NAME>
3-[[(4R,5S,6S,7R)-5,6-dihydroxy-3-(1H-indazol-5-ylmethyl)-2-oxo-4,7-bis(phenylmethyl)-1,3-diazepan-1-yl]methyl]-N-(6-methyl-2-pyridinyl)benzamide
> <PUBCHEM_IUPAC_NAME_MARKUP>
3-[[(4<I>R</I>,5<I>S</I>,6<I>S</I>,7<I>R</I>)-4,7-dibenzyl-5,6-dihydroxy-3-(1<I>H</I>-indazol-5-ylmethyl)-2-oxo-1,3-diazepan-1-yl]methyl]-<I>N</I>-(6-methylpyridin-2-yl)benzamide
> <PUBCHEM_IUPAC_NAME>
3-[[(4R,5S,6S,7R)-4,7-dibenzyl-5,6-dihydroxy-3-(1H-indazol-5-ylmethyl)-2-oxo-1,3-diazepan-1-yl]methyl]-N-(6-methylpyridin-2-yl)benzamide
> <PUBCHEM_IUPAC_SYSTEMATIC_NAME>
3-[[(4R,5S,6S,7R)-3-(1H-indazol-5-ylmethyl)-5,6-bis(oxidanyl)-2-oxidanylidene-4,7-bis(phenylmethyl)-1,3-diazepan-1-yl]methyl]-N-(6-methylpyridin-2-yl)benzamide
> <PUBCHEM_IUPAC_TRADITIONAL_NAME>
3-[[(4R,5S,6S,7R)-4,7-dibenzyl-5,6-dihydroxy-3-(1H-indazol-5-ylmethyl)-2-keto-1,3-diazepan-1-yl]methyl]-N-(6-methyl-2-pyridyl)benzamide
> <PUBCHEM_IUPAC_INCHI>
InChI=1S/C41H40N6O4/c1-27-10-8-17-37(43-27)44-40(50)32-16-9-15-30(20-32)25-46-35(22-28-11-4-2-5-12-28)38(48)39(49)36(23-29-13-6-3-7-14-29)47(41(46)51)26-31-18-19-34-33(21-31)24-42-45-34/h2-21,24,35-36,38-39,48-49H,22-23,25-26H2,1H3,(H,42,45)(H,43,44,50)/t35-,36-,38+,39+/m1/s1
> <PUBCHEM_IUPAC_INCHIKEY>
OMCGYRQJCQVPHF-DDLQZHSQSA-N
> <PUBCHEM_XLOGP3_AA>
5.4
> <PUBCHEM_EXACT_MASS>
680.31110378
> <PUBCHEM_MOLECULAR_FORMULA>
C41H40N6O4
> <PUBCHEM_MOLECULAR_WEIGHT>
680.8
> <PUBCHEM_OPENEYE_CAN_SMILES>
CC1=NC(=CC=C1)NC(=O)C2=CC=CC(=C2)CN3C(C(C(C(N(C3=O)CC4=CC5=C(C=C4)NN=C5)CC6=CC=CC=C6)O)O)CC7=CC=CC=C7
> <PUBCHEM_OPENEYE_ISO_SMILES>
CC1=NC(=CC=C1)NC(=O)C2=CC=CC(=C2)CN3[C@@H]([C@@H]([C@H]([C@H](N(C3=O)CC4=CC5=C(C=C4)NN=C5)CC6=CC=CC=C6)O)O)CC7=CC=CC=C7
> <PUBCHEM_CACTVS_TPSA>
135
> <PUBCHEM_MONOISOTOPIC_WEIGHT>
680.31110378
> <PUBCHEM_TOTAL_CHARGE>
0
> <PUBCHEM_HEAVY_ATOM_COUNT>
51
> <PUBCHEM_ATOM_DEF_STEREO_COUNT>
4
> <PUBCHEM_ATOM_UDEF_STEREO_COUNT>
0
> <PUBCHEM_BOND_DEF_STEREO_COUNT>
0
> <PUBCHEM_BOND_UDEF_STEREO_COUNT>
0
> <PUBCHEM_ISOTOPIC_ATOM_COUNT>
0
> <PUBCHEM_COMPONENT_COUNT>
1
> <PUBCHEM_CACTVS_TAUTO_COUNT>
-1
> <PUBCHEM_COORDINATE_TYPE>
1
5
255
> <PUBCHEM_BONDANNOTATIONS>
13  1  5
10  46  8
10  48  8
11  15  5
12  16  6
14  2  6
20  24  8
20  25  8
21  26  8
21  27  8
22  28  8
22  29  8
23  30  8
23  31  8
24  33  8
25  34  8
26  35  8
27  36  8
28  32  8
29  37  8
30  39  8
31  42  8
32  38  8
32  44  8
33  40  8
34  40  8
35  41  8
36  41  8
37  38  8
39  43  8
42  43  8
46  47  8
47  49  8
48  50  8
49  50  8
7  38  8
7  8  8
8  44  8
$$$$
