515840
  -OEChem-10302200282D
 93 96  0     1  0  0  0  0  0999 V2000
    6.8301    4.4081    0.0000 S   0  0  0  0  0  0  0  0  0  0  0  0
    9.8988   -0.1362    0.0000 S   0  0  0  0  0  0  0  0  0  0  0  0
    4.5981   -4.1307    0.0000 O   0  0  0  0  0  0  0  0  0  0  0  0
    5.4641   -1.6307    0.0000 O   0  0  0  0  0  0  0  0  0  0  0  0
    8.0622   -1.1307    0.0000 O   0  0  0  0  0  0  0  0  0  0  0  0
    6.3301   -1.1307    0.0000 O   0  0  0  0  0  0  0  0  0  0  0  0
    4.5981    1.8693    0.0000 O   0  0  0  0  0  0  0  0  0  0  0  0
    3.7320   -1.6307    0.0000 N   0  0  0  0  0  0  0  0  0  0  0  0
    7.1962   -2.6307    0.0000 N   0  0  0  0  0  0  0  0  0  0  0  0
    5.4641    0.3693    0.0000 N   0  0  0  0  0  0  0  0  0  0  0  0
    5.5211    3.4571    0.0000 N   0  0  0  0  0  0  0  0  0  0  0  0
   11.3769   -0.7943    0.0000 N   0  0  0  0  0  0  0  0  0  0  0  0
    3.7320   -2.6307    0.0000 C   0  0  2  0  0  0  0  0  0  0  0  0
    4.5981   -3.1307    0.0000 C   0  0  2  0  0  0  0  0  0  0  0  0
    5.4641   -2.6307    0.0000 C   0  0  0  0  0  0  0  0  0  0  0  0
    6.3301   -3.1307    0.0000 C   0  0  2  0  0  0  0  0  0  0  0  0
    2.8660   -3.1307    0.0000 C   0  0  0  0  0  0  0  0  0  0  0  0
    6.3301   -4.1307    0.0000 C   0  0  0  0  0  0  0  0  0  0  0  0
    4.5981   -0.1307    0.0000 C   0  0  2  0  0  0  0  0  0  0  0  0
    4.5981   -1.1307    0.0000 C   0  0  0  0  0  0  0  0  0  0  0  0
    3.7320    0.3693    0.0000 C   0  0  0  0  0  0  0  0  0  0  0  0
    2.8660   -4.1307    0.0000 C   0  0  0  0  0  0  0  0  0  0  0  0
    7.1962   -4.6307    0.0000 C   0  0  0  0  0  0  0  0  0  0  0  0
    3.7320    1.3693    0.0000 C   0  0  0  0  0  0  0  0  0  0  0  0
    2.8660   -0.1307    0.0000 C   0  0  0  0  0  0  0  0  0  0  0  0
    3.7320   -4.6307    0.0000 C   0  0  0  0  0  0  0  0  0  0  0  0
    2.0000   -4.6307    0.0000 C   0  0  0  0  0  0  0  0  0  0  0  0
    7.1962   -1.6307    0.0000 C   0  0  0  0  0  0  0  0  0  0  0  0
    8.0622   -4.1307    0.0000 C   0  0  0  0  0  0  0  0  0  0  0  0
    7.1962   -5.6307    0.0000 C   0  0  0  0  0  0  0  0  0  0  0  0
    5.4641    1.3693    0.0000 C   0  0  0  0  0  0  0  0  0  0  0  0
    3.7320   -5.6307    0.0000 C   0  0  0  0  0  0  0  0  0  0  0  0
    2.0000   -5.6307    0.0000 C   0  0  0  0  0  0  0  0  0  0  0  0
    6.3301    1.8693    0.0000 C   0  0  0  0  0  0  0  0  0  0  0  0
    2.8660   -6.1307    0.0000 C   0  0  0  0  0  0  0  0  0  0  0  0
    8.9282   -4.6307    0.0000 C   0  0  0  0  0  0  0  0  0  0  0  0
    8.0622   -6.1307    0.0000 C   0  0  0  0  0  0  0  0  0  0  0  0
    8.9282   -5.6307    0.0000 C   0  0  0  0  0  0  0  0  0  0  0  0
    6.3301    2.8693    0.0000 C   0  0  0  0  0  0  0  0  0  0  0  0
    8.9282   -1.6307    0.0000 C   0  0  0  0  0  0  0  0  0  0  0  0
    7.1391    3.4571    0.0000 C   0  0  0  0  0  0  0  0  0  0  0  0
    5.8301    4.4081    0.0000 C   0  0  0  0  0  0  0  0  0  0  0  0
    5.2423    5.2172    0.0000 C   0  0  0  0  0  0  0  0  0  0  0  0
    9.7942   -1.1307    0.0000 C   0  0  0  0  0  0  0  0  0  0  0  0
    5.6491    6.1307    0.0000 C   0  0  0  0  0  0  0  0  0  0  0  0
    4.2478    5.1126    0.0000 C   0  0  0  0  0  0  0  0  0  0  0  0
   10.7078   -1.5374    0.0000 C   0  0  0  0  0  0  0  0  0  0  0  0
   10.8769    0.0717    0.0000 C   0  0  0  0  0  0  0  0  0  0  0  0
    4.2690   -2.3207    0.0000 H   0  0  0  0  0  0  0  0  0  0  0  0
    5.1350   -3.4407    0.0000 H   0  0  0  0  0  0  0  0  0  0  0  0
    5.8626   -2.1558    0.0000 H   0  0  0  0  0  0  0  0  0  0  0  0
    5.0656   -2.1558    0.0000 H   0  0  0  0  0  0  0  0  0  0  0  0
    6.8671   -3.4407    0.0000 H   0  0  0  0  0  0  0  0  0  0  0  0
    2.6540   -2.5481    0.0000 H   0  0  0  0  0  0  0  0  0  0  0  0
    2.2554   -3.2384    0.0000 H   0  0  0  0  0  0  0  0  0  0  0  0
    3.1951   -1.3207    0.0000 H   0  0  0  0  0  0  0  0  0  0  0  0
    5.7196   -4.0230    0.0000 H   0  0  0  0  0  0  0  0  0  0  0  0
    6.1181   -4.7133    0.0000 H   0  0  0  0  0  0  0  0  0  0  0  0
    4.5981    0.4893    0.0000 H   0  0  0  0  0  0  0  0  0  0  0  0
    3.7320   -0.2507    0.0000 H   0  0  0  0  0  0  0  0  0  0  0  0
    7.7331   -2.9407    0.0000 H   0  0  0  0  0  0  0  0  0  0  0  0
    5.1350   -4.4407    0.0000 H   0  0  0  0  0  0  0  0  0  0  0  0
    6.0010    0.0593    0.0000 H   0  0  0  0  0  0  0  0  0  0  0  0
    4.3520    1.3693    0.0000 H   0  0  0  0  0  0  0  0  0  0  0  0
    3.7320    1.9893    0.0000 H   0  0  0  0  0  0  0  0  0  0  0  0
    3.1120    1.3693    0.0000 H   0  0  0  0  0  0  0  0  0  0  0  0
    2.5560    0.4062    0.0000 H   0  0  0  0  0  0  0  0  0  0  0  0
    2.3291   -0.4407    0.0000 H   0  0  0  0  0  0  0  0  0  0  0  0
    3.1760   -0.6676    0.0000 H   0  0  0  0  0  0  0  0  0  0  0  0
    4.2690   -4.3207    0.0000 H   0  0  0  0  0  0  0  0  0  0  0  0
    1.4631   -4.3207    0.0000 H   0  0  0  0  0  0  0  0  0  0  0  0
    8.0622   -3.5107    0.0000 H   0  0  0  0  0  0  0  0  0  0  0  0
    6.6592   -5.9407    0.0000 H   0  0  0  0  0  0  0  0  0  0  0  0
    4.2690   -5.9407    0.0000 H   0  0  0  0  0  0  0  0  0  0  0  0
    1.4631   -5.9407    0.0000 H   0  0  0  0  0  0  0  0  0  0  0  0
    6.5422    1.2867    0.0000 H   0  0  0  0  0  0  0  0  0  0  0  0
    6.9407    1.9770    0.0000 H   0  0  0  0  0  0  0  0  0  0  0  0
    2.8660   -6.7507    0.0000 H   0  0  0  0  0  0  0  0  0  0  0  0
    9.4651   -4.3207    0.0000 H   0  0  0  0  0  0  0  0  0  0  0  0
    8.0622   -6.7507    0.0000 H   0  0  0  0  0  0  0  0  0  0  0  0
    9.4651   -5.9407    0.0000 H   0  0  0  0  0  0  0  0  0  0  0  0
    8.5297   -2.1056    0.0000 H   0  0  0  0  0  0  0  0  0  0  0  0
    9.3267   -2.1056    0.0000 H   0  0  0  0  0  0  0  0  0  0  0  0
    7.7288    3.2655    0.0000 H   0  0  0  0  0  0  0  0  0  0  0  0
    4.8779    5.7188    0.0000 H   0  0  0  0  0  0  0  0  0  0  0  0
    6.2155    5.8785    0.0000 H   0  0  0  0  0  0  0  0  0  0  0  0
    5.9013    6.6971    0.0000 H   0  0  0  0  0  0  0  0  0  0  0  0
    5.0827    6.3829    0.0000 H   0  0  0  0  0  0  0  0  0  0  0  0
    4.1830    5.7292    0.0000 H   0  0  0  0  0  0  0  0  0  0  0  0
    3.6312    5.0478    0.0000 H   0  0  0  0  0  0  0  0  0  0  0  0
    4.3126    4.4960    0.0000 H   0  0  0  0  0  0  0  0  0  0  0  0
   10.8367   -2.1439    0.0000 H   0  0  0  0  0  0  0  0  0  0  0  0
   11.1291    0.6381    0.0000 H   0  0  0  0  0  0  0  0  0  0  0  0
  1 41  1  0  0  0  0
  1 42  1  0  0  0  0
  2 44  1  0  0  0  0
  2 48  1  0  0  0  0
 14  3  1  6  0  0  0
  3 62  1  0  0  0  0
  4 20  2  0  0  0  0
  5 28  1  0  0  0  0
  5 40  1  0  0  0  0
  6 28  2  0  0  0  0
  7 31  2  0  0  0  0
 13  8  1  6  0  0  0
  8 20  1  0  0  0  0
  8 56  1  0  0  0  0
 16  9  1  1  0  0  0
  9 28  1  0  0  0  0
  9 61  1  0  0  0  0
 19 10  1  6  0  0  0
 10 31  1  0  0  0  0
 10 63  1  0  0  0  0
 11 39  1  0  0  0  0
 11 42  2  0  0  0  0
 12 47  1  0  0  0  0
 12 48  2  0  0  0  0
 13 14  1  0  0  0  0
 13 17  1  0  0  0  0
 13 49  1  0  0  0  0
 14 15  1  0  0  0  0
 14 50  1  0  0  0  0
 15 16  1  0  0  0  0
 15 51  1  0  0  0  0
 15 52  1  0  0  0  0
 16 18  1  0  0  0  0
 16 53  1  0  0  0  0
 17 22  1  0  0  0  0
 17 54  1  0  0  0  0
 17 55  1  0  0  0  0
 18 23  1  0  0  0  0
 18 57  1  0  0  0  0
 18 58  1  0  0  0  0
 19 20  1  0  0  0  0
 19 21  1  0  0  0  0
 19 59  1  0  0  0  0
 21 24  1  0  0  0  0
 21 25  1  0  0  0  0
 21 60  1  0  0  0  0
 22 26  2  0  0  0  0
 22 27  1  0  0  0  0
 23 29  2  0  0  0  0
 23 30  1  0  0  0  0
 24 64  1  0  0  0  0
 24 65  1  0  0  0  0
 24 66  1  0  0  0  0
 25 67  1  0  0  0  0
 25 68  1  0  0  0  0
 25 69  1  0  0  0  0
 26 32  1  0  0  0  0
 26 70  1  0  0  0  0
 27 33  2  0  0  0  0
 27 71  1  0  0  0  0
 29 36  1  0  0  0  0
 29 72  1  0  0  0  0
 30 37  2  0  0  0  0
 30 73  1  0  0  0  0
 31 34  1  0  0  0  0
 32 35  2  0  0  0  0
 32 74  1  0  0  0  0
 33 35  1  0  0  0  0
 33 75  1  0  0  0  0
 34 39  1  0  0  0  0
 34 76  1  0  0  0  0
 34 77  1  0  0  0  0
 35 78  1  0  0  0  0
 36 38  2  0  0  0  0
 36 79  1  0  0  0  0
 37 38  1  0  0  0  0
 37 80  1  0  0  0  0
 38 81  1  0  0  0  0
 39 41  2  0  0  0  0
 40 44  1  0  0  0  0
 40 82  1  0  0  0  0
 40 83  1  0  0  0  0
 41 84  1  0  0  0  0
 42 43  1  0  0  0  0
 43 45  1  0  0  0  0
 43 46  1  0  0  0  0
 43 85  1  0  0  0  0
 44 47  2  0  0  0  0
 45 86  1  0  0  0  0
 45 87  1  0  0  0  0
 45 88  1  0  0  0  0
 46 89  1  0  0  0  0
 46 90  1  0  0  0  0
 46 91  1  0  0  0  0
 47 92  1  0  0  0  0
 48 93  1  0  0  0  0
M  END
> <PUBCHEM_COMPOUND_CID>
515840
> <PUBCHEM_COMPOUND_CANONICALIZED>
1
> <PUBCHEM_CACTVS_COMPLEXITY>
994
> <PUBCHEM_CACTVS_HBOND_ACCEPTOR>
9
> <PUBCHEM_CACTVS_HBOND_DONOR>
4
> <PUBCHEM_CACTVS_ROTATABLE_BOND>
18
> <PUBCHEM_CACTVS_SUBSKEYS>
AAADcfB/uABgAAAAAAAAAAAAAAAAAWLAAAAwYAAAAAAAAAAB9AAAHgQQCAAADTzl3ga+iZLIFgisAzV3XAAC8KBxCjhI2J24aIkKdDrg9TmcYAAmlgD4qAeQwPAOAAAAAAAAAAAAAAAAAAAAAAAAAAAAAA==
> <PUBCHEM_IUPAC_OPENEYE_NAME>
thiazol-5-ylmethyl N-[(1S,3S,4S)-1-benzyl-3-hydroxy-4-[[(2S)-2-[[2-(2-isopropylthiazol-4-yl)acetyl]amino]-3-methyl-butanoyl]amino]-5-phenyl-pentyl]carbamate
> <PUBCHEM_IUPAC_CAS_NAME>
N-[(2S,4S,5S)-4-hydroxy-5-[[(2S)-3-methyl-1-oxo-2-[[1-oxo-2-(2-propan-2-yl-4-thiazolyl)ethyl]amino]butyl]amino]-1,6-diphenylhexan-2-yl]carbamic acid 5-thiazolylmethyl ester
> <PUBCHEM_IUPAC_NAME_MARKUP>
1,3-thiazol-5-ylmethyl <I>N</I>-[(2<I>S</I>,4<I>S</I>,5<I>S</I>)-4-hydroxy-5-[[(2<I>S</I>)-3-methyl-2-[[2-(2-propan-2-yl-1,3-thiazol-4-yl)acetyl]amino]butanoyl]amino]-1,6-diphenylhexan-2-yl]carbamate
> <PUBCHEM_IUPAC_NAME>
1,3-thiazol-5-ylmethyl N-[(2S,4S,5S)-4-hydroxy-5-[[(2S)-3-methyl-2-[[2-(2-propan-2-yl-1,3-thiazol-4-yl)acetyl]amino]butanoyl]amino]-1,6-diphenylhexan-2-yl]carbamate
> <PUBCHEM_IUPAC_SYSTEMATIC_NAME>
1,3-thiazol-5-ylmethyl N-[(2S,4S,5S)-5-[[(2S)-3-methyl-2-[2-(2-propan-2-yl-1,3-thiazol-4-yl)ethanoylamino]butanoyl]amino]-4-oxidanyl-1,6-diphenyl-hexan-2-yl]carbamate
> <PUBCHEM_IUPAC_TRADITIONAL_NAME>
N-[(1S,3S,4S)-1-benzyl-3-hydroxy-4-[[(2S)-2-[[2-(2-isopropylthiazol-4-yl)acetyl]amino]-3-methyl-butanoyl]amino]-5-phenyl-pentyl]carbamic acid thiazol-5-ylmethyl ester
> <PUBCHEM_IUPAC_INCHI>
InChI=1S/C36H45N5O5S2/c1-23(2)33(41-32(43)18-28-21-47-35(38-28)24(3)4)34(44)40-30(16-26-13-9-6-10-14-26)31(42)17-27(15-25-11-7-5-8-12-25)39-36(45)46-20-29-19-37-22-48-29/h5-14,19,21-24,27,30-31,33,42H,15-18,20H2,1-4H3,(H,39,45)(H,40,44)(H,41,43)/t27-,30-,31-,33-/m0/s1
> <PUBCHEM_IUPAC_INCHIKEY>
VJAVUFZELDPUTR-UDRKEFQJSA-N
> <PUBCHEM_XLOGP3_AA>
6.1
> <PUBCHEM_EXACT_MASS>
691.28621190
> <PUBCHEM_MOLECULAR_FORMULA>
C36H45N5O5S2
> <PUBCHEM_MOLECULAR_WEIGHT>
691.9
> <PUBCHEM_OPENEYE_CAN_SMILES>
CC(C)C1=NC(=CS1)CC(=O)NC(C(C)C)C(=O)NC(CC2=CC=CC=C2)C(CC(CC3=CC=CC=C3)NC(=O)OCC4=CN=CS4)O
> <PUBCHEM_OPENEYE_ISO_SMILES>
CC(C)C1=NC(=CS1)CC(=O)N[C@@H](C(C)C)C(=O)N[C@@H](CC2=CC=CC=C2)[C@H](C[C@H](CC3=CC=CC=C3)NC(=O)OCC4=CN=CS4)O
> <PUBCHEM_CACTVS_TPSA>
199
> <PUBCHEM_MONOISOTOPIC_WEIGHT>
691.28621190
> <PUBCHEM_TOTAL_CHARGE>
0
> <PUBCHEM_HEAVY_ATOM_COUNT>
48
> <PUBCHEM_ATOM_DEF_STEREO_COUNT>
4
> <PUBCHEM_ATOM_UDEF_STEREO_COUNT>
0
> <PUBCHEM_BOND_DEF_STEREO_COUNT>
0
> <PUBCHEM_BOND_UDEF_STEREO_COUNT>
0
> <PUBCHEM_ISOTOPIC_ATOM_COUNT>
0
> <PUBCHEM_COMPONENT_COUNT>
1
> <PUBCHEM_CACTVS_TAUTO_COUNT>
-1
> <PUBCHEM_COORDINATE_TYPE>
1
5
255
> <PUBCHEM_BONDANNOTATIONS>
1  41  8
1  42  8
19  10  6
11  39  8
11  42  8
12  47  8
12  48  8
2  44  8
2  48  8
22  26  8
22  27  8
23  29  8
23  30  8
26  32  8
27  33  8
29  36  8
14  3  6
30  37  8
32  35  8
33  35  8
36  38  8
37  38  8
39  41  8
44  47  8
13  8  6
16  9  5
$$$$
