515858
  -OEChem-10302200282D
 77 82  0     1  0  0  0  0  0999 V2000
    4.7401    2.1864    0.0000 O   0  0  0  0  0  0  0  0  0  0  0  0
    4.0577    0.4478    0.0000 O   0  0  0  0  0  0  0  0  0  0  0  0
    8.2077   -0.1777    0.0000 O   0  0  0  0  0  0  0  0  0  0  0  0
    7.2021    1.1848    0.0000 N   0  0  0  0  0  0  0  0  0  0  0  0
    6.5438   -0.4926    0.0000 N   0  0  0  0  0  0  0  0  0  0  0  0
   11.6124   -0.1199    0.0000 N   0  0  0  0  0  0  0  0  0  0  0  0
   12.1960    0.6848    0.0000 N   0  0  0  0  0  0  0  0  0  0  0  0
    4.1178   -4.3803    0.0000 N   0  0  0  0  0  0  0  0  0  0  0  0
    6.3758    1.7482    0.0000 C   0  0  1  0  0  0  0  0  0  0  0  0
    5.5549   -0.3435    0.0000 C   0  0  1  0  0  0  0  0  0  0  0  0
    5.4203    1.4534    0.0000 C   0  0  1  0  0  0  0  0  0  0  0  0
    5.0549    0.5225    0.0000 C   0  0  1  0  0  0  0  0  0  0  0  0
    6.5249    2.7370    0.0000 C   0  0  0  0  0  0  0  0  0  0  0  0
    4.9916   -1.1698    0.0000 C   0  0  0  0  0  0  0  0  0  0  0  0
    7.2768    0.1876    0.0000 C   0  0  0  0  0  0  0  0  0  0  0  0
    8.0681    1.6848    0.0000 C   0  0  0  0  0  0  0  0  0  0  0  0
    6.8385   -1.4481    0.0000 C   0  0  0  0  0  0  0  0  0  0  0  0
    5.7431    3.3605    0.0000 C   0  0  0  0  0  0  0  0  0  0  0  0
    3.9944   -1.0950    0.0000 C   0  0  0  0  0  0  0  0  0  0  0  0
    8.9341    1.1848    0.0000 C   0  0  0  0  0  0  0  0  0  0  0  0
    6.1583   -2.1812    0.0000 C   0  0  0  0  0  0  0  0  0  0  0  0
    4.8122    2.9951    0.0000 C   0  0  0  0  0  0  0  0  0  0  0  0
    5.8921    4.3493    0.0000 C   0  0  0  0  0  0  0  0  0  0  0  0
    3.4311   -1.9213    0.0000 C   0  0  0  0  0  0  0  0  0  0  0  0
    3.5605   -0.1940    0.0000 C   0  0  0  0  0  0  0  0  0  0  0  0
    9.8002    1.6848    0.0000 C   0  0  0  0  0  0  0  0  0  0  0  0
    8.9341    0.1848    0.0000 C   0  0  0  0  0  0  0  0  0  0  0  0
    5.1834   -1.9586    0.0000 C   0  0  0  0  0  0  0  0  0  0  0  0
    6.4531   -3.1368    0.0000 C   0  0  0  0  0  0  0  0  0  0  0  0
   10.6662    1.1848    0.0000 C   0  0  0  0  0  0  0  0  0  0  0  0
    4.0304    3.6186    0.0000 C   0  0  0  0  0  0  0  0  0  0  0  0
    5.1103    4.9728    0.0000 C   0  0  0  0  0  0  0  0  0  0  0  0
    2.4339   -1.8465    0.0000 C   0  0  0  0  0  0  0  0  0  0  0  0
    2.5633   -0.1193    0.0000 C   0  0  0  0  0  0  0  0  0  0  0  0
    9.8002   -0.3152    0.0000 C   0  0  0  0  0  0  0  0  0  0  0  0
   10.6662    0.1848    0.0000 C   0  0  0  0  0  0  0  0  0  0  0  0
    4.1794    4.6074    0.0000 C   0  0  0  0  0  0  0  0  0  0  0  0
    2.0000   -0.9456    0.0000 C   0  0  0  0  0  0  0  0  0  0  0  0
    4.5032   -2.6917    0.0000 C   0  0  0  0  0  0  0  0  0  0  0  0
    5.7729   -3.8698    0.0000 C   0  0  0  0  0  0  0  0  0  0  0  0
    4.7980   -3.6473    0.0000 C   0  0  0  0  0  0  0  0  0  0  0  0
   11.6124    1.4896    0.0000 C   0  0  0  0  0  0  0  0  0  0  0  0
    6.9441    1.9961    0.0000 H   0  0  0  0  0  0  0  0  0  0  0  0
    5.8029   -0.9118    0.0000 H   0  0  0  0  0  0  0  0  0  0  0  0
    4.8111    1.3381    0.0000 H   0  0  0  0  0  0  0  0  0  0  0  0
    4.7652   -0.0256    0.0000 H   0  0  0  0  0  0  0  0  0  0  0  0
    7.1126    2.5395    0.0000 H   0  0  0  0  0  0  0  0  0  0  0  0
    6.8214    3.2815    0.0000 H   0  0  0  0  0  0  0  0  0  0  0  0
    4.8386   -1.7706    0.0000 H   0  0  0  0  0  0  0  0  0  0  0  0
    5.5568   -1.4248    0.0000 H   0  0  0  0  0  0  0  0  0  0  0  0
    8.4666    2.1598    0.0000 H   0  0  0  0  0  0  0  0  0  0  0  0
    7.6696    2.1598    0.0000 H   0  0  0  0  0  0  0  0  0  0  0  0
    7.2129   -1.9424    0.0000 H   0  0  0  0  0  0  0  0  0  0  0  0
    7.3902   -1.1653    0.0000 H   0  0  0  0  0  0  0  0  0  0  0  0
    4.1356    2.0485    0.0000 H   0  0  0  0  0  0  0  0  0  0  0  0
    3.7085    0.9601    0.0000 H   0  0  0  0  0  0  0  0  0  0  0  0
    4.7198    2.3820    0.0000 H   0  0  0  0  0  0  0  0  0  0  0  0
    6.4692    4.5758    0.0000 H   0  0  0  0  0  0  0  0  0  0  0  0
    3.7001   -2.4799    0.0000 H   0  0  0  0  0  0  0  0  0  0  0  0
    3.9098    0.3182    0.0000 H   0  0  0  0  0  0  0  0  0  0  0  0
    9.8002    2.3048    0.0000 H   0  0  0  0  0  0  0  0  0  0  0  0
    8.3972   -0.1252    0.0000 H   0  0  0  0  0  0  0  0  0  0  0  0
    5.0007   -1.3662    0.0000 H   0  0  0  0  0  0  0  0  0  0  0  0
    7.0576   -3.2747    0.0000 H   0  0  0  0  0  0  0  0  0  0  0  0
    3.4532    3.3921    0.0000 H   0  0  0  0  0  0  0  0  0  0  0  0
    5.2027    5.5859    0.0000 H   0  0  0  0  0  0  0  0  0  0  0  0
    2.0846   -2.3588    0.0000 H   0  0  0  0  0  0  0  0  0  0  0  0
    2.2943    0.4393    0.0000 H   0  0  0  0  0  0  0  0  0  0  0  0
    9.8002   -0.9352    0.0000 H   0  0  0  0  0  0  0  0  0  0  0  0
    3.6947    4.9940    0.0000 H   0  0  0  0  0  0  0  0  0  0  0  0
    1.3817   -0.8992    0.0000 H   0  0  0  0  0  0  0  0  0  0  0  0
    3.8988   -2.5537    0.0000 H   0  0  0  0  0  0  0  0  0  0  0  0
    5.9557   -4.4623    0.0000 H   0  0  0  0  0  0  0  0  0  0  0  0
   11.8050    2.0789    0.0000 H   0  0  0  0  0  0  0  0  0  0  0  0
   11.8050   -0.7092    0.0000 H   0  0  0  0  0  0  0  0  0  0  0  0
    4.3006   -4.9728    0.0000 H   0  0  0  0  0  0  0  0  0  0  0  0
    3.5134   -4.2424    0.0000 H   0  0  0  0  0  0  0  0  0  0  0  0
 11  1  1  1  0  0  0
  1 55  1  0  0  0  0
 12  2  1  6  0  0  0
  2 56  1  0  0  0  0
  3 15  2  0  0  0  0
  4  9  1  0  0  0  0
  4 15  1  0  0  0  0
  4 16  1  0  0  0  0
  5 10  1  0  0  0  0
  5 15  1  0  0  0  0
  5 17  1  0  0  0  0
  6  7  1  0  0  0  0
  6 36  1  0  0  0  0
  6 75  1  0  0  0  0
  7 42  2  0  0  0  0
  8 41  1  0  0  0  0
  8 76  1  0  0  0  0
  8 77  1  0  0  0  0
  9 11  1  0  0  0  0
  9 13  1  1  0  0  0
  9 43  1  0  0  0  0
 10 12  1  0  0  0  0
 10 14  1  6  0  0  0
 10 44  1  0  0  0  0
 11 12  1  0  0  0  0
 11 45  1  0  0  0  0
 12 46  1  0  0  0  0
 13 18  1  0  0  0  0
 13 47  1  0  0  0  0
 13 48  1  0  0  0  0
 14 19  1  0  0  0  0
 14 49  1  0  0  0  0
 14 50  1  0  0  0  0
 16 20  1  0  0  0  0
 16 51  1  0  0  0  0
 16 52  1  0  0  0  0
 17 21  1  0  0  0  0
 17 53  1  0  0  0  0
 17 54  1  0  0  0  0
 18 22  2  0  0  0  0
 18 23  1  0  0  0  0
 19 24  2  0  0  0  0
 19 25  1  0  0  0  0
 20 26  2  0  0  0  0
 20 27  1  0  0  0  0
 21 28  2  0  0  0  0
 21 29  1  0  0  0  0
 22 31  1  0  0  0  0
 22 57  1  0  0  0  0
 23 32  2  0  0  0  0
 23 58  1  0  0  0  0
 24 33  1  0  0  0  0
 24 59  1  0  0  0  0
 25 34  2  0  0  0  0
 25 60  1  0  0  0  0
 26 30  1  0  0  0  0
 26 61  1  0  0  0  0
 27 35  2  0  0  0  0
 27 62  1  0  0  0  0
 28 39  1  0  0  0  0
 28 63  1  0  0  0  0
 29 40  2  0  0  0  0
 29 64  1  0  0  0  0
 30 36  2  0  0  0  0
 30 42  1  0  0  0  0
 31 37  2  0  0  0  0
 31 65  1  0  0  0  0
 32 37  1  0  0  0  0
 32 66  1  0  0  0  0
 33 38  2  0  0  0  0
 33 67  1  0  0  0  0
 34 38  1  0  0  0  0
 34 68  1  0  0  0  0
 35 36  1  0  0  0  0
 35 69  1  0  0  0  0
 37 70  1  0  0  0  0
 38 71  1  0  0  0  0
 39 41  2  0  0  0  0
 39 72  1  0  0  0  0
 40 41  1  0  0  0  0
 40 73  1  0  0  0  0
 42 74  1  0  0  0  0
M  END
> <PUBCHEM_COMPOUND_CID>
515858
> <PUBCHEM_COMPOUND_CANONICALIZED>
1
> <PUBCHEM_CACTVS_COMPLEXITY>
856
> <PUBCHEM_CACTVS_HBOND_ACCEPTOR>
5
> <PUBCHEM_CACTVS_HBOND_DONOR>
4
> <PUBCHEM_CACTVS_ROTATABLE_BOND>
8
> <PUBCHEM_CACTVS_SUBSKEYS>
AAADcfB/sAAAAAAAAAAAAAAAAAAAAWAAAAAwYMGABYAAAFgB9AAAHgAYCAAADDzhngY9wPNjAgCqAzRnUACSBAAgggAYuSA4ZJiLMKKA0dGE5AhungKZyAeQwPAOCAACAAACAAAQAAQAAAQAAAAAAAAAAA==
> <PUBCHEM_IUPAC_OPENEYE_NAME>
(4R,5S,6S,7R)-1-[(4-aminophenyl)methyl]-4,7-dibenzyl-5,6-dihydroxy-3-(1H-indazol-5-ylmethyl)-1,3-diazepan-2-one
> <PUBCHEM_IUPAC_CAS_NAME>
(4R,5S,6S,7R)-1-[(4-aminophenyl)methyl]-5,6-dihydroxy-3-(1H-indazol-5-ylmethyl)-4,7-bis(phenylmethyl)-1,3-diazepan-2-one
> <PUBCHEM_IUPAC_NAME_MARKUP>
(4<I>R</I>,5<I>S</I>,6<I>S</I>,7<I>R</I>)-1-[(4-aminophenyl)methyl]-4,7-dibenzyl-5,6-dihydroxy-3-(1<I>H</I>-indazol-5-ylmethyl)-1,3-diazepan-2-one
> <PUBCHEM_IUPAC_NAME>
(4R,5S,6S,7R)-1-[(4-aminophenyl)methyl]-4,7-dibenzyl-5,6-dihydroxy-3-(1H-indazol-5-ylmethyl)-1,3-diazepan-2-one
> <PUBCHEM_IUPAC_SYSTEMATIC_NAME>
(4R,5S,6S,7R)-1-[(4-aminophenyl)methyl]-3-(1H-indazol-5-ylmethyl)-5,6-bis(oxidanyl)-4,7-bis(phenylmethyl)-1,3-diazepan-2-one
> <PUBCHEM_IUPAC_TRADITIONAL_NAME>
(4R,5S,6S,7R)-1-(4-aminobenzyl)-4,7-dibenzyl-5,6-dihydroxy-3-(1H-indazol-5-ylmethyl)-1,3-diazepan-2-one
> <PUBCHEM_IUPAC_INCHI>
InChI=1S/C34H35N5O3/c35-28-14-11-25(12-15-28)21-38-30(18-23-7-3-1-4-8-23)32(40)33(41)31(19-24-9-5-2-6-10-24)39(34(38)42)22-26-13-16-29-27(17-26)20-36-37-29/h1-17,20,30-33,40-41H,18-19,21-22,35H2,(H,36,37)/t30-,31-,32+,33+/m1/s1
> <PUBCHEM_IUPAC_INCHIKEY>
WYDHHVYLPYCAIL-FYZVQMPESA-N
> <PUBCHEM_XLOGP3_AA>
4.3
> <PUBCHEM_EXACT_MASS>
561.27399000
> <PUBCHEM_MOLECULAR_FORMULA>
C34H35N5O3
> <PUBCHEM_MOLECULAR_WEIGHT>
561.7
> <PUBCHEM_OPENEYE_CAN_SMILES>
C1=CC=C(C=C1)CC2C(C(C(N(C(=O)N2CC3=CC=C(C=C3)N)CC4=CC5=C(C=C4)NN=C5)CC6=CC=CC=C6)O)O
> <PUBCHEM_OPENEYE_ISO_SMILES>
C1=CC=C(C=C1)C[C@@H]2[C@@H]([C@H]([C@H](N(C(=O)N2CC3=CC=C(C=C3)N)CC4=CC5=C(C=C4)NN=C5)CC6=CC=CC=C6)O)O
> <PUBCHEM_CACTVS_TPSA>
119
> <PUBCHEM_MONOISOTOPIC_WEIGHT>
561.27399000
> <PUBCHEM_TOTAL_CHARGE>
0
> <PUBCHEM_HEAVY_ATOM_COUNT>
42
> <PUBCHEM_ATOM_DEF_STEREO_COUNT>
4
> <PUBCHEM_ATOM_UDEF_STEREO_COUNT>
0
> <PUBCHEM_BOND_DEF_STEREO_COUNT>
0
> <PUBCHEM_BOND_UDEF_STEREO_COUNT>
0
> <PUBCHEM_ISOTOPIC_ATOM_COUNT>
0
> <PUBCHEM_COMPONENT_COUNT>
1
> <PUBCHEM_CACTVS_TAUTO_COUNT>
-1
> <PUBCHEM_COORDINATE_TYPE>
1
5
255
> <PUBCHEM_BONDANNOTATIONS>
11  1  5
10  14  6
18  22  8
18  23  8
19  24  8
19  25  8
12  2  6
20  26  8
20  27  8
21  28  8
21  29  8
22  31  8
23  32  8
24  33  8
25  34  8
26  30  8
27  35  8
28  39  8
29  40  8
30  36  8
30  42  8
31  37  8
32  37  8
33  38  8
34  38  8
35  36  8
39  41  8
40  41  8
6  36  8
6  7  8
7  42  8
9  13  5
$$$$
