515835
  -OEChem-10302200282D
 96100  0     1  0  0  0  0  0999 V2000
   12.2429   -2.8739    0.0000 S   0  0  0  0  0  0  0  0  0  0  0  0
    8.1667    4.9570    0.0000 S   0  0  0  0  0  0  0  0  0  0  0  0
    8.9282    0.4625    0.0000 O   0  0  0  0  0  0  0  0  0  0  0  0
    2.8660    0.9625    0.0000 O   0  0  0  0  0  0  0  0  0  0  0  0
    5.4641    0.4625    0.0000 O   0  0  0  0  0  0  0  0  0  0  0  0
    7.1962    2.4625    0.0000 O   0  0  0  0  0  0  0  0  0  0  0  0
    6.3301    0.9625    0.0000 O   0  0  0  0  0  0  0  0  0  0  0  0
    9.7942   -1.0375    0.0000 N   0  0  0  0  0  0  0  0  0  0  0  0
    8.0622   -1.0375    0.0000 N   0  0  0  0  0  0  0  0  0  0  0  0
   10.7648   -3.5320    0.0000 N   0  0  0  0  0  0  0  0  0  0  0  0
    4.5981   -1.0375    0.0000 N   0  0  0  0  0  0  0  0  0  0  0  0
    5.4641    2.4625    0.0000 N   0  0  0  0  0  0  0  0  0  0  0  0
    9.6448    4.2989    0.0000 N   0  0  0  0  0  0  0  0  0  0  0  0
   10.6603   -0.5375    0.0000 C   0  0  0  0  0  0  0  0  0  0  0  0
   11.6603   -0.5375    0.0000 C   0  0  0  0  0  0  0  0  0  0  0  0
   11.1603    0.3285    0.0000 C   0  0  0  0  0  0  0  0  0  0  0  0
    9.7942   -2.0375    0.0000 C   0  0  0  0  0  0  0  0  0  0  0  0
    8.9282   -0.5375    0.0000 C   0  0  0  0  0  0  0  0  0  0  0  0
   10.6603   -2.5375    0.0000 C   0  0  0  0  0  0  0  0  0  0  0  0
    7.1962   -0.5375    0.0000 C   0  0  0  0  0  0  0  0  0  0  0  0
    3.7320   -0.5375    0.0000 C   0  0  2  0  0  0  0  0  0  0  0  0
    3.7320    0.4625    0.0000 C   0  0  2  0  0  0  0  0  0  0  0  0
    4.5981    0.9625    0.0000 C   0  0  0  0  0  0  0  0  0  0  0  0
   11.5738   -2.1308    0.0000 C   0  0  0  0  0  0  0  0  0  0  0  0
    4.5981    1.9625    0.0000 C   0  0  2  0  0  0  0  0  0  0  0  0
    6.3301   -1.0375    0.0000 C   0  0  0  0  0  0  0  0  0  0  0  0
    2.8660   -1.0375    0.0000 C   0  0  0  0  0  0  0  0  0  0  0  0
   11.7429   -3.7399    0.0000 C   0  0  0  0  0  0  0  0  0  0  0  0
    3.7320    2.4625    0.0000 C   0  0  0  0  0  0  0  0  0  0  0  0
    5.4641   -0.5375    0.0000 C   0  0  0  0  0  0  0  0  0  0  0  0
   12.1497   -4.6535    0.0000 C   0  0  0  0  0  0  0  0  0  0  0  0
    2.8660   -2.0375    0.0000 C   0  0  0  0  0  0  0  0  0  0  0  0
    3.7320    3.4625    0.0000 C   0  0  0  0  0  0  0  0  0  0  0  0
   13.1442   -4.7580    0.0000 C   0  0  0  0  0  0  0  0  0  0  0  0
   11.5619   -5.4625    0.0000 C   0  0  0  0  0  0  0  0  0  0  0  0
    3.7320   -2.5375    0.0000 C   0  0  0  0  0  0  0  0  0  0  0  0
    2.0000   -2.5375    0.0000 C   0  0  0  0  0  0  0  0  0  0  0  0
    6.3301    1.9625    0.0000 C   0  0  0  0  0  0  0  0  0  0  0  0
    2.8660    3.9625    0.0000 C   0  0  0  0  0  0  0  0  0  0  0  0
    4.5981    3.9625    0.0000 C   0  0  0  0  0  0  0  0  0  0  0  0
    3.7320   -3.5375    0.0000 C   0  0  0  0  0  0  0  0  0  0  0  0
    2.0000   -3.5375    0.0000 C   0  0  0  0  0  0  0  0  0  0  0  0
    2.8660    4.9625    0.0000 C   0  0  0  0  0  0  0  0  0  0  0  0
    4.5981    4.9625    0.0000 C   0  0  0  0  0  0  0  0  0  0  0  0
    2.8660   -4.0375    0.0000 C   0  0  0  0  0  0  0  0  0  0  0  0
    3.7320    5.4625    0.0000 C   0  0  0  0  0  0  0  0  0  0  0  0
    7.1962    3.4625    0.0000 C   0  0  0  0  0  0  0  0  0  0  0  0
    8.0622    3.9625    0.0000 C   0  0  0  0  0  0  0  0  0  0  0  0
    8.9757    3.5558    0.0000 C   0  0  0  0  0  0  0  0  0  0  0  0
    9.1448    5.1649    0.0000 C   0  0  0  0  0  0  0  0  0  0  0  0
   10.8207   -1.1364    0.0000 H   0  0  0  0  0  0  0  0  0  0  0  0
   11.7679   -1.1481    0.0000 H   0  0  0  0  0  0  0  0  0  0  0  0
   12.2429   -0.3254    0.0000 H   0  0  0  0  0  0  0  0  0  0  0  0
   11.6352    0.7271    0.0000 H   0  0  0  0  0  0  0  0  0  0  0  0
   10.6853    0.7271    0.0000 H   0  0  0  0  0  0  0  0  0  0  0  0
    9.1836   -1.9298    0.0000 H   0  0  0  0  0  0  0  0  0  0  0  0
    9.5822   -2.6201    0.0000 H   0  0  0  0  0  0  0  0  0  0  0  0
    8.0622   -1.6575    0.0000 H   0  0  0  0  0  0  0  0  0  0  0  0
    3.7320   -1.1575    0.0000 H   0  0  0  0  0  0  0  0  0  0  0  0
    7.5947   -0.0626    0.0000 H   0  0  0  0  0  0  0  0  0  0  0  0
    6.7976   -0.0626    0.0000 H   0  0  0  0  0  0  0  0  0  0  0  0
    3.7320    1.0825    0.0000 H   0  0  0  0  0  0  0  0  0  0  0  0
    4.8101    0.3799    0.0000 H   0  0  0  0  0  0  0  0  0  0  0  0
    5.2087    1.0702    0.0000 H   0  0  0  0  0  0  0  0  0  0  0  0
    4.5981    2.5825    0.0000 H   0  0  0  0  0  0  0  0  0  0  0  0
   11.7027   -1.5243    0.0000 H   0  0  0  0  0  0  0  0  0  0  0  0
    5.9316   -1.5124    0.0000 H   0  0  0  0  0  0  0  0  0  0  0  0
    6.7287   -1.5124    0.0000 H   0  0  0  0  0  0  0  0  0  0  0  0
    2.6540   -0.4549    0.0000 H   0  0  0  0  0  0  0  0  0  0  0  0
    2.2554   -1.1452    0.0000 H   0  0  0  0  0  0  0  0  0  0  0  0
    4.5981   -1.6575    0.0000 H   0  0  0  0  0  0  0  0  0  0  0  0
    3.1215    2.5702    0.0000 H   0  0  0  0  0  0  0  0  0  0  0  0
    3.5200    1.8799    0.0000 H   0  0  0  0  0  0  0  0  0  0  0  0
   12.4018   -5.2199    0.0000 H   0  0  0  0  0  0  0  0  0  0  0  0
    5.4641    3.0825    0.0000 H   0  0  0  0  0  0  0  0  0  0  0  0
    2.8660    1.5825    0.0000 H   0  0  0  0  0  0  0  0  0  0  0  0
   13.0794   -5.3746    0.0000 H   0  0  0  0  0  0  0  0  0  0  0  0
   13.7608   -4.8228    0.0000 H   0  0  0  0  0  0  0  0  0  0  0  0
   13.2090   -4.1414    0.0000 H   0  0  0  0  0  0  0  0  0  0  0  0
   11.0603   -5.0981    0.0000 H   0  0  0  0  0  0  0  0  0  0  0  0
   11.1975   -5.9641    0.0000 H   0  0  0  0  0  0  0  0  0  0  0  0
   12.0635   -5.8269    0.0000 H   0  0  0  0  0  0  0  0  0  0  0  0
    4.2690   -2.2275    0.0000 H   0  0  0  0  0  0  0  0  0  0  0  0
    1.4631   -2.2275    0.0000 H   0  0  0  0  0  0  0  0  0  0  0  0
    2.3291    3.6525    0.0000 H   0  0  0  0  0  0  0  0  0  0  0  0
    5.1350    3.6525    0.0000 H   0  0  0  0  0  0  0  0  0  0  0  0
    4.2690   -3.8475    0.0000 H   0  0  0  0  0  0  0  0  0  0  0  0
    1.4631   -3.8475    0.0000 H   0  0  0  0  0  0  0  0  0  0  0  0
    2.3291    5.2725    0.0000 H   0  0  0  0  0  0  0  0  0  0  0  0
    5.1350    5.2725    0.0000 H   0  0  0  0  0  0  0  0  0  0  0  0
    2.8660   -4.6575    0.0000 H   0  0  0  0  0  0  0  0  0  0  0  0
    3.7320    6.0825    0.0000 H   0  0  0  0  0  0  0  0  0  0  0  0
    6.9841    4.0451    0.0000 H   0  0  0  0  0  0  0  0  0  0  0  0
    6.5856    3.3548    0.0000 H   0  0  0  0  0  0  0  0  0  0  0  0
    9.1046    2.9493    0.0000 H   0  0  0  0  0  0  0  0  0  0  0  0
    9.3970    5.7313    0.0000 H   0  0  0  0  0  0  0  0  0  0  0  0
  1 24  1  0  0  0  0
  1 28  1  0  0  0  0
  2 48  1  0  0  0  0
  2 50  1  0  0  0  0
  3 18  2  0  0  0  0
 22  4  1  1  0  0  0
  4 76  1  0  0  0  0
  5 30  2  0  0  0  0
  6 38  1  0  0  0  0
  6 47  1  0  0  0  0
  7 38  2  0  0  0  0
  8 14  1  0  0  0  0
  8 17  1  0  0  0  0
  8 18  1  0  0  0  0
  9 18  1  0  0  0  0
  9 20  1  0  0  0  0
  9 58  1  0  0  0  0
 10 19  1  0  0  0  0
 10 28  2  0  0  0  0
 21 11  1  1  0  0  0
 11 30  1  0  0  0  0
 11 71  1  0  0  0  0
 25 12  1  6  0  0  0
 12 38  1  0  0  0  0
 12 75  1  0  0  0  0
 13 49  1  0  0  0  0
 13 50  2  0  0  0  0
 14 15  1  0  0  0  0
 14 16  1  0  0  0  0
 14 51  1  0  0  0  0
 15 16  1  0  0  0  0
 15 52  1  0  0  0  0
 15 53  1  0  0  0  0
 16 54  1  0  0  0  0
 16 55  1  0  0  0  0
 17 19  1  0  0  0  0
 17 56  1  0  0  0  0
 17 57  1  0  0  0  0
 19 24  2  0  0  0  0
 20 26  1  0  0  0  0
 20 60  1  0  0  0  0
 20 61  1  0  0  0  0
 21 22  1  0  0  0  0
 21 27  1  0  0  0  0
 21 59  1  0  0  0  0
 22 23  1  0  0  0  0
 22 62  1  0  0  0  0
 23 25  1  0  0  0  0
 23 63  1  0  0  0  0
 23 64  1  0  0  0  0
 24 66  1  0  0  0  0
 25 29  1  0  0  0  0
 25 65  1  0  0  0  0
 26 30  1  0  0  0  0
 26 67  1  0  0  0  0
 26 68  1  0  0  0  0
 27 32  1  0  0  0  0
 27 69  1  0  0  0  0
 27 70  1  0  0  0  0
 28 31  1  0  0  0  0
 29 33  1  0  0  0  0
 29 72  1  0  0  0  0
 29 73  1  0  0  0  0
 31 34  1  0  0  0  0
 31 35  1  0  0  0  0
 31 74  1  0  0  0  0
 32 36  2  0  0  0  0
 32 37  1  0  0  0  0
 33 39  2  0  0  0  0
 33 40  1  0  0  0  0
 34 77  1  0  0  0  0
 34 78  1  0  0  0  0
 34 79  1  0  0  0  0
 35 80  1  0  0  0  0
 35 81  1  0  0  0  0
 35 82  1  0  0  0  0
 36 41  1  0  0  0  0
 36 83  1  0  0  0  0
 37 42  2  0  0  0  0
 37 84  1  0  0  0  0
 39 43  1  0  0  0  0
 39 85  1  0  0  0  0
 40 44  2  0  0  0  0
 40 86  1  0  0  0  0
 41 45  2  0  0  0  0
 41 87  1  0  0  0  0
 42 45  1  0  0  0  0
 42 88  1  0  0  0  0
 43 46  2  0  0  0  0
 43 89  1  0  0  0  0
 44 46  1  0  0  0  0
 44 90  1  0  0  0  0
 45 91  1  0  0  0  0
 46 92  1  0  0  0  0
 47 48  1  0  0  0  0
 47 93  1  0  0  0  0
 47 94  1  0  0  0  0
 48 49  2  0  0  0  0
 49 95  1  0  0  0  0
 50 96  1  0  0  0  0
M  END
> <PUBCHEM_COMPOUND_CID>
515835
> <PUBCHEM_COMPOUND_CANONICALIZED>
1
> <PUBCHEM_CACTVS_COMPLEXITY>
1060
> <PUBCHEM_CACTVS_HBOND_ACCEPTOR>
9
> <PUBCHEM_CACTVS_HBOND_DONOR>
4
> <PUBCHEM_CACTVS_ROTATABLE_BOND>
19
> <PUBCHEM_CACTVS_SUBSKEYS>
AAADcfB/uABgAAAAAAAAAAAAGAAAAWLAAAAwYAAAAAAAAAAB9AAAHgQQCAAADTzl3ga/iZPIFgisAzV3XACC8KBxCjhI2J04bImKdCrg8RmcYAgulgL4qAeQwPAOAAAAAAAAAAAAAAAAAAAAAAAAAAAAAA==
> <PUBCHEM_IUPAC_OPENEYE_NAME>
thiazol-5-ylmethyl N-[(1S,3S,4S)-1-benzyl-4-[3-[[cyclopropyl-[(2-isopropylthiazol-4-yl)methyl]carbamoyl]amino]propanoylamino]-3-hydroxy-5-phenyl-pentyl]carbamate
> <PUBCHEM_IUPAC_CAS_NAME>
N-[(2S,4S,5S)-5-[[3-[[[cyclopropyl-[(2-propan-2-yl-4-thiazolyl)methyl]amino]-oxomethyl]amino]-1-oxopropyl]amino]-4-hydroxy-1,6-diphenylhexan-2-yl]carbamic acid 5-thiazolylmethyl ester
> <PUBCHEM_IUPAC_NAME_MARKUP>
1,3-thiazol-5-ylmethyl <I>N</I>-[(2<I>S</I>,4<I>S</I>,5<I>S</I>)-5-[3-[[cyclopropyl-[(2-propan-2-yl-1,3-thiazol-4-yl)methyl]carbamoyl]amino]propanoylamino]-4-hydroxy-1,6-diphenylhexan-2-yl]carbamate
> <PUBCHEM_IUPAC_NAME>
1,3-thiazol-5-ylmethyl N-[(2S,4S,5S)-5-[3-[[cyclopropyl-[(2-propan-2-yl-1,3-thiazol-4-yl)methyl]carbamoyl]amino]propanoylamino]-4-hydroxy-1,6-diphenylhexan-2-yl]carbamate
> <PUBCHEM_IUPAC_SYSTEMATIC_NAME>
1,3-thiazol-5-ylmethyl N-[(2S,4S,5S)-5-[3-[[cyclopropyl-[(2-propan-2-yl-1,3-thiazol-4-yl)methyl]carbamoyl]amino]propanoylamino]-4-oxidanyl-1,6-diphenyl-hexan-2-yl]carbamate
> <PUBCHEM_IUPAC_TRADITIONAL_NAME>
N-[(1S,3S,4S)-1-benzyl-4-[3-[[cyclopropyl-[(2-isopropylthiazol-4-yl)methyl]carbamoyl]amino]propanoylamino]-3-hydroxy-5-phenyl-pentyl]carbamic acid thiazol-5-ylmethyl ester
> <PUBCHEM_IUPAC_INCHI>
InChI=1S/C37H46N6O5S2/c1-25(2)35-40-29(23-49-35)21-43(30-13-14-30)36(46)39-16-15-34(45)42-32(18-27-11-7-4-8-12-27)33(44)19-28(17-26-9-5-3-6-10-26)41-37(47)48-22-31-20-38-24-50-31/h3-12,20,23-25,28,30,32-33,44H,13-19,21-22H2,1-2H3,(H,39,46)(H,41,47)(H,42,45)/t28-,32-,33-/m0/s1
> <PUBCHEM_IUPAC_INCHIKEY>
MNDNWXNRVPYSDS-RMFXYIPJSA-N
> <PUBCHEM_XLOGP3_AA>
5.1
> <PUBCHEM_EXACT_MASS>
718.29711094
> <PUBCHEM_MOLECULAR_FORMULA>
C37H46N6O5S2
> <PUBCHEM_MOLECULAR_WEIGHT>
718.9
> <PUBCHEM_OPENEYE_CAN_SMILES>
CC(C)C1=NC(=CS1)CN(C2CC2)C(=O)NCCC(=O)NC(CC3=CC=CC=C3)C(CC(CC4=CC=CC=C4)NC(=O)OCC5=CN=CS5)O
> <PUBCHEM_OPENEYE_ISO_SMILES>
CC(C)C1=NC(=CS1)CN(C2CC2)C(=O)NCCC(=O)N[C@@H](CC3=CC=CC=C3)[C@H](C[C@H](CC4=CC=CC=C4)NC(=O)OCC5=CN=CS5)O
> <PUBCHEM_CACTVS_TPSA>
202
> <PUBCHEM_MONOISOTOPIC_WEIGHT>
718.29711094
> <PUBCHEM_TOTAL_CHARGE>
0
> <PUBCHEM_HEAVY_ATOM_COUNT>
50
> <PUBCHEM_ATOM_DEF_STEREO_COUNT>
3
> <PUBCHEM_ATOM_UDEF_STEREO_COUNT>
0
> <PUBCHEM_BOND_DEF_STEREO_COUNT>
0
> <PUBCHEM_BOND_UDEF_STEREO_COUNT>
0
> <PUBCHEM_ISOTOPIC_ATOM_COUNT>
0
> <PUBCHEM_COMPONENT_COUNT>
1
> <PUBCHEM_CACTVS_TAUTO_COUNT>
-1
> <PUBCHEM_COORDINATE_TYPE>
1
5
255
> <PUBCHEM_BONDANNOTATIONS>
1  24  8
1  28  8
10  19  8
10  28  8
21  11  5
25  12  6
13  49  8
13  50  8
19  24  8
2  48  8
2  50  8
32  36  8
32  37  8
33  39  8
33  40  8
36  41  8
37  42  8
39  43  8
22  4  5
40  44  8
41  45  8
42  45  8
43  46  8
44  46  8
48  49  8
$$$$
