515895
  -OEChem-10302200282D
102106  0     1  0  0  0  0  0999 V2000
    8.9962   -2.6830    0.0000 Cl  0  0  0  0  0  0  0  0  0  0  0  0
    5.5321    1.3170    0.0000 O   0  0  0  0  0  0  0  0  0  0  0  0
    7.2641    4.3170    0.0000 O   0  0  0  0  0  0  0  0  0  0  0  0
    4.4494   -2.8854    0.0000 O   0  0  0  0  0  0  0  0  0  0  0  0
    5.5321    0.3170    0.0000 O   0  0  0  0  0  0  0  0  0  0  0  0
    8.1301   -6.1830    0.0000 O   0  0  0  0  0  0  0  0  0  0  0  0
    6.3981   -6.1830    0.0000 O   0  0  0  0  0  0  0  0  0  0  0  0
    5.5321    3.3170    0.0000 N   0  0  3  0  0  0  0  0  0  0  0  0
    6.3981    5.8170    0.0000 N   0  0  0  0  0  0  0  0  0  0  0  0
    7.2641    0.3170    0.0000 N   0  0  0  0  0  0  0  0  0  0  0  0
    7.2641   -1.6830    0.0000 N   0  0  0  0  0  0  0  0  0  0  0  0
    6.3981   -3.1830    0.0000 N   0  0  0  0  0  0  0  0  0  0  0  0
    8.1301   -4.1830    0.0000 N   0  0  0  0  0  0  0  0  0  0  0  0
    5.5321   -4.6830    0.0000 N   0  0  0  0  0  0  0  0  0  0  0  0
    3.8000    4.3170    0.0000 C   0  0  2  0  0  0  0  0  0  0  0  0
    3.8000    3.3170    0.0000 C   0  0  1  0  0  0  0  0  0  0  0  0
    4.6660    4.8170    0.0000 C   0  0  0  0  0  0  0  0  0  0  0  0
    4.6660    2.8170    0.0000 C   0  0  0  0  0  0  0  0  0  0  0  0
    2.9061    4.8516    0.0000 C   0  0  0  0  0  0  0  0  0  0  0  0
    2.9061    2.7823    0.0000 C   0  0  0  0  0  0  0  0  0  0  0  0
    5.5321    4.3170    0.0000 C   0  0  1  0  0  0  0  0  0  0  0  0
    2.0000    4.3378    0.0000 C   0  0  0  0  0  0  0  0  0  0  0  0
    2.0000    3.2962    0.0000 C   0  0  0  0  0  0  0  0  0  0  0  0
    6.3981    2.8170    0.0000 C   0  0  0  0  0  0  0  0  0  0  0  0
    6.3981    4.8170    0.0000 C   0  0  0  0  0  0  0  0  0  0  0  0
    6.3981    1.8170    0.0000 C   0  0  2  0  0  0  0  0  0  0  0  0
    7.2641    1.3170    0.0000 C   0  0  2  0  0  0  0  0  0  0  0  0
    7.2641    6.3170    0.0000 C   0  0  0  0  0  0  0  0  0  0  0  0
    8.1301    1.8170    0.0000 C   0  0  0  0  0  0  0  0  0  0  0  0
    8.1301    6.8170    0.0000 C   0  0  0  0  0  0  0  0  0  0  0  0
    6.7641    7.1830    0.0000 C   0  0  0  0  0  0  0  0  0  0  0  0
    7.7641    5.4510    0.0000 C   0  0  0  0  0  0  0  0  0  0  0  0
    6.3981   -0.1830    0.0000 C   0  0  0  0  0  0  0  0  0  0  0  0
    6.3981   -1.1830    0.0000 C   0  0  2  0  0  0  0  0  0  0  0  0
    5.5321   -1.6830    0.0000 C   0  0  1  0  0  0  0  0  0  0  0  0
    8.9962    1.3170    0.0000 C   0  0  0  0  0  0  0  0  0  0  0  0
    4.6185   -1.2763    0.0000 C   0  0  0  0  0  0  0  0  0  0  0  0
    5.4275   -2.6775    0.0000 C   0  0  0  0  0  0  0  0  0  0  0  0
    3.9494   -2.0194    0.0000 C   0  0  0  0  0  0  0  0  0  0  0  0
    9.8622    1.8170    0.0000 C   0  0  0  0  0  0  0  0  0  0  0  0
    8.9962    0.3170    0.0000 C   0  0  0  0  0  0  0  0  0  0  0  0
   10.7282    1.3170    0.0000 C   0  0  0  0  0  0  0  0  0  0  0  0
    9.8622   -0.1830    0.0000 C   0  0  0  0  0  0  0  0  0  0  0  0
    7.2641   -2.6830    0.0000 C   0  0  0  0  0  0  0  0  0  0  0  0
   10.7282    0.3170    0.0000 C   0  0  0  0  0  0  0  0  0  0  0  0
    8.1301   -3.1830    0.0000 C   0  0  0  0  0  0  0  0  0  0  0  0
    6.3981   -4.1830    0.0000 C   0  0  0  0  0  0  0  0  0  0  0  0
    7.2641   -4.6830    0.0000 C   0  0  0  0  0  0  0  0  0  0  0  0
    7.2641   -5.6830    0.0000 C   0  0  0  0  0  0  0  0  0  0  0  0
    8.1301   -7.1830    0.0000 C   0  0  0  0  0  0  0  0  0  0  0  0
    3.8066    5.1670    0.0000 H   0  0  0  0  0  0  0  0  0  0  0  0
    3.8066    2.4670    0.0000 H   0  0  0  0  0  0  0  0  0  0  0  0
    5.0646    5.2919    0.0000 H   0  0  0  0  0  0  0  0  0  0  0  0
    4.2675    5.2919    0.0000 H   0  0  0  0  0  0  0  0  0  0  0  0
    4.2675    2.3420    0.0000 H   0  0  0  0  0  0  0  0  0  0  0  0
    5.0646    2.3420    0.0000 H   0  0  0  0  0  0  0  0  0  0  0  0
    3.3107    5.3214    0.0000 H   0  0  0  0  0  0  0  0  0  0  0  0
    2.5124    5.3307    0.0000 H   0  0  0  0  0  0  0  0  0  0  0  0
    2.5124    2.3033    0.0000 H   0  0  0  0  0  0  0  0  0  0  0  0
    3.3107    2.3125    0.0000 H   0  0  0  0  0  0  0  0  0  0  0  0
    6.0690    4.0070    0.0000 H   0  0  0  0  0  0  0  0  0  0  0  0
    1.7909    4.9215    0.0000 H   0  0  0  0  0  0  0  0  0  0  0  0
    1.3891    4.2317    0.0000 H   0  0  0  0  0  0  0  0  0  0  0  0
    1.3891    3.4023    0.0000 H   0  0  0  0  0  0  0  0  0  0  0  0
    1.7909    2.7125    0.0000 H   0  0  0  0  0  0  0  0  0  0  0  0
    7.0087    2.7093    0.0000 H   0  0  0  0  0  0  0  0  0  0  0  0
    6.6101    3.3996    0.0000 H   0  0  0  0  0  0  0  0  0  0  0  0
    6.3981    1.1970    0.0000 H   0  0  0  0  0  0  0  0  0  0  0  0
    7.8010    1.0070    0.0000 H   0  0  0  0  0  0  0  0  0  0  0  0
    5.8612    6.1270    0.0000 H   0  0  0  0  0  0  0  0  0  0  0  0
    8.5287    2.2919    0.0000 H   0  0  0  0  0  0  0  0  0  0  0  0
    7.7316    2.2919    0.0000 H   0  0  0  0  0  0  0  0  0  0  0  0
    4.9951    1.6270    0.0000 H   0  0  0  0  0  0  0  0  0  0  0  0
    7.8010    0.0070    0.0000 H   0  0  0  0  0  0  0  0  0  0  0  0
    8.4401    6.2800    0.0000 H   0  0  0  0  0  0  0  0  0  0  0  0
    8.6671    7.1270    0.0000 H   0  0  0  0  0  0  0  0  0  0  0  0
    7.8201    7.3539    0.0000 H   0  0  0  0  0  0  0  0  0  0  0  0
    7.3010    7.4930    0.0000 H   0  0  0  0  0  0  0  0  0  0  0  0
    6.4541    7.7200    0.0000 H   0  0  0  0  0  0  0  0  0  0  0  0
    6.2272    6.8730    0.0000 H   0  0  0  0  0  0  0  0  0  0  0  0
    7.2272    5.1410    0.0000 H   0  0  0  0  0  0  0  0  0  0  0  0
    8.0741    4.9140    0.0000 H   0  0  0  0  0  0  0  0  0  0  0  0
    8.3010    5.7610    0.0000 H   0  0  0  0  0  0  0  0  0  0  0  0
    6.3981   -1.8030    0.0000 H   0  0  0  0  0  0  0  0  0  0  0  0
    5.4876   -0.8342    0.0000 H   0  0  0  0  0  0  0  0  0  0  0  0
    4.9285   -0.7393    0.0000 H   0  0  0  0  0  0  0  0  0  0  0  0
    4.1169   -0.9118    0.0000 H   0  0  0  0  0  0  0  0  0  0  0  0
    5.4923   -3.2941    0.0000 H   0  0  0  0  0  0  0  0  0  0  0  0
    6.0475   -2.6775    0.0000 H   0  0  0  0  0  0  0  0  0  0  0  0
    3.5345   -1.5587    0.0000 H   0  0  0  0  0  0  0  0  0  0  0  0
    3.4478   -2.3838    0.0000 H   0  0  0  0  0  0  0  0  0  0  0  0
    7.8010   -1.3730    0.0000 H   0  0  0  0  0  0  0  0  0  0  0  0
    9.8622    2.4370    0.0000 H   0  0  0  0  0  0  0  0  0  0  0  0
    8.4592    0.0070    0.0000 H   0  0  0  0  0  0  0  0  0  0  0  0
   11.2651    1.6270    0.0000 H   0  0  0  0  0  0  0  0  0  0  0  0
    9.8622   -0.8030    0.0000 H   0  0  0  0  0  0  0  0  0  0  0  0
   11.2651    0.0070    0.0000 H   0  0  0  0  0  0  0  0  0  0  0  0
    4.9951   -4.3730    0.0000 H   0  0  0  0  0  0  0  0  0  0  0  0
    5.5321   -5.3030    0.0000 H   0  0  0  0  0  0  0  0  0  0  0  0
    7.5101   -7.1830    0.0000 H   0  0  0  0  0  0  0  0  0  0  0  0
    8.1301   -7.8030    0.0000 H   0  0  0  0  0  0  0  0  0  0  0  0
    8.7501   -7.1830    0.0000 H   0  0  0  0  0  0  0  0  0  0  0  0
  1 46  1  0  0  0  0
 26  2  1  6  0  0  0
  2 73  1  0  0  0  0
  3 25  2  0  0  0  0
  4 38  1  0  0  0  0
  4 39  1  0  0  0  0
  5 33  2  0  0  0  0
  6 49  1  0  0  0  0
  6 50  1  0  0  0  0
  7 49  2  0  0  0  0
  8 18  1  0  0  0  0
  8 21  1  0  0  0  0
  8 24  1  0  0  0  0
  9 25  1  0  0  0  0
  9 28  1  0  0  0  0
  9 70  1  0  0  0  0
 27 10  1  6  0  0  0
 10 33  1  0  0  0  0
 10 74  1  0  0  0  0
 34 11  1  1  0  0  0
 11 44  1  0  0  0  0
 11 92  1  0  0  0  0
 12 44  2  0  0  0  0
 12 47  1  0  0  0  0
 13 46  2  0  0  0  0
 13 48  1  0  0  0  0
 14 47  1  0  0  0  0
 14 98  1  0  0  0  0
 14 99  1  0  0  0  0
 15 16  1  0  0  0  0
 15 17  1  0  0  0  0
 15 19  1  0  0  0  0
 15 51  1  6  0  0  0
 16 18  1  0  0  0  0
 16 20  1  0  0  0  0
 16 52  1  6  0  0  0
 17 21  1  0  0  0  0
 17 53  1  0  0  0  0
 17 54  1  0  0  0  0
 18 55  1  0  0  0  0
 18 56  1  0  0  0  0
 19 22  1  0  0  0  0
 19 57  1  0  0  0  0
 19 58  1  0  0  0  0
 20 23  1  0  0  0  0
 20 59  1  0  0  0  0
 20 60  1  0  0  0  0
 21 25  1  1  0  0  0
 21 61  1  0  0  0  0
 22 23  1  0  0  0  0
 22 62  1  0  0  0  0
 22 63  1  0  0  0  0
 23 64  1  0  0  0  0
 23 65  1  0  0  0  0
 24 26  1  0  0  0  0
 24 66  1  0  0  0  0
 24 67  1  0  0  0  0
 26 27  1  0  0  0  0
 26 68  1  0  0  0  0
 27 29  1  0  0  0  0
 27 69  1  0  0  0  0
 28 30  1  0  0  0  0
 28 31  1  0  0  0  0
 28 32  1  0  0  0  0
 29 36  1  0  0  0  0
 29 71  1  0  0  0  0
 29 72  1  0  0  0  0
 30 75  1  0  0  0  0
 30 76  1  0  0  0  0
 30 77  1  0  0  0  0
 31 78  1  0  0  0  0
 31 79  1  0  0  0  0
 31 80  1  0  0  0  0
 32 81  1  0  0  0  0
 32 82  1  0  0  0  0
 32 83  1  0  0  0  0
 33 34  1  0  0  0  0
 34 35  1  0  0  0  0
 34 84  1  0  0  0  0
 35 37  1  0  0  0  0
 35 38  1  0  0  0  0
 35 85  1  1  0  0  0
 36 40  2  0  0  0  0
 36 41  1  0  0  0  0
 37 39  1  0  0  0  0
 37 86  1  0  0  0  0
 37 87  1  0  0  0  0
 38 88  1  0  0  0  0
 38 89  1  0  0  0  0
 39 90  1  0  0  0  0
 39 91  1  0  0  0  0
 40 42  1  0  0  0  0
 40 93  1  0  0  0  0
 41 43  2  0  0  0  0
 41 94  1  0  0  0  0
 42 45  2  0  0  0  0
 42 95  1  0  0  0  0
 43 45  1  0  0  0  0
 43 96  1  0  0  0  0
 44 46  1  0  0  0  0
 45 97  1  0  0  0  0
 47 48  2  0  0  0  0
 48 49  1  0  0  0  0
 50100  1  0  0  0  0
 50101  1  0  0  0  0
 50102  1  0  0  0  0
M  END
> <PUBCHEM_COMPOUND_CID>
515895
> <PUBCHEM_COMPOUND_CANONICALIZED>
1
> <PUBCHEM_CACTVS_COMPLEXITY>
1140
> <PUBCHEM_CACTVS_HBOND_ACCEPTOR>
11
> <PUBCHEM_CACTVS_HBOND_DONOR>
5
> <PUBCHEM_CACTVS_ROTATABLE_BOND>
14
> <PUBCHEM_CACTVS_SUBSKEYS>
AAADcfB/uAAEAAAAAAAAAAAAAAAAASAAAAA8eIEAAAAAAACxwAAAHgIQCAAADb7hniYzuJPIFgCoAyfyfAQCgC0nECAJmIGoWMiKdHrA+TnXYIAulgLYqGe63KKOgAAAAAAAAAAAAAAAACAAAAAAAAAAAA==
> <PUBCHEM_IUPAC_OPENEYE_NAME>
methyl 5-[[(1S)-2-[[(1S,2R)-3-[(3S,4aS,8aS)-3-(tert-butylcarbamoyl)-3,4,4a,5,6,7,8,8a-octahydro-1H-isoquinolin-2-yl]-1-benzyl-2-hydroxy-propyl]amino]-2-oxo-1-[(3R)-tetrahydrofuran-3-yl]ethyl]amino]-3-amino-6-chloro-pyrazine-2-carboxylate
> <PUBCHEM_IUPAC_CAS_NAME>
5-[[(1S)-2-[[(2S,3R)-4-[(3S,4aS,8aS)-3-[(tert-butylamino)-oxomethyl]-3,4,4a,5,6,7,8,8a-octahydro-1H-isoquinolin-2-yl]-3-hydroxy-1-phenylbutan-2-yl]amino]-2-oxo-1-[(3R)-3-oxolanyl]ethyl]amino]-3-amino-6-chloro-2-pyrazinecarboxylic acid methyl ester
> <PUBCHEM_IUPAC_NAME_MARKUP>
methyl 5-[[(1<I>S</I>)-2-[[(2<I>S</I>,3<I>R</I>)-4-[(3<I>S</I>,4<I>a</I><I>S</I>,8<I>a</I><I>S</I>)-3-(<I>tert</I>-butylcarbamoyl)-3,4,4<I>a</I>,5,6,7,8,8<I>a</I>-octahydro-1<I>H</I>-isoquinolin-2-yl]-3-hydroxy-1-phenylbutan-2-yl]amino]-2-oxo-1-[(3<I>R</I>)-oxolan-3-yl]ethyl]amino]-3-amino-6-chloropyrazine-2-carboxylate
> <PUBCHEM_IUPAC_NAME>
methyl 5-[[(1S)-2-[[(2S,3R)-4-[(3S,4aS,8aS)-3-(tert-butylcarbamoyl)-3,4,4a,5,6,7,8,8a-octahydro-1H-isoquinolin-2-yl]-3-hydroxy-1-phenylbutan-2-yl]amino]-2-oxo-1-[(3R)-oxolan-3-yl]ethyl]amino]-3-amino-6-chloropyrazine-2-carboxylate
> <PUBCHEM_IUPAC_SYSTEMATIC_NAME>
methyl 5-[[(1S)-2-[[(2S,3R)-4-[(3S,4aS,8aS)-3-(tert-butylcarbamoyl)-3,4,4a,5,6,7,8,8a-octahydro-1H-isoquinolin-2-yl]-3-oxidanyl-1-phenyl-butan-2-yl]amino]-2-oxidanylidene-1-[(3R)-oxolan-3-yl]ethyl]amino]-3-azanyl-6-chloranyl-pyrazine-2-carboxylate
> <PUBCHEM_IUPAC_TRADITIONAL_NAME>
5-[[(1S)-2-[[(1S,2R)-3-[(3S,4aS,8aS)-3-(tert-butylcarbamoyl)-3,4,4a,5,6,7,8,8a-octahydro-1H-isoquinolin-2-yl]-1-benzyl-2-hydroxy-propyl]amino]-2-keto-1-[(3R)-tetrahydrofuran-3-yl]ethyl]amino]-3-amino-6-chloro-pyrazinic acid methyl ester
> <PUBCHEM_IUPAC_INCHI>
InChI=1S/C36H52ClN7O6/c1-36(2,3)43-33(46)26-17-22-12-8-9-13-23(22)18-44(26)19-27(45)25(16-21-10-6-5-7-11-21)39-34(47)28(24-14-15-50-20-24)41-32-30(37)40-29(31(38)42-32)35(48)49-4/h5-7,10-11,22-28,45H,8-9,12-20H2,1-4H3,(H,39,47)(H,43,46)(H3,38,41,42)/t22-,23+,24-,25-,26-,27+,28-/m0/s1
> <PUBCHEM_IUPAC_INCHIKEY>
LCKITJOWWCXRAD-DCZJRQIWSA-N
> <PUBCHEM_XLOGP3_AA>
5.3
> <PUBCHEM_EXACT_MASS>
713.3667601
> <PUBCHEM_MOLECULAR_FORMULA>
C36H52ClN7O6
> <PUBCHEM_MOLECULAR_WEIGHT>
714.3
> <PUBCHEM_OPENEYE_CAN_SMILES>
CC(C)(C)NC(=O)C1CC2CCCCC2CN1CC(C(CC3=CC=CC=C3)NC(=O)C(C4CCOC4)NC5=NC(=C(N=C5Cl)C(=O)OC)N)O
> <PUBCHEM_OPENEYE_ISO_SMILES>
CC(C)(C)NC(=O)[C@@H]1C[C@@H]2CCCC[C@@H]2CN1C[C@H]([C@H](CC3=CC=CC=C3)NC(=O)[C@H]([C@H]4CCOC4)NC5=NC(=C(N=C5Cl)C(=O)OC)N)O
> <PUBCHEM_CACTVS_TPSA>
181
> <PUBCHEM_MONOISOTOPIC_WEIGHT>
713.3667601
> <PUBCHEM_TOTAL_CHARGE>
0
> <PUBCHEM_HEAVY_ATOM_COUNT>
50
> <PUBCHEM_ATOM_DEF_STEREO_COUNT>
7
> <PUBCHEM_ATOM_UDEF_STEREO_COUNT>
0
> <PUBCHEM_BOND_DEF_STEREO_COUNT>
0
> <PUBCHEM_BOND_UDEF_STEREO_COUNT>
0
> <PUBCHEM_ISOTOPIC_ATOM_COUNT>
0
> <PUBCHEM_COMPONENT_COUNT>
1
> <PUBCHEM_CACTVS_TAUTO_COUNT>
-1
> <PUBCHEM_COORDINATE_TYPE>
1
5
255
> <PUBCHEM_BONDANNOTATIONS>
27  10  6
34  11  5
12  44  8
12  47  8
13  46  8
13  48  8
15  51  6
16  52  6
26  2  6
21  25  5
35  85  5
36  40  8
36  41  8
40  42  8
41  43  8
42  45  8
43  45  8
44  46  8
47  48  8
$$$$
