515876
  -OEChem-10302200282D
 88 94  0     1  0  0  0  0  0999 V2000
    4.7401    3.9126    0.0000 O   0  0  0  0  0  0  0  0  0  0  0  0
    4.0577    2.1740    0.0000 O   0  0  0  0  0  0  0  0  0  0  0  0
    8.2077    1.5485    0.0000 O   0  0  0  0  0  0  0  0  0  0  0  0
    7.0426   -3.3217    0.0000 O   0  0  0  0  0  0  0  0  0  0  0  0
    7.2021    2.9110    0.0000 N   0  0  0  0  0  0  0  0  0  0  0  0
    6.5438    1.2336    0.0000 N   0  0  0  0  0  0  0  0  0  0  0  0
   11.6124    1.6063    0.0000 N   0  0  0  0  0  0  0  0  0  0  0  0
   12.1960    2.4110    0.0000 N   0  0  0  0  0  0  0  0  0  0  0  0
    5.3875   -3.8322    0.0000 N   0  0  0  0  0  0  0  0  0  0  0  0
    5.0021   -5.5209    0.0000 N   0  0  0  0  0  0  0  0  0  0  0  0
    6.3758    3.4743    0.0000 C   0  0  1  0  0  0  0  0  0  0  0  0
    5.5549    1.3827    0.0000 C   0  0  1  0  0  0  0  0  0  0  0  0
    5.4203    3.1796    0.0000 C   0  0  1  0  0  0  0  0  0  0  0  0
    5.0549    2.2487    0.0000 C   0  0  1  0  0  0  0  0  0  0  0  0
    6.5249    4.4632    0.0000 C   0  0  0  0  0  0  0  0  0  0  0  0
    4.9916    0.5564    0.0000 C   0  0  0  0  0  0  0  0  0  0  0  0
    7.2768    1.9138    0.0000 C   0  0  0  0  0  0  0  0  0  0  0  0
    8.0681    3.4110    0.0000 C   0  0  0  0  0  0  0  0  0  0  0  0
    6.8385    0.2781    0.0000 C   0  0  0  0  0  0  0  0  0  0  0  0
    5.7431    5.0866    0.0000 C   0  0  0  0  0  0  0  0  0  0  0  0
    3.9944    0.6312    0.0000 C   0  0  0  0  0  0  0  0  0  0  0  0
    8.9341    2.9110    0.0000 C   0  0  0  0  0  0  0  0  0  0  0  0
    6.1583   -0.4550    0.0000 C   0  0  0  0  0  0  0  0  0  0  0  0
    5.8921    6.0755    0.0000 C   0  0  0  0  0  0  0  0  0  0  0  0
    4.8122    4.7213    0.0000 C   0  0  0  0  0  0  0  0  0  0  0  0
    3.5605    1.5321    0.0000 C   0  0  0  0  0  0  0  0  0  0  0  0
    3.4311   -0.1951    0.0000 C   0  0  0  0  0  0  0  0  0  0  0  0
    9.8002    3.4110    0.0000 C   0  0  0  0  0  0  0  0  0  0  0  0
    8.9341    1.9110    0.0000 C   0  0  0  0  0  0  0  0  0  0  0  0
    6.4531   -1.4106    0.0000 C   0  0  0  0  0  0  0  0  0  0  0  0
    5.1834   -0.2325    0.0000 C   0  0  0  0  0  0  0  0  0  0  0  0
   10.6662    2.9110    0.0000 C   0  0  0  0  0  0  0  0  0  0  0  0
    5.1103    6.6990    0.0000 C   0  0  0  0  0  0  0  0  0  0  0  0
    4.0304    5.3448    0.0000 C   0  0  0  0  0  0  0  0  0  0  0  0
    2.5633    1.6069    0.0000 C   0  0  0  0  0  0  0  0  0  0  0  0
    2.4339   -0.1203    0.0000 C   0  0  0  0  0  0  0  0  0  0  0  0
    9.8002    1.4110    0.0000 C   0  0  0  0  0  0  0  0  0  0  0  0
   10.6662    1.9110    0.0000 C   0  0  0  0  0  0  0  0  0  0  0  0
    5.7729   -2.1436    0.0000 C   0  0  0  0  0  0  0  0  0  0  0  0
    4.1794    6.3336    0.0000 C   0  0  0  0  0  0  0  0  0  0  0  0
    2.0000    0.7806    0.0000 C   0  0  0  0  0  0  0  0  0  0  0  0
    4.5032   -0.9655    0.0000 C   0  0  0  0  0  0  0  0  0  0  0  0
    4.7980   -1.9211    0.0000 C   0  0  0  0  0  0  0  0  0  0  0  0
   11.6124    3.2157    0.0000 C   0  0  0  0  0  0  0  0  0  0  0  0
    6.0677   -3.0992    0.0000 C   0  0  0  0  0  0  0  0  0  0  0  0
    5.6823   -4.7878    0.0000 C   0  0  0  0  0  0  0  0  0  0  0  0
    6.6572   -5.0103    0.0000 C   0  0  0  0  0  0  0  0  0  0  0  0
    6.9520   -5.9659    0.0000 C   0  0  0  0  0  0  0  0  0  0  0  0
    5.2968   -6.4764    0.0000 C   0  0  0  0  0  0  0  0  0  0  0  0
    6.2718   -6.6990    0.0000 C   0  0  0  0  0  0  0  0  0  0  0  0
    6.9441    3.7223    0.0000 H   0  0  0  0  0  0  0  0  0  0  0  0
    5.8029    0.8144    0.0000 H   0  0  0  0  0  0  0  0  0  0  0  0
    4.8111    3.0643    0.0000 H   0  0  0  0  0  0  0  0  0  0  0  0
    4.7652    1.7005    0.0000 H   0  0  0  0  0  0  0  0  0  0  0  0
    7.1126    4.2657    0.0000 H   0  0  0  0  0  0  0  0  0  0  0  0
    6.8214    5.0076    0.0000 H   0  0  0  0  0  0  0  0  0  0  0  0
    4.8386   -0.0444    0.0000 H   0  0  0  0  0  0  0  0  0  0  0  0
    5.5568    0.3014    0.0000 H   0  0  0  0  0  0  0  0  0  0  0  0
    8.4666    3.8860    0.0000 H   0  0  0  0  0  0  0  0  0  0  0  0
    7.6696    3.8860    0.0000 H   0  0  0  0  0  0  0  0  0  0  0  0
    7.2129   -0.2162    0.0000 H   0  0  0  0  0  0  0  0  0  0  0  0
    7.3902    0.5609    0.0000 H   0  0  0  0  0  0  0  0  0  0  0  0
    4.1356    3.7747    0.0000 H   0  0  0  0  0  0  0  0  0  0  0  0
    3.7085    2.6862    0.0000 H   0  0  0  0  0  0  0  0  0  0  0  0
    6.4692    6.3020    0.0000 H   0  0  0  0  0  0  0  0  0  0  0  0
    4.7198    4.1082    0.0000 H   0  0  0  0  0  0  0  0  0  0  0  0
    3.9098    2.0444    0.0000 H   0  0  0  0  0  0  0  0  0  0  0  0
    3.7001   -0.7537    0.0000 H   0  0  0  0  0  0  0  0  0  0  0  0
    9.8002    4.0310    0.0000 H   0  0  0  0  0  0  0  0  0  0  0  0
    8.3972    1.6010    0.0000 H   0  0  0  0  0  0  0  0  0  0  0  0
    7.0576   -1.5485    0.0000 H   0  0  0  0  0  0  0  0  0  0  0  0
    5.0007    0.3600    0.0000 H   0  0  0  0  0  0  0  0  0  0  0  0
    5.2027    7.3120    0.0000 H   0  0  0  0  0  0  0  0  0  0  0  0
    3.4532    5.1183    0.0000 H   0  0  0  0  0  0  0  0  0  0  0  0
    2.2943    2.1655    0.0000 H   0  0  0  0  0  0  0  0  0  0  0  0
    2.0846   -0.6326    0.0000 H   0  0  0  0  0  0  0  0  0  0  0  0
    9.8002    0.7910    0.0000 H   0  0  0  0  0  0  0  0  0  0  0  0
    3.6947    6.7202    0.0000 H   0  0  0  0  0  0  0  0  0  0  0  0
    3.8988   -0.8276    0.0000 H   0  0  0  0  0  0  0  0  0  0  0  0
    1.3817    0.8270    0.0000 H   0  0  0  0  0  0  0  0  0  0  0  0
    4.3763   -2.3756    0.0000 H   0  0  0  0  0  0  0  0  0  0  0  0
   11.8050    3.8051    0.0000 H   0  0  0  0  0  0  0  0  0  0  0  0
   11.8050    1.0170    0.0000 H   0  0  0  0  0  0  0  0  0  0  0  0
    4.7830   -3.6943    0.0000 H   0  0  0  0  0  0  0  0  0  0  0  0
    7.0789   -4.5559    0.0000 H   0  0  0  0  0  0  0  0  0  0  0  0
    7.5564   -6.1039    0.0000 H   0  0  0  0  0  0  0  0  0  0  0  0
    4.8751   -6.9309    0.0000 H   0  0  0  0  0  0  0  0  0  0  0  0
    6.4545   -7.2914    0.0000 H   0  0  0  0  0  0  0  0  0  0  0  0
 13  1  1  1  0  0  0
  1 63  1  0  0  0  0
 14  2  1  6  0  0  0
  2 64  1  0  0  0  0
  3 17  2  0  0  0  0
  4 45  2  0  0  0  0
  5 11  1  0  0  0  0
  5 17  1  0  0  0  0
  5 18  1  0  0  0  0
  6 12  1  0  0  0  0
  6 17  1  0  0  0  0
  6 19  1  0  0  0  0
  7  8  1  0  0  0  0
  7 38  1  0  0  0  0
  7 83  1  0  0  0  0
  8 44  2  0  0  0  0
  9 45  1  0  0  0  0
  9 46  1  0  0  0  0
  9 84  1  0  0  0  0
 10 46  1  0  0  0  0
 10 49  2  0  0  0  0
 11 13  1  0  0  0  0
 11 15  1  1  0  0  0
 11 51  1  0  0  0  0
 12 14  1  0  0  0  0
 12 16  1  6  0  0  0
 12 52  1  0  0  0  0
 13 14  1  0  0  0  0
 13 53  1  0  0  0  0
 14 54  1  0  0  0  0
 15 20  1  0  0  0  0
 15 55  1  0  0  0  0
 15 56  1  0  0  0  0
 16 21  1  0  0  0  0
 16 57  1  0  0  0  0
 16 58  1  0  0  0  0
 18 22  1  0  0  0  0
 18 59  1  0  0  0  0
 18 60  1  0  0  0  0
 19 23  1  0  0  0  0
 19 61  1  0  0  0  0
 19 62  1  0  0  0  0
 20 24  2  0  0  0  0
 20 25  1  0  0  0  0
 21 26  2  0  0  0  0
 21 27  1  0  0  0  0
 22 28  2  0  0  0  0
 22 29  1  0  0  0  0
 23 30  2  0  0  0  0
 23 31  1  0  0  0  0
 24 33  1  0  0  0  0
 24 65  1  0  0  0  0
 25 34  2  0  0  0  0
 25 66  1  0  0  0  0
 26 35  1  0  0  0  0
 26 67  1  0  0  0  0
 27 36  2  0  0  0  0
 27 68  1  0  0  0  0
 28 32  1  0  0  0  0
 28 69  1  0  0  0  0
 29 37  2  0  0  0  0
 29 70  1  0  0  0  0
 30 39  1  0  0  0  0
 30 71  1  0  0  0  0
 31 42  2  0  0  0  0
 31 72  1  0  0  0  0
 32 38  2  0  0  0  0
 32 44  1  0  0  0  0
 33 40  2  0  0  0  0
 33 73  1  0  0  0  0
 34 40  1  0  0  0  0
 34 74  1  0  0  0  0
 35 41  2  0  0  0  0
 35 75  1  0  0  0  0
 36 41  1  0  0  0  0
 36 76  1  0  0  0  0
 37 38  1  0  0  0  0
 37 77  1  0  0  0  0
 39 43  2  0  0  0  0
 39 45  1  0  0  0  0
 40 78  1  0  0  0  0
 41 80  1  0  0  0  0
 42 43  1  0  0  0  0
 42 79  1  0  0  0  0
 43 81  1  0  0  0  0
 44 82  1  0  0  0  0
 46 47  2  0  0  0  0
 47 48  1  0  0  0  0
 47 85  1  0  0  0  0
 48 50  2  0  0  0  0
 48 86  1  0  0  0  0
 49 50  1  0  0  0  0
 49 87  1  0  0  0  0
 50 88  1  0  0  0  0
M  END
> <PUBCHEM_COMPOUND_CID>
515876
> <PUBCHEM_COMPOUND_CANONICALIZED>
1
> <PUBCHEM_CACTVS_COMPLEXITY>
1100
> <PUBCHEM_CACTVS_HBOND_ACCEPTOR>
6
> <PUBCHEM_CACTVS_HBOND_DONOR>
4
> <PUBCHEM_CACTVS_ROTATABLE_BOND>
10
> <PUBCHEM_CACTVS_SUBSKEYS>
AAADcfB/uAAAAAAAAAAAAAAAAAAAAWAAAAA8YMGCBYAAAFgB/AAAHgAYCAAADDzhngY98PPrEgCqAzd3dACShCk1giAZ+SE4ZNiLMPLA3dGE5QhunwLZyaeYyfCOCAACAAACAAAQAAQAAAQAAAAAAAAAAA==
> <PUBCHEM_IUPAC_OPENEYE_NAME>
3-[[(4R,5S,6S,7R)-4,7-dibenzyl-5,6-dihydroxy-3-(1H-indazol-5-ylmethyl)-2-oxo-1,3-diazepan-1-yl]methyl]-N-(2-pyridyl)benzamide
> <PUBCHEM_IUPAC_CAS_NAME>
3-[[(4R,5S,6S,7R)-5,6-dihydroxy-3-(1H-indazol-5-ylmethyl)-2-oxo-4,7-bis(phenylmethyl)-1,3-diazepan-1-yl]methyl]-N-(2-pyridinyl)benzamide
> <PUBCHEM_IUPAC_NAME_MARKUP>
3-[[(4<I>R</I>,5<I>S</I>,6<I>S</I>,7<I>R</I>)-4,7-dibenzyl-5,6-dihydroxy-3-(1<I>H</I>-indazol-5-ylmethyl)-2-oxo-1,3-diazepan-1-yl]methyl]-<I>N</I>-pyridin-2-ylbenzamide
> <PUBCHEM_IUPAC_NAME>
3-[[(4R,5S,6S,7R)-4,7-dibenzyl-5,6-dihydroxy-3-(1H-indazol-5-ylmethyl)-2-oxo-1,3-diazepan-1-yl]methyl]-N-pyridin-2-ylbenzamide
> <PUBCHEM_IUPAC_SYSTEMATIC_NAME>
3-[[(4R,5S,6S,7R)-3-(1H-indazol-5-ylmethyl)-5,6-bis(oxidanyl)-2-oxidanylidene-4,7-bis(phenylmethyl)-1,3-diazepan-1-yl]methyl]-N-pyridin-2-yl-benzamide
> <PUBCHEM_IUPAC_TRADITIONAL_NAME>
3-[[(4R,5S,6S,7R)-4,7-dibenzyl-5,6-dihydroxy-3-(1H-indazol-5-ylmethyl)-2-keto-1,3-diazepan-1-yl]methyl]-N-(2-pyridyl)benzamide
> <PUBCHEM_IUPAC_INCHI>
InChI=1S/C40H38N6O4/c47-37-34(22-27-10-3-1-4-11-27)45(25-29-14-9-15-31(20-29)39(49)43-36-16-7-8-19-41-36)40(50)46(26-30-17-18-33-32(21-30)24-42-44-33)35(38(37)48)23-28-12-5-2-6-13-28/h1-21,24,34-35,37-38,47-48H,22-23,25-26H2,(H,42,44)(H,41,43,49)/t34-,35-,37+,38+/m1/s1
> <PUBCHEM_IUPAC_INCHIKEY>
MYLPKRNDNXIKCB-PASMDFPHSA-N
> <PUBCHEM_XLOGP3_AA>
5
> <PUBCHEM_EXACT_MASS>
666.29545371
> <PUBCHEM_MOLECULAR_FORMULA>
C40H38N6O4
> <PUBCHEM_MOLECULAR_WEIGHT>
666.8
> <PUBCHEM_OPENEYE_CAN_SMILES>
C1=CC=C(C=C1)CC2C(C(C(N(C(=O)N2CC3=CC(=CC=C3)C(=O)NC4=CC=CC=N4)CC5=CC6=C(C=C5)NN=C6)CC7=CC=CC=C7)O)O
> <PUBCHEM_OPENEYE_ISO_SMILES>
C1=CC=C(C=C1)C[C@@H]2[C@@H]([C@H]([C@H](N(C(=O)N2CC3=CC(=CC=C3)C(=O)NC4=CC=CC=N4)CC5=CC6=C(C=C5)NN=C6)CC7=CC=CC=C7)O)O
> <PUBCHEM_CACTVS_TPSA>
135
> <PUBCHEM_MONOISOTOPIC_WEIGHT>
666.29545371
> <PUBCHEM_TOTAL_CHARGE>
0
> <PUBCHEM_HEAVY_ATOM_COUNT>
50
> <PUBCHEM_ATOM_DEF_STEREO_COUNT>
4
> <PUBCHEM_ATOM_UDEF_STEREO_COUNT>
0
> <PUBCHEM_BOND_DEF_STEREO_COUNT>
0
> <PUBCHEM_BOND_UDEF_STEREO_COUNT>
0
> <PUBCHEM_ISOTOPIC_ATOM_COUNT>
0
> <PUBCHEM_COMPONENT_COUNT>
1
> <PUBCHEM_CACTVS_TAUTO_COUNT>
-1
> <PUBCHEM_COORDINATE_TYPE>
1
5
255
> <PUBCHEM_BONDANNOTATIONS>
13  1  5
10  46  8
10  49  8
11  15  5
12  16  6
14  2  6
20  24  8
20  25  8
21  26  8
21  27  8
22  28  8
22  29  8
23  30  8
23  31  8
24  33  8
25  34  8
26  35  8
27  36  8
28  32  8
29  37  8
30  39  8
31  42  8
32  38  8
32  44  8
33  40  8
34  40  8
35  41  8
36  41  8
37  38  8
39  43  8
42  43  8
46  47  8
47  48  8
48  50  8
49  50  8
7  38  8
7  8  8
8  44  8
$$$$
