515898
  -OEChem-10302200282D
 96100  0     1  0  0  0  0  0999 V2000
    5.5321    0.0670    0.0000 O   0  0  0  0  0  0  0  0  0  0  0  0
    7.2641    3.0670    0.0000 O   0  0  0  0  0  0  0  0  0  0  0  0
    4.4494   -4.1354    0.0000 O   0  0  0  0  0  0  0  0  0  0  0  0
    5.5321   -0.9330    0.0000 O   0  0  0  0  0  0  0  0  0  0  0  0
    6.3981   -4.4330    0.0000 O   0  0  0  0  0  0  0  0  0  0  0  0
    5.5321    2.0670    0.0000 N   0  0  3  0  0  0  0  0  0  0  0  0
    6.3981    4.5670    0.0000 N   0  0  0  0  0  0  0  0  0  0  0  0
    7.2641   -0.9330    0.0000 N   0  0  0  0  0  0  0  0  0  0  0  0
    7.2641   -2.9330    0.0000 N   0  0  0  0  0  0  0  0  0  0  0  0
    8.9962   -3.9330    0.0000 N   0  0  0  0  0  0  0  0  0  0  0  0
    8.9962   -5.9330    0.0000 N   0  0  0  0  0  0  0  0  0  0  0  0
    3.8000    3.0670    0.0000 C   0  0  2  0  0  0  0  0  0  0  0  0
    3.8000    2.0670    0.0000 C   0  0  1  0  0  0  0  0  0  0  0  0
    4.6660    3.5670    0.0000 C   0  0  0  0  0  0  0  0  0  0  0  0
    4.6660    1.5670    0.0000 C   0  0  0  0  0  0  0  0  0  0  0  0
    2.9061    3.6016    0.0000 C   0  0  0  0  0  0  0  0  0  0  0  0
    2.9061    1.5323    0.0000 C   0  0  0  0  0  0  0  0  0  0  0  0
    5.5321    3.0670    0.0000 C   0  0  1  0  0  0  0  0  0  0  0  0
    2.0000    3.0878    0.0000 C   0  0  0  0  0  0  0  0  0  0  0  0
    2.0000    2.0462    0.0000 C   0  0  0  0  0  0  0  0  0  0  0  0
    6.3981    1.5670    0.0000 C   0  0  0  0  0  0  0  0  0  0  0  0
    6.3981    3.5670    0.0000 C   0  0  0  0  0  0  0  0  0  0  0  0
    6.3981    0.5670    0.0000 C   0  0  2  0  0  0  0  0  0  0  0  0
    7.2641    0.0670    0.0000 C   0  0  2  0  0  0  0  0  0  0  0  0
    7.2641    5.0670    0.0000 C   0  0  0  0  0  0  0  0  0  0  0  0
    8.1301    0.5670    0.0000 C   0  0  0  0  0  0  0  0  0  0  0  0
    8.1301    5.5670    0.0000 C   0  0  0  0  0  0  0  0  0  0  0  0
    6.7641    5.9330    0.0000 C   0  0  0  0  0  0  0  0  0  0  0  0
    7.7641    4.2010    0.0000 C   0  0  0  0  0  0  0  0  0  0  0  0
    6.3981   -2.4330    0.0000 C   0  0  2  0  0  0  0  0  0  0  0  0
    6.3981   -1.4330    0.0000 C   0  0  0  0  0  0  0  0  0  0  0  0
    5.5321   -2.9330    0.0000 C   0  0  1  0  0  0  0  0  0  0  0  0
    8.9962    0.0670    0.0000 C   0  0  0  0  0  0  0  0  0  0  0  0
    4.6185   -2.5263    0.0000 C   0  0  0  0  0  0  0  0  0  0  0  0
    5.4275   -3.9275    0.0000 C   0  0  0  0  0  0  0  0  0  0  0  0
    3.9494   -3.2694    0.0000 C   0  0  0  0  0  0  0  0  0  0  0  0
    9.8622    0.5670    0.0000 C   0  0  0  0  0  0  0  0  0  0  0  0
    8.9962   -0.9330    0.0000 C   0  0  0  0  0  0  0  0  0  0  0  0
   10.7282    0.0670    0.0000 C   0  0  0  0  0  0  0  0  0  0  0  0
    9.8622   -1.4330    0.0000 C   0  0  0  0  0  0  0  0  0  0  0  0
    7.2641   -3.9330    0.0000 C   0  0  0  0  0  0  0  0  0  0  0  0
   10.7282   -0.9330    0.0000 C   0  0  0  0  0  0  0  0  0  0  0  0
    8.1301   -4.4330    0.0000 C   0  0  0  0  0  0  0  0  0  0  0  0
    8.1301   -5.4330    0.0000 C   0  0  0  0  0  0  0  0  0  0  0  0
    9.8622   -4.4330    0.0000 C   0  0  0  0  0  0  0  0  0  0  0  0
    9.8622   -5.4330    0.0000 C   0  0  0  0  0  0  0  0  0  0  0  0
    3.8066    3.9170    0.0000 H   0  0  0  0  0  0  0  0  0  0  0  0
    3.8066    1.2170    0.0000 H   0  0  0  0  0  0  0  0  0  0  0  0
    5.0646    4.0419    0.0000 H   0  0  0  0  0  0  0  0  0  0  0  0
    4.2675    4.0419    0.0000 H   0  0  0  0  0  0  0  0  0  0  0  0
    4.2675    1.0920    0.0000 H   0  0  0  0  0  0  0  0  0  0  0  0
    5.0646    1.0920    0.0000 H   0  0  0  0  0  0  0  0  0  0  0  0
    3.3107    4.0714    0.0000 H   0  0  0  0  0  0  0  0  0  0  0  0
    2.5124    4.0807    0.0000 H   0  0  0  0  0  0  0  0  0  0  0  0
    2.5124    1.0533    0.0000 H   0  0  0  0  0  0  0  0  0  0  0  0
    3.3107    1.0625    0.0000 H   0  0  0  0  0  0  0  0  0  0  0  0
    6.0690    2.7570    0.0000 H   0  0  0  0  0  0  0  0  0  0  0  0
    1.7909    3.6715    0.0000 H   0  0  0  0  0  0  0  0  0  0  0  0
    1.3891    2.9817    0.0000 H   0  0  0  0  0  0  0  0  0  0  0  0
    1.3891    2.1523    0.0000 H   0  0  0  0  0  0  0  0  0  0  0  0
    1.7909    1.4625    0.0000 H   0  0  0  0  0  0  0  0  0  0  0  0
    7.0087    1.4593    0.0000 H   0  0  0  0  0  0  0  0  0  0  0  0
    6.6101    2.1496    0.0000 H   0  0  0  0  0  0  0  0  0  0  0  0
    6.3981   -0.0530    0.0000 H   0  0  0  0  0  0  0  0  0  0  0  0
    7.8010   -0.2430    0.0000 H   0  0  0  0  0  0  0  0  0  0  0  0
    5.8612    4.8770    0.0000 H   0  0  0  0  0  0  0  0  0  0  0  0
    8.5287    1.0419    0.0000 H   0  0  0  0  0  0  0  0  0  0  0  0
    7.7316    1.0419    0.0000 H   0  0  0  0  0  0  0  0  0  0  0  0
    7.8010   -1.2430    0.0000 H   0  0  0  0  0  0  0  0  0  0  0  0
    4.9951    0.3770    0.0000 H   0  0  0  0  0  0  0  0  0  0  0  0
    8.4401    5.0300    0.0000 H   0  0  0  0  0  0  0  0  0  0  0  0
    8.6671    5.8770    0.0000 H   0  0  0  0  0  0  0  0  0  0  0  0
    7.8201    6.1039    0.0000 H   0  0  0  0  0  0  0  0  0  0  0  0
    7.3010    6.2430    0.0000 H   0  0  0  0  0  0  0  0  0  0  0  0
    6.4541    6.4700    0.0000 H   0  0  0  0  0  0  0  0  0  0  0  0
    6.2272    5.6230    0.0000 H   0  0  0  0  0  0  0  0  0  0  0  0
    7.2272    3.8910    0.0000 H   0  0  0  0  0  0  0  0  0  0  0  0
    8.0741    3.6640    0.0000 H   0  0  0  0  0  0  0  0  0  0  0  0
    8.3010    4.5110    0.0000 H   0  0  0  0  0  0  0  0  0  0  0  0
    6.3981   -3.0530    0.0000 H   0  0  0  0  0  0  0  0  0  0  0  0
    5.4876   -2.0842    0.0000 H   0  0  0  0  0  0  0  0  0  0  0  0
    4.9285   -1.9893    0.0000 H   0  0  0  0  0  0  0  0  0  0  0  0
    4.1169   -2.1618    0.0000 H   0  0  0  0  0  0  0  0  0  0  0  0
    5.4923   -4.5441    0.0000 H   0  0  0  0  0  0  0  0  0  0  0  0
    6.0475   -3.9275    0.0000 H   0  0  0  0  0  0  0  0  0  0  0  0
    3.5345   -2.8087    0.0000 H   0  0  0  0  0  0  0  0  0  0  0  0
    3.4478   -3.6338    0.0000 H   0  0  0  0  0  0  0  0  0  0  0  0
    7.8010   -2.6230    0.0000 H   0  0  0  0  0  0  0  0  0  0  0  0
    9.8622    1.1870    0.0000 H   0  0  0  0  0  0  0  0  0  0  0  0
    8.4592   -1.2430    0.0000 H   0  0  0  0  0  0  0  0  0  0  0  0
   11.2651    0.3770    0.0000 H   0  0  0  0  0  0  0  0  0  0  0  0
    9.8622   -2.0530    0.0000 H   0  0  0  0  0  0  0  0  0  0  0  0
   11.2651   -1.2430    0.0000 H   0  0  0  0  0  0  0  0  0  0  0  0
    7.5932   -5.7430    0.0000 H   0  0  0  0  0  0  0  0  0  0  0  0
   10.3991   -4.1230    0.0000 H   0  0  0  0  0  0  0  0  0  0  0  0
   10.3991   -5.7430    0.0000 H   0  0  0  0  0  0  0  0  0  0  0  0
 23  1  1  6  0  0  0
  1 70  1  0  0  0  0
  2 22  2  0  0  0  0
  3 35  1  0  0  0  0
  3 36  1  0  0  0  0
  4 31  2  0  0  0  0
  5 41  2  0  0  0  0
  6 15  1  0  0  0  0
  6 18  1  0  0  0  0
  6 21  1  0  0  0  0
  7 22  1  0  0  0  0
  7 25  1  0  0  0  0
  7 66  1  0  0  0  0
 24  8  1  6  0  0  0
  8 31  1  0  0  0  0
  8 69  1  0  0  0  0
 30  9  1  1  0  0  0
  9 41  1  0  0  0  0
  9 88  1  0  0  0  0
 10 43  2  0  0  0  0
 10 45  1  0  0  0  0
 11 44  2  0  0  0  0
 11 46  1  0  0  0  0
 12 13  1  0  0  0  0
 12 14  1  0  0  0  0
 12 16  1  0  0  0  0
 12 47  1  6  0  0  0
 13 15  1  0  0  0  0
 13 17  1  0  0  0  0
 13 48  1  6  0  0  0
 14 18  1  0  0  0  0
 14 49  1  0  0  0  0
 14 50  1  0  0  0  0
 15 51  1  0  0  0  0
 15 52  1  0  0  0  0
 16 19  1  0  0  0  0
 16 53  1  0  0  0  0
 16 54  1  0  0  0  0
 17 20  1  0  0  0  0
 17 55  1  0  0  0  0
 17 56  1  0  0  0  0
 18 22  1  1  0  0  0
 18 57  1  0  0  0  0
 19 20  1  0  0  0  0
 19 58  1  0  0  0  0
 19 59  1  0  0  0  0
 20 60  1  0  0  0  0
 20 61  1  0  0  0  0
 21 23  1  0  0  0  0
 21 62  1  0  0  0  0
 21 63  1  0  0  0  0
 23 24  1  0  0  0  0
 23 64  1  0  0  0  0
 24 26  1  0  0  0  0
 24 65  1  0  0  0  0
 25 27  1  0  0  0  0
 25 28  1  0  0  0  0
 25 29  1  0  0  0  0
 26 33  1  0  0  0  0
 26 67  1  0  0  0  0
 26 68  1  0  0  0  0
 27 71  1  0  0  0  0
 27 72  1  0  0  0  0
 27 73  1  0  0  0  0
 28 74  1  0  0  0  0
 28 75  1  0  0  0  0
 28 76  1  0  0  0  0
 29 77  1  0  0  0  0
 29 78  1  0  0  0  0
 29 79  1  0  0  0  0
 30 31  1  0  0  0  0
 30 32  1  0  0  0  0
 30 80  1  0  0  0  0
 32 34  1  0  0  0  0
 32 35  1  0  0  0  0
 32 81  1  1  0  0  0
 33 37  2  0  0  0  0
 33 38  1  0  0  0  0
 34 36  1  0  0  0  0
 34 82  1  0  0  0  0
 34 83  1  0  0  0  0
 35 84  1  0  0  0  0
 35 85  1  0  0  0  0
 36 86  1  0  0  0  0
 36 87  1  0  0  0  0
 37 39  1  0  0  0  0
 37 89  1  0  0  0  0
 38 40  2  0  0  0  0
 38 90  1  0  0  0  0
 39 42  2  0  0  0  0
 39 91  1  0  0  0  0
 40 42  1  0  0  0  0
 40 92  1  0  0  0  0
 41 43  1  0  0  0  0
 42 93  1  0  0  0  0
 43 44  1  0  0  0  0
 44 94  1  0  0  0  0
 45 46  2  0  0  0  0
 45 95  1  0  0  0  0
 46 96  1  0  0  0  0
M  END
> <PUBCHEM_COMPOUND_CID>
515898
> <PUBCHEM_COMPOUND_CANONICALIZED>
1
> <PUBCHEM_CACTVS_COMPLEXITY>
1020
> <PUBCHEM_CACTVS_HBOND_ACCEPTOR>
8
> <PUBCHEM_CACTVS_HBOND_DONOR>
4
> <PUBCHEM_CACTVS_ROTATABLE_BOND>
12
> <PUBCHEM_CACTVS_SUBSKEYS>
AAADcfB/uAAAAAAAAAAAAAAAAAAAASAAAAA8eIEAAAAAAACxwAAAHgAQCAAADbzhngY+gJPIFgCoAzV3VACCgCQ3EiAI2IG4dMgKcHrA0TGWYIgmlgDYiMe63KKOgAAAAAAAAAAAAAAAACAAAAAAAAAAAA==
> <PUBCHEM_IUPAC_OPENEYE_NAME>
(3S,4aS,8aS)-N-tert-butyl-2-[(2R,3S)-2-hydroxy-4-phenyl-3-[[(2S)-2-(pyrazine-2-carbonylamino)-2-[(3R)-tetrahydrofuran-3-yl]acetyl]amino]butyl]-3,4,4a,5,6,7,8,8a-octahydro-1H-isoquinoline-3-carboxamide
> <PUBCHEM_IUPAC_CAS_NAME>
(3S,4aS,8aS)-N-tert-butyl-2-[(2R,3S)-2-hydroxy-3-[[(2S)-1-oxo-2-[(3R)-3-oxolanyl]-2-[[oxo(2-pyrazinyl)methyl]amino]ethyl]amino]-4-phenylbutyl]-3,4,4a,5,6,7,8,8a-octahydro-1H-isoquinoline-3-carboxamide
> <PUBCHEM_IUPAC_NAME_MARKUP>
(3<I>S</I>,4<I>a</I><I>S</I>,8<I>a</I><I>S</I>)-<I>N</I>-<I>tert</I>-butyl-2-[(2<I>R</I>,3<I>S</I>)-2-hydroxy-3-[[(2<I>S</I>)-2-[(3<I>R</I>)-oxolan-3-yl]-2-(pyrazine-2-carbonylamino)acetyl]amino]-4-phenylbutyl]-3,4,4<I>a</I>,5,6,7,8,8<I>a</I>-octahydro-1<I>H</I>-isoquinoline-3-carboxamide
> <PUBCHEM_IUPAC_NAME>
(3S,4aS,8aS)-N-tert-butyl-2-[(2R,3S)-2-hydroxy-3-[[(2S)-2-[(3R)-oxolan-3-yl]-2-(pyrazine-2-carbonylamino)acetyl]amino]-4-phenylbutyl]-3,4,4a,5,6,7,8,8a-octahydro-1H-isoquinoline-3-carboxamide
> <PUBCHEM_IUPAC_SYSTEMATIC_NAME>
(3S,4aS,8aS)-N-tert-butyl-2-[(2R,3S)-2-oxidanyl-3-[[(2S)-2-[(3R)-oxolan-3-yl]-2-(pyrazin-2-ylcarbonylamino)ethanoyl]amino]-4-phenyl-butyl]-3,4,4a,5,6,7,8,8a-octahydro-1H-isoquinoline-3-carboxamide
> <PUBCHEM_IUPAC_TRADITIONAL_NAME>
(3S,4aS,8aS)-N-tert-butyl-2-[(2R,3S)-2-hydroxy-4-phenyl-3-[[(2S)-2-(pyrazinoylamino)-2-[(3R)-tetrahydrofuran-3-yl]acetyl]amino]butyl]-3,4,4a,5,6,7,8,8a-octahydro-1H-isoquinoline-3-carboxamide
> <PUBCHEM_IUPAC_INCHI>
InChI=1S/C35H50N6O5/c1-35(2,3)40-33(44)29-18-24-11-7-8-12-25(24)20-41(29)21-30(42)27(17-23-9-5-4-6-10-23)38-34(45)31(26-13-16-46-22-26)39-32(43)28-19-36-14-15-37-28/h4-6,9-10,14-15,19,24-27,29-31,42H,7-8,11-13,16-18,20-22H2,1-3H3,(H,38,45)(H,39,43)(H,40,44)/t24-,25+,26-,27-,29-,30+,31-/m0/s1
> <PUBCHEM_IUPAC_INCHIKEY>
DBSUAMMVSYETMT-ULAXQUARSA-N
> <PUBCHEM_XLOGP3_AA>
3.2
> <PUBCHEM_EXACT_MASS>
634.38426872
> <PUBCHEM_MOLECULAR_FORMULA>
C35H50N6O5
> <PUBCHEM_MOLECULAR_WEIGHT>
634.8
> <PUBCHEM_OPENEYE_CAN_SMILES>
CC(C)(C)NC(=O)C1CC2CCCCC2CN1CC(C(CC3=CC=CC=C3)NC(=O)C(C4CCOC4)NC(=O)C5=NC=CN=C5)O
> <PUBCHEM_OPENEYE_ISO_SMILES>
CC(C)(C)NC(=O)[C@@H]1C[C@@H]2CCCC[C@@H]2CN1C[C@H]([C@H](CC3=CC=CC=C3)NC(=O)[C@H]([C@H]4CCOC4)NC(=O)C5=NC=CN=C5)O
> <PUBCHEM_CACTVS_TPSA>
146
> <PUBCHEM_MONOISOTOPIC_WEIGHT>
634.38426872
> <PUBCHEM_TOTAL_CHARGE>
0
> <PUBCHEM_HEAVY_ATOM_COUNT>
46
> <PUBCHEM_ATOM_DEF_STEREO_COUNT>
7
> <PUBCHEM_ATOM_UDEF_STEREO_COUNT>
0
> <PUBCHEM_BOND_DEF_STEREO_COUNT>
0
> <PUBCHEM_BOND_UDEF_STEREO_COUNT>
0
> <PUBCHEM_ISOTOPIC_ATOM_COUNT>
0
> <PUBCHEM_COMPONENT_COUNT>
1
> <PUBCHEM_CACTVS_TAUTO_COUNT>
-1
> <PUBCHEM_COORDINATE_TYPE>
1
5
255
> <PUBCHEM_BONDANNOTATIONS>
23  1  6
10  43  8
10  45  8
11  44  8
11  46  8
12  47  6
13  48  6
18  22  5
32  81  5
33  37  8
33  38  8
37  39  8
38  40  8
39  42  8
40  42  8
43  44  8
45  46  8
24  8  6
30  9  5
$$$$
