515860
  -OEChem-10302200282D
 77 82  0     1  0  0  0  0  0999 V2000
    6.0677   -4.8254    0.0000 F   0  0  0  0  0  0  0  0  0  0  0  0
    4.7401    2.1864    0.0000 O   0  0  0  0  0  0  0  0  0  0  0  0
    4.0577    0.4478    0.0000 O   0  0  0  0  0  0  0  0  0  0  0  0
    8.2077   -0.1777    0.0000 O   0  0  0  0  0  0  0  0  0  0  0  0
    7.2021    1.1848    0.0000 N   0  0  0  0  0  0  0  0  0  0  0  0
    6.5438   -0.4926    0.0000 N   0  0  0  0  0  0  0  0  0  0  0  0
   11.6124   -0.1199    0.0000 N   0  0  0  0  0  0  0  0  0  0  0  0
   12.1960    0.6848    0.0000 N   0  0  0  0  0  0  0  0  0  0  0  0
    4.1178   -4.3803    0.0000 N   0  0  0  0  0  0  0  0  0  0  0  0
    6.3758    1.7482    0.0000 C   0  0  1  0  0  0  0  0  0  0  0  0
    5.5549   -0.3435    0.0000 C   0  0  1  0  0  0  0  0  0  0  0  0
    5.4203    1.4534    0.0000 C   0  0  1  0  0  0  0  0  0  0  0  0
    5.0549    0.5225    0.0000 C   0  0  1  0  0  0  0  0  0  0  0  0
    6.5249    2.7370    0.0000 C   0  0  0  0  0  0  0  0  0  0  0  0
    4.9916   -1.1698    0.0000 C   0  0  0  0  0  0  0  0  0  0  0  0
    7.2768    0.1876    0.0000 C   0  0  0  0  0  0  0  0  0  0  0  0
    8.0681    1.6848    0.0000 C   0  0  0  0  0  0  0  0  0  0  0  0
    6.8385   -1.4481    0.0000 C   0  0  0  0  0  0  0  0  0  0  0  0
    5.7431    3.3605    0.0000 C   0  0  0  0  0  0  0  0  0  0  0  0
    3.9944   -1.0950    0.0000 C   0  0  0  0  0  0  0  0  0  0  0  0
    8.9341    1.1848    0.0000 C   0  0  0  0  0  0  0  0  0  0  0  0
    6.1583   -2.1812    0.0000 C   0  0  0  0  0  0  0  0  0  0  0  0
    5.8921    4.3493    0.0000 C   0  0  0  0  0  0  0  0  0  0  0  0
    4.8122    2.9951    0.0000 C   0  0  0  0  0  0  0  0  0  0  0  0
    3.5605   -0.1940    0.0000 C   0  0  0  0  0  0  0  0  0  0  0  0
    3.4311   -1.9213    0.0000 C   0  0  0  0  0  0  0  0  0  0  0  0
    9.8002    1.6848    0.0000 C   0  0  0  0  0  0  0  0  0  0  0  0
    8.9341    0.1848    0.0000 C   0  0  0  0  0  0  0  0  0  0  0  0
    6.4531   -3.1368    0.0000 C   0  0  0  0  0  0  0  0  0  0  0  0
    5.1834   -1.9586    0.0000 C   0  0  0  0  0  0  0  0  0  0  0  0
   10.6662    1.1848    0.0000 C   0  0  0  0  0  0  0  0  0  0  0  0
    5.1103    4.9728    0.0000 C   0  0  0  0  0  0  0  0  0  0  0  0
    4.0304    3.6186    0.0000 C   0  0  0  0  0  0  0  0  0  0  0  0
    2.5633   -0.1193    0.0000 C   0  0  0  0  0  0  0  0  0  0  0  0
    2.4339   -1.8465    0.0000 C   0  0  0  0  0  0  0  0  0  0  0  0
    9.8002   -0.3152    0.0000 C   0  0  0  0  0  0  0  0  0  0  0  0
   10.6662    0.1848    0.0000 C   0  0  0  0  0  0  0  0  0  0  0  0
    4.1794    4.6074    0.0000 C   0  0  0  0  0  0  0  0  0  0  0  0
    2.0000   -0.9456    0.0000 C   0  0  0  0  0  0  0  0  0  0  0  0
    5.7729   -3.8698    0.0000 C   0  0  0  0  0  0  0  0  0  0  0  0
    4.5032   -2.6917    0.0000 C   0  0  0  0  0  0  0  0  0  0  0  0
    4.7980   -3.6473    0.0000 C   0  0  0  0  0  0  0  0  0  0  0  0
   11.6124    1.4896    0.0000 C   0  0  0  0  0  0  0  0  0  0  0  0
    6.9441    1.9961    0.0000 H   0  0  0  0  0  0  0  0  0  0  0  0
    5.8029   -0.9118    0.0000 H   0  0  0  0  0  0  0  0  0  0  0  0
    4.8111    1.3381    0.0000 H   0  0  0  0  0  0  0  0  0  0  0  0
    4.7652   -0.0256    0.0000 H   0  0  0  0  0  0  0  0  0  0  0  0
    7.1126    2.5395    0.0000 H   0  0  0  0  0  0  0  0  0  0  0  0
    6.8214    3.2815    0.0000 H   0  0  0  0  0  0  0  0  0  0  0  0
    4.8386   -1.7706    0.0000 H   0  0  0  0  0  0  0  0  0  0  0  0
    5.5568   -1.4248    0.0000 H   0  0  0  0  0  0  0  0  0  0  0  0
    8.4666    2.1598    0.0000 H   0  0  0  0  0  0  0  0  0  0  0  0
    7.6696    2.1598    0.0000 H   0  0  0  0  0  0  0  0  0  0  0  0
    7.2129   -1.9424    0.0000 H   0  0  0  0  0  0  0  0  0  0  0  0
    7.3902   -1.1653    0.0000 H   0  0  0  0  0  0  0  0  0  0  0  0
    4.1356    2.0485    0.0000 H   0  0  0  0  0  0  0  0  0  0  0  0
    3.7085    0.9601    0.0000 H   0  0  0  0  0  0  0  0  0  0  0  0
    6.4692    4.5758    0.0000 H   0  0  0  0  0  0  0  0  0  0  0  0
    4.7198    2.3820    0.0000 H   0  0  0  0  0  0  0  0  0  0  0  0
    3.9098    0.3182    0.0000 H   0  0  0  0  0  0  0  0  0  0  0  0
    3.7001   -2.4799    0.0000 H   0  0  0  0  0  0  0  0  0  0  0  0
    9.8002    2.3048    0.0000 H   0  0  0  0  0  0  0  0  0  0  0  0
    8.3972   -0.1252    0.0000 H   0  0  0  0  0  0  0  0  0  0  0  0
    7.0576   -3.2747    0.0000 H   0  0  0  0  0  0  0  0  0  0  0  0
    5.0007   -1.3662    0.0000 H   0  0  0  0  0  0  0  0  0  0  0  0
    5.2027    5.5859    0.0000 H   0  0  0  0  0  0  0  0  0  0  0  0
    3.4532    3.3921    0.0000 H   0  0  0  0  0  0  0  0  0  0  0  0
    2.2943    0.4393    0.0000 H   0  0  0  0  0  0  0  0  0  0  0  0
    2.0846   -2.3588    0.0000 H   0  0  0  0  0  0  0  0  0  0  0  0
    9.8002   -0.9352    0.0000 H   0  0  0  0  0  0  0  0  0  0  0  0
    3.6947    4.9940    0.0000 H   0  0  0  0  0  0  0  0  0  0  0  0
    1.3817   -0.8992    0.0000 H   0  0  0  0  0  0  0  0  0  0  0  0
    3.8988   -2.5537    0.0000 H   0  0  0  0  0  0  0  0  0  0  0  0
   11.8050    2.0789    0.0000 H   0  0  0  0  0  0  0  0  0  0  0  0
   11.8050   -0.7092    0.0000 H   0  0  0  0  0  0  0  0  0  0  0  0
    4.3006   -4.9728    0.0000 H   0  0  0  0  0  0  0  0  0  0  0  0
    3.5134   -4.2424    0.0000 H   0  0  0  0  0  0  0  0  0  0  0  0
  1 40  1  0  0  0  0
 12  2  1  1  0  0  0
  2 56  1  0  0  0  0
 13  3  1  6  0  0  0
  3 57  1  0  0  0  0
  4 16  2  0  0  0  0
  5 10  1  0  0  0  0
  5 16  1  0  0  0  0
  5 17  1  0  0  0  0
  6 11  1  0  0  0  0
  6 16  1  0  0  0  0
  6 18  1  0  0  0  0
  7  8  1  0  0  0  0
  7 37  1  0  0  0  0
  7 75  1  0  0  0  0
  8 43  2  0  0  0  0
  9 42  1  0  0  0  0
  9 76  1  0  0  0  0
  9 77  1  0  0  0  0
 10 12  1  0  0  0  0
 10 14  1  1  0  0  0
 10 44  1  0  0  0  0
 11 13  1  0  0  0  0
 11 15  1  6  0  0  0
 11 45  1  0  0  0  0
 12 13  1  0  0  0  0
 12 46  1  0  0  0  0
 13 47  1  0  0  0  0
 14 19  1  0  0  0  0
 14 48  1  0  0  0  0
 14 49  1  0  0  0  0
 15 20  1  0  0  0  0
 15 50  1  0  0  0  0
 15 51  1  0  0  0  0
 17 21  1  0  0  0  0
 17 52  1  0  0  0  0
 17 53  1  0  0  0  0
 18 22  1  0  0  0  0
 18 54  1  0  0  0  0
 18 55  1  0  0  0  0
 19 23  2  0  0  0  0
 19 24  1  0  0  0  0
 20 25  2  0  0  0  0
 20 26  1  0  0  0  0
 21 27  2  0  0  0  0
 21 28  1  0  0  0  0
 22 29  2  0  0  0  0
 22 30  1  0  0  0  0
 23 32  1  0  0  0  0
 23 58  1  0  0  0  0
 24 33  2  0  0  0  0
 24 59  1  0  0  0  0
 25 34  1  0  0  0  0
 25 60  1  0  0  0  0
 26 35  2  0  0  0  0
 26 61  1  0  0  0  0
 27 31  1  0  0  0  0
 27 62  1  0  0  0  0
 28 36  2  0  0  0  0
 28 63  1  0  0  0  0
 29 40  1  0  0  0  0
 29 64  1  0  0  0  0
 30 41  2  0  0  0  0
 30 65  1  0  0  0  0
 31 37  2  0  0  0  0
 31 43  1  0  0  0  0
 32 38  2  0  0  0  0
 32 66  1  0  0  0  0
 33 38  1  0  0  0  0
 33 67  1  0  0  0  0
 34 39  2  0  0  0  0
 34 68  1  0  0  0  0
 35 39  1  0  0  0  0
 35 69  1  0  0  0  0
 36 37  1  0  0  0  0
 36 70  1  0  0  0  0
 38 71  1  0  0  0  0
 39 72  1  0  0  0  0
 40 42  2  0  0  0  0
 41 42  1  0  0  0  0
 41 73  1  0  0  0  0
 43 74  1  0  0  0  0
M  END
> <PUBCHEM_COMPOUND_CID>
515860
> <PUBCHEM_COMPOUND_CANONICALIZED>
1
> <PUBCHEM_CACTVS_COMPLEXITY>
901
> <PUBCHEM_CACTVS_HBOND_ACCEPTOR>
6
> <PUBCHEM_CACTVS_HBOND_DONOR>
4
> <PUBCHEM_CACTVS_ROTATABLE_BOND>
8
> <PUBCHEM_CACTVS_SUBSKEYS>
AAADcfB/sQAAAAAAAAAAAAAAAAAAAWAAAAAwYMGABYAAAFgB9AAAHwAYCAAADDzhng49wPNjAgCqAzRnUACSBAAgggAYuSA4ZJiLMKKA0dGE5AhungKZyAeQwPAOCAACAAACAAAQAAQAAAQAAAAAAAAAAA==
> <PUBCHEM_IUPAC_OPENEYE_NAME>
(4R,5S,6S,7R)-1-[(4-amino-3-fluoro-phenyl)methyl]-4,7-dibenzyl-5,6-dihydroxy-3-(1H-indazol-5-ylmethyl)-1,3-diazepan-2-one
> <PUBCHEM_IUPAC_CAS_NAME>
(4R,5S,6S,7R)-1-[(4-amino-3-fluorophenyl)methyl]-5,6-dihydroxy-3-(1H-indazol-5-ylmethyl)-4,7-bis(phenylmethyl)-1,3-diazepan-2-one
> <PUBCHEM_IUPAC_NAME_MARKUP>
(4<I>R</I>,5<I>S</I>,6<I>S</I>,7<I>R</I>)-1-[(4-amino-3-fluorophenyl)methyl]-4,7-dibenzyl-5,6-dihydroxy-3-(1<I>H</I>-indazol-5-ylmethyl)-1,3-diazepan-2-one
> <PUBCHEM_IUPAC_NAME>
(4R,5S,6S,7R)-1-[(4-amino-3-fluorophenyl)methyl]-4,7-dibenzyl-5,6-dihydroxy-3-(1H-indazol-5-ylmethyl)-1,3-diazepan-2-one
> <PUBCHEM_IUPAC_SYSTEMATIC_NAME>
(4R,5S,6S,7R)-1-[(4-azanyl-3-fluoranyl-phenyl)methyl]-3-(1H-indazol-5-ylmethyl)-5,6-bis(oxidanyl)-4,7-bis(phenylmethyl)-1,3-diazepan-2-one
> <PUBCHEM_IUPAC_TRADITIONAL_NAME>
(4R,5S,6S,7R)-1-(4-amino-3-fluoro-benzyl)-4,7-dibenzyl-5,6-dihydroxy-3-(1H-indazol-5-ylmethyl)-1,3-diazepan-2-one
> <PUBCHEM_IUPAC_INCHI>
InChI=1S/C34H34FN5O3/c35-27-16-25(11-13-28(27)36)21-40-31(18-23-9-5-2-6-10-23)33(42)32(41)30(17-22-7-3-1-4-8-22)39(34(40)43)20-24-12-14-29-26(15-24)19-37-38-29/h1-16,19,30-33,41-42H,17-18,20-21,36H2,(H,37,38)/t30-,31-,32+,33+/m1/s1
> <PUBCHEM_IUPAC_INCHIKEY>
ZKXPPUAKSSRSJN-FYZVQMPESA-N
> <PUBCHEM_XLOGP3_AA>
4.4
> <PUBCHEM_EXACT_MASS>
579.26456813
> <PUBCHEM_MOLECULAR_FORMULA>
C34H34FN5O3
> <PUBCHEM_MOLECULAR_WEIGHT>
579.7
> <PUBCHEM_OPENEYE_CAN_SMILES>
C1=CC=C(C=C1)CC2C(C(C(N(C(=O)N2CC3=CC4=C(C=C3)NN=C4)CC5=CC(=C(C=C5)N)F)CC6=CC=CC=C6)O)O
> <PUBCHEM_OPENEYE_ISO_SMILES>
C1=CC=C(C=C1)C[C@@H]2[C@@H]([C@H]([C@H](N(C(=O)N2CC3=CC4=C(C=C3)NN=C4)CC5=CC(=C(C=C5)N)F)CC6=CC=CC=C6)O)O
> <PUBCHEM_CACTVS_TPSA>
119
> <PUBCHEM_MONOISOTOPIC_WEIGHT>
579.26456813
> <PUBCHEM_TOTAL_CHARGE>
0
> <PUBCHEM_HEAVY_ATOM_COUNT>
43
> <PUBCHEM_ATOM_DEF_STEREO_COUNT>
4
> <PUBCHEM_ATOM_UDEF_STEREO_COUNT>
0
> <PUBCHEM_BOND_DEF_STEREO_COUNT>
0
> <PUBCHEM_BOND_UDEF_STEREO_COUNT>
0
> <PUBCHEM_ISOTOPIC_ATOM_COUNT>
0
> <PUBCHEM_COMPONENT_COUNT>
1
> <PUBCHEM_CACTVS_TAUTO_COUNT>
-1
> <PUBCHEM_COORDINATE_TYPE>
1
5
255
> <PUBCHEM_BONDANNOTATIONS>
10  14  5
11  15  6
19  23  8
19  24  8
12  2  5
20  25  8
20  26  8
21  27  8
21  28  8
22  29  8
22  30  8
23  32  8
24  33  8
25  34  8
26  35  8
27  31  8
28  36  8
29  40  8
13  3  6
30  41  8
31  37  8
31  43  8
32  38  8
33  38  8
34  39  8
35  39  8
36  37  8
40  42  8
41  42  8
7  37  8
7  8  8
8  43  8
$$$$
