515837
  -OEChem-10302200282D
 92 95  0     1  0  0  0  0  0999 V2000
    9.2942    4.4081    0.0000 S   0  0  0  0  0  0  0  0  0  0  0  0
    8.9757   -2.7240    0.0000 S   0  0  0  0  0  0  0  0  0  0  0  0
    2.8660   -1.1307    0.0000 O   0  0  0  0  0  0  0  0  0  0  0  0
    6.3301   -3.1307    0.0000 O   0  0  0  0  0  0  0  0  0  0  0  0
    6.3301   -1.1307    0.0000 O   0  0  0  0  0  0  0  0  0  0  0  0
    5.4641   -1.6307    0.0000 O   0  0  0  0  0  0  0  0  0  0  0  0
    9.7942   -0.1307    0.0000 O   0  0  0  0  0  0  0  0  0  0  0  0
    5.4641    0.3693    0.0000 N   0  0  0  0  0  0  0  0  0  0  0  0
    4.5981   -3.1307    0.0000 N   0  0  0  0  0  0  0  0  0  0  0  0
    8.0622   -0.1307    0.0000 N   0  0  0  0  0  0  0  0  0  0  0  0
    8.9282    1.3693    0.0000 N   0  0  0  0  0  0  0  0  0  0  0  0
   10.6032    3.4571    0.0000 N   0  0  0  0  0  0  0  0  0  0  0  0
    9.1448   -4.3331    0.0000 N   0  0  0  0  0  0  0  0  0  0  0  0
    3.7320   -1.6307    0.0000 C   0  0  1  0  0  0  0  0  0  0  0  0
    4.5981   -1.1307    0.0000 C   0  0  0  0  0  0  0  0  0  0  0  0
    4.5981   -0.1307    0.0000 C   0  0  2  0  0  0  0  0  0  0  0  0
    3.7320   -2.6307    0.0000 C   0  0  2  0  0  0  0  0  0  0  0  0
    3.7320    0.3693    0.0000 C   0  0  0  0  0  0  0  0  0  0  0  0
    2.8660   -3.1307    0.0000 C   0  0  0  0  0  0  0  0  0  0  0  0
    3.7320    1.3693    0.0000 C   0  0  0  0  0  0  0  0  0  0  0  0
    2.8660   -4.1307    0.0000 C   0  0  0  0  0  0  0  0  0  0  0  0
    6.3301   -0.1307    0.0000 C   0  0  0  0  0  0  0  0  0  0  0  0
    5.4641   -2.6307    0.0000 C   0  0  0  0  0  0  0  0  0  0  0  0
    2.8660    1.8693    0.0000 C   0  0  0  0  0  0  0  0  0  0  0  0
    4.5981    1.8693    0.0000 C   0  0  0  0  0  0  0  0  0  0  0  0
    3.7320   -4.6307    0.0000 C   0  0  0  0  0  0  0  0  0  0  0  0
    2.0000   -4.6307    0.0000 C   0  0  0  0  0  0  0  0  0  0  0  0
    7.1962    0.3693    0.0000 C   0  0  0  0  0  0  0  0  0  0  0  0
    2.8660    2.8693    0.0000 C   0  0  0  0  0  0  0  0  0  0  0  0
    4.5981    2.8693    0.0000 C   0  0  0  0  0  0  0  0  0  0  0  0
    3.7320   -5.6307    0.0000 C   0  0  0  0  0  0  0  0  0  0  0  0
    2.0000   -5.6307    0.0000 C   0  0  0  0  0  0  0  0  0  0  0  0
    3.7320    3.3693    0.0000 C   0  0  0  0  0  0  0  0  0  0  0  0
    2.8660   -6.1307    0.0000 C   0  0  0  0  0  0  0  0  0  0  0  0
    8.9282    0.3693    0.0000 C   0  0  0  0  0  0  0  0  0  0  0  0
    7.1962   -2.6307    0.0000 C   0  0  0  0  0  0  0  0  0  0  0  0
    9.7942    1.8693    0.0000 C   0  0  0  0  0  0  0  0  0  0  0  0
    8.0622    1.8693    0.0000 C   0  0  0  0  0  0  0  0  0  0  0  0
    9.7942    2.8693    0.0000 C   0  0  0  0  0  0  0  0  0  0  0  0
    8.0622   -3.1307    0.0000 C   0  0  0  0  0  0  0  0  0  0  0  0
   10.8820    5.2172    0.0000 C   0  0  0  0  0  0  0  0  0  0  0  0
   10.2942    4.4081    0.0000 C   0  0  0  0  0  0  0  0  0  0  0  0
    8.0622    2.8693    0.0000 C   0  0  0  0  0  0  0  0  0  0  0  0
    8.9852    3.4571    0.0000 C   0  0  0  0  0  0  0  0  0  0  0  0
   11.8765    5.1126    0.0000 C   0  0  0  0  0  0  0  0  0  0  0  0
   10.4753    6.1307    0.0000 C   0  0  0  0  0  0  0  0  0  0  0  0
    8.1667   -4.1252    0.0000 C   0  0  0  0  0  0  0  0  0  0  0  0
    9.6448   -3.4671    0.0000 C   0  0  0  0  0  0  0  0  0  0  0  0
    3.7320   -1.0107    0.0000 H   0  0  0  0  0  0  0  0  0  0  0  0
    4.8101   -1.7133    0.0000 H   0  0  0  0  0  0  0  0  0  0  0  0
    5.2087   -1.0230    0.0000 H   0  0  0  0  0  0  0  0  0  0  0  0
    4.5981    0.4893    0.0000 H   0  0  0  0  0  0  0  0  0  0  0  0
    3.7320   -3.2507    0.0000 H   0  0  0  0  0  0  0  0  0  0  0  0
    3.1215    0.4770    0.0000 H   0  0  0  0  0  0  0  0  0  0  0  0
    3.5200   -0.2133    0.0000 H   0  0  0  0  0  0  0  0  0  0  0  0
    2.6540   -2.5481    0.0000 H   0  0  0  0  0  0  0  0  0  0  0  0
    2.2554   -3.2384    0.0000 H   0  0  0  0  0  0  0  0  0  0  0  0
    5.4641    0.9893    0.0000 H   0  0  0  0  0  0  0  0  0  0  0  0
    4.5981   -3.7507    0.0000 H   0  0  0  0  0  0  0  0  0  0  0  0
    2.8660   -0.5107    0.0000 H   0  0  0  0  0  0  0  0  0  0  0  0
    2.3291    1.5593    0.0000 H   0  0  0  0  0  0  0  0  0  0  0  0
    5.1350    1.5593    0.0000 H   0  0  0  0  0  0  0  0  0  0  0  0
    4.2690   -4.3207    0.0000 H   0  0  0  0  0  0  0  0  0  0  0  0
    1.4631   -4.3207    0.0000 H   0  0  0  0  0  0  0  0  0  0  0  0
    7.5947    0.8442    0.0000 H   0  0  0  0  0  0  0  0  0  0  0  0
    6.7976    0.8442    0.0000 H   0  0  0  0  0  0  0  0  0  0  0  0
    2.3291    3.1793    0.0000 H   0  0  0  0  0  0  0  0  0  0  0  0
    5.1350    3.1793    0.0000 H   0  0  0  0  0  0  0  0  0  0  0  0
    4.2690   -5.9407    0.0000 H   0  0  0  0  0  0  0  0  0  0  0  0
    1.4631   -5.9407    0.0000 H   0  0  0  0  0  0  0  0  0  0  0  0
    8.0622   -0.7507    0.0000 H   0  0  0  0  0  0  0  0  0  0  0  0
    3.7320    3.9893    0.0000 H   0  0  0  0  0  0  0  0  0  0  0  0
    2.8660   -6.7507    0.0000 H   0  0  0  0  0  0  0  0  0  0  0  0
    7.5947   -2.1558    0.0000 H   0  0  0  0  0  0  0  0  0  0  0  0
    6.7976   -2.1558    0.0000 H   0  0  0  0  0  0  0  0  0  0  0  0
   10.0063    1.2867    0.0000 H   0  0  0  0  0  0  0  0  0  0  0  0
   10.4048    1.9770    0.0000 H   0  0  0  0  0  0  0  0  0  0  0  0
    7.4516    1.9770    0.0000 H   0  0  0  0  0  0  0  0  0  0  0  0
    7.8501    1.2867    0.0000 H   0  0  0  0  0  0  0  0  0  0  0  0
   11.2464    5.7188    0.0000 H   0  0  0  0  0  0  0  0  0  0  0  0
    8.6822    2.8693    0.0000 H   0  0  0  0  0  0  0  0  0  0  0  0
    8.0622    3.4893    0.0000 H   0  0  0  0  0  0  0  0  0  0  0  0
    7.4422    2.8693    0.0000 H   0  0  0  0  0  0  0  0  0  0  0  0
    8.3956    3.2655    0.0000 H   0  0  0  0  0  0  0  0  0  0  0  0
   11.8117    4.4960    0.0000 H   0  0  0  0  0  0  0  0  0  0  0  0
   12.4931    5.0478    0.0000 H   0  0  0  0  0  0  0  0  0  0  0  0
   11.9413    5.7292    0.0000 H   0  0  0  0  0  0  0  0  0  0  0  0
   11.0417    6.3829    0.0000 H   0  0  0  0  0  0  0  0  0  0  0  0
   10.2231    6.6971    0.0000 H   0  0  0  0  0  0  0  0  0  0  0  0
    9.9089    5.8785    0.0000 H   0  0  0  0  0  0  0  0  0  0  0  0
    7.7060   -4.5401    0.0000 H   0  0  0  0  0  0  0  0  0  0  0  0
   10.2615   -3.4023    0.0000 H   0  0  0  0  0  0  0  0  0  0  0  0
  1 42  1  0  0  0  0
  1 44  1  0  0  0  0
  2 40  1  0  0  0  0
  2 48  1  0  0  0  0
 14  3  1  1  0  0  0
  3 60  1  0  0  0  0
  4 23  1  0  0  0  0
  4 36  1  0  0  0  0
  5 22  2  0  0  0  0
  6 23  2  0  0  0  0
  7 35  2  0  0  0  0
 16  8  1  6  0  0  0
  8 22  1  0  0  0  0
  8 58  1  0  0  0  0
 17  9  1  1  0  0  0
  9 23  1  0  0  0  0
  9 59  1  0  0  0  0
 10 28  1  0  0  0  0
 10 35  1  0  0  0  0
 10 71  1  0  0  0  0
 11 35  1  0  0  0  0
 11 37  1  0  0  0  0
 11 38  1  0  0  0  0
 12 39  1  0  0  0  0
 12 42  2  0  0  0  0
 13 47  1  0  0  0  0
 13 48  2  0  0  0  0
 14 15  1  0  0  0  0
 14 17  1  0  0  0  0
 14 49  1  0  0  0  0
 15 16  1  0  0  0  0
 15 50  1  0  0  0  0
 15 51  1  0  0  0  0
 16 18  1  0  0  0  0
 16 52  1  0  0  0  0
 17 19  1  0  0  0  0
 17 53  1  0  0  0  0
 18 20  1  0  0  0  0
 18 54  1  0  0  0  0
 18 55  1  0  0  0  0
 19 21  1  0  0  0  0
 19 56  1  0  0  0  0
 19 57  1  0  0  0  0
 20 24  2  0  0  0  0
 20 25  1  0  0  0  0
 21 26  2  0  0  0  0
 21 27  1  0  0  0  0
 22 28  1  0  0  0  0
 24 29  1  0  0  0  0
 24 61  1  0  0  0  0
 25 30  2  0  0  0  0
 25 62  1  0  0  0  0
 26 31  1  0  0  0  0
 26 63  1  0  0  0  0
 27 32  2  0  0  0  0
 27 64  1  0  0  0  0
 28 65  1  0  0  0  0
 28 66  1  0  0  0  0
 29 33  2  0  0  0  0
 29 67  1  0  0  0  0
 30 33  1  0  0  0  0
 30 68  1  0  0  0  0
 31 34  2  0  0  0  0
 31 69  1  0  0  0  0
 32 34  1  0  0  0  0
 32 70  1  0  0  0  0
 33 72  1  0  0  0  0
 34 73  1  0  0  0  0
 36 40  1  0  0  0  0
 36 74  1  0  0  0  0
 36 75  1  0  0  0  0
 37 39  1  0  0  0  0
 37 76  1  0  0  0  0
 37 77  1  0  0  0  0
 38 43  1  0  0  0  0
 38 78  1  0  0  0  0
 38 79  1  0  0  0  0
 39 44  2  0  0  0  0
 40 47  2  0  0  0  0
 41 42  1  0  0  0  0
 41 45  1  0  0  0  0
 41 46  1  0  0  0  0
 41 80  1  0  0  0  0
 43 81  1  0  0  0  0
 43 82  1  0  0  0  0
 43 83  1  0  0  0  0
 44 84  1  0  0  0  0
 45 85  1  0  0  0  0
 45 86  1  0  0  0  0
 45 87  1  0  0  0  0
 46 88  1  0  0  0  0
 46 89  1  0  0  0  0
 46 90  1  0  0  0  0
 47 91  1  0  0  0  0
 48 92  1  0  0  0  0
M  END
> <PUBCHEM_COMPOUND_CID>
515837
> <PUBCHEM_COMPOUND_CANONICALIZED>
1
> <PUBCHEM_CACTVS_COMPLEXITY>
983
> <PUBCHEM_CACTVS_HBOND_ACCEPTOR>
9
> <PUBCHEM_CACTVS_HBOND_DONOR>
4
> <PUBCHEM_CACTVS_ROTATABLE_BOND>
18
> <PUBCHEM_CACTVS_SUBSKEYS>
AAADcfB/uABgAAAAAAAAAAAAAAAAAWLAAAAwYAAAAAAAAAAB9AAAHgQQCAAADTzl3ga/iZPIFgisAzV3XACC8KBxCjhI2Jy4bImKdCLgsTmcYAgulgL4qAeQwPAOAAAAAAAAAAAAAAAAAAAAAAAAAAAAAA==
> <PUBCHEM_IUPAC_OPENEYE_NAME>
thiazol-5-ylmethyl N-[(1S,2S,4S)-1-benzyl-4-[[2-[[ethyl-[(2-isopropylthiazol-4-yl)methyl]carbamoyl]amino]acetyl]amino]-2-hydroxy-5-phenyl-pentyl]carbamate
> <PUBCHEM_IUPAC_CAS_NAME>
N-[(2S,3S,5S)-5-[[2-[[[ethyl-[(2-propan-2-yl-4-thiazolyl)methyl]amino]-oxomethyl]amino]-1-oxoethyl]amino]-3-hydroxy-1,6-diphenylhexan-2-yl]carbamic acid 5-thiazolylmethyl ester
> <PUBCHEM_IUPAC_NAME_MARKUP>
1,3-thiazol-5-ylmethyl <I>N</I>-[(2<I>S</I>,3<I>S</I>,5<I>S</I>)-5-[[2-[[ethyl-[(2-propan-2-yl-1,3-thiazol-4-yl)methyl]carbamoyl]amino]acetyl]amino]-3-hydroxy-1,6-diphenylhexan-2-yl]carbamate
> <PUBCHEM_IUPAC_NAME>
1,3-thiazol-5-ylmethyl N-[(2S,3S,5S)-5-[[2-[[ethyl-[(2-propan-2-yl-1,3-thiazol-4-yl)methyl]carbamoyl]amino]acetyl]amino]-3-hydroxy-1,6-diphenylhexan-2-yl]carbamate
> <PUBCHEM_IUPAC_SYSTEMATIC_NAME>
1,3-thiazol-5-ylmethyl N-[(2S,3S,5S)-5-[2-[[ethyl-[(2-propan-2-yl-1,3-thiazol-4-yl)methyl]carbamoyl]amino]ethanoylamino]-3-oxidanyl-1,6-diphenyl-hexan-2-yl]carbamate
> <PUBCHEM_IUPAC_TRADITIONAL_NAME>
N-[(1S,2S,4S)-1-benzyl-4-[[2-[[ethyl-[(2-isopropylthiazol-4-yl)methyl]carbamoyl]amino]acetyl]amino]-2-hydroxy-5-phenyl-pentyl]carbamic acid thiazol-5-ylmethyl ester
> <PUBCHEM_IUPAC_INCHI>
InChI=1S/C35H44N6O5S2/c1-4-41(20-28-22-47-33(39-28)24(2)3)34(44)37-19-32(43)38-27(15-25-11-7-5-8-12-25)17-31(42)30(16-26-13-9-6-10-14-26)40-35(45)46-21-29-18-36-23-48-29/h5-14,18,22-24,27,30-31,42H,4,15-17,19-21H2,1-3H3,(H,37,44)(H,38,43)(H,40,45)/t27-,30-,31-/m0/s1
> <PUBCHEM_IUPAC_INCHIKEY>
AHJRWPCGPKROIL-NAYUSWPISA-N
> <PUBCHEM_XLOGP3_AA>
5
> <PUBCHEM_EXACT_MASS>
692.28146087
> <PUBCHEM_MOLECULAR_FORMULA>
C35H44N6O5S2
> <PUBCHEM_MOLECULAR_WEIGHT>
692.9
> <PUBCHEM_OPENEYE_CAN_SMILES>
CCN(CC1=CSC(=N1)C(C)C)C(=O)NCC(=O)NC(CC2=CC=CC=C2)CC(C(CC3=CC=CC=C3)NC(=O)OCC4=CN=CS4)O
> <PUBCHEM_OPENEYE_ISO_SMILES>
CCN(CC1=CSC(=N1)C(C)C)C(=O)NCC(=O)N[C@@H](CC2=CC=CC=C2)C[C@@H]([C@H](CC3=CC=CC=C3)NC(=O)OCC4=CN=CS4)O
> <PUBCHEM_CACTVS_TPSA>
202
> <PUBCHEM_MONOISOTOPIC_WEIGHT>
692.28146087
> <PUBCHEM_TOTAL_CHARGE>
0
> <PUBCHEM_HEAVY_ATOM_COUNT>
48
> <PUBCHEM_ATOM_DEF_STEREO_COUNT>
3
> <PUBCHEM_ATOM_UDEF_STEREO_COUNT>
0
> <PUBCHEM_BOND_DEF_STEREO_COUNT>
0
> <PUBCHEM_BOND_UDEF_STEREO_COUNT>
0
> <PUBCHEM_ISOTOPIC_ATOM_COUNT>
0
> <PUBCHEM_COMPONENT_COUNT>
1
> <PUBCHEM_CACTVS_TAUTO_COUNT>
-1
> <PUBCHEM_COORDINATE_TYPE>
1
5
255
> <PUBCHEM_BONDANNOTATIONS>
1  42  8
1  44  8
12  39  8
12  42  8
13  47  8
13  48  8
2  40  8
2  48  8
20  24  8
20  25  8
21  26  8
21  27  8
24  29  8
25  30  8
26  31  8
27  32  8
29  33  8
14  3  5
30  33  8
31  34  8
32  34  8
39  44  8
40  47  8
16  8  6
17  9  5
$$$$
