515823
  -OEChem-10302200282D
101104  0     1  0  0  0  0  0999 V2000
    8.7788    3.6239    0.0000 S   0  0  0  0  0  0  0  0  0  0  0  0
   10.7078   -1.6192    0.0000 S   0  0  0  0  0  0  0  0  0  0  0  0
    4.5981   -4.2125    0.0000 O   0  0  0  0  0  0  0  0  0  0  0  0
    5.4641   -1.7125    0.0000 O   0  0  0  0  0  0  0  0  0  0  0  0
    8.0622   -1.2125    0.0000 O   0  0  0  0  0  0  0  0  0  0  0  0
    6.3301   -1.2125    0.0000 O   0  0  0  0  0  0  0  0  0  0  0  0
    4.5981    1.7875    0.0000 O   0  0  0  0  0  0  0  0  0  0  0  0
    3.7320   -1.7125    0.0000 N   0  0  0  0  0  0  0  0  0  0  0  0
    7.1962   -2.7125    0.0000 N   0  0  0  0  0  0  0  0  0  0  0  0
    5.4641    0.2875    0.0000 N   0  0  0  0  0  0  0  0  0  0  0  0
    6.3301    1.7875    0.0000 N   0  0  0  0  0  0  0  0  0  0  0  0
    7.3007    4.2820    0.0000 N   0  0  0  0  0  0  0  0  0  0  0  0
   10.8769   -0.0101    0.0000 N   0  0  0  0  0  0  0  0  0  0  0  0
    3.7320   -2.7125    0.0000 C   0  0  2  0  0  0  0  0  0  0  0  0
    4.5981   -3.2125    0.0000 C   0  0  2  0  0  0  0  0  0  0  0  0
    5.4641   -2.7125    0.0000 C   0  0  0  0  0  0  0  0  0  0  0  0
    6.3301   -3.2125    0.0000 C   0  0  2  0  0  0  0  0  0  0  0  0
    2.8660   -3.2125    0.0000 C   0  0  0  0  0  0  0  0  0  0  0  0
    6.3301   -4.2125    0.0000 C   0  0  0  0  0  0  0  0  0  0  0  0
    4.5981   -0.2125    0.0000 C   0  0  1  0  0  0  0  0  0  0  0  0
    3.7320    0.2875    0.0000 C   0  0  0  0  0  0  0  0  0  0  0  0
    4.5981   -1.2125    0.0000 C   0  0  0  0  0  0  0  0  0  0  0  0
    2.8660   -4.2125    0.0000 C   0  0  0  0  0  0  0  0  0  0  0  0
    7.1962   -4.7125    0.0000 C   0  0  0  0  0  0  0  0  0  0  0  0
    3.7320    1.2875    0.0000 C   0  0  0  0  0  0  0  0  0  0  0  0
    2.8660   -0.2125    0.0000 C   0  0  0  0  0  0  0  0  0  0  0  0
    3.7320   -4.7125    0.0000 C   0  0  0  0  0  0  0  0  0  0  0  0
    2.0000   -4.7125    0.0000 C   0  0  0  0  0  0  0  0  0  0  0  0
    7.1962   -1.7125    0.0000 C   0  0  0  0  0  0  0  0  0  0  0  0
    8.0622   -4.2125    0.0000 C   0  0  0  0  0  0  0  0  0  0  0  0
    7.1962   -5.7125    0.0000 C   0  0  0  0  0  0  0  0  0  0  0  0
    5.4641    1.2875    0.0000 C   0  0  0  0  0  0  0  0  0  0  0  0
    3.7320   -5.7125    0.0000 C   0  0  0  0  0  0  0  0  0  0  0  0
    2.0000   -5.7125    0.0000 C   0  0  0  0  0  0  0  0  0  0  0  0
    2.8660   -6.2125    0.0000 C   0  0  0  0  0  0  0  0  0  0  0  0
    8.9282   -4.7125    0.0000 C   0  0  0  0  0  0  0  0  0  0  0  0
    8.0622   -6.2125    0.0000 C   0  0  0  0  0  0  0  0  0  0  0  0
    6.3301    2.7875    0.0000 C   0  0  0  0  0  0  0  0  0  0  0  0
    7.1962    1.2875    0.0000 C   0  0  0  0  0  0  0  0  0  0  0  0
    8.9282   -5.7125    0.0000 C   0  0  0  0  0  0  0  0  0  0  0  0
    7.1962    3.2875    0.0000 C   0  0  0  0  0  0  0  0  0  0  0  0
    8.0622    1.7875    0.0000 C   0  0  0  0  0  0  0  0  0  0  0  0
    8.9282   -1.7125    0.0000 C   0  0  0  0  0  0  0  0  0  0  0  0
    8.1097    2.8808    0.0000 C   0  0  0  0  0  0  0  0  0  0  0  0
    8.2788    4.4899    0.0000 C   0  0  0  0  0  0  0  0  0  0  0  0
    8.6856    5.4035    0.0000 C   0  0  0  0  0  0  0  0  0  0  0  0
    9.7942   -1.2125    0.0000 C   0  0  0  0  0  0  0  0  0  0  0  0
    8.0978    6.2125    0.0000 C   0  0  0  0  0  0  0  0  0  0  0  0
    9.6801    5.5080    0.0000 C   0  0  0  0  0  0  0  0  0  0  0  0
    9.8988   -0.2180    0.0000 C   0  0  0  0  0  0  0  0  0  0  0  0
   11.3769   -0.8761    0.0000 C   0  0  0  0  0  0  0  0  0  0  0  0
    4.2690   -2.4025    0.0000 H   0  0  0  0  0  0  0  0  0  0  0  0
    5.1350   -3.5225    0.0000 H   0  0  0  0  0  0  0  0  0  0  0  0
    5.8626   -2.2376    0.0000 H   0  0  0  0  0  0  0  0  0  0  0  0
    5.0656   -2.2376    0.0000 H   0  0  0  0  0  0  0  0  0  0  0  0
    6.8671   -3.5225    0.0000 H   0  0  0  0  0  0  0  0  0  0  0  0
    2.6540   -2.6299    0.0000 H   0  0  0  0  0  0  0  0  0  0  0  0
    2.2554   -3.3202    0.0000 H   0  0  0  0  0  0  0  0  0  0  0  0
    3.1951   -1.4025    0.0000 H   0  0  0  0  0  0  0  0  0  0  0  0
    5.7196   -4.1048    0.0000 H   0  0  0  0  0  0  0  0  0  0  0  0
    6.1181   -4.7951    0.0000 H   0  0  0  0  0  0  0  0  0  0  0  0
    4.5981    0.4075    0.0000 H   0  0  0  0  0  0  0  0  0  0  0  0
    3.7320   -0.3325    0.0000 H   0  0  0  0  0  0  0  0  0  0  0  0
    7.7331   -3.0225    0.0000 H   0  0  0  0  0  0  0  0  0  0  0  0
    5.1350   -4.5225    0.0000 H   0  0  0  0  0  0  0  0  0  0  0  0
    6.0010   -0.0225    0.0000 H   0  0  0  0  0  0  0  0  0  0  0  0
    4.3520    1.2875    0.0000 H   0  0  0  0  0  0  0  0  0  0  0  0
    3.7320    1.9075    0.0000 H   0  0  0  0  0  0  0  0  0  0  0  0
    3.1120    1.2875    0.0000 H   0  0  0  0  0  0  0  0  0  0  0  0
    2.5560    0.3244    0.0000 H   0  0  0  0  0  0  0  0  0  0  0  0
    2.3291   -0.5225    0.0000 H   0  0  0  0  0  0  0  0  0  0  0  0
    3.1760   -0.7494    0.0000 H   0  0  0  0  0  0  0  0  0  0  0  0
    4.2690   -4.4025    0.0000 H   0  0  0  0  0  0  0  0  0  0  0  0
    1.4631   -4.4025    0.0000 H   0  0  0  0  0  0  0  0  0  0  0  0
    8.0622   -3.5925    0.0000 H   0  0  0  0  0  0  0  0  0  0  0  0
    6.6592   -6.0225    0.0000 H   0  0  0  0  0  0  0  0  0  0  0  0
    4.2690   -6.0225    0.0000 H   0  0  0  0  0  0  0  0  0  0  0  0
    1.4631   -6.0225    0.0000 H   0  0  0  0  0  0  0  0  0  0  0  0
    2.8660   -6.8325    0.0000 H   0  0  0  0  0  0  0  0  0  0  0  0
    9.4651   -4.4025    0.0000 H   0  0  0  0  0  0  0  0  0  0  0  0
    8.0622   -6.8325    0.0000 H   0  0  0  0  0  0  0  0  0  0  0  0
    6.1181    3.3701    0.0000 H   0  0  0  0  0  0  0  0  0  0  0  0
    5.7196    2.6798    0.0000 H   0  0  0  0  0  0  0  0  0  0  0  0
    6.7976    0.8126    0.0000 H   0  0  0  0  0  0  0  0  0  0  0  0
    7.5947    0.8126    0.0000 H   0  0  0  0  0  0  0  0  0  0  0  0
    9.4651   -6.0225    0.0000 H   0  0  0  0  0  0  0  0  0  0  0  0
    8.3722    1.2506    0.0000 H   0  0  0  0  0  0  0  0  0  0  0  0
    8.5991    2.0975    0.0000 H   0  0  0  0  0  0  0  0  0  0  0  0
    7.7522    2.3244    0.0000 H   0  0  0  0  0  0  0  0  0  0  0  0
    8.5297   -2.1874    0.0000 H   0  0  0  0  0  0  0  0  0  0  0  0
    9.3267   -2.1874    0.0000 H   0  0  0  0  0  0  0  0  0  0  0  0
    8.2386    2.2743    0.0000 H   0  0  0  0  0  0  0  0  0  0  0  0
    8.0690    5.3387    0.0000 H   0  0  0  0  0  0  0  0  0  0  0  0
    8.5994    6.5769    0.0000 H   0  0  0  0  0  0  0  0  0  0  0  0
    7.7334    6.7141    0.0000 H   0  0  0  0  0  0  0  0  0  0  0  0
    7.5962    5.8481    0.0000 H   0  0  0  0  0  0  0  0  0  0  0  0
    9.7449    4.8914    0.0000 H   0  0  0  0  0  0  0  0  0  0  0  0
   10.2967    5.5728    0.0000 H   0  0  0  0  0  0  0  0  0  0  0  0
    9.6153    6.1246    0.0000 H   0  0  0  0  0  0  0  0  0  0  0  0
    9.4380    0.1969    0.0000 H   0  0  0  0  0  0  0  0  0  0  0  0
   11.9935   -0.9409    0.0000 H   0  0  0  0  0  0  0  0  0  0  0  0
  1 44  1  0  0  0  0
  1 45  1  0  0  0  0
  2 47  1  0  0  0  0
  2 51  1  0  0  0  0
 15  3  1  6  0  0  0
  3 65  1  0  0  0  0
  4 22  2  0  0  0  0
  5 29  1  0  0  0  0
  5 43  1  0  0  0  0
  6 29  2  0  0  0  0
  7 32  2  0  0  0  0
 14  8  1  6  0  0  0
  8 22  1  0  0  0  0
  8 59  1  0  0  0  0
 17  9  1  1  0  0  0
  9 29  1  0  0  0  0
  9 64  1  0  0  0  0
 20 10  1  6  0  0  0
 10 32  1  0  0  0  0
 10 66  1  0  0  0  0
 11 32  1  0  0  0  0
 11 38  1  0  0  0  0
 11 39  1  0  0  0  0
 12 41  1  0  0  0  0
 12 45  2  0  0  0  0
 13 50  1  0  0  0  0
 13 51  2  0  0  0  0
 14 15  1  0  0  0  0
 14 18  1  0  0  0  0
 14 52  1  0  0  0  0
 15 16  1  0  0  0  0
 15 53  1  0  0  0  0
 16 17  1  0  0  0  0
 16 54  1  0  0  0  0
 16 55  1  0  0  0  0
 17 19  1  0  0  0  0
 17 56  1  0  0  0  0
 18 23  1  0  0  0  0
 18 57  1  0  0  0  0
 18 58  1  0  0  0  0
 19 24  1  0  0  0  0
 19 60  1  0  0  0  0
 19 61  1  0  0  0  0
 20 21  1  0  0  0  0
 20 22  1  0  0  0  0
 20 62  1  0  0  0  0
 21 25  1  0  0  0  0
 21 26  1  0  0  0  0
 21 63  1  0  0  0  0
 23 27  2  0  0  0  0
 23 28  1  0  0  0  0
 24 30  2  0  0  0  0
 24 31  1  0  0  0  0
 25 67  1  0  0  0  0
 25 68  1  0  0  0  0
 25 69  1  0  0  0  0
 26 70  1  0  0  0  0
 26 71  1  0  0  0  0
 26 72  1  0  0  0  0
 27 33  1  0  0  0  0
 27 73  1  0  0  0  0
 28 34  2  0  0  0  0
 28 74  1  0  0  0  0
 30 36  1  0  0  0  0
 30 75  1  0  0  0  0
 31 37  2  0  0  0  0
 31 76  1  0  0  0  0
 33 35  2  0  0  0  0
 33 77  1  0  0  0  0
 34 35  1  0  0  0  0
 34 78  1  0  0  0  0
 35 79  1  0  0  0  0
 36 40  2  0  0  0  0
 36 80  1  0  0  0  0
 37 40  1  0  0  0  0
 37 81  1  0  0  0  0
 38 41  1  0  0  0  0
 38 82  1  0  0  0  0
 38 83  1  0  0  0  0
 39 42  1  0  0  0  0
 39 84  1  0  0  0  0
 39 85  1  0  0  0  0
 40 86  1  0  0  0  0
 41 44  2  0  0  0  0
 42 87  1  0  0  0  0
 42 88  1  0  0  0  0
 42 89  1  0  0  0  0
 43 47  1  0  0  0  0
 43 90  1  0  0  0  0
 43 91  1  0  0  0  0
 44 92  1  0  0  0  0
 45 46  1  0  0  0  0
 46 48  1  0  0  0  0
 46 49  1  0  0  0  0
 46 93  1  0  0  0  0
 47 50  2  0  0  0  0
 48 94  1  0  0  0  0
 48 95  1  0  0  0  0
 48 96  1  0  0  0  0
 49 97  1  0  0  0  0
 49 98  1  0  0  0  0
 49 99  1  0  0  0  0
 50100  1  0  0  0  0
 51101  1  0  0  0  0
M  END
> <PUBCHEM_COMPOUND_CID>
515823
> <PUBCHEM_COMPOUND_CANONICALIZED>
1
> <PUBCHEM_CACTVS_COMPLEXITY>
1060
> <PUBCHEM_CACTVS_HBOND_ACCEPTOR>
9
> <PUBCHEM_CACTVS_HBOND_DONOR>
4
> <PUBCHEM_CACTVS_ROTATABLE_BOND>
19
> <PUBCHEM_CACTVS_SUBSKEYS>
AAADcfB/uABgAAAAAAAAAAAAAAAAAWLAAAAwYAAAAAAAAAAB9AAAHgQQCAAADTzl3ga/iZPIFgisAzV3XACC8KBxCjhI2J24bImKdDLgsTmcYAgulgL4qAeQwPAOAAAAAAAAAAAAAAAAAAAAAAAAAAAAAA==
> <PUBCHEM_IUPAC_OPENEYE_NAME>
thiazol-5-ylmethyl N-[(1S,3S,4S)-1-benzyl-4-[[(2S)-2-[[ethyl-[(2-isopropylthiazol-4-yl)methyl]carbamoyl]amino]-3-methyl-butanoyl]amino]-3-hydroxy-5-phenyl-pentyl]carbamate
> <PUBCHEM_IUPAC_CAS_NAME>
N-[(2S,4S,5S)-5-[[(2S)-2-[[[ethyl-[(2-propan-2-yl-4-thiazolyl)methyl]amino]-oxomethyl]amino]-3-methyl-1-oxobutyl]amino]-4-hydroxy-1,6-diphenylhexan-2-yl]carbamic acid 5-thiazolylmethyl ester
> <PUBCHEM_IUPAC_NAME_MARKUP>
1,3-thiazol-5-ylmethyl <I>N</I>-[(2<I>S</I>,4<I>S</I>,5<I>S</I>)-5-[[(2<I>S</I>)-2-[[ethyl-[(2-propan-2-yl-1,3-thiazol-4-yl)methyl]carbamoyl]amino]-3-methylbutanoyl]amino]-4-hydroxy-1,6-diphenylhexan-2-yl]carbamate
> <PUBCHEM_IUPAC_NAME>
1,3-thiazol-5-ylmethyl N-[(2S,4S,5S)-5-[[(2S)-2-[[ethyl-[(2-propan-2-yl-1,3-thiazol-4-yl)methyl]carbamoyl]amino]-3-methylbutanoyl]amino]-4-hydroxy-1,6-diphenylhexan-2-yl]carbamate
> <PUBCHEM_IUPAC_SYSTEMATIC_NAME>
1,3-thiazol-5-ylmethyl N-[(2S,4S,5S)-5-[[(2S)-2-[[ethyl-[(2-propan-2-yl-1,3-thiazol-4-yl)methyl]carbamoyl]amino]-3-methyl-butanoyl]amino]-4-oxidanyl-1,6-diphenyl-hexan-2-yl]carbamate
> <PUBCHEM_IUPAC_TRADITIONAL_NAME>
N-[(1S,3S,4S)-1-benzyl-4-[[(2S)-2-[[ethyl-[(2-isopropylthiazol-4-yl)methyl]carbamoyl]amino]-3-methyl-butanoyl]amino]-3-hydroxy-5-phenyl-pentyl]carbamic acid thiazol-5-ylmethyl ester
> <PUBCHEM_IUPAC_INCHI>
InChI=1S/C38H50N6O5S2/c1-6-44(21-30-23-50-36(40-30)26(4)5)37(47)43-34(25(2)3)35(46)42-32(18-28-15-11-8-12-16-28)33(45)19-29(17-27-13-9-7-10-14-27)41-38(48)49-22-31-20-39-24-51-31/h7-16,20,23-26,29,32-34,45H,6,17-19,21-22H2,1-5H3,(H,41,48)(H,42,46)(H,43,47)/t29-,32-,33-,34-/m0/s1
> <PUBCHEM_IUPAC_INCHIKEY>
DKCCCRROWLRHOB-UYDQTSAYSA-N
> <PUBCHEM_XLOGP3_AA>
6.4
> <PUBCHEM_EXACT_MASS>
734.32841106
> <PUBCHEM_MOLECULAR_FORMULA>
C38H50N6O5S2
> <PUBCHEM_MOLECULAR_WEIGHT>
735.0
> <PUBCHEM_OPENEYE_CAN_SMILES>
CCN(CC1=CSC(=N1)C(C)C)C(=O)NC(C(C)C)C(=O)NC(CC2=CC=CC=C2)C(CC(CC3=CC=CC=C3)NC(=O)OCC4=CN=CS4)O
> <PUBCHEM_OPENEYE_ISO_SMILES>
CCN(CC1=CSC(=N1)C(C)C)C(=O)N[C@@H](C(C)C)C(=O)N[C@@H](CC2=CC=CC=C2)[C@H](C[C@H](CC3=CC=CC=C3)NC(=O)OCC4=CN=CS4)O
> <PUBCHEM_CACTVS_TPSA>
202
> <PUBCHEM_MONOISOTOPIC_WEIGHT>
734.32841106
> <PUBCHEM_TOTAL_CHARGE>
0
> <PUBCHEM_HEAVY_ATOM_COUNT>
51
> <PUBCHEM_ATOM_DEF_STEREO_COUNT>
4
> <PUBCHEM_ATOM_UDEF_STEREO_COUNT>
0
> <PUBCHEM_BOND_DEF_STEREO_COUNT>
0
> <PUBCHEM_BOND_UDEF_STEREO_COUNT>
0
> <PUBCHEM_ISOTOPIC_ATOM_COUNT>
0
> <PUBCHEM_COMPONENT_COUNT>
1
> <PUBCHEM_CACTVS_TAUTO_COUNT>
-1
> <PUBCHEM_COORDINATE_TYPE>
1
5
255
> <PUBCHEM_BONDANNOTATIONS>
1  44  8
1  45  8
20  10  6
12  41  8
12  45  8
13  50  8
13  51  8
2  47  8
2  51  8
23  27  8
23  28  8
24  30  8
24  31  8
27  33  8
28  34  8
15  3  6
30  36  8
31  37  8
33  35  8
34  35  8
36  40  8
37  40  8
41  44  8
47  50  8
14  8  6
17  9  5
$$$$
