515849
  -OEChem-10302200282D
 84 88  0     1  0  0  0  0  0999 V2000
    5.5415    1.7691    0.0000 O   0  0  0  0  0  0  0  0  0  0  0  0
    4.3770    0.3088    0.0000 O   0  0  0  0  0  0  0  0  0  0  0  0
    8.1582   -1.5121    0.0000 O   0  0  0  0  0  0  0  0  0  0  0  0
   12.7683    2.1545    0.0000 O   0  0  0  0  0  0  0  0  0  0  0  0
   10.8055   -0.8225    0.0000 O   0  0  0  0  0  0  0  0  0  0  0  0
    7.5989    0.0863    0.0000 N   0  0  0  0  0  0  0  0  0  0  0  0
    6.4754   -1.3225    0.0000 N   0  0  0  0  0  0  0  0  0  0  0  0
   11.4080    3.6206    0.0000 N   0  0  0  0  0  0  0  0  0  0  0  0
   10.8055   -2.8225    0.0000 N   0  0  0  0  0  0  0  0  0  0  0  0
   11.7934    1.9319    0.0000 N   0  0  0  0  0  0  0  0  0  0  0  0
    9.9395   -1.3225    0.0000 N   0  0  0  0  0  0  0  0  0  0  0  0
    6.9754    0.8681    0.0000 C   0  0  1  0  0  0  0  0  0  0  0  0
    5.5744   -0.8886    0.0000 C   0  0  1  0  0  0  0  0  0  0  0  0
    5.9754    0.8681    0.0000 C   0  0  1  0  0  0  0  0  0  0  0  0
    5.3519    0.0863    0.0000 C   0  0  1  0  0  0  0  0  0  0  0  0
    7.4093    1.7691    0.0000 C   0  0  0  0  0  0  0  0  0  0  0  0
    4.7926   -1.5121    0.0000 C   0  0  0  0  0  0  0  0  0  0  0  0
    7.3764   -0.8886    0.0000 C   0  0  0  0  0  0  0  0  0  0  0  0
    8.5738    0.3088    0.0000 C   0  0  0  0  0  0  0  0  0  0  0  0
    6.4754   -2.3225    0.0000 C   0  0  0  0  0  0  0  0  0  0  0  0
    6.8460    2.5953    0.0000 C   0  0  0  0  0  0  0  0  0  0  0  0
    3.8618   -1.1468    0.0000 C   0  0  0  0  0  0  0  0  0  0  0  0
    8.8686    1.2644    0.0000 C   0  0  0  0  0  0  0  0  0  0  0  0
    7.3414   -2.8225    0.0000 C   0  0  0  0  0  0  0  0  0  0  0  0
    5.8488    2.5206    0.0000 C   0  0  0  0  0  0  0  0  0  0  0  0
    7.2799    3.4963    0.0000 C   0  0  0  0  0  0  0  0  0  0  0  0
    3.0799   -1.7703    0.0000 C   0  0  0  0  0  0  0  0  0  0  0  0
    3.7127   -0.1580    0.0000 C   0  0  0  0  0  0  0  0  0  0  0  0
    9.8435    1.4869    0.0000 C   0  0  0  0  0  0  0  0  0  0  0  0
    8.2075   -2.3225    0.0000 C   0  0  0  0  0  0  0  0  0  0  0  0
    8.1884    1.9974    0.0000 C   0  0  0  0  0  0  0  0  0  0  0  0
    7.3414   -3.8225    0.0000 C   0  0  0  0  0  0  0  0  0  0  0  0
    5.2855    3.3468    0.0000 C   0  0  0  0  0  0  0  0  0  0  0  0
    6.7166    4.3225    0.0000 C   0  0  0  0  0  0  0  0  0  0  0  0
    2.1490   -1.4049    0.0000 C   0  0  0  0  0  0  0  0  0  0  0  0
    2.7818    0.2074    0.0000 C   0  0  0  0  0  0  0  0  0  0  0  0
   10.1383    2.4425    0.0000 C   0  0  0  0  0  0  0  0  0  0  0  0
    9.0735   -2.8225    0.0000 C   0  0  0  0  0  0  0  0  0  0  0  0
    5.7194    4.2478    0.0000 C   0  0  0  0  0  0  0  0  0  0  0  0
    2.0000   -0.4161    0.0000 C   0  0  0  0  0  0  0  0  0  0  0  0
    8.4832    2.9530    0.0000 C   0  0  0  0  0  0  0  0  0  0  0  0
    8.2075   -4.3225    0.0000 C   0  0  0  0  0  0  0  0  0  0  0  0
    9.4581    3.1755    0.0000 C   0  0  0  0  0  0  0  0  0  0  0  0
    9.0735   -3.8225    0.0000 C   0  0  0  0  0  0  0  0  0  0  0  0
   11.1132    2.6650    0.0000 C   0  0  0  0  0  0  0  0  0  0  0  0
    9.9395   -2.3225    0.0000 C   0  0  0  0  0  0  0  0  0  0  0  0
    7.5915    0.9375    0.0000 H   0  0  0  0  0  0  0  0  0  0  0  0
    5.6439   -1.5048    0.0000 H   0  0  0  0  0  0  0  0  0  0  0  0
    5.3593    0.9375    0.0000 H   0  0  0  0  0  0  0  0  0  0  0  0
    4.9135   -0.3521    0.0000 H   0  0  0  0  0  0  0  0  0  0  0  0
    7.9127    1.4072    0.0000 H   0  0  0  0  0  0  0  0  0  0  0  0
    7.8531    2.2020    0.0000 H   0  0  0  0  0  0  0  0  0  0  0  0
    4.4693   -2.0412    0.0000 H   0  0  0  0  0  0  0  0  0  0  0  0
    5.2575   -1.9224    0.0000 H   0  0  0  0  0  0  0  0  0  0  0  0
    8.6047   -0.3104    0.0000 H   0  0  0  0  0  0  0  0  0  0  0  0
    9.1890    0.2317    0.0000 H   0  0  0  0  0  0  0  0  0  0  0  0
    5.8648   -2.2149    0.0000 H   0  0  0  0  0  0  0  0  0  0  0  0
    6.2634   -2.9051    0.0000 H   0  0  0  0  0  0  0  0  0  0  0  0
    4.9233    1.8154    0.0000 H   0  0  0  0  0  0  0  0  0  0  0  0
    4.1943    0.9013    0.0000 H   0  0  0  0  0  0  0  0  0  0  0  0
    5.5798    1.9620    0.0000 H   0  0  0  0  0  0  0  0  0  0  0  0
    7.8981    3.5426    0.0000 H   0  0  0  0  0  0  0  0  0  0  0  0
    3.1723   -2.3834    0.0000 H   0  0  0  0  0  0  0  0  0  0  0  0
    4.1974    0.2286    0.0000 H   0  0  0  0  0  0  0  0  0  0  0  0
   10.2652    1.0324    0.0000 H   0  0  0  0  0  0  0  0  0  0  0  0
    8.2075   -1.7025    0.0000 H   0  0  0  0  0  0  0  0  0  0  0  0
    7.5840    1.8595    0.0000 H   0  0  0  0  0  0  0  0  0  0  0  0
    6.8045   -4.1325    0.0000 H   0  0  0  0  0  0  0  0  0  0  0  0
    4.6672    3.3005    0.0000 H   0  0  0  0  0  0  0  0  0  0  0  0
    6.9856    4.8811    0.0000 H   0  0  0  0  0  0  0  0  0  0  0  0
    1.6643   -1.7915    0.0000 H   0  0  0  0  0  0  0  0  0  0  0  0
    2.6894    0.8205    0.0000 H   0  0  0  0  0  0  0  0  0  0  0  0
    5.3701    4.7601    0.0000 H   0  0  0  0  0  0  0  0  0  0  0  0
    1.4229   -0.1896    0.0000 H   0  0  0  0  0  0  0  0  0  0  0  0
    8.0615    3.4075    0.0000 H   0  0  0  0  0  0  0  0  0  0  0  0
    8.2075   -4.9425    0.0000 H   0  0  0  0  0  0  0  0  0  0  0  0
    9.6408    3.7680    0.0000 H   0  0  0  0  0  0  0  0  0  0  0  0
    9.6104   -4.1325    0.0000 H   0  0  0  0  0  0  0  0  0  0  0  0
   10.9863    4.0751    0.0000 H   0  0  0  0  0  0  0  0  0  0  0  0
   12.0124    3.7585    0.0000 H   0  0  0  0  0  0  0  0  0  0  0  0
   11.3425   -2.5125    0.0000 H   0  0  0  0  0  0  0  0  0  0  0  0
   10.8055   -3.4425    0.0000 H   0  0  0  0  0  0  0  0  0  0  0  0
   12.9511    2.7469    0.0000 H   0  0  0  0  0  0  0  0  0  0  0  0
   11.3425   -1.1325    0.0000 H   0  0  0  0  0  0  0  0  0  0  0  0
 14  1  1  1  0  0  0
  1 59  1  0  0  0  0
 15  2  1  6  0  0  0
  2 60  1  0  0  0  0
  3 18  2  0  0  0  0
  4 10  1  0  0  0  0
  4 83  1  0  0  0  0
  5 11  1  0  0  0  0
  5 84  1  0  0  0  0
  6 12  1  0  0  0  0
  6 18  1  0  0  0  0
  6 19  1  0  0  0  0
  7 13  1  0  0  0  0
  7 18  1  0  0  0  0
  7 20  1  0  0  0  0
  8 45  1  0  0  0  0
  8 79  1  0  0  0  0
  8 80  1  0  0  0  0
  9 46  1  0  0  0  0
  9 81  1  0  0  0  0
  9 82  1  0  0  0  0
 10 45  2  3  0  0  0
 11 46  2  3  0  0  0
 12 14  1  0  0  0  0
 12 16  1  1  0  0  0
 12 47  1  0  0  0  0
 13 15  1  0  0  0  0
 13 17  1  6  0  0  0
 13 48  1  0  0  0  0
 14 15  1  0  0  0  0
 14 49  1  0  0  0  0
 15 50  1  0  0  0  0
 16 21  1  0  0  0  0
 16 51  1  0  0  0  0
 16 52  1  0  0  0  0
 17 22  1  0  0  0  0
 17 53  1  0  0  0  0
 17 54  1  0  0  0  0
 19 23  1  0  0  0  0
 19 55  1  0  0  0  0
 19 56  1  0  0  0  0
 20 24  1  0  0  0  0
 20 57  1  0  0  0  0
 20 58  1  0  0  0  0
 21 25  2  0  0  0  0
 21 26  1  0  0  0  0
 22 27  2  0  0  0  0
 22 28  1  0  0  0  0
 23 29  2  0  0  0  0
 23 31  1  0  0  0  0
 24 30  2  0  0  0  0
 24 32  1  0  0  0  0
 25 33  1  0  0  0  0
 25 61  1  0  0  0  0
 26 34  2  0  0  0  0
 26 62  1  0  0  0  0
 27 35  1  0  0  0  0
 27 63  1  0  0  0  0
 28 36  2  0  0  0  0
 28 64  1  0  0  0  0
 29 37  1  0  0  0  0
 29 65  1  0  0  0  0
 30 38  1  0  0  0  0
 30 66  1  0  0  0  0
 31 41  2  0  0  0  0
 31 67  1  0  0  0  0
 32 42  2  0  0  0  0
 32 68  1  0  0  0  0
 33 39  2  0  0  0  0
 33 69  1  0  0  0  0
 34 39  1  0  0  0  0
 34 70  1  0  0  0  0
 35 40  2  0  0  0  0
 35 71  1  0  0  0  0
 36 40  1  0  0  0  0
 36 72  1  0  0  0  0
 37 43  2  0  0  0  0
 37 45  1  0  0  0  0
 38 44  2  0  0  0  0
 38 46  1  0  0  0  0
 39 73  1  0  0  0  0
 40 74  1  0  0  0  0
 41 43  1  0  0  0  0
 41 75  1  0  0  0  0
 42 44  1  0  0  0  0
 42 76  1  0  0  0  0
 43 77  1  0  0  0  0
 44 78  1  0  0  0  0
M  END
> <PUBCHEM_COMPOUND_CID>
515849
> <PUBCHEM_COMPOUND_CANONICALIZED>
1
> <PUBCHEM_CACTVS_COMPLEXITY>
953
> <PUBCHEM_CACTVS_HBOND_ACCEPTOR>
7
> <PUBCHEM_CACTVS_HBOND_DONOR>
6
> <PUBCHEM_CACTVS_ROTATABLE_BOND>
10
> <PUBCHEM_CACTVS_SUBSKEYS>
AAADcfB/uAAAAAAAAAAAAAAAAAAAAAAAAAAwYMGABYAAAAABVAAAHgAUCAAADDzhmAYxAINQAgCoAiJiMACCAAAgAAAIiAAoBJiLMKKAkRGEYAhuhgKZiAeQwPAOAAACAAAAAAAAAAQAAAAAAAAAAAAAAA==
> <PUBCHEM_IUPAC_OPENEYE_NAME>
3-[[(4R,5S,6S,7R)-4,7-dibenzyl-5,6-dihydroxy-3-[[3-(N'-hydroxycarbamimidoyl)phenyl]methyl]-2-oxo-1,3-diazepan-1-yl]methyl]-N'-hydroxy-benzamidine
> <PUBCHEM_IUPAC_CAS_NAME>
3-[[(4R,5S,6S,7R)-3-[[3-[amino(hydroxyimino)methyl]phenyl]methyl]-5,6-dihydroxy-2-oxo-4,7-bis(phenylmethyl)-1,3-diazepan-1-yl]methyl]-N'-hydroxybenzenecarboximidamide
> <PUBCHEM_IUPAC_NAME_MARKUP>
3-[[(4<I>R</I>,5<I>S</I>,6<I>S</I>,7<I>R</I>)-4,7-dibenzyl-5,6-dihydroxy-3-[[3-(<I>N</I>&apos;-hydroxycarbamimidoyl)phenyl]methyl]-2-oxo-1,3-diazepan-1-yl]methyl]-<I>N</I>&apos;-hydroxybenzenecarboximidamide
> <PUBCHEM_IUPAC_NAME>
3-[[(4R,5S,6S,7R)-4,7-dibenzyl-5,6-dihydroxy-3-[[3-(N'-hydroxycarbamimidoyl)phenyl]methyl]-2-oxo-1,3-diazepan-1-yl]methyl]-N'-hydroxybenzenecarboximidamide
> <PUBCHEM_IUPAC_SYSTEMATIC_NAME>
3-[[(4R,5S,6S,7R)-5,6-bis(oxidanyl)-3-[[3-(N'-oxidanylcarbamimidoyl)phenyl]methyl]-2-oxidanylidene-4,7-bis(phenylmethyl)-1,3-diazepan-1-yl]methyl]-N'-oxidanyl-benzenecarboximidamide
> <PUBCHEM_IUPAC_TRADITIONAL_NAME>
3-[[(4R,5S,6S,7R)-3-[3-(aminocarbohydroximoyl)benzyl]-4,7-dibenzyl-5,6-dihydroxy-2-keto-1,3-diazepan-1-yl]methyl]-N'-hydroxy-benzamidine
> <PUBCHEM_IUPAC_INCHI>
InChI=1S/C35H38N6O5/c36-33(38-45)27-15-7-13-25(17-27)21-40-29(19-23-9-3-1-4-10-23)31(42)32(43)30(20-24-11-5-2-6-12-24)41(35(40)44)22-26-14-8-16-28(18-26)34(37)39-46/h1-18,29-32,42-43,45-46H,19-22H2,(H2,36,38)(H2,37,39)/t29-,30-,31+,32+/m1/s1
> <PUBCHEM_IUPAC_INCHIKEY>
CVCBZRCJISTSIN-ZRTHHSRSSA-N
> <PUBCHEM_XLOGP3_AA>
3.6
> <PUBCHEM_EXACT_MASS>
622.29036833
> <PUBCHEM_MOLECULAR_FORMULA>
C35H38N6O5
> <PUBCHEM_MOLECULAR_WEIGHT>
622.7
> <PUBCHEM_OPENEYE_CAN_SMILES>
C1=CC=C(C=C1)CC2C(C(C(N(C(=O)N2CC3=CC(=CC=C3)C(=NO)N)CC4=CC(=CC=C4)C(=NO)N)CC5=CC=CC=C5)O)O
> <PUBCHEM_OPENEYE_ISO_SMILES>
C1=CC=C(C=C1)C[C@@H]2[C@@H]([C@H]([C@H](N(C(=O)N2CC3=CC(=CC=C3)C(=NO)N)CC4=CC(=CC=C4)C(=NO)N)CC5=CC=CC=C5)O)O
> <PUBCHEM_CACTVS_TPSA>
181
> <PUBCHEM_MONOISOTOPIC_WEIGHT>
622.29036833
> <PUBCHEM_TOTAL_CHARGE>
0
> <PUBCHEM_HEAVY_ATOM_COUNT>
46
> <PUBCHEM_ATOM_DEF_STEREO_COUNT>
4
> <PUBCHEM_ATOM_UDEF_STEREO_COUNT>
0
> <PUBCHEM_BOND_DEF_STEREO_COUNT>
0
> <PUBCHEM_BOND_UDEF_STEREO_COUNT>
2
> <PUBCHEM_ISOTOPIC_ATOM_COUNT>
0
> <PUBCHEM_COMPONENT_COUNT>
1
> <PUBCHEM_CACTVS_TAUTO_COUNT>
-1
> <PUBCHEM_COORDINATE_TYPE>
1
5
255
> <PUBCHEM_BONDANNOTATIONS>
14  1  5
10  45  1
11  46  1
12  16  5
13  17  6
15  2  6
21  25  8
21  26  8
22  27  8
22  28  8
23  29  8
23  31  8
24  30  8
24  32  8
25  33  8
26  34  8
27  35  8
28  36  8
29  37  8
30  38  8
31  41  8
32  42  8
33  39  8
34  39  8
35  40  8
36  40  8
37  43  8
38  44  8
41  43  8
42  44  8
$$$$
