515900
  -OEChem-10302200282D
104108  0     1  0  0  0  0  0999 V2000
   10.7282   -3.4330    0.0000 Cl  0  0  0  0  0  0  0  0  0  0  0  0
    5.5321    0.5670    0.0000 O   0  0  0  0  0  0  0  0  0  0  0  0
    7.2641    3.5670    0.0000 O   0  0  0  0  0  0  0  0  0  0  0  0
    4.4494   -3.6354    0.0000 O   0  0  0  0  0  0  0  0  0  0  0  0
    5.5321   -0.4330    0.0000 O   0  0  0  0  0  0  0  0  0  0  0  0
    6.3981   -3.9330    0.0000 O   0  0  0  0  0  0  0  0  0  0  0  0
    5.5321    2.5670    0.0000 N   0  0  3  0  0  0  0  0  0  0  0  0
    6.3981    5.0670    0.0000 N   0  0  0  0  0  0  0  0  0  0  0  0
    7.2641   -0.4330    0.0000 N   0  0  0  0  0  0  0  0  0  0  0  0
    7.2641   -2.4330    0.0000 N   0  0  0  0  0  0  0  0  0  0  0  0
    8.9962   -3.4330    0.0000 N   0  0  0  0  0  0  0  0  0  0  0  0
    8.9962   -5.4330    0.0000 N   0  0  0  0  0  0  0  0  0  0  0  0
   10.7282   -5.4330    0.0000 N   0  0  0  0  0  0  0  0  0  0  0  0
    3.8000    3.5670    0.0000 C   0  0  2  0  0  0  0  0  0  0  0  0
    3.8000    2.5670    0.0000 C   0  0  1  0  0  0  0  0  0  0  0  0
    4.6660    4.0670    0.0000 C   0  0  0  0  0  0  0  0  0  0  0  0
    4.6660    2.0670    0.0000 C   0  0  0  0  0  0  0  0  0  0  0  0
    2.9061    4.1016    0.0000 C   0  0  0  0  0  0  0  0  0  0  0  0
    2.9061    2.0323    0.0000 C   0  0  0  0  0  0  0  0  0  0  0  0
    5.5321    3.5670    0.0000 C   0  0  1  0  0  0  0  0  0  0  0  0
    2.0000    3.5878    0.0000 C   0  0  0  0  0  0  0  0  0  0  0  0
    2.0000    2.5462    0.0000 C   0  0  0  0  0  0  0  0  0  0  0  0
    6.3981    2.0670    0.0000 C   0  0  0  0  0  0  0  0  0  0  0  0
    6.3981    4.0670    0.0000 C   0  0  0  0  0  0  0  0  0  0  0  0
    6.3981    1.0670    0.0000 C   0  0  2  0  0  0  0  0  0  0  0  0
    7.2641    0.5670    0.0000 C   0  0  2  0  0  0  0  0  0  0  0  0
    7.2641    5.5670    0.0000 C   0  0  0  0  0  0  0  0  0  0  0  0
    8.1301    1.0670    0.0000 C   0  0  0  0  0  0  0  0  0  0  0  0
    8.1301    6.0670    0.0000 C   0  0  0  0  0  0  0  0  0  0  0  0
    6.7641    6.4330    0.0000 C   0  0  0  0  0  0  0  0  0  0  0  0
    7.7641    4.7010    0.0000 C   0  0  0  0  0  0  0  0  0  0  0  0
    6.3981   -0.9330    0.0000 C   0  0  0  0  0  0  0  0  0  0  0  0
    6.3981   -1.9330    0.0000 C   0  0  2  0  0  0  0  0  0  0  0  0
    8.9962    0.5670    0.0000 C   0  0  0  0  0  0  0  0  0  0  0  0
    5.5321   -2.4330    0.0000 C   0  0  1  0  0  0  0  0  0  0  0  0
    4.6185   -2.0263    0.0000 C   0  0  0  0  0  0  0  0  0  0  0  0
    5.4275   -3.4275    0.0000 C   0  0  0  0  0  0  0  0  0  0  0  0
    3.9494   -2.7694    0.0000 C   0  0  0  0  0  0  0  0  0  0  0  0
    9.8622    1.0670    0.0000 C   0  0  0  0  0  0  0  0  0  0  0  0
    8.9962   -0.4330    0.0000 C   0  0  0  0  0  0  0  0  0  0  0  0
   10.7282    0.5670    0.0000 C   0  0  0  0  0  0  0  0  0  0  0  0
    9.8622   -0.9330    0.0000 C   0  0  0  0  0  0  0  0  0  0  0  0
    7.2641   -3.4330    0.0000 C   0  0  0  0  0  0  0  0  0  0  0  0
   10.7282   -0.4330    0.0000 C   0  0  0  0  0  0  0  0  0  0  0  0
    8.1301   -3.9330    0.0000 C   0  0  0  0  0  0  0  0  0  0  0  0
    8.1301   -4.9330    0.0000 C   0  0  0  0  0  0  0  0  0  0  0  0
    9.8622   -3.9330    0.0000 C   0  0  0  0  0  0  0  0  0  0  0  0
    9.8622   -4.9330    0.0000 C   0  0  0  0  0  0  0  0  0  0  0  0
   10.7282   -6.4330    0.0000 C   0  0  0  0  0  0  0  0  0  0  0  0
   11.5942   -4.9330    0.0000 C   0  0  0  0  0  0  0  0  0  0  0  0
    3.8066    4.4170    0.0000 H   0  0  0  0  0  0  0  0  0  0  0  0
    3.8066    1.7170    0.0000 H   0  0  0  0  0  0  0  0  0  0  0  0
    5.0646    4.5419    0.0000 H   0  0  0  0  0  0  0  0  0  0  0  0
    4.2675    4.5419    0.0000 H   0  0  0  0  0  0  0  0  0  0  0  0
    4.2675    1.5920    0.0000 H   0  0  0  0  0  0  0  0  0  0  0  0
    5.0646    1.5920    0.0000 H   0  0  0  0  0  0  0  0  0  0  0  0
    3.3107    4.5714    0.0000 H   0  0  0  0  0  0  0  0  0  0  0  0
    2.5124    4.5807    0.0000 H   0  0  0  0  0  0  0  0  0  0  0  0
    2.5124    1.5533    0.0000 H   0  0  0  0  0  0  0  0  0  0  0  0
    3.3107    1.5625    0.0000 H   0  0  0  0  0  0  0  0  0  0  0  0
    6.0690    3.2570    0.0000 H   0  0  0  0  0  0  0  0  0  0  0  0
    1.7909    4.1715    0.0000 H   0  0  0  0  0  0  0  0  0  0  0  0
    1.3891    3.4817    0.0000 H   0  0  0  0  0  0  0  0  0  0  0  0
    1.3891    2.6523    0.0000 H   0  0  0  0  0  0  0  0  0  0  0  0
    1.7909    1.9625    0.0000 H   0  0  0  0  0  0  0  0  0  0  0  0
    7.0087    1.9593    0.0000 H   0  0  0  0  0  0  0  0  0  0  0  0
    6.6101    2.6496    0.0000 H   0  0  0  0  0  0  0  0  0  0  0  0
    6.3981    0.4470    0.0000 H   0  0  0  0  0  0  0  0  0  0  0  0
    7.8010    0.2570    0.0000 H   0  0  0  0  0  0  0  0  0  0  0  0
    5.8612    5.3770    0.0000 H   0  0  0  0  0  0  0  0  0  0  0  0
    8.5287    1.5419    0.0000 H   0  0  0  0  0  0  0  0  0  0  0  0
    7.7316    1.5419    0.0000 H   0  0  0  0  0  0  0  0  0  0  0  0
    4.9951    0.8770    0.0000 H   0  0  0  0  0  0  0  0  0  0  0  0
    7.8010   -0.7430    0.0000 H   0  0  0  0  0  0  0  0  0  0  0  0
    8.4401    5.5300    0.0000 H   0  0  0  0  0  0  0  0  0  0  0  0
    8.6671    6.3770    0.0000 H   0  0  0  0  0  0  0  0  0  0  0  0
    7.8201    6.6039    0.0000 H   0  0  0  0  0  0  0  0  0  0  0  0
    7.3010    6.7430    0.0000 H   0  0  0  0  0  0  0  0  0  0  0  0
    6.4541    6.9700    0.0000 H   0  0  0  0  0  0  0  0  0  0  0  0
    6.2272    6.1230    0.0000 H   0  0  0  0  0  0  0  0  0  0  0  0
    7.2272    4.3910    0.0000 H   0  0  0  0  0  0  0  0  0  0  0  0
    8.0741    4.1640    0.0000 H   0  0  0  0  0  0  0  0  0  0  0  0
    8.3010    5.0110    0.0000 H   0  0  0  0  0  0  0  0  0  0  0  0
    6.3981   -2.5530    0.0000 H   0  0  0  0  0  0  0  0  0  0  0  0
    5.4876   -1.5842    0.0000 H   0  0  0  0  0  0  0  0  0  0  0  0
    4.9285   -1.4893    0.0000 H   0  0  0  0  0  0  0  0  0  0  0  0
    4.1169   -1.6618    0.0000 H   0  0  0  0  0  0  0  0  0  0  0  0
    5.4923   -4.0441    0.0000 H   0  0  0  0  0  0  0  0  0  0  0  0
    6.0475   -3.4275    0.0000 H   0  0  0  0  0  0  0  0  0  0  0  0
    3.5345   -2.3087    0.0000 H   0  0  0  0  0  0  0  0  0  0  0  0
    3.4478   -3.1338    0.0000 H   0  0  0  0  0  0  0  0  0  0  0  0
    7.8010   -2.1230    0.0000 H   0  0  0  0  0  0  0  0  0  0  0  0
    9.8622    1.6870    0.0000 H   0  0  0  0  0  0  0  0  0  0  0  0
    8.4592   -0.7430    0.0000 H   0  0  0  0  0  0  0  0  0  0  0  0
   11.2651    0.8770    0.0000 H   0  0  0  0  0  0  0  0  0  0  0  0
    9.8622   -1.5530    0.0000 H   0  0  0  0  0  0  0  0  0  0  0  0
   11.2651   -0.7430    0.0000 H   0  0  0  0  0  0  0  0  0  0  0  0
    7.5932   -5.2430    0.0000 H   0  0  0  0  0  0  0  0  0  0  0  0
   10.1082   -6.4330    0.0000 H   0  0  0  0  0  0  0  0  0  0  0  0
   10.7282   -7.0530    0.0000 H   0  0  0  0  0  0  0  0  0  0  0  0
   11.3482   -6.4330    0.0000 H   0  0  0  0  0  0  0  0  0  0  0  0
   11.9042   -5.4700    0.0000 H   0  0  0  0  0  0  0  0  0  0  0  0
   12.1312   -4.6230    0.0000 H   0  0  0  0  0  0  0  0  0  0  0  0
   11.2842   -4.3961    0.0000 H   0  0  0  0  0  0  0  0  0  0  0  0
  1 47  1  0  0  0  0
 25  2  1  6  0  0  0
  2 73  1  0  0  0  0
  3 24  2  0  0  0  0
  4 37  1  0  0  0  0
  4 38  1  0  0  0  0
  5 32  2  0  0  0  0
  6 43  2  0  0  0  0
  7 17  1  0  0  0  0
  7 20  1  0  0  0  0
  7 23  1  0  0  0  0
  8 24  1  0  0  0  0
  8 27  1  0  0  0  0
  8 70  1  0  0  0  0
 26  9  1  6  0  0  0
  9 32  1  0  0  0  0
  9 74  1  0  0  0  0
 33 10  1  1  0  0  0
 10 43  1  0  0  0  0
 10 92  1  0  0  0  0
 11 45  1  0  0  0  0
 11 47  2  0  0  0  0
 12 46  1  0  0  0  0
 12 48  2  0  0  0  0
 13 48  1  0  0  0  0
 13 49  1  0  0  0  0
 13 50  1  0  0  0  0
 14 15  1  0  0  0  0
 14 16  1  0  0  0  0
 14 18  1  0  0  0  0
 14 51  1  6  0  0  0
 15 17  1  0  0  0  0
 15 19  1  0  0  0  0
 15 52  1  6  0  0  0
 16 20  1  0  0  0  0
 16 53  1  0  0  0  0
 16 54  1  0  0  0  0
 17 55  1  0  0  0  0
 17 56  1  0  0  0  0
 18 21  1  0  0  0  0
 18 57  1  0  0  0  0
 18 58  1  0  0  0  0
 19 22  1  0  0  0  0
 19 59  1  0  0  0  0
 19 60  1  0  0  0  0
 20 24  1  1  0  0  0
 20 61  1  0  0  0  0
 21 22  1  0  0  0  0
 21 62  1  0  0  0  0
 21 63  1  0  0  0  0
 22 64  1  0  0  0  0
 22 65  1  0  0  0  0
 23 25  1  0  0  0  0
 23 66  1  0  0  0  0
 23 67  1  0  0  0  0
 25 26  1  0  0  0  0
 25 68  1  0  0  0  0
 26 28  1  0  0  0  0
 26 69  1  0  0  0  0
 27 29  1  0  0  0  0
 27 30  1  0  0  0  0
 27 31  1  0  0  0  0
 28 34  1  0  0  0  0
 28 71  1  0  0  0  0
 28 72  1  0  0  0  0
 29 75  1  0  0  0  0
 29 76  1  0  0  0  0
 29 77  1  0  0  0  0
 30 78  1  0  0  0  0
 30 79  1  0  0  0  0
 30 80  1  0  0  0  0
 31 81  1  0  0  0  0
 31 82  1  0  0  0  0
 31 83  1  0  0  0  0
 32 33  1  0  0  0  0
 33 35  1  0  0  0  0
 33 84  1  0  0  0  0
 34 39  2  0  0  0  0
 34 40  1  0  0  0  0
 35 36  1  0  0  0  0
 35 37  1  0  0  0  0
 35 85  1  1  0  0  0
 36 38  1  0  0  0  0
 36 86  1  0  0  0  0
 36 87  1  0  0  0  0
 37 88  1  0  0  0  0
 37 89  1  0  0  0  0
 38 90  1  0  0  0  0
 38 91  1  0  0  0  0
 39 41  1  0  0  0  0
 39 93  1  0  0  0  0
 40 42  2  0  0  0  0
 40 94  1  0  0  0  0
 41 44  2  0  0  0  0
 41 95  1  0  0  0  0
 42 44  1  0  0  0  0
 42 96  1  0  0  0  0
 43 45  1  0  0  0  0
 44 97  1  0  0  0  0
 45 46  2  0  0  0  0
 46 98  1  0  0  0  0
 47 48  1  0  0  0  0
 49 99  1  0  0  0  0
 49100  1  0  0  0  0
 49101  1  0  0  0  0
 50102  1  0  0  0  0
 50103  1  0  0  0  0
 50104  1  0  0  0  0
M  END
> <PUBCHEM_COMPOUND_CID>
515900
> <PUBCHEM_COMPOUND_CANONICALIZED>
1
> <PUBCHEM_CACTVS_COMPLEXITY>
1130
> <PUBCHEM_CACTVS_HBOND_ACCEPTOR>
9
> <PUBCHEM_CACTVS_HBOND_DONOR>
4
> <PUBCHEM_CACTVS_ROTATABLE_BOND>
13
> <PUBCHEM_CACTVS_SUBSKEYS>
AAADcfB/uAAEAAAAAAAAAAAAAAAAASAAAAA8eIEAAAAAAACxwAAAHgIQCAAADb7hniY/sJPIFgCoAzd3dACCgC03EiAJ2IG4dMiKcHrA0THWYIgulgLYiOe63KKOgAAAAAAAAAAAAAAAACAAAAAAAAAAAA==
> <PUBCHEM_IUPAC_OPENEYE_NAME>
(3S,4aS,8aS)-N-tert-butyl-2-[(2R,3S)-3-[[(2S)-2-[[6-chloro-5-(dimethylamino)pyrazine-2-carbonyl]amino]-2-[(3R)-tetrahydrofuran-3-yl]acetyl]amino]-2-hydroxy-4-phenyl-butyl]-3,4,4a,5,6,7,8,8a-octahydro-1H-isoquinoline-3-carboxamide
> <PUBCHEM_IUPAC_CAS_NAME>
(3S,4aS,8aS)-N-tert-butyl-2-[(2R,3S)-3-[[(2S)-2-[[[6-chloro-5-(dimethylamino)-2-pyrazinyl]-oxomethyl]amino]-1-oxo-2-[(3R)-3-oxolanyl]ethyl]amino]-2-hydroxy-4-phenylbutyl]-3,4,4a,5,6,7,8,8a-octahydro-1H-isoquinoline-3-carboxamide
> <PUBCHEM_IUPAC_NAME_MARKUP>
(3<I>S</I>,4<I>a</I><I>S</I>,8<I>a</I><I>S</I>)-<I>N</I>-<I>tert</I>-butyl-2-[(2<I>R</I>,3<I>S</I>)-3-[[(2<I>S</I>)-2-[[6-chloro-5-(dimethylamino)pyrazine-2-carbonyl]amino]-2-[(3<I>R</I>)-oxolan-3-yl]acetyl]amino]-2-hydroxy-4-phenylbutyl]-3,4,4<I>a</I>,5,6,7,8,8<I>a</I>-octahydro-1<I>H</I>-isoquinoline-3-carboxamide
> <PUBCHEM_IUPAC_NAME>
(3S,4aS,8aS)-N-tert-butyl-2-[(2R,3S)-3-[[(2S)-2-[[6-chloro-5-(dimethylamino)pyrazine-2-carbonyl]amino]-2-[(3R)-oxolan-3-yl]acetyl]amino]-2-hydroxy-4-phenylbutyl]-3,4,4a,5,6,7,8,8a-octahydro-1H-isoquinoline-3-carboxamide
> <PUBCHEM_IUPAC_SYSTEMATIC_NAME>
(3S,4aS,8aS)-N-tert-butyl-2-[(2R,3S)-3-[[(2S)-2-[[6-chloranyl-5-(dimethylamino)pyrazin-2-yl]carbonylamino]-2-[(3R)-oxolan-3-yl]ethanoyl]amino]-2-oxidanyl-4-phenyl-butyl]-3,4,4a,5,6,7,8,8a-octahydro-1H-isoquinoline-3-carboxamide
> <PUBCHEM_IUPAC_TRADITIONAL_NAME>
(3S,4aS,8aS)-N-tert-butyl-2-[(2R,3S)-3-[[(2S)-2-[[6-chloro-5-(dimethylamino)pyrazinoyl]amino]-2-[(3R)-tetrahydrofuran-3-yl]acetyl]amino]-2-hydroxy-4-phenyl-butyl]-3,4,4a,5,6,7,8,8a-octahydro-1H-isoquinoline-3-carboxamide
> <PUBCHEM_IUPAC_INCHI>
InChI=1S/C37H54ClN7O5/c1-37(2,3)43-35(48)29-18-24-13-9-10-14-25(24)20-45(29)21-30(46)27(17-23-11-7-6-8-12-23)41-36(49)31(26-15-16-50-22-26)42-34(47)28-19-39-33(44(4)5)32(38)40-28/h6-8,11-12,19,24-27,29-31,46H,9-10,13-18,20-22H2,1-5H3,(H,41,49)(H,42,47)(H,43,48)/t24-,25+,26-,27-,29-,30+,31-/m0/s1
> <PUBCHEM_IUPAC_INCHIKEY>
BIHYGUVPMSZAHD-ULAXQUARSA-N
> <PUBCHEM_XLOGP3_AA>
4.6
> <PUBCHEM_EXACT_MASS>
711.3874955
> <PUBCHEM_MOLECULAR_FORMULA>
C37H54ClN7O5
> <PUBCHEM_MOLECULAR_WEIGHT>
712.3
> <PUBCHEM_OPENEYE_CAN_SMILES>
CC(C)(C)NC(=O)C1CC2CCCCC2CN1CC(C(CC3=CC=CC=C3)NC(=O)C(C4CCOC4)NC(=O)C5=CN=C(C(=N5)Cl)N(C)C)O
> <PUBCHEM_OPENEYE_ISO_SMILES>
CC(C)(C)NC(=O)[C@@H]1C[C@@H]2CCCC[C@@H]2CN1C[C@H]([C@H](CC3=CC=CC=C3)NC(=O)[C@H]([C@H]4CCOC4)NC(=O)C5=CN=C(C(=N5)Cl)N(C)C)O
> <PUBCHEM_CACTVS_TPSA>
149
> <PUBCHEM_MONOISOTOPIC_WEIGHT>
711.3874955
> <PUBCHEM_TOTAL_CHARGE>
0
> <PUBCHEM_HEAVY_ATOM_COUNT>
50
> <PUBCHEM_ATOM_DEF_STEREO_COUNT>
7
> <PUBCHEM_ATOM_UDEF_STEREO_COUNT>
0
> <PUBCHEM_BOND_DEF_STEREO_COUNT>
0
> <PUBCHEM_BOND_UDEF_STEREO_COUNT>
0
> <PUBCHEM_ISOTOPIC_ATOM_COUNT>
0
> <PUBCHEM_COMPONENT_COUNT>
1
> <PUBCHEM_CACTVS_TAUTO_COUNT>
-1
> <PUBCHEM_COORDINATE_TYPE>
1
5
255
> <PUBCHEM_BONDANNOTATIONS>
33  10  5
11  45  8
11  47  8
12  46  8
12  48  8
14  51  6
15  52  6
25  2  6
20  24  5
34  39  8
34  40  8
35  85  5
39  41  8
40  42  8
41  44  8
42  44  8
45  46  8
47  48  8
26  9  6
$$$$
