515907
  -OEChem-10302200282D
 79 83  0     1  0  0  0  0  0999 V2000
    6.2619   -2.2336    0.0000 O   0  0  0  0  0  0  0  0  0  0  0  0
    7.6138   -0.8102    0.0000 O   0  0  0  0  0  0  0  0  0  0  0  0
    6.6353   -1.0164    0.0000 O   0  0  0  0  0  0  0  0  0  0  0  0
   10.7275   -1.6869    0.0000 O   0  0  0  0  0  0  0  0  0  0  0  0
   11.7403   -4.0681    0.0000 O   0  0  0  0  0  0  0  0  0  0  0  0
    9.0327   -2.0441    0.0000 O   0  0  0  0  0  0  0  0  0  0  0  0
    4.9889   -0.4783    0.0000 N   0  0  0  0  0  0  0  0  0  0  0  0
    9.5708   -0.3978    0.0000 N   0  0  0  0  0  0  0  0  0  0  0  0
    4.6783   -1.4288    0.0000 C   0  0  2  0  0  0  0  0  0  0  0  0
    5.2619   -2.2336    0.0000 C   0  0  1  0  0  0  0  0  0  0  0  0
    6.2781    0.6784    0.0000 C   0  0  1  0  0  0  0  0  0  0  0  0
    4.6783   -3.0383    0.0000 C   0  0  0  0  0  0  0  0  0  0  0  0
    3.7320   -1.7336    0.0000 C   0  0  0  0  0  0  0  0  0  0  0  0
    7.2566    0.8846    0.0000 C   0  0  0  0  0  0  0  0  0  0  0  0
    7.9244    0.1403    0.0000 C   0  0  1  0  0  0  0  0  0  0  0  0
    3.7320   -2.7336    0.0000 C   0  0  0  0  0  0  0  0  0  0  0  0
    8.9030    0.3466    0.0000 C   0  0  2  0  0  0  0  0  0  0  0  0
    5.9674   -0.2721    0.0000 C   0  0  0  0  0  0  0  0  0  0  0  0
    5.6103    1.4227    0.0000 C   0  0  0  0  0  0  0  0  0  0  0  0
    9.2136    1.2971    0.0000 C   0  0  0  0  0  0  0  0  0  0  0  0
    2.8660   -1.2336    0.0000 C   0  0  0  0  0  0  0  0  0  0  0  0
    2.8660   -3.2336    0.0000 C   0  0  0  0  0  0  0  0  0  0  0  0
    5.9209    2.3732    0.0000 C   0  0  0  0  0  0  0  0  0  0  0  0
    2.0000   -1.7336    0.0000 C   0  0  0  0  0  0  0  0  0  0  0  0
    2.0000   -2.7336    0.0000 C   0  0  0  0  0  0  0  0  0  0  0  0
   10.1921    1.5033    0.0000 C   0  0  0  0  0  0  0  0  0  0  0  0
   10.9338   -2.6654    0.0000 C   0  0  3  0  0  0  0  0  0  0  0  0
    9.7771   -1.3762    0.0000 C   0  0  0  0  0  0  0  0  0  0  0  0
   10.2634   -3.4074    0.0000 C   0  0  0  0  0  0  0  0  0  0  0  0
    6.8994    2.5795    0.0000 C   0  0  0  0  0  0  0  0  0  0  0  0
    5.2531    3.1175    0.0000 C   0  0  0  0  0  0  0  0  0  0  0  0
   11.8466   -3.0737    0.0000 C   0  0  0  0  0  0  0  0  0  0  0  0
   10.7619   -4.2743    0.0000 C   0  0  0  0  0  0  0  0  0  0  0  0
   10.5028    2.4538    0.0000 C   0  0  0  0  0  0  0  0  0  0  0  0
   10.8600    0.7590    0.0000 C   0  0  0  0  0  0  0  0  0  0  0  0
    7.2101    3.5300    0.0000 C   0  0  0  0  0  0  0  0  0  0  0  0
    5.5637    4.0681    0.0000 C   0  0  0  0  0  0  0  0  0  0  0  0
    6.5422    4.2743    0.0000 C   0  0  0  0  0  0  0  0  0  0  0  0
   11.4813    2.6600    0.0000 C   0  0  0  0  0  0  0  0  0  0  0  0
   11.8385    0.9652    0.0000 C   0  0  0  0  0  0  0  0  0  0  0  0
   12.1491    1.9157    0.0000 C   0  0  0  0  0  0  0  0  0  0  0  0
    5.2908   -1.3326    0.0000 H   0  0  0  0  0  0  0  0  0  0  0  0
    5.5436   -2.7859    0.0000 H   0  0  0  0  0  0  0  0  0  0  0  0
    6.6922    0.2169    0.0000 H   0  0  0  0  0  0  0  0  0  0  0  0
    4.4272   -3.6052    0.0000 H   0  0  0  0  0  0  0  0  0  0  0  0
    5.2156   -3.3475    0.0000 H   0  0  0  0  0  0  0  0  0  0  0  0
    7.7830    1.2123    0.0000 H   0  0  0  0  0  0  0  0  0  0  0  0
    7.0254    1.4599    0.0000 H   0  0  0  0  0  0  0  0  0  0  0  0
    8.3385   -0.3211    0.0000 H   0  0  0  0  0  0  0  0  0  0  0  0
    4.5749   -0.0169    0.0000 H   0  0  0  0  0  0  0  0  0  0  0  0
    9.5096    0.4744    0.0000 H   0  0  0  0  0  0  0  0  0  0  0  0
    5.0633    1.7147    0.0000 H   0  0  0  0  0  0  0  0  0  0  0  0
    5.2277    0.9348    0.0000 H   0  0  0  0  0  0  0  0  0  0  0  0
    9.1930    1.9167    0.0000 H   0  0  0  0  0  0  0  0  0  0  0  0
    8.5998    1.3844    0.0000 H   0  0  0  0  0  0  0  0  0  0  0  0
    2.8660   -0.6136    0.0000 H   0  0  0  0  0  0  0  0  0  0  0  0
    2.8660   -3.8536    0.0000 H   0  0  0  0  0  0  0  0  0  0  0  0
   10.1775   -0.2699    0.0000 H   0  0  0  0  0  0  0  0  0  0  0  0
    6.5719   -2.7705    0.0000 H   0  0  0  0  0  0  0  0  0  0  0  0
    1.4631   -1.4236    0.0000 H   0  0  0  0  0  0  0  0  0  0  0  0
    1.4631   -3.0436    0.0000 H   0  0  0  0  0  0  0  0  0  0  0  0
    7.7416   -1.4169    0.0000 H   0  0  0  0  0  0  0  0  0  0  0  0
   10.3352   -2.5039    0.0000 H   0  0  0  0  0  0  0  0  0  0  0  0
    9.8493   -2.9459    0.0000 H   0  0  0  0  0  0  0  0  0  0  0  0
    9.7612   -3.7710    0.0000 H   0  0  0  0  0  0  0  0  0  0  0  0
    7.3135    2.1180    0.0000 H   0  0  0  0  0  0  0  0  0  0  0  0
    4.6464    2.9897    0.0000 H   0  0  0  0  0  0  0  0  0  0  0  0
   12.4528   -3.2037    0.0000 H   0  0  0  0  0  0  0  0  0  0  0  0
   12.0392   -2.4844    0.0000 H   0  0  0  0  0  0  0  0  0  0  0  0
   10.1951   -4.5255    0.0000 H   0  0  0  0  0  0  0  0  0  0  0  0
   10.9525   -4.8643    0.0000 H   0  0  0  0  0  0  0  0  0  0  0  0
   10.0887    2.9153    0.0000 H   0  0  0  0  0  0  0  0  0  0  0  0
   10.6674    0.1697    0.0000 H   0  0  0  0  0  0  0  0  0  0  0  0
    7.8168    3.6578    0.0000 H   0  0  0  0  0  0  0  0  0  0  0  0
    5.1497    4.5295    0.0000 H   0  0  0  0  0  0  0  0  0  0  0  0
    6.7349    4.8636    0.0000 H   0  0  0  0  0  0  0  0  0  0  0  0
   11.6739    3.2494    0.0000 H   0  0  0  0  0  0  0  0  0  0  0  0
   12.2525    0.5037    0.0000 H   0  0  0  0  0  0  0  0  0  0  0  0
   12.7558    2.0436    0.0000 H   0  0  0  0  0  0  0  0  0  0  0  0
 10  1  1  6  0  0  0
  1 59  1  0  0  0  0
 15  2  1  1  0  0  0
  2 62  1  0  0  0  0
  3 18  2  0  0  0  0
  4 27  1  0  0  0  0
  4 28  1  0  0  0  0
  5 32  1  0  0  0  0
  5 33  1  0  0  0  0
  6 28  2  0  0  0  0
  9  7  1  6  0  0  0
  7 18  1  0  0  0  0
  7 50  1  0  0  0  0
 17  8  1  6  0  0  0
  8 28  1  0  0  0  0
  8 58  1  0  0  0  0
  9 10  1  0  0  0  0
  9 13  1  0  0  0  0
  9 42  1  0  0  0  0
 10 12  1  0  0  0  0
 10 43  1  0  0  0  0
 11 14  1  1  0  0  0
 11 18  1  0  0  0  0
 11 19  1  0  0  0  0
 11 44  1  0  0  0  0
 12 16  1  0  0  0  0
 12 45  1  0  0  0  0
 12 46  1  0  0  0  0
 13 16  1  0  0  0  0
 13 21  2  0  0  0  0
 14 15  1  0  0  0  0
 14 47  1  0  0  0  0
 14 48  1  0  0  0  0
 15 17  1  0  0  0  0
 15 49  1  0  0  0  0
 16 22  2  0  0  0  0
 17 20  1  0  0  0  0
 17 51  1  0  0  0  0
 19 23  1  0  0  0  0
 19 52  1  0  0  0  0
 19 53  1  0  0  0  0
 20 26  1  0  0  0  0
 20 54  1  0  0  0  0
 20 55  1  0  0  0  0
 21 24  1  0  0  0  0
 21 56  1  0  0  0  0
 22 25  1  0  0  0  0
 22 57  1  0  0  0  0
 23 30  2  0  0  0  0
 23 31  1  0  0  0  0
 24 25  2  0  0  0  0
 24 60  1  0  0  0  0
 25 61  1  0  0  0  0
 26 34  2  0  0  0  0
 26 35  1  0  0  0  0
 27 29  1  0  0  0  0
 27 32  1  0  0  0  0
 27 63  1  0  0  0  0
 29 33  1  0  0  0  0
 29 64  1  0  0  0  0
 29 65  1  0  0  0  0
 30 36  1  0  0  0  0
 30 66  1  0  0  0  0
 31 37  2  0  0  0  0
 31 67  1  0  0  0  0
 32 68  1  0  0  0  0
 32 69  1  0  0  0  0
 33 70  1  0  0  0  0
 33 71  1  0  0  0  0
 34 39  1  0  0  0  0
 34 72  1  0  0  0  0
 35 40  2  0  0  0  0
 35 73  1  0  0  0  0
 36 38  2  0  0  0  0
 36 74  1  0  0  0  0
 37 38  1  0  0  0  0
 37 75  1  0  0  0  0
 38 76  1  0  0  0  0
 39 41  2  0  0  0  0
 39 77  1  0  0  0  0
 40 41  1  0  0  0  0
 40 78  1  0  0  0  0
 41 79  1  0  0  0  0
M  END
> <PUBCHEM_COMPOUND_CID>
515907
> <PUBCHEM_COMPOUND_CANONICALIZED>
1
> <PUBCHEM_CACTVS_COMPLEXITY>
829
> <PUBCHEM_CACTVS_HBOND_ACCEPTOR>
6
> <PUBCHEM_CACTVS_HBOND_DONOR>
4
> <PUBCHEM_CACTVS_ROTATABLE_BOND>
12
> <PUBCHEM_CACTVS_SUBSKEYS>
AAADcfB/OAAAAAAAAAAAAAAAAAAAAaIAAAAwYMAAAAAAAGABUAAAHgAQCAAADTzhmAYwCILABgCIAiFSGACCAAAgAAAIiIEIBIkLMDKAkRGOYAhl1gGaiAe62fKegAAAAAAQAAAAAAAAACAAAKAACQgAAA==
> <PUBCHEM_IUPAC_OPENEYE_NAME>
tetrahydrofuran-3-yl N-[(1S,2S,4S)-1,4-dibenzyl-2-hydroxy-5-[[(1S,2R)-2-hydroxyindan-1-yl]amino]-5-oxo-pentyl]carbamate
> <PUBCHEM_IUPAC_CAS_NAME>
N-[(2S,3S,5S)-3-hydroxy-6-[[(1S,2R)-2-hydroxy-2,3-dihydro-1H-inden-1-yl]amino]-6-oxo-1-phenyl-5-(phenylmethyl)hexan-2-yl]carbamic acid 3-oxolanyl ester
> <PUBCHEM_IUPAC_NAME_MARKUP>
oxolan-3-yl <I>N</I>-[(2<I>S</I>,3<I>S</I>,5<I>S</I>)-5-benzyl-3-hydroxy-6-[[(1<I>S</I>,2<I>R</I>)-2-hydroxy-2,3-dihydro-1<I>H</I>-inden-1-yl]amino]-6-oxo-1-phenylhexan-2-yl]carbamate
> <PUBCHEM_IUPAC_NAME>
oxolan-3-yl N-[(2S,3S,5S)-5-benzyl-3-hydroxy-6-[[(1S,2R)-2-hydroxy-2,3-dihydro-1H-inden-1-yl]amino]-6-oxo-1-phenylhexan-2-yl]carbamate
> <PUBCHEM_IUPAC_SYSTEMATIC_NAME>
oxolan-3-yl N-[(2S,3S,5S)-3-oxidanyl-6-[[(1S,2R)-2-oxidanyl-2,3-dihydro-1H-inden-1-yl]amino]-6-oxidanylidene-1-phenyl-5-(phenylmethyl)hexan-2-yl]carbamate
> <PUBCHEM_IUPAC_TRADITIONAL_NAME>
N-[(1S,2S,4S)-1,4-dibenzyl-2-hydroxy-5-[[(1S,2R)-2-hydroxyindan-1-yl]amino]-5-keto-pentyl]carbamic acid tetrahydrofuran-3-yl ester
> <PUBCHEM_IUPAC_INCHI>
InChI=1S/C33H38N2O6/c36-29(28(18-23-11-5-2-6-12-23)34-33(39)41-26-15-16-40-21-26)20-25(17-22-9-3-1-4-10-22)32(38)35-31-27-14-8-7-13-24(27)19-30(31)37/h1-14,25-26,28-31,36-37H,15-21H2,(H,34,39)(H,35,38)/t25-,26?,28-,29-,30+,31-/m0/s1
> <PUBCHEM_IUPAC_INCHIKEY>
PKJPLBXKJRGYRL-KBXSXFASSA-N
> <PUBCHEM_XLOGP3_AA>
3.9
> <PUBCHEM_EXACT_MASS>
558.27298694
> <PUBCHEM_MOLECULAR_FORMULA>
C33H38N2O6
> <PUBCHEM_MOLECULAR_WEIGHT>
558.7
> <PUBCHEM_OPENEYE_CAN_SMILES>
C1COCC1OC(=O)NC(CC2=CC=CC=C2)C(CC(CC3=CC=CC=C3)C(=O)NC4C(CC5=CC=CC=C45)O)O
> <PUBCHEM_OPENEYE_ISO_SMILES>
C1COCC1OC(=O)N[C@@H](CC2=CC=CC=C2)[C@H](C[C@H](CC3=CC=CC=C3)C(=O)N[C@@H]4[C@@H](CC5=CC=CC=C45)O)O
> <PUBCHEM_CACTVS_TPSA>
117
> <PUBCHEM_MONOISOTOPIC_WEIGHT>
558.27298694
> <PUBCHEM_TOTAL_CHARGE>
0
> <PUBCHEM_HEAVY_ATOM_COUNT>
41
> <PUBCHEM_ATOM_DEF_STEREO_COUNT>
5
> <PUBCHEM_ATOM_UDEF_STEREO_COUNT>
1
> <PUBCHEM_BOND_DEF_STEREO_COUNT>
0
> <PUBCHEM_BOND_UDEF_STEREO_COUNT>
0
> <PUBCHEM_ISOTOPIC_ATOM_COUNT>
0
> <PUBCHEM_COMPONENT_COUNT>
1
> <PUBCHEM_CACTVS_TAUTO_COUNT>
-1
> <PUBCHEM_COORDINATE_TYPE>
1
5
255
> <PUBCHEM_BONDANNOTATIONS>
10  1  6
11  14  5
13  16  8
13  21  8
16  22  8
15  2  5
21  24  8
22  25  8
23  30  8
23  31  8
24  25  8
26  34  8
26  35  8
30  36  8
31  37  8
34  39  8
35  40  8
36  38  8
37  38  8
39  41  8
27  4  3
40  41  8
9  7  6
17  8  6
$$$$
