516079
  -OEChem-10302200282D
 31 33  0     1  0  0  0  0  0999 V2000
    7.3815    0.7126    0.0000 S   0  0  0  0  0  0  0  0  0  0  0  0
    4.2242   -0.5518    0.0000 O   0  0  0  0  0  0  0  0  0  0  0  0
    6.7630   -1.0518    0.0000 O   0  0  0  0  0  0  0  0  0  0  0  0
    5.4842   -2.8118    0.0000 O   0  0  0  0  0  0  0  0  0  0  0  0
    2.5016   -1.7328    0.0000 O   0  0  0  0  0  0  0  0  0  0  0  0
    5.4842    0.7083    0.0000 N   0  0  0  0  0  0  0  0  0  0  0  0
    5.4842    2.3264    0.0000 N   0  0  0  0  0  0  0  0  0  0  0  0
    7.9651    1.5173    0.0000 N   0  0  0  0  0  0  0  0  0  0  0  0
    5.7630   -1.0518    0.0000 C   0  0  2  0  0  0  0  0  0  0  0  0
    5.1752   -0.2427    0.0000 C   0  0  1  0  0  0  0  0  0  0  0  0
    5.1752   -1.8608    0.0000 C   0  0  1  0  0  0  0  0  0  0  0  0
    4.2242   -1.5518    0.0000 C   0  0  1  0  0  0  0  0  0  0  0  0
    3.4151   -2.1396    0.0000 C   0  0  0  0  0  0  0  0  0  0  0  0
    6.4353    1.0173    0.0000 C   0  0  0  0  0  0  0  0  0  0  0  0
    4.8964    1.5173    0.0000 C   0  0  0  0  0  0  0  0  0  0  0  0
    6.4353    2.0173    0.0000 C   0  0  0  0  0  0  0  0  0  0  0  0
    7.3815    2.3221    0.0000 C   0  0  0  0  0  0  0  0  0  0  0  0
    7.6922    3.2726    0.0000 C   0  0  0  0  0  0  0  0  0  0  0  0
    4.7368    0.1957    0.0000 H   0  0  0  0  0  0  0  0  0  0  0  0
    6.0445   -1.6042    0.0000 H   0  0  0  0  0  0  0  0  0  0  0  0
    4.7368   -2.2992    0.0000 H   0  0  0  0  0  0  0  0  0  0  0  0
    3.6717   -1.2703    0.0000 H   0  0  0  0  0  0  0  0  0  0  0  0
    3.0684   -2.6536    0.0000 H   0  0  0  0  0  0  0  0  0  0  0  0
    3.8611   -2.5702    0.0000 H   0  0  0  0  0  0  0  0  0  0  0  0
    7.0730   -1.5887    0.0000 H   0  0  0  0  0  0  0  0  0  0  0  0
    4.2764    1.5173    0.0000 H   0  0  0  0  0  0  0  0  0  0  0  0
    5.0694   -3.2726    0.0000 H   0  0  0  0  0  0  0  0  0  0  0  0
    2.0000   -2.0972    0.0000 H   0  0  0  0  0  0  0  0  0  0  0  0
    8.2815    3.0800    0.0000 H   0  0  0  0  0  0  0  0  0  0  0  0
    7.8848    3.8619    0.0000 H   0  0  0  0  0  0  0  0  0  0  0  0
    7.1028    3.4652    0.0000 H   0  0  0  0  0  0  0  0  0  0  0  0
  1  8  1  0  0  0  0
  1 14  1  0  0  0  0
  2 10  1  0  0  0  0
  2 12  1  0  0  0  0
  9  3  1  1  0  0  0
  3 25  1  0  0  0  0
 11  4  1  6  0  0  0
  4 27  1  0  0  0  0
  5 13  1  0  0  0  0
  5 28  1  0  0  0  0
 10  6  1  1  0  0  0
  6 14  1  0  0  0  0
  6 15  1  0  0  0  0
  7 15  2  0  0  0  0
  7 16  1  0  0  0  0
  8 17  2  0  0  0  0
  9 10  1  0  0  0  0
  9 11  1  0  0  0  0
  9 20  1  0  0  0  0
 10 19  1  0  0  0  0
 11 12  1  0  0  0  0
 11 21  1  0  0  0  0
 12 13  1  1  0  0  0
 12 22  1  0  0  0  0
 13 23  1  0  0  0  0
 13 24  1  0  0  0  0
 14 16  2  0  0  0  0
 15 26  1  0  0  0  0
 16 17  1  0  0  0  0
 17 18  1  0  0  0  0
 18 29  1  0  0  0  0
 18 30  1  0  0  0  0
 18 31  1  0  0  0  0
M  END
> <PUBCHEM_COMPOUND_CID>
516079
> <PUBCHEM_COMPOUND_CANONICALIZED>
1
> <PUBCHEM_CACTVS_COMPLEXITY>
324
> <PUBCHEM_CACTVS_HBOND_ACCEPTOR>
7
> <PUBCHEM_CACTVS_HBOND_DONOR>
3
> <PUBCHEM_CACTVS_ROTATABLE_BOND>
2
> <PUBCHEM_CACTVS_SUBSKEYS>
AAADccBzOABAAAAAAAAAAAAAAAAAAWLEgAAAAAAAAAAWAAAB+AAAHgQASAAACBzh1gYH0bcMFgCkAQRhZACB8D0xEKgBWDQ4VBiDeAJAyMAeRAxPAALTQCDwMAIAAAAAAAAAAAAAAAAAAAAAAAAAAAAAAA==
> <PUBCHEM_IUPAC_OPENEYE_NAME>
(2R,3S,4S,5R)-2-(hydroxymethyl)-5-(3-methylimidazo[4,5-d]isothiazol-6-yl)tetrahydrofuran-3,4-diol
> <PUBCHEM_IUPAC_CAS_NAME>
(2R,3S,4S,5R)-2-(hydroxymethyl)-5-(3-methyl-6-imidazo[4,5-d]isothiazolyl)oxolane-3,4-diol
> <PUBCHEM_IUPAC_NAME_MARKUP>
(2<I>R</I>,3<I>S</I>,4<I>S</I>,5<I>R</I>)-2-(hydroxymethyl)-5-(3-methylimidazo[4,5-d][1,2]thiazol-6-yl)oxolane-3,4-diol
> <PUBCHEM_IUPAC_NAME>
(2R,3S,4S,5R)-2-(hydroxymethyl)-5-(3-methylimidazo[4,5-d][1,2]thiazol-6-yl)oxolane-3,4-diol
> <PUBCHEM_IUPAC_SYSTEMATIC_NAME>
(2R,3S,4S,5R)-2-(hydroxymethyl)-5-(3-methylimidazo[4,5-d][1,2]thiazol-6-yl)oxolane-3,4-diol
> <PUBCHEM_IUPAC_TRADITIONAL_NAME>
(2R,3S,4S,5R)-2-(3-methylimidaz[4,5-d]isothiazol-6-yl)-5-methylol-tetrahydrofuran-3,4-diol
> <PUBCHEM_IUPAC_INCHI>
InChI=1S/C10H13N3O4S/c1-4-6-10(18-12-4)13(3-11-6)9-8(16)7(15)5(2-14)17-9/h3,5,7-9,14-16H,2H2,1H3/t5-,7-,8+,9-/m1/s1
> <PUBCHEM_IUPAC_INCHIKEY>
ZPWXFVRKAKYKNC-BUJSFMDZSA-N
> <PUBCHEM_XLOGP3_AA>
-0.4
> <PUBCHEM_EXACT_MASS>
271.06267708
> <PUBCHEM_MOLECULAR_FORMULA>
C10H13N3O4S
> <PUBCHEM_MOLECULAR_WEIGHT>
271.30
> <PUBCHEM_OPENEYE_CAN_SMILES>
CC1=NSC2=C1N=CN2C3C(C(C(O3)CO)O)O
> <PUBCHEM_OPENEYE_ISO_SMILES>
CC1=NSC2=C1N=CN2[C@H]3[C@H]([C@@H]([C@H](O3)CO)O)O
> <PUBCHEM_CACTVS_TPSA>
129
> <PUBCHEM_MONOISOTOPIC_WEIGHT>
271.06267708
> <PUBCHEM_TOTAL_CHARGE>
0
> <PUBCHEM_HEAVY_ATOM_COUNT>
18
> <PUBCHEM_ATOM_DEF_STEREO_COUNT>
4
> <PUBCHEM_ATOM_UDEF_STEREO_COUNT>
0
> <PUBCHEM_BOND_DEF_STEREO_COUNT>
0
> <PUBCHEM_BOND_UDEF_STEREO_COUNT>
0
> <PUBCHEM_ISOTOPIC_ATOM_COUNT>
0
> <PUBCHEM_COMPONENT_COUNT>
1
> <PUBCHEM_CACTVS_TAUTO_COUNT>
-1
> <PUBCHEM_COORDINATE_TYPE>
1
5
255
> <PUBCHEM_BONDANNOTATIONS>
1  14  8
1  8  8
12  13  5
14  16  8
16  17  8
9  3  5
11  4  6
10  6  5
6  14  8
6  15  8
7  15  8
7  16  8
8  17  8
$$$$
