516056
  -OEChem-10302200282D
 31 33  0     1  0  0  0  0  0999 V2000
    4.5726    2.7672    0.0000 I   0  0  0  0  0  0  0  0  0  0  0  0
    7.1279   -1.7672    0.0000 Cl  0  0  0  0  0  0  0  0  0  0  0  0
    2.0000   -0.7672    0.0000 Cl  0  0  0  0  0  0  0  0  0  0  0  0
    2.0000   -2.7672    0.0000 Cl  0  0  0  0  0  0  0  0  0  0  0  0
    5.2686    0.7980    0.0000 O   0  0  0  0  0  0  0  0  0  0  0  0
    7.6146   -0.2938    0.0000 O   0  0  0  0  0  0  0  0  0  0  0  0
    7.6183    1.8818    0.0000 O   0  0  0  0  0  0  0  0  0  0  0  0
    5.5443   -0.9625    0.0000 N   0  0  0  0  0  0  0  0  0  0  0  0
    5.5443   -2.5720    0.0000 N   0  0  0  0  0  0  0  0  0  0  0  0
    5.8550   -0.0120    0.0000 C   0  0  1  0  0  0  0  0  0  0  0  0
    6.8066    0.2954    0.0000 C   0  0  1  0  0  0  0  0  0  0  0  0
    6.8083    1.2954    0.0000 C   0  0  1  0  0  0  0  0  0  0  0  0
    5.8578    1.6060    0.0000 C   0  0  1  0  0  0  0  0  0  0  0  0
    5.5504    2.5576    0.0000 C   0  0  0  0  0  0  0  0  0  0  0  0
    4.5981   -1.2672    0.0000 C   0  0  0  0  0  0  0  0  0  0  0  0
    6.1279   -1.7672    0.0000 C   0  0  0  0  0  0  0  0  0  0  0  0
    4.5981   -2.2672    0.0000 C   0  0  0  0  0  0  0  0  0  0  0  0
    3.7320   -0.7672    0.0000 C   0  0  0  0  0  0  0  0  0  0  0  0
    3.7320   -2.7672    0.0000 C   0  0  0  0  0  0  0  0  0  0  0  0
    2.8660   -1.2672    0.0000 C   0  0  0  0  0  0  0  0  0  0  0  0
    2.8660   -2.2672    0.0000 C   0  0  0  0  0  0  0  0  0  0  0  0
    6.2926   -0.4512    0.0000 H   0  0  0  0  0  0  0  0  0  0  0  0
    7.3595    0.5759    0.0000 H   0  0  0  0  0  0  0  0  0  0  0  0
    7.3602    1.0130    0.0000 H   0  0  0  0  0  0  0  0  0  0  0  0
    5.2456    1.7041    0.0000 H   0  0  0  0  0  0  0  0  0  0  0  0
    6.1645    2.6429    0.0000 H   0  0  0  0  0  0  0  0  0  0  0  0
    5.5731    3.1772    0.0000 H   0  0  0  0  0  0  0  0  0  0  0  0
    8.1814   -0.0426    0.0000 H   0  0  0  0  0  0  0  0  0  0  0  0
    7.5546    2.4985    0.0000 H   0  0  0  0  0  0  0  0  0  0  0  0
    3.7320   -0.1472    0.0000 H   0  0  0  0  0  0  0  0  0  0  0  0
    3.7320   -3.3872    0.0000 H   0  0  0  0  0  0  0  0  0  0  0  0
  1 14  1  0  0  0  0
  2 16  1  0  0  0  0
  3 20  1  0  0  0  0
  4 21  1  0  0  0  0
  5 10  1  0  0  0  0
  5 13  1  0  0  0  0
 11  6  1  1  0  0  0
  6 28  1  0  0  0  0
 12  7  1  1  0  0  0
  7 29  1  0  0  0  0
 10  8  1  6  0  0  0
  8 15  1  0  0  0  0
  8 16  1  0  0  0  0
  9 16  2  0  0  0  0
  9 17  1  0  0  0  0
 10 11  1  0  0  0  0
 10 22  1  0  0  0  0
 11 12  1  0  0  0  0
 11 23  1  0  0  0  0
 12 13  1  0  0  0  0
 12 24  1  0  0  0  0
 13 14  1  6  0  0  0
 13 25  1  0  0  0  0
 14 26  1  0  0  0  0
 14 27  1  0  0  0  0
 15 17  1  0  0  0  0
 15 18  2  0  0  0  0
 17 19  2  0  0  0  0
 18 20  1  0  0  0  0
 18 30  1  0  0  0  0
 19 21  1  0  0  0  0
 19 31  1  0  0  0  0
 20 21  2  0  0  0  0
M  END
> <PUBCHEM_COMPOUND_CID>
516056
> <PUBCHEM_COMPOUND_CANONICALIZED>
1
> <PUBCHEM_CACTVS_COMPLEXITY>
397
> <PUBCHEM_CACTVS_HBOND_ACCEPTOR>
4
> <PUBCHEM_CACTVS_HBOND_DONOR>
2
> <PUBCHEM_CACTVS_ROTATABLE_BOND>
2
> <PUBCHEM_CACTVS_SUBSKEYS>
AAADccBzMAAGAgAAAAAAAAAAAAAAAWJAAAAwAAAAAAAAAFgB8AAAHgIgCAAACB7jliYx0LcMFgCgASRiZACCgC0hF6AB2mA4dpiLeKLBmpGeYAhvgALbyCewAAAAAABAAAIAACQAAIAABAAASAAAAAAAAA==
> <PUBCHEM_IUPAC_OPENEYE_NAME>
(2S,3S,4R,5R)-2-(iodomethyl)-5-(2,5,6-trichlorobenzimidazol-1-yl)tetrahydrofuran-3,4-diol
> <PUBCHEM_IUPAC_CAS_NAME>
(2S,3S,4R,5R)-2-(iodomethyl)-5-(2,5,6-trichloro-1-benzimidazolyl)oxolane-3,4-diol
> <PUBCHEM_IUPAC_NAME_MARKUP>
(2<I>S</I>,3<I>S</I>,4<I>R</I>,5<I>R</I>)-2-(iodomethyl)-5-(2,5,6-trichlorobenzimidazol-1-yl)oxolane-3,4-diol
> <PUBCHEM_IUPAC_NAME>
(2S,3S,4R,5R)-2-(iodomethyl)-5-(2,5,6-trichlorobenzimidazol-1-yl)oxolane-3,4-diol
> <PUBCHEM_IUPAC_SYSTEMATIC_NAME>
(2S,3S,4R,5R)-2-(iodanylmethyl)-5-[2,5,6-tris(chloranyl)benzimidazol-1-yl]oxolane-3,4-diol
> <PUBCHEM_IUPAC_TRADITIONAL_NAME>
(2S,3S,4R,5R)-2-(iodomethyl)-5-(2,5,6-trichlorobenzimidazol-1-yl)tetrahydrofuran-3,4-diol
> <PUBCHEM_IUPAC_INCHI>
InChI=1S/C12H10Cl3IN2O3/c13-4-1-6-7(2-5(4)14)18(12(15)17-6)11-10(20)9(19)8(3-16)21-11/h1-2,8-11,19-20H,3H2/t8-,9-,10-,11-/m1/s1
> <PUBCHEM_IUPAC_INCHIKEY>
YDYFKYFBUSFLFX-GWOFURMSSA-N
> <PUBCHEM_XLOGP3_AA>
3.3
> <PUBCHEM_EXACT_MASS>
461.88017
> <PUBCHEM_MOLECULAR_FORMULA>
C12H10Cl3IN2O3
> <PUBCHEM_MOLECULAR_WEIGHT>
463.5
> <PUBCHEM_OPENEYE_CAN_SMILES>
C1=C2C(=CC(=C1Cl)Cl)N(C(=N2)Cl)C3C(C(C(O3)CI)O)O
> <PUBCHEM_OPENEYE_ISO_SMILES>
C1=C2C(=CC(=C1Cl)Cl)N(C(=N2)Cl)[C@H]3[C@@H]([C@@H]([C@H](O3)CI)O)O
> <PUBCHEM_CACTVS_TPSA>
67.5
> <PUBCHEM_MONOISOTOPIC_WEIGHT>
461.88017
> <PUBCHEM_TOTAL_CHARGE>
0
> <PUBCHEM_HEAVY_ATOM_COUNT>
21
> <PUBCHEM_ATOM_DEF_STEREO_COUNT>
4
> <PUBCHEM_ATOM_UDEF_STEREO_COUNT>
0
> <PUBCHEM_BOND_DEF_STEREO_COUNT>
0
> <PUBCHEM_BOND_UDEF_STEREO_COUNT>
0
> <PUBCHEM_ISOTOPIC_ATOM_COUNT>
0
> <PUBCHEM_COMPONENT_COUNT>
1
> <PUBCHEM_CACTVS_TAUTO_COUNT>
-1
> <PUBCHEM_COORDINATE_TYPE>
1
5
255
> <PUBCHEM_BONDANNOTATIONS>
13  14  6
15  17  8
15  18  8
17  19  8
18  20  8
19  21  8
20  21  8
11  6  5
12  7  5
10  8  6
8  15  8
8  16  8
9  16  8
9  17  8
$$$$
