516036
  -OEChem-10302200282D
 32 34  0     1  0  0  0  0  0999 V2000
    7.1279   -2.0622    0.0000 Cl  0  0  0  0  0  0  0  0  0  0  0  0
    2.0000   -1.0622    0.0000 Cl  0  0  0  0  0  0  0  0  0  0  0  0
    5.2686    0.5031    0.0000 O   0  0  0  0  0  0  0  0  0  0  0  0
    7.6146   -0.5888    0.0000 O   0  0  0  0  0  0  0  0  0  0  0  0
    7.6183    1.5868    0.0000 O   0  0  0  0  0  0  0  0  0  0  0  0
    4.5726    2.4722    0.0000 O   0  0  0  0  0  0  0  0  0  0  0  0
    5.5443   -1.2575    0.0000 N   0  0  0  0  0  0  0  0  0  0  0  0
    5.5443   -2.8670    0.0000 N   0  0  0  0  0  0  0  0  0  0  0  0
    5.8550   -0.3070    0.0000 C   0  0  1  0  0  0  0  0  0  0  0  0
    6.8066    0.0004    0.0000 C   0  0  1  0  0  0  0  0  0  0  0  0
    6.8083    1.0004    0.0000 C   0  0  1  0  0  0  0  0  0  0  0  0
    5.8578    1.3110    0.0000 C   0  0  1  0  0  0  0  0  0  0  0  0
    5.5504    2.2626    0.0000 C   0  0  0  0  0  0  0  0  0  0  0  0
    4.5981   -1.5622    0.0000 C   0  0  0  0  0  0  0  0  0  0  0  0
    6.1279   -2.0622    0.0000 C   0  0  0  0  0  0  0  0  0  0  0  0
    4.5981   -2.5622    0.0000 C   0  0  0  0  0  0  0  0  0  0  0  0
    3.7320   -1.0622    0.0000 C   0  0  0  0  0  0  0  0  0  0  0  0
    3.7320   -3.0622    0.0000 C   0  0  0  0  0  0  0  0  0  0  0  0
    2.8660   -1.5622    0.0000 C   0  0  0  0  0  0  0  0  0  0  0  0
    2.8660   -2.5622    0.0000 C   0  0  0  0  0  0  0  0  0  0  0  0
    6.2926   -0.7461    0.0000 H   0  0  0  0  0  0  0  0  0  0  0  0
    7.3595    0.2809    0.0000 H   0  0  0  0  0  0  0  0  0  0  0  0
    6.7124    1.6129    0.0000 H   0  0  0  0  0  0  0  0  0  0  0  0
    5.2456    1.4091    0.0000 H   0  0  0  0  0  0  0  0  0  0  0  0
    6.1645    2.3479    0.0000 H   0  0  0  0  0  0  0  0  0  0  0  0
    5.5731    2.8822    0.0000 H   0  0  0  0  0  0  0  0  0  0  0  0
    8.1814   -0.3376    0.0000 H   0  0  0  0  0  0  0  0  0  0  0  0
    7.5546    2.2035    0.0000 H   0  0  0  0  0  0  0  0  0  0  0  0
    3.7320   -0.4422    0.0000 H   0  0  0  0  0  0  0  0  0  0  0  0
    4.3820    3.0622    0.0000 H   0  0  0  0  0  0  0  0  0  0  0  0
    3.7320   -3.6822    0.0000 H   0  0  0  0  0  0  0  0  0  0  0  0
    2.3291   -2.8722    0.0000 H   0  0  0  0  0  0  0  0  0  0  0  0
  1 15  1  0  0  0  0
  2 19  1  0  0  0  0
  3  9  1  0  0  0  0
  3 12  1  0  0  0  0
 10  4  1  1  0  0  0
  4 27  1  0  0  0  0
 11  5  1  1  0  0  0
  5 28  1  0  0  0  0
  6 13  1  0  0  0  0
  6 30  1  0  0  0  0
  9  7  1  6  0  0  0
  7 14  1  0  0  0  0
  7 15  1  0  0  0  0
  8 15  2  0  0  0  0
  8 16  1  0  0  0  0
  9 10  1  0  0  0  0
  9 21  1  0  0  0  0
 10 11  1  0  0  0  0
 10 22  1  0  0  0  0
 11 12  1  0  0  0  0
 11 23  1  0  0  0  0
 12 13  1  6  0  0  0
 12 24  1  0  0  0  0
 13 25  1  0  0  0  0
 13 26  1  0  0  0  0
 14 16  2  0  0  0  0
 14 17  1  0  0  0  0
 16 18  1  0  0  0  0
 17 19  2  0  0  0  0
 17 29  1  0  0  0  0
 18 20  2  0  0  0  0
 18 31  1  0  0  0  0
 19 20  1  0  0  0  0
 20 32  1  0  0  0  0
M  END
> <PUBCHEM_COMPOUND_CID>
516036
> <PUBCHEM_COMPOUND_CANONICALIZED>
1
> <PUBCHEM_CACTVS_COMPLEXITY>
364
> <PUBCHEM_CACTVS_HBOND_ACCEPTOR>
5
> <PUBCHEM_CACTVS_HBOND_DONOR>
3
> <PUBCHEM_CACTVS_ROTATABLE_BOND>
2
> <PUBCHEM_CACTVS_SUBSKEYS>
AAADccBzOAAGAAAAAAAAAAAAAAAAAWJAAAAwAAAAAAAAAFgB8AAAHgIACAAACB7hliYx0LcMFgCgASRiZACCgC0hF6AJ2CA4dpiLeKLBm5GeYAhvgALbyCfwMAIAAABAAAIAACAAAIAABAAAQAAAAAAAAA==
> <PUBCHEM_IUPAC_OPENEYE_NAME>
(2R,3R,4S,5R)-2-(2,6-dichlorobenzimidazol-1-yl)-5-(hydroxymethyl)tetrahydrofuran-3,4-diol
> <PUBCHEM_IUPAC_CAS_NAME>
(2R,3R,4S,5R)-2-(2,6-dichloro-1-benzimidazolyl)-5-(hydroxymethyl)oxolane-3,4-diol
> <PUBCHEM_IUPAC_NAME_MARKUP>
(2<I>R</I>,3<I>R</I>,4<I>S</I>,5<I>R</I>)-2-(2,6-dichlorobenzimidazol-1-yl)-5-(hydroxymethyl)oxolane-3,4-diol
> <PUBCHEM_IUPAC_NAME>
(2R,3R,4S,5R)-2-(2,6-dichlorobenzimidazol-1-yl)-5-(hydroxymethyl)oxolane-3,4-diol
> <PUBCHEM_IUPAC_SYSTEMATIC_NAME>
(2R,3R,4S,5R)-2-[2,6-bis(chloranyl)benzimidazol-1-yl]-5-(hydroxymethyl)oxolane-3,4-diol
> <PUBCHEM_IUPAC_TRADITIONAL_NAME>
(2R,3R,4S,5R)-2-(2,6-dichlorobenzimidazol-1-yl)-5-methylol-tetrahydrofuran-3,4-diol
> <PUBCHEM_IUPAC_INCHI>
InChI=1S/C12H12Cl2N2O4/c13-5-1-2-6-7(3-5)16(12(14)15-6)11-10(19)9(18)8(4-17)20-11/h1-3,8-11,17-19H,4H2/t8-,9-,10-,11-/m1/s1
> <PUBCHEM_IUPAC_INCHIKEY>
FFOVOHLMYHGZTB-GWOFURMSSA-N
> <PUBCHEM_XLOGP3_AA>
1.4
> <PUBCHEM_EXACT_MASS>
318.0174123
> <PUBCHEM_MOLECULAR_FORMULA>
C12H12Cl2N2O4
> <PUBCHEM_MOLECULAR_WEIGHT>
319.14
> <PUBCHEM_OPENEYE_CAN_SMILES>
C1=CC2=C(C=C1Cl)N(C(=N2)Cl)C3C(C(C(O3)CO)O)O
> <PUBCHEM_OPENEYE_ISO_SMILES>
C1=CC2=C(C=C1Cl)N(C(=N2)Cl)[C@H]3[C@@H]([C@@H]([C@H](O3)CO)O)O
> <PUBCHEM_CACTVS_TPSA>
87.7
> <PUBCHEM_MONOISOTOPIC_WEIGHT>
318.0174123
> <PUBCHEM_TOTAL_CHARGE>
0
> <PUBCHEM_HEAVY_ATOM_COUNT>
20
> <PUBCHEM_ATOM_DEF_STEREO_COUNT>
4
> <PUBCHEM_ATOM_UDEF_STEREO_COUNT>
0
> <PUBCHEM_BOND_DEF_STEREO_COUNT>
0
> <PUBCHEM_BOND_UDEF_STEREO_COUNT>
0
> <PUBCHEM_ISOTOPIC_ATOM_COUNT>
0
> <PUBCHEM_COMPONENT_COUNT>
1
> <PUBCHEM_CACTVS_TAUTO_COUNT>
-1
> <PUBCHEM_COORDINATE_TYPE>
1
5
255
> <PUBCHEM_BONDANNOTATIONS>
12  13  6
14  16  8
14  17  8
16  18  8
17  19  8
18  20  8
19  20  8
10  4  5
11  5  5
7  14  8
7  15  8
9  7  6
8  15  8
8  16  8
$$$$
