516072
  -OEChem-10302200282D
 31 33  0     1  0  0  0  0  0999 V2000
    6.5328   -3.2312    0.0000 S   0  0  0  0  0  0  0  0  0  0  0  0
    4.9143    0.1426    0.0000 O   0  0  0  0  0  0  0  0  0  0  0  0
    2.5664   -0.9452    0.0000 O   0  0  0  0  0  0  0  0  0  0  0  0
    2.5664    1.2304    0.0000 O   0  0  0  0  0  0  0  0  0  0  0  0
    3.9664    2.6458    0.0000 O   0  0  0  0  0  0  0  0  0  0  0  0
    4.6355   -1.6175    0.0000 N   0  0  0  0  0  0  0  0  0  0  0  0
    4.6355   -3.2355    0.0000 N   0  0  0  0  0  0  0  0  0  0  0  0
    7.1164   -2.4265    0.0000 N   0  0  0  0  0  0  0  0  0  0  0  0
    4.3265   -0.6664    0.0000 C   0  0  1  0  0  0  0  0  0  0  0  0
    3.3754   -0.3574    0.0000 C   0  0  1  0  0  0  0  0  0  0  0  0
    3.3754    0.6426    0.0000 C   0  0  1  0  0  0  0  0  0  0  0  0
    4.3265    0.9516    0.0000 C   0  0  1  0  0  0  0  0  0  0  0  0
    4.6355    1.9027    0.0000 C   0  0  0  0  0  0  0  0  0  0  0  0
    5.5865   -1.9265    0.0000 C   0  0  0  0  0  0  0  0  0  0  0  0
    4.0477   -2.4265    0.0000 C   0  0  0  0  0  0  0  0  0  0  0  0
    5.5865   -2.9265    0.0000 C   0  0  0  0  0  0  0  0  0  0  0  0
    6.5328   -1.6217    0.0000 C   0  0  0  0  0  0  0  0  0  0  0  0
    6.8434   -0.6712    0.0000 C   0  0  0  0  0  0  0  0  0  0  0  0
    4.9388   -0.7634    0.0000 H   0  0  0  0  0  0  0  0  0  0  0  0
    3.4724   -0.9698    0.0000 H   0  0  0  0  0  0  0  0  0  0  0  0
    2.8230    0.3611    0.0000 H   0  0  0  0  0  0  0  0  0  0  0  0
    4.9388    1.0486    0.0000 H   0  0  0  0  0  0  0  0  0  0  0  0
    5.1829    1.6116    0.0000 H   0  0  0  0  0  0  0  0  0  0  0  0
    5.0172    2.3913    0.0000 H   0  0  0  0  0  0  0  0  0  0  0  0
    2.0000   -0.6930    0.0000 H   0  0  0  0  0  0  0  0  0  0  0  0
    3.4277   -2.4265    0.0000 H   0  0  0  0  0  0  0  0  0  0  0  0
    2.0000    0.9782    0.0000 H   0  0  0  0  0  0  0  0  0  0  0  0
    4.1579    3.2355    0.0000 H   0  0  0  0  0  0  0  0  0  0  0  0
    7.4328   -0.8638    0.0000 H   0  0  0  0  0  0  0  0  0  0  0  0
    7.0360   -0.0819    0.0000 H   0  0  0  0  0  0  0  0  0  0  0  0
    6.2541   -0.4786    0.0000 H   0  0  0  0  0  0  0  0  0  0  0  0
  1  8  1  0  0  0  0
  1 16  1  0  0  0  0
  2  9  1  0  0  0  0
  2 12  1  0  0  0  0
 10  3  1  6  0  0  0
  3 25  1  0  0  0  0
 11  4  1  6  0  0  0
  4 27  1  0  0  0  0
  5 13  1  0  0  0  0
  5 28  1  0  0  0  0
  9  6  1  1  0  0  0
  6 14  1  0  0  0  0
  6 15  1  0  0  0  0
  7 15  2  0  0  0  0
  7 16  1  0  0  0  0
  8 17  2  0  0  0  0
  9 10  1  0  0  0  0
  9 19  1  0  0  0  0
 10 11  1  0  0  0  0
 10 20  1  0  0  0  0
 11 12  1  0  0  0  0
 11 21  1  0  0  0  0
 12 13  1  1  0  0  0
 12 22  1  0  0  0  0
 13 23  1  0  0  0  0
 13 24  1  0  0  0  0
 14 16  2  0  0  0  0
 14 17  1  0  0  0  0
 15 26  1  0  0  0  0
 17 18  1  0  0  0  0
 18 29  1  0  0  0  0
 18 30  1  0  0  0  0
 18 31  1  0  0  0  0
M  END
> <PUBCHEM_COMPOUND_CID>
516072
> <PUBCHEM_COMPOUND_CANONICALIZED>
1
> <PUBCHEM_CACTVS_COMPLEXITY>
324
> <PUBCHEM_CACTVS_HBOND_ACCEPTOR>
7
> <PUBCHEM_CACTVS_HBOND_DONOR>
3
> <PUBCHEM_CACTVS_ROTATABLE_BOND>
2
> <PUBCHEM_CACTVS_SUBSKEYS>
AAADccBzOABAAAAAAAAAAAAAAAAAAWLEgAAAAAAAAAAWAAAB+AAAHgQASAAACBzh1gYH0bcMFgCkAQRhZACB8D0xEKgBWDQ4VBiDeAJAyMAeRAxPAALTQCDwMAIAAAAAAAAAAAAAAAAAAAAAAAAAAAAAAA==
> <PUBCHEM_IUPAC_OPENEYE_NAME>
(2R,3S,4R,5R)-2-(hydroxymethyl)-5-(3-methylimidazo[4,5-d]isothiazol-4-yl)tetrahydrofuran-3,4-diol
> <PUBCHEM_IUPAC_CAS_NAME>
(2R,3S,4R,5R)-2-(hydroxymethyl)-5-(3-methyl-4-imidazo[4,5-d]isothiazolyl)oxolane-3,4-diol
> <PUBCHEM_IUPAC_NAME_MARKUP>
(2<I>R</I>,3<I>S</I>,4<I>R</I>,5<I>R</I>)-2-(hydroxymethyl)-5-(3-methylimidazo[4,5-d][1,2]thiazol-4-yl)oxolane-3,4-diol
> <PUBCHEM_IUPAC_NAME>
(2R,3S,4R,5R)-2-(hydroxymethyl)-5-(3-methylimidazo[4,5-d][1,2]thiazol-4-yl)oxolane-3,4-diol
> <PUBCHEM_IUPAC_SYSTEMATIC_NAME>
(2R,3S,4R,5R)-2-(hydroxymethyl)-5-(3-methylimidazo[4,5-d][1,2]thiazol-4-yl)oxolane-3,4-diol
> <PUBCHEM_IUPAC_TRADITIONAL_NAME>
(2R,3R,4S,5R)-2-(3-methylimidaz[4,5-d]isothiazol-4-yl)-5-methylol-tetrahydrofuran-3,4-diol
> <PUBCHEM_IUPAC_INCHI>
InChI=1S/C10H13N3O4S/c1-4-6-9(18-12-4)11-3-13(6)10-8(16)7(15)5(2-14)17-10/h3,5,7-8,10,14-16H,2H2,1H3/t5-,7-,8-,10-/m1/s1
> <PUBCHEM_IUPAC_INCHIKEY>
WOEHDSNBQICRQO-VPCXQMTMSA-N
> <PUBCHEM_XLOGP3_AA>
-0.4
> <PUBCHEM_EXACT_MASS>
271.06267708
> <PUBCHEM_MOLECULAR_FORMULA>
C10H13N3O4S
> <PUBCHEM_MOLECULAR_WEIGHT>
271.30
> <PUBCHEM_OPENEYE_CAN_SMILES>
CC1=NSC2=C1N(C=N2)C3C(C(C(O3)CO)O)O
> <PUBCHEM_OPENEYE_ISO_SMILES>
CC1=NSC2=C1N(C=N2)[C@H]3[C@@H]([C@@H]([C@H](O3)CO)O)O
> <PUBCHEM_CACTVS_TPSA>
129
> <PUBCHEM_MONOISOTOPIC_WEIGHT>
271.06267708
> <PUBCHEM_TOTAL_CHARGE>
0
> <PUBCHEM_HEAVY_ATOM_COUNT>
18
> <PUBCHEM_ATOM_DEF_STEREO_COUNT>
4
> <PUBCHEM_ATOM_UDEF_STEREO_COUNT>
0
> <PUBCHEM_BOND_DEF_STEREO_COUNT>
0
> <PUBCHEM_BOND_UDEF_STEREO_COUNT>
0
> <PUBCHEM_ISOTOPIC_ATOM_COUNT>
0
> <PUBCHEM_COMPONENT_COUNT>
1
> <PUBCHEM_CACTVS_TAUTO_COUNT>
-1
> <PUBCHEM_COORDINATE_TYPE>
1
5
255
> <PUBCHEM_BONDANNOTATIONS>
1  16  8
1  8  8
12  13  5
14  16  8
14  17  8
10  3  6
11  4  6
6  14  8
6  15  8
9  6  5
7  15  8
7  16  8
8  17  8
$$$$
