516041
  -OEChem-10302200282D
 45 47  0     1  0  0  0  0  0999 V2000
    7.1279   -2.2430    0.0000 Cl  0  0  0  0  0  0  0  0  0  0  0  0
    2.0000   -1.2430    0.0000 Cl  0  0  0  0  0  0  0  0  0  0  0  0
    2.0000   -3.2430    0.0000 Cl  0  0  0  0  0  0  0  0  0  0  0  0
    5.2686    0.3223    0.0000 O   0  0  0  0  0  0  0  0  0  0  0  0
    7.6146   -0.7696    0.0000 O   0  0  0  0  0  0  0  0  0  0  0  0
    7.6183    1.4060    0.0000 O   0  0  0  0  0  0  0  0  0  0  0  0
    4.5726    2.2914    0.0000 O   0  0  0  0  0  0  0  0  0  0  0  0
    8.6350    0.6299    0.0000 O   0  0  0  0  0  0  0  0  0  0  0  0
    6.6027    2.8090    0.0000 O   0  0  0  0  0  0  0  0  0  0  0  0
    5.5443   -1.4383    0.0000 N   0  0  0  0  0  0  0  0  0  0  0  0
    5.5443   -3.0478    0.0000 N   0  0  0  0  0  0  0  0  0  0  0  0
    6.8066   -0.1804    0.0000 C   0  0  2  0  0  0  0  0  0  0  0  0
    6.8083    0.8196    0.0000 C   0  0  1  0  0  0  0  0  0  0  0  0
    5.8550   -0.4878    0.0000 C   0  0  1  0  0  0  0  0  0  0  0  0
    5.8578    1.1302    0.0000 C   0  0  1  0  0  0  0  0  0  0  0  0
    5.5504    2.0818    0.0000 C   0  0  0  0  0  0  0  0  0  0  0  0
    4.5981   -1.7430    0.0000 C   0  0  0  0  0  0  0  0  0  0  0  0
    6.1279   -2.2430    0.0000 C   0  0  0  0  0  0  0  0  0  0  0  0
    4.5981   -2.7430    0.0000 C   0  0  0  0  0  0  0  0  0  0  0  0
    3.7320   -1.2430    0.0000 C   0  0  0  0  0  0  0  0  0  0  0  0
    8.5288   -0.3644    0.0000 C   0  0  0  0  0  0  0  0  0  0  0  0
    7.5155    2.4007    0.0000 C   0  0  0  0  0  0  0  0  0  0  0  0
    3.7320   -3.2430    0.0000 C   0  0  0  0  0  0  0  0  0  0  0  0
    2.8660   -1.7430    0.0000 C   0  0  0  0  0  0  0  0  0  0  0  0
    4.2652    3.2430    0.0000 C   0  0  0  0  0  0  0  0  0  0  0  0
    2.8660   -2.7430    0.0000 C   0  0  0  0  0  0  0  0  0  0  0  0
    9.3368   -0.9536    0.0000 C   0  0  0  0  0  0  0  0  0  0  0  0
    8.3255    2.9871    0.0000 C   0  0  0  0  0  0  0  0  0  0  0  0
    7.3595    0.1001    0.0000 H   0  0  0  0  0  0  0  0  0  0  0  0
    7.3602    0.5372    0.0000 H   0  0  0  0  0  0  0  0  0  0  0  0
    6.2926   -0.9269    0.0000 H   0  0  0  0  0  0  0  0  0  0  0  0
    5.2456    1.2283    0.0000 H   0  0  0  0  0  0  0  0  0  0  0  0
    6.1645    2.1671    0.0000 H   0  0  0  0  0  0  0  0  0  0  0  0
    5.5731    2.7014    0.0000 H   0  0  0  0  0  0  0  0  0  0  0  0
    3.7320   -0.6230    0.0000 H   0  0  0  0  0  0  0  0  0  0  0  0
    3.7320   -3.8630    0.0000 H   0  0  0  0  0  0  0  0  0  0  0  0
    4.8552    3.4336    0.0000 H   0  0  0  0  0  0  0  0  0  0  0  0
    4.0747    3.8330    0.0000 H   0  0  0  0  0  0  0  0  0  0  0  0
    3.6752    3.0525    0.0000 H   0  0  0  0  0  0  0  0  0  0  0  0
    8.9715   -1.4546    0.0000 H   0  0  0  0  0  0  0  0  0  0  0  0
    9.8378   -1.3189    0.0000 H   0  0  0  0  0  0  0  0  0  0  0  0
    9.7021   -0.4527    0.0000 H   0  0  0  0  0  0  0  0  0  0  0  0
    8.6891    2.4848    0.0000 H   0  0  0  0  0  0  0  0  0  0  0  0
    8.8278    3.3506    0.0000 H   0  0  0  0  0  0  0  0  0  0  0  0
    7.9620    3.4893    0.0000 H   0  0  0  0  0  0  0  0  0  0  0  0
  1 18  1  0  0  0  0
  2 24  1  0  0  0  0
  3 26  1  0  0  0  0
  4 14  1  0  0  0  0
  4 15  1  0  0  0  0
 12  5  1  1  0  0  0
  5 21  1  0  0  0  0
 13  6  1  1  0  0  0
  6 22  1  0  0  0  0
  7 16  1  0  0  0  0
  7 25  1  0  0  0  0
  8 21  2  0  0  0  0
  9 22  2  0  0  0  0
 14 10  1  6  0  0  0
 10 17  1  0  0  0  0
 10 18  1  0  0  0  0
 11 18  2  0  0  0  0
 11 19  1  0  0  0  0
 12 13  1  0  0  0  0
 12 14  1  0  0  0  0
 12 29  1  0  0  0  0
 13 15  1  0  0  0  0
 13 30  1  0  0  0  0
 14 31  1  0  0  0  0
 15 16  1  6  0  0  0
 15 32  1  0  0  0  0
 16 33  1  0  0  0  0
 16 34  1  0  0  0  0
 17 19  1  0  0  0  0
 17 20  2  0  0  0  0
 19 23  2  0  0  0  0
 20 24  1  0  0  0  0
 20 35  1  0  0  0  0
 21 27  1  0  0  0  0
 22 28  1  0  0  0  0
 23 26  1  0  0  0  0
 23 36  1  0  0  0  0
 24 26  2  0  0  0  0
 25 37  1  0  0  0  0
 25 38  1  0  0  0  0
 25 39  1  0  0  0  0
 27 40  1  0  0  0  0
 27 41  1  0  0  0  0
 27 42  1  0  0  0  0
 28 43  1  0  0  0  0
 28 44  1  0  0  0  0
 28 45  1  0  0  0  0
M  END
> <PUBCHEM_COMPOUND_CID>
516041
> <PUBCHEM_COMPOUND_CANONICALIZED>
1
> <PUBCHEM_CACTVS_COMPLEXITY>
599
> <PUBCHEM_CACTVS_HBOND_ACCEPTOR>
7
> <PUBCHEM_CACTVS_HBOND_DONOR>
0
> <PUBCHEM_CACTVS_ROTATABLE_BOND>
7
> <PUBCHEM_CACTVS_SUBSKEYS>
AAADceB7OAAGAAAAAAAAAAAAAAAAAWJAAAAwAAAAAAAAAFgB8AAAHgIAAAAACB7hliYz2LcMFACoASTybACCgC0hF6AB2mA4dpiLaKLBmpGfIAhvgALayCfwMAoAAABAAAIAACQAAIAABAAASAAAAAAAAA==
> <PUBCHEM_IUPAC_OPENEYE_NAME>
[(2R,3R,4R,5R)-4-acetoxy-2-(methoxymethyl)-5-(2,5,6-trichlorobenzimidazol-1-yl)tetrahydrofuran-3-yl] acetate
> <PUBCHEM_IUPAC_CAS_NAME>
acetic acid [(2R,3R,4R,5R)-4-acetyloxy-2-(methoxymethyl)-5-(2,5,6-trichloro-1-benzimidazolyl)-3-oxolanyl] ester
> <PUBCHEM_IUPAC_NAME_MARKUP>
[(2<I>R</I>,3<I>R</I>,4<I>R</I>,5<I>R</I>)-4-acetyloxy-2-(methoxymethyl)-5-(2,5,6-trichlorobenzimidazol-1-yl)oxolan-3-yl] acetate
> <PUBCHEM_IUPAC_NAME>
[(2R,3R,4R,5R)-4-acetyloxy-2-(methoxymethyl)-5-(2,5,6-trichlorobenzimidazol-1-yl)oxolan-3-yl] acetate
> <PUBCHEM_IUPAC_SYSTEMATIC_NAME>
[(2R,3R,4R,5R)-4-acetyloxy-2-(methoxymethyl)-5-[2,5,6-tris(chloranyl)benzimidazol-1-yl]oxolan-3-yl] ethanoate
> <PUBCHEM_IUPAC_TRADITIONAL_NAME>
acetic acid [(2R,3R,4R,5R)-4-acetoxy-2-(methoxymethyl)-5-(2,5,6-trichlorobenzimidazol-1-yl)tetrahydrofuran-3-yl] ester
> <PUBCHEM_IUPAC_INCHI>
InChI=1S/C17H17Cl3N2O6/c1-7(23)26-14-13(6-25-3)28-16(15(14)27-8(2)24)22-12-5-10(19)9(18)4-11(12)21-17(22)20/h4-5,13-16H,6H2,1-3H3/t13-,14-,15-,16-/m1/s1
> <PUBCHEM_IUPAC_INCHIKEY>
XUQRUYTUUXRETK-KLHDSHLOSA-N
> <PUBCHEM_XLOGP3_AA>
3.2
> <PUBCHEM_EXACT_MASS>
450.015219
> <PUBCHEM_MOLECULAR_FORMULA>
C17H17Cl3N2O6
> <PUBCHEM_MOLECULAR_WEIGHT>
451.7
> <PUBCHEM_OPENEYE_CAN_SMILES>
CC(=O)OC1C(OC(C1OC(=O)C)N2C3=CC(=C(C=C3N=C2Cl)Cl)Cl)COC
> <PUBCHEM_OPENEYE_ISO_SMILES>
CC(=O)O[C@@H]1[C@H](O[C@H]([C@@H]1OC(=O)C)N2C3=CC(=C(C=C3N=C2Cl)Cl)Cl)COC
> <PUBCHEM_CACTVS_TPSA>
88.9
> <PUBCHEM_MONOISOTOPIC_WEIGHT>
450.015219
> <PUBCHEM_TOTAL_CHARGE>
0
> <PUBCHEM_HEAVY_ATOM_COUNT>
28
> <PUBCHEM_ATOM_DEF_STEREO_COUNT>
4
> <PUBCHEM_ATOM_UDEF_STEREO_COUNT>
0
> <PUBCHEM_BOND_DEF_STEREO_COUNT>
0
> <PUBCHEM_BOND_UDEF_STEREO_COUNT>
0
> <PUBCHEM_ISOTOPIC_ATOM_COUNT>
0
> <PUBCHEM_COMPONENT_COUNT>
1
> <PUBCHEM_CACTVS_TAUTO_COUNT>
-1
> <PUBCHEM_COORDINATE_TYPE>
1
5
255
> <PUBCHEM_BONDANNOTATIONS>
14  10  6
10  17  8
10  18  8
11  18  8
11  19  8
15  16  6
17  19  8
17  20  8
19  23  8
20  24  8
23  26  8
24  26  8
12  5  5
13  6  5
$$$$
