516086
  -OEChem-10302200282D
 32 34  0     1  0  0  0  0  0999 V2000
    6.5328    1.3256    0.0000 S   0  0  0  0  0  0  0  0  0  0  0  0
    3.0477    2.1304    0.0000 S   0  0  0  0  0  0  0  0  0  0  0  0
    4.9143   -0.4387    0.0000 O   0  0  0  0  0  0  0  0  0  0  0  0
    2.5664    0.6490    0.0000 O   0  0  0  0  0  0  0  0  0  0  0  0
    2.5664   -1.5265    0.0000 O   0  0  0  0  0  0  0  0  0  0  0  0
    5.6136   -2.4067    0.0000 O   0  0  0  0  0  0  0  0  0  0  0  0
    4.6355    1.3213    0.0000 N   0  0  0  0  0  0  0  0  0  0  0  0
    4.6355    2.9394    0.0000 N   0  0  0  0  0  0  0  0  0  0  0  0
    7.1164    2.1304    0.0000 N   0  0  0  0  0  0  0  0  0  0  0  0
    4.3265    0.3703    0.0000 C   0  0  1  0  0  0  0  0  0  0  0  0
    3.3754    0.0613    0.0000 C   0  0  1  0  0  0  0  0  0  0  0  0
    3.3754   -0.9387    0.0000 C   0  0  1  0  0  0  0  0  0  0  0  0
    4.3265   -1.2478    0.0000 C   0  0  1  0  0  0  0  0  0  0  0  0
    4.6355   -2.1988    0.0000 C   0  0  0  0  0  0  0  0  0  0  0  0
    5.5865    1.6304    0.0000 C   0  0  0  0  0  0  0  0  0  0  0  0
    4.0477    2.1304    0.0000 C   0  0  0  0  0  0  0  0  0  0  0  0
    5.5865    2.6304    0.0000 C   0  0  0  0  0  0  0  0  0  0  0  0
    6.5328    2.9351    0.0000 C   0  0  0  0  0  0  0  0  0  0  0  0
    2.5477    2.9964    0.0000 C   0  0  0  0  0  0  0  0  0  0  0  0
    4.9388    0.4673    0.0000 H   0  0  0  0  0  0  0  0  0  0  0  0
    3.4724    0.6736    0.0000 H   0  0  0  0  0  0  0  0  0  0  0  0
    2.8230   -0.6573    0.0000 H   0  0  0  0  0  0  0  0  0  0  0  0
    4.9388   -1.3447    0.0000 H   0  0  0  0  0  0  0  0  0  0  0  0
    4.0215   -2.2851    0.0000 H   0  0  0  0  0  0  0  0  0  0  0  0
    4.6138   -2.8184    0.0000 H   0  0  0  0  0  0  0  0  0  0  0  0
    2.0000    0.3969    0.0000 H   0  0  0  0  0  0  0  0  0  0  0  0
    2.6312   -2.1431    0.0000 H   0  0  0  0  0  0  0  0  0  0  0  0
    5.8052   -2.9964    0.0000 H   0  0  0  0  0  0  0  0  0  0  0  0
    6.7254    3.5244    0.0000 H   0  0  0  0  0  0  0  0  0  0  0  0
    3.0846    3.3064    0.0000 H   0  0  0  0  0  0  0  0  0  0  0  0
    2.2377    3.5333    0.0000 H   0  0  0  0  0  0  0  0  0  0  0  0
    2.0108    2.6864    0.0000 H   0  0  0  0  0  0  0  0  0  0  0  0
  1  9  1  0  0  0  0
  1 15  1  0  0  0  0
  2 16  1  0  0  0  0
  2 19  1  0  0  0  0
  3 10  1  0  0  0  0
  3 13  1  0  0  0  0
 11  4  1  1  0  0  0
  4 26  1  0  0  0  0
 12  5  1  1  0  0  0
  5 27  1  0  0  0  0
  6 14  1  0  0  0  0
  6 28  1  0  0  0  0
 10  7  1  6  0  0  0
  7 15  1  0  0  0  0
  7 16  1  0  0  0  0
  8 16  2  0  0  0  0
  8 17  1  0  0  0  0
  9 18  2  0  0  0  0
 10 11  1  0  0  0  0
 10 20  1  0  0  0  0
 11 12  1  0  0  0  0
 11 21  1  0  0  0  0
 12 13  1  0  0  0  0
 12 22  1  0  0  0  0
 13 14  1  6  0  0  0
 13 23  1  0  0  0  0
 14 24  1  0  0  0  0
 14 25  1  0  0  0  0
 15 17  2  0  0  0  0
 17 18  1  0  0  0  0
 18 29  1  0  0  0  0
 19 30  1  0  0  0  0
 19 31  1  0  0  0  0
 19 32  1  0  0  0  0
M  END
> <PUBCHEM_COMPOUND_CID>
516086
> <PUBCHEM_COMPOUND_CANONICALIZED>
1
> <PUBCHEM_CACTVS_COMPLEXITY>
340
> <PUBCHEM_CACTVS_HBOND_ACCEPTOR>
8
> <PUBCHEM_CACTVS_HBOND_DONOR>
3
> <PUBCHEM_CACTVS_ROTATABLE_BOND>
3
> <PUBCHEM_CACTVS_SUBSKEYS>
AAADccBzOABgAAAAAAAAAAAAAAAAAWLEgAAAAAAAAAAWAAAB+AAAHgQASAAACBzh1gav0bcMFgikARRnZACB8D1BEqgBUDQ4dBCDWIJAyEAeRAwPAALTACDwMAIAAAAAAAAAAAAAAAAAAAAAAAAAAAAAAA==
> <PUBCHEM_IUPAC_OPENEYE_NAME>
(2R,3S,4R,5R)-2-(hydroxymethyl)-5-(5-methylsulfanylimidazo[4,5-d]isothiazol-6-yl)tetrahydrofuran-3,4-diol
> <PUBCHEM_IUPAC_CAS_NAME>
(2R,3S,4R,5R)-2-(hydroxymethyl)-5-[5-(methylthio)-6-imidazo[4,5-d]isothiazolyl]oxolane-3,4-diol
> <PUBCHEM_IUPAC_NAME_MARKUP>
(2<I>R</I>,3<I>S</I>,4<I>R</I>,5<I>R</I>)-2-(hydroxymethyl)-5-(5-methylsulfanylimidazo[4,5-d][1,2]thiazol-6-yl)oxolane-3,4-diol
> <PUBCHEM_IUPAC_NAME>
(2R,3S,4R,5R)-2-(hydroxymethyl)-5-(5-methylsulfanylimidazo[4,5-d][1,2]thiazol-6-yl)oxolane-3,4-diol
> <PUBCHEM_IUPAC_SYSTEMATIC_NAME>
(2R,3S,4R,5R)-2-(hydroxymethyl)-5-(5-methylsulfanylimidazo[4,5-d][1,2]thiazol-6-yl)oxolane-3,4-diol
> <PUBCHEM_IUPAC_TRADITIONAL_NAME>
(2R,3S,4R,5R)-2-methylol-5-[5-(methylthio)imidaz[4,5-d]isothiazol-6-yl]tetrahydrofuran-3,4-diol
> <PUBCHEM_IUPAC_INCHI>
InChI=1S/C10H13N3O4S2/c1-18-10-12-4-2-11-19-9(4)13(10)8-7(16)6(15)5(3-14)17-8/h2,5-8,14-16H,3H2,1H3/t5-,6-,7-,8-/m1/s1
> <PUBCHEM_IUPAC_INCHIKEY>
BANDIVBQLBQKTO-WCTZXXKLSA-N
> <PUBCHEM_XLOGP3_AA>
0.1
> <PUBCHEM_EXACT_MASS>
303.03474825
> <PUBCHEM_MOLECULAR_FORMULA>
C10H13N3O4S2
> <PUBCHEM_MOLECULAR_WEIGHT>
303.4
> <PUBCHEM_OPENEYE_CAN_SMILES>
CSC1=NC2=C(N1C3C(C(C(O3)CO)O)O)SN=C2
> <PUBCHEM_OPENEYE_ISO_SMILES>
CSC1=NC2=C(N1[C@H]3[C@@H]([C@@H]([C@H](O3)CO)O)O)SN=C2
> <PUBCHEM_CACTVS_TPSA>
154
> <PUBCHEM_MONOISOTOPIC_WEIGHT>
303.03474825
> <PUBCHEM_TOTAL_CHARGE>
0
> <PUBCHEM_HEAVY_ATOM_COUNT>
19
> <PUBCHEM_ATOM_DEF_STEREO_COUNT>
4
> <PUBCHEM_ATOM_UDEF_STEREO_COUNT>
0
> <PUBCHEM_BOND_DEF_STEREO_COUNT>
0
> <PUBCHEM_BOND_UDEF_STEREO_COUNT>
0
> <PUBCHEM_ISOTOPIC_ATOM_COUNT>
0
> <PUBCHEM_COMPONENT_COUNT>
1
> <PUBCHEM_CACTVS_TAUTO_COUNT>
-1
> <PUBCHEM_COORDINATE_TYPE>
1
5
255
> <PUBCHEM_BONDANNOTATIONS>
1  15  8
1  9  8
13  14  6
15  17  8
17  18  8
11  4  5
12  5  5
10  7  6
7  15  8
7  16  8
8  16  8
8  17  8
9  18  8
$$$$
