516000
  -OEChem-10302200282D
 74 75  0     1  0  0  0  0  0999 V2000
    7.1962    0.8100    0.0000 O   0  0  0  0  0  0  0  0  0  0  0  0
    9.7942   -1.6900    0.0000 O   0  0  0  0  0  0  0  0  0  0  0  0
    5.4641    2.8100    0.0000 O   0  0  0  0  0  0  0  0  0  0  0  0
    6.3301    1.3100    0.0000 O   0  0  0  0  0  0  0  0  0  0  0  0
   13.2583   -0.6900    0.0000 O   0  0  0  0  0  0  0  0  0  0  0  0
   11.5263   -3.6900    0.0000 O   0  0  0  0  0  0  0  0  0  0  0  0
    8.9282    0.8100    0.0000 N   0  0  0  0  0  0  0  0  0  0  0  0
    7.1962    2.8100    0.0000 N   0  0  0  0  0  0  0  0  0  0  0  0
   10.6603   -0.1900    0.0000 N   0  0  0  0  0  0  0  0  0  0  0  0
   13.2583   -3.6900    0.0000 N   0  0  0  0  0  0  0  0  0  0  0  0
    8.9282    2.8100    0.0000 C   0  0  0  0  0  0  0  0  0  0  0  0
    8.0622    2.3100    0.0000 C   0  0  1  0  0  0  0  0  0  0  0  0
    8.9282    3.8100    0.0000 C   0  0  0  0  0  0  0  0  0  0  0  0
    8.9282   -0.1900    0.0000 C   0  0  1  0  0  0  0  0  0  0  0  0
    8.0622    1.3100    0.0000 C   0  0  0  0  0  0  0  0  0  0  0  0
    8.0622   -0.6900    0.0000 C   0  0  0  0  0  0  0  0  0  0  0  0
    9.7942    4.3100    0.0000 C   0  0  0  0  0  0  0  0  0  0  0  0
    8.0622    4.3100    0.0000 C   0  0  0  0  0  0  0  0  0  0  0  0
    9.7942   -0.6900    0.0000 C   0  0  0  0  0  0  0  0  0  0  0  0
   11.5263   -0.6900    0.0000 C   0  0  1  0  0  0  0  0  0  0  0  0
    8.0622   -1.6900    0.0000 C   0  0  0  0  0  0  0  0  0  0  0  0
   11.5263   -1.6900    0.0000 C   0  0  0  0  0  0  0  0  0  0  0  0
    6.3301    2.3100    0.0000 C   0  0  0  0  0  0  0  0  0  0  0  0
   12.3923   -2.1900    0.0000 C   0  0  0  0  0  0  0  0  0  0  0  0
    8.9282   -2.1900    0.0000 C   0  0  0  0  0  0  0  0  0  0  0  0
    7.1962   -2.1900    0.0000 C   0  0  0  0  0  0  0  0  0  0  0  0
   12.3923   -0.1900    0.0000 C   0  0  0  0  0  0  0  0  0  0  0  0
    8.9282   -3.1900    0.0000 C   0  0  0  0  0  0  0  0  0  0  0  0
    7.1962   -3.1900    0.0000 C   0  0  0  0  0  0  0  0  0  0  0  0
   12.3923   -3.1900    0.0000 C   0  0  0  0  0  0  0  0  0  0  0  0
    8.0622   -3.6900    0.0000 C   0  0  0  0  0  0  0  0  0  0  0  0
    4.5981    2.3100    0.0000 C   0  0  0  0  0  0  0  0  0  0  0  0
    3.7320    2.8100    0.0000 C   0  0  0  0  0  0  0  0  0  0  0  0
    3.7320    3.8100    0.0000 C   0  0  0  0  0  0  0  0  0  0  0  0
    2.8660    2.3100    0.0000 C   0  0  0  0  0  0  0  0  0  0  0  0
    2.8660    4.3100    0.0000 C   0  0  0  0  0  0  0  0  0  0  0  0
    2.0000    2.8100    0.0000 C   0  0  0  0  0  0  0  0  0  0  0  0
    2.0000    3.8100    0.0000 C   0  0  0  0  0  0  0  0  0  0  0  0
    9.1403    2.2274    0.0000 H   0  0  0  0  0  0  0  0  0  0  0  0
    9.5388    2.9177    0.0000 H   0  0  0  0  0  0  0  0  0  0  0  0
    8.0622    2.9300    0.0000 H   0  0  0  0  0  0  0  0  0  0  0  0
    9.4651    3.5000    0.0000 H   0  0  0  0  0  0  0  0  0  0  0  0
    9.4651    0.1200    0.0000 H   0  0  0  0  0  0  0  0  0  0  0  0
    9.4651    1.1200    0.0000 H   0  0  0  0  0  0  0  0  0  0  0  0
    7.8501   -0.1074    0.0000 H   0  0  0  0  0  0  0  0  0  0  0  0
    7.4516   -0.7977    0.0000 H   0  0  0  0  0  0  0  0  0  0  0  0
   10.1042    3.7731    0.0000 H   0  0  0  0  0  0  0  0  0  0  0  0
   10.3312    4.6200    0.0000 H   0  0  0  0  0  0  0  0  0  0  0  0
    9.4842    4.8469    0.0000 H   0  0  0  0  0  0  0  0  0  0  0  0
    8.3722    4.8469    0.0000 H   0  0  0  0  0  0  0  0  0  0  0  0
    7.5252    4.6200    0.0000 H   0  0  0  0  0  0  0  0  0  0  0  0
    7.7522    3.7731    0.0000 H   0  0  0  0  0  0  0  0  0  0  0  0
    7.1962    3.4300    0.0000 H   0  0  0  0  0  0  0  0  0  0  0  0
   10.9893   -1.0000    0.0000 H   0  0  0  0  0  0  0  0  0  0  0  0
   10.6603    0.4300    0.0000 H   0  0  0  0  0  0  0  0  0  0  0  0
   10.9157   -1.5823    0.0000 H   0  0  0  0  0  0  0  0  0  0  0  0
   11.3142   -2.2726    0.0000 H   0  0  0  0  0  0  0  0  0  0  0  0
   13.0029   -2.2977    0.0000 H   0  0  0  0  0  0  0  0  0  0  0  0
   12.6044   -1.6074    0.0000 H   0  0  0  0  0  0  0  0  0  0  0  0
    9.4651   -1.8800    0.0000 H   0  0  0  0  0  0  0  0  0  0  0  0
    6.6592   -1.8800    0.0000 H   0  0  0  0  0  0  0  0  0  0  0  0
   12.3923    0.4300    0.0000 H   0  0  0  0  0  0  0  0  0  0  0  0
    9.4651   -3.5000    0.0000 H   0  0  0  0  0  0  0  0  0  0  0  0
    6.6592   -3.5000    0.0000 H   0  0  0  0  0  0  0  0  0  0  0  0
    8.0622   -4.3100    0.0000 H   0  0  0  0  0  0  0  0  0  0  0  0
    4.1996    1.8350    0.0000 H   0  0  0  0  0  0  0  0  0  0  0  0
    4.9966    1.8350    0.0000 H   0  0  0  0  0  0  0  0  0  0  0  0
   13.2583   -4.3100    0.0000 H   0  0  0  0  0  0  0  0  0  0  0  0
   13.7953   -3.3800    0.0000 H   0  0  0  0  0  0  0  0  0  0  0  0
    4.2690    4.1200    0.0000 H   0  0  0  0  0  0  0  0  0  0  0  0
    2.8660    1.6900    0.0000 H   0  0  0  0  0  0  0  0  0  0  0  0
    2.8660    4.9300    0.0000 H   0  0  0  0  0  0  0  0  0  0  0  0
    1.4631    2.5000    0.0000 H   0  0  0  0  0  0  0  0  0  0  0  0
    1.4631    4.1200    0.0000 H   0  0  0  0  0  0  0  0  0  0  0  0
  1 15  2  0  0  0  0
  2 19  2  0  0  0  0
  3 23  1  0  0  0  0
  3 32  1  0  0  0  0
  4 23  2  0  0  0  0
  5 27  2  0  0  0  0
  6 30  2  0  0  0  0
 14  7  1  6  0  0  0
  7 15  1  0  0  0  0
  7 44  1  0  0  0  0
 12  8  1  1  0  0  0
  8 23  1  0  0  0  0
  8 53  1  0  0  0  0
  9 19  1  0  0  0  0
 20  9  1  6  0  0  0
  9 55  1  0  0  0  0
 10 30  1  0  0  0  0
 10 68  1  0  0  0  0
 10 69  1  0  0  0  0
 11 12  1  0  0  0  0
 11 13  1  0  0  0  0
 11 39  1  0  0  0  0
 11 40  1  0  0  0  0
 12 15  1  0  0  0  0
 12 41  1  0  0  0  0
 13 17  1  0  0  0  0
 13 18  1  0  0  0  0
 13 42  1  0  0  0  0
 14 16  1  0  0  0  0
 14 19  1  0  0  0  0
 14 43  1  0  0  0  0
 16 21  1  0  0  0  0
 16 45  1  0  0  0  0
 16 46  1  0  0  0  0
 17 47  1  0  0  0  0
 17 48  1  0  0  0  0
 17 49  1  0  0  0  0
 18 50  1  0  0  0  0
 18 51  1  0  0  0  0
 18 52  1  0  0  0  0
 20 22  1  0  0  0  0
 20 27  1  0  0  0  0
 20 54  1  0  0  0  0
 21 25  2  0  0  0  0
 21 26  1  0  0  0  0
 22 24  1  0  0  0  0
 22 56  1  0  0  0  0
 22 57  1  0  0  0  0
 24 30  1  0  0  0  0
 24 58  1  0  0  0  0
 24 59  1  0  0  0  0
 25 28  1  0  0  0  0
 25 60  1  0  0  0  0
 26 29  2  0  0  0  0
 26 61  1  0  0  0  0
 27 62  1  0  0  0  0
 28 31  2  0  0  0  0
 28 63  1  0  0  0  0
 29 31  1  0  0  0  0
 29 64  1  0  0  0  0
 31 65  1  0  0  0  0
 32 33  1  0  0  0  0
 32 66  1  0  0  0  0
 32 67  1  0  0  0  0
 33 34  2  0  0  0  0
 33 35  1  0  0  0  0
 34 36  1  0  0  0  0
 34 70  1  0  0  0  0
 35 37  2  0  0  0  0
 35 71  1  0  0  0  0
 36 38  2  0  0  0  0
 36 72  1  0  0  0  0
 37 38  1  0  0  0  0
 37 73  1  0  0  0  0
 38 74  1  0  0  0  0
M  END
> <PUBCHEM_COMPOUND_CID>
516000
> <PUBCHEM_COMPOUND_CANONICALIZED>
1
> <PUBCHEM_CACTVS_COMPLEXITY>
777
> <PUBCHEM_CACTVS_HBOND_ACCEPTOR>
6
> <PUBCHEM_CACTVS_HBOND_DONOR>
4
> <PUBCHEM_CACTVS_ROTATABLE_BOND>
16
> <PUBCHEM_CACTVS_SUBSKEYS>
AAADcfB7uAAAAAAAAAAAAAAAAAAAAAAAAAAwYAAAAAAAAAABQAAAHgAQAAAADSjhmAYyCILABACIAilSmAACAAAgAAAIiIGICIkIZjKAsTmcMAAk1gGIqAecy6COAAAAAAAAAAAAAAAAAAAAAAAAAAAAAA==
> <PUBCHEM_IUPAC_OPENEYE_NAME>
benzyl N-[(1S)-1-[[(1S)-2-[[(1S)-4-amino-1-formyl-4-oxo-butyl]amino]-1-benzyl-2-oxo-ethyl]carbamoyl]-3-methyl-butyl]carbamate
> <PUBCHEM_IUPAC_CAS_NAME>
N-[(2S)-1-[[(2S)-1-[[(2S)-5-amino-1,5-dioxopentan-2-yl]amino]-1-oxo-3-phenylpropan-2-yl]amino]-4-methyl-1-oxopentan-2-yl]carbamic acid (phenylmethyl) ester
> <PUBCHEM_IUPAC_NAME_MARKUP>
benzyl <I>N</I>-[(2<I>S</I>)-1-[[(2<I>S</I>)-1-[[(2<I>S</I>)-5-amino-1,5-dioxopentan-2-yl]amino]-1-oxo-3-phenylpropan-2-yl]amino]-4-methyl-1-oxopentan-2-yl]carbamate
> <PUBCHEM_IUPAC_NAME>
benzyl N-[(2S)-1-[[(2S)-1-[[(2S)-5-amino-1,5-dioxopentan-2-yl]amino]-1-oxo-3-phenylpropan-2-yl]amino]-4-methyl-1-oxopentan-2-yl]carbamate
> <PUBCHEM_IUPAC_SYSTEMATIC_NAME>
(phenylmethyl) N-[(2S)-1-[[(2S)-1-[[(2S)-5-azanyl-1,5-bis(oxidanylidene)pentan-2-yl]amino]-1-oxidanylidene-3-phenyl-propan-2-yl]amino]-4-methyl-1-oxidanylidene-pentan-2-yl]carbamate
> <PUBCHEM_IUPAC_TRADITIONAL_NAME>
N-[(1S)-1-[[(1S)-2-[[(1S)-4-amino-1-formyl-4-keto-butyl]amino]-1-benzyl-2-keto-ethyl]carbamoyl]-3-methyl-butyl]carbamic acid benzyl ester
> <PUBCHEM_IUPAC_INCHI>
InChI=1S/C28H36N4O6/c1-19(2)15-23(32-28(37)38-18-21-11-7-4-8-12-21)27(36)31-24(16-20-9-5-3-6-10-20)26(35)30-22(17-33)13-14-25(29)34/h3-12,17,19,22-24H,13-16,18H2,1-2H3,(H2,29,34)(H,30,35)(H,31,36)(H,32,37)/t22-,23-,24-/m0/s1
> <PUBCHEM_IUPAC_INCHIKEY>
LUAUEQZREWTXGJ-HJOGWXRNSA-N
> <PUBCHEM_XLOGP3>
2.2
> <PUBCHEM_EXACT_MASS>
524.26348488
> <PUBCHEM_MOLECULAR_FORMULA>
C28H36N4O6
> <PUBCHEM_MOLECULAR_WEIGHT>
524.6
> <PUBCHEM_OPENEYE_CAN_SMILES>
CC(C)CC(C(=O)NC(CC1=CC=CC=C1)C(=O)NC(CCC(=O)N)C=O)NC(=O)OCC2=CC=CC=C2
> <PUBCHEM_OPENEYE_ISO_SMILES>
CC(C)C[C@@H](C(=O)N[C@@H](CC1=CC=CC=C1)C(=O)N[C@@H](CCC(=O)N)C=O)NC(=O)OCC2=CC=CC=C2
> <PUBCHEM_CACTVS_TPSA>
157
> <PUBCHEM_MONOISOTOPIC_WEIGHT>
524.26348488
> <PUBCHEM_TOTAL_CHARGE>
0
> <PUBCHEM_HEAVY_ATOM_COUNT>
38
> <PUBCHEM_ATOM_DEF_STEREO_COUNT>
3
> <PUBCHEM_ATOM_UDEF_STEREO_COUNT>
0
> <PUBCHEM_BOND_DEF_STEREO_COUNT>
0
> <PUBCHEM_BOND_UDEF_STEREO_COUNT>
0
> <PUBCHEM_ISOTOPIC_ATOM_COUNT>
0
> <PUBCHEM_COMPONENT_COUNT>
1
> <PUBCHEM_CACTVS_TAUTO_COUNT>
-1
> <PUBCHEM_COORDINATE_TYPE>
1
5
255
> <PUBCHEM_BONDANNOTATIONS>
21  25  8
21  26  8
25  28  8
26  29  8
28  31  8
29  31  8
33  34  8
33  35  8
34  36  8
35  37  8
36  38  8
37  38  8
14  7  6
12  8  5
20  9  6
$$$$
