516083
  -OEChem-10302200282D
 42 45  0     1  0  0  0  0  0999 V2000
    8.9851    0.8926    0.0000 S   0  0  0  0  0  0  0  0  0  0  0  0
    5.5000    1.6973    0.0000 S   0  0  0  0  0  0  0  0  0  0  0  0
    7.3666   -0.8718    0.0000 O   0  0  0  0  0  0  0  0  0  0  0  0
    5.0187    0.2160    0.0000 O   0  0  0  0  0  0  0  0  0  0  0  0
    5.0187   -1.9595    0.0000 O   0  0  0  0  0  0  0  0  0  0  0  0
    8.0659   -2.8397    0.0000 O   0  0  0  0  0  0  0  0  0  0  0  0
    7.0878    0.8883    0.0000 N   0  0  0  0  0  0  0  0  0  0  0  0
    7.0878    2.5064    0.0000 N   0  0  0  0  0  0  0  0  0  0  0  0
    9.5687    1.6973    0.0000 N   0  0  0  0  0  0  0  0  0  0  0  0
    5.8277   -0.3718    0.0000 C   0  0  2  0  0  0  0  0  0  0  0  0
    6.7788   -0.0627    0.0000 C   0  0  1  0  0  0  0  0  0  0  0  0
    5.8277   -1.3718    0.0000 C   0  0  1  0  0  0  0  0  0  0  0  0
    6.7788   -1.6808    0.0000 C   0  0  1  0  0  0  0  0  0  0  0  0
    7.0878   -2.6318    0.0000 C   0  0  0  0  0  0  0  0  0  0  0  0
    8.0388    1.1973    0.0000 C   0  0  0  0  0  0  0  0  0  0  0  0
    6.5000    1.6973    0.0000 C   0  0  0  0  0  0  0  0  0  0  0  0
    8.0388    2.1973    0.0000 C   0  0  0  0  0  0  0  0  0  0  0  0
    8.9851    2.5021    0.0000 C   0  0  0  0  0  0  0  0  0  0  0  0
    5.0000    2.5634    0.0000 C   0  0  0  0  0  0  0  0  0  0  0  0
    4.0000    2.5634    0.0000 C   0  0  0  0  0  0  0  0  0  0  0  0
    3.5000    1.6973    0.0000 C   0  0  0  0  0  0  0  0  0  0  0  0
    3.5000    3.4294    0.0000 C   0  0  0  0  0  0  0  0  0  0  0  0
    2.5000    1.6973    0.0000 C   0  0  0  0  0  0  0  0  0  0  0  0
    2.5000    3.4294    0.0000 C   0  0  0  0  0  0  0  0  0  0  0  0
    2.0000    2.5634    0.0000 C   0  0  0  0  0  0  0  0  0  0  0  0
    5.2753   -0.6532    0.0000 H   0  0  0  0  0  0  0  0  0  0  0  0
    6.3404    0.3757    0.0000 H   0  0  0  0  0  0  0  0  0  0  0  0
    5.2753   -1.0903    0.0000 H   0  0  0  0  0  0  0  0  0  0  0  0
    7.3911   -1.7778    0.0000 H   0  0  0  0  0  0  0  0  0  0  0  0
    6.4738   -2.7181    0.0000 H   0  0  0  0  0  0  0  0  0  0  0  0
    7.0662   -3.2514    0.0000 H   0  0  0  0  0  0  0  0  0  0  0  0
    4.4523   -0.0361    0.0000 H   0  0  0  0  0  0  0  0  0  0  0  0
    5.0835   -2.5761    0.0000 H   0  0  0  0  0  0  0  0  0  0  0  0
    8.2575   -3.4294    0.0000 H   0  0  0  0  0  0  0  0  0  0  0  0
    9.1777    3.0914    0.0000 H   0  0  0  0  0  0  0  0  0  0  0  0
    5.5826    2.7754    0.0000 H   0  0  0  0  0  0  0  0  0  0  0  0
    4.8923    3.1740    0.0000 H   0  0  0  0  0  0  0  0  0  0  0  0
    3.8100    1.1604    0.0000 H   0  0  0  0  0  0  0  0  0  0  0  0
    3.8100    3.9663    0.0000 H   0  0  0  0  0  0  0  0  0  0  0  0
    2.1900    1.1604    0.0000 H   0  0  0  0  0  0  0  0  0  0  0  0
    2.1900    3.9663    0.0000 H   0  0  0  0  0  0  0  0  0  0  0  0
    1.3800    2.5634    0.0000 H   0  0  0  0  0  0  0  0  0  0  0  0
  1  9  1  0  0  0  0
  1 15  1  0  0  0  0
  2 16  1  0  0  0  0
  2 19  1  0  0  0  0
  3 11  1  0  0  0  0
  3 13  1  0  0  0  0
 10  4  1  6  0  0  0
  4 32  1  0  0  0  0
 12  5  1  1  0  0  0
  5 33  1  0  0  0  0
  6 14  1  0  0  0  0
  6 34  1  0  0  0  0
 11  7  1  6  0  0  0
  7 15  1  0  0  0  0
  7 16  1  0  0  0  0
  8 16  2  0  0  0  0
  8 17  1  0  0  0  0
  9 18  2  0  0  0  0
 10 11  1  0  0  0  0
 10 12  1  0  0  0  0
 10 26  1  0  0  0  0
 11 27  1  0  0  0  0
 12 13  1  0  0  0  0
 12 28  1  0  0  0  0
 13 14  1  6  0  0  0
 13 29  1  0  0  0  0
 14 30  1  0  0  0  0
 14 31  1  0  0  0  0
 15 17  2  0  0  0  0
 17 18  1  0  0  0  0
 18 35  1  0  0  0  0
 19 20  1  0  0  0  0
 19 36  1  0  0  0  0
 19 37  1  0  0  0  0
 20 21  2  0  0  0  0
 20 22  1  0  0  0  0
 21 23  1  0  0  0  0
 21 38  1  0  0  0  0
 22 24  2  0  0  0  0
 22 39  1  0  0  0  0
 23 25  2  0  0  0  0
 23 40  1  0  0  0  0
 24 25  1  0  0  0  0
 24 41  1  0  0  0  0
 25 42  1  0  0  0  0
M  END
> <PUBCHEM_COMPOUND_CID>
516083
> <PUBCHEM_COMPOUND_CANONICALIZED>
1
> <PUBCHEM_CACTVS_COMPLEXITY>
457
> <PUBCHEM_CACTVS_HBOND_ACCEPTOR>
8
> <PUBCHEM_CACTVS_HBOND_DONOR>
3
> <PUBCHEM_CACTVS_ROTATABLE_BOND>
5
> <PUBCHEM_CACTVS_SUBSKEYS>
AAADceB7OABgAAAAAAAAAAAAAAAAAWLEgAAwAAAAAAAWAAAB/AAAHgQASAAADBzl3ga90bcMFgikAzRnZACD8D1hErgJ2DQ4dJiLeKLg2VCeZAwvgALbiCfwsAIOAAAAAAAAAAAAAAAAAAAAAAAAAAAAAA==
> <PUBCHEM_IUPAC_OPENEYE_NAME>
(2R,3S,4S,5R)-2-(5-benzylsulfanylimidazo[4,5-d]isothiazol-6-yl)-5-(hydroxymethyl)tetrahydrofuran-3,4-diol
> <PUBCHEM_IUPAC_CAS_NAME>
(2R,3S,4S,5R)-2-(hydroxymethyl)-5-[5-(phenylmethylthio)-6-imidazo[4,5-d]isothiazolyl]oxolane-3,4-diol
> <PUBCHEM_IUPAC_NAME_MARKUP>
(2<I>R</I>,3<I>S</I>,4<I>S</I>,5<I>R</I>)-2-(5-benzylsulfanylimidazo[4,5-d][1,2]thiazol-6-yl)-5-(hydroxymethyl)oxolane-3,4-diol
> <PUBCHEM_IUPAC_NAME>
(2R,3S,4S,5R)-2-(5-benzylsulfanylimidazo[4,5-d][1,2]thiazol-6-yl)-5-(hydroxymethyl)oxolane-3,4-diol
> <PUBCHEM_IUPAC_SYSTEMATIC_NAME>
(2R,3S,4S,5R)-2-(hydroxymethyl)-5-[5-(phenylmethylsulfanyl)imidazo[4,5-d][1,2]thiazol-6-yl]oxolane-3,4-diol
> <PUBCHEM_IUPAC_TRADITIONAL_NAME>
(2R,3S,4S,5R)-2-[5-(benzylthio)imidaz[4,5-d]isothiazol-6-yl]-5-methylol-tetrahydrofuran-3,4-diol
> <PUBCHEM_IUPAC_INCHI>
InChI=1S/C16H17N3O4S2/c20-7-11-12(21)13(22)14(23-11)19-15-10(6-17-25-15)18-16(19)24-8-9-4-2-1-3-5-9/h1-6,11-14,20-22H,7-8H2/t11-,12-,13+,14-/m1/s1
> <PUBCHEM_IUPAC_INCHIKEY>
WKUZOMNUEJJRHX-YIYPIFLZSA-N
> <PUBCHEM_XLOGP3_AA>
1.6
> <PUBCHEM_EXACT_MASS>
379.06604838
> <PUBCHEM_MOLECULAR_FORMULA>
C16H17N3O4S2
> <PUBCHEM_MOLECULAR_WEIGHT>
379.5
> <PUBCHEM_OPENEYE_CAN_SMILES>
C1=CC=C(C=C1)CSC2=NC3=C(N2C4C(C(C(O4)CO)O)O)SN=C3
> <PUBCHEM_OPENEYE_ISO_SMILES>
C1=CC=C(C=C1)CSC2=NC3=C(N2[C@H]4[C@H]([C@@H]([C@H](O4)CO)O)O)SN=C3
> <PUBCHEM_CACTVS_TPSA>
154
> <PUBCHEM_MONOISOTOPIC_WEIGHT>
379.06604838
> <PUBCHEM_TOTAL_CHARGE>
0
> <PUBCHEM_HEAVY_ATOM_COUNT>
25
> <PUBCHEM_ATOM_DEF_STEREO_COUNT>
4
> <PUBCHEM_ATOM_UDEF_STEREO_COUNT>
0
> <PUBCHEM_BOND_DEF_STEREO_COUNT>
0
> <PUBCHEM_BOND_UDEF_STEREO_COUNT>
0
> <PUBCHEM_ISOTOPIC_ATOM_COUNT>
0
> <PUBCHEM_COMPONENT_COUNT>
1
> <PUBCHEM_CACTVS_TAUTO_COUNT>
-1
> <PUBCHEM_COORDINATE_TYPE>
1
5
255
> <PUBCHEM_BONDANNOTATIONS>
1  15  8
1  9  8
13  14  6
15  17  8
17  18  8
20  21  8
20  22  8
21  23  8
22  24  8
23  25  8
24  25  8
10  4  6
12  5  5
11  7  6
7  15  8
7  16  8
8  16  8
8  17  8
9  18  8
$$$$
