516060
  -OEChem-10302200282D
 51 53  0     1  0  0  0  0  0999 V2000
    7.1279   -2.7188    0.0000 Cl  0  0  0  0  0  0  0  0  0  0  0  0
    2.0000   -1.7188    0.0000 Cl  0  0  0  0  0  0  0  0  0  0  0  0
    2.0000   -3.7188    0.0000 Cl  0  0  0  0  0  0  0  0  0  0  0  0
    5.2686   -0.1535    0.0000 O   0  0  0  0  0  0  0  0  0  0  0  0
    7.6146   -1.2454    0.0000 O   0  0  0  0  0  0  0  0  0  0  0  0
    7.6183    0.9302    0.0000 O   0  0  0  0  0  0  0  0  0  0  0  0
    5.5443   -1.9141    0.0000 N   0  0  0  0  0  0  0  0  0  0  0  0
    4.5726    1.8156    0.0000 N   0  0  0  0  0  0  0  0  0  0  0  0
    5.5443   -3.5236    0.0000 N   0  0  0  0  0  0  0  0  0  0  0  0
    4.2652    2.7672    0.0000 N   0  3  0  0  0  0  0  0  0  0  0  0
    3.9579    3.7188    0.0000 N   0  5  0  0  0  0  0  0  0  0  0  0
    6.8066   -0.6562    0.0000 C   0  0  2  0  0  0  0  0  0  0  0  0
    6.8083    0.3438    0.0000 C   0  0  1  0  0  0  0  0  0  0  0  0
    5.8550   -0.9636    0.0000 C   0  0  1  0  0  0  0  0  0  0  0  0
    5.8578    0.6545    0.0000 C   0  0  1  0  0  0  0  0  0  0  0  0
    5.5504    1.6060    0.0000 C   0  0  0  0  0  0  0  0  0  0  0  0
    8.5288   -0.8402    0.0000 C   0  0  0  0  0  0  0  0  0  0  0  0
    4.5981   -2.2188    0.0000 C   0  0  0  0  0  0  0  0  0  0  0  0
    7.5155    1.9249    0.0000 C   0  0  0  0  0  0  0  0  0  0  0  0
    6.1279   -2.7188    0.0000 C   0  0  0  0  0  0  0  0  0  0  0  0
    4.5981   -3.2188    0.0000 C   0  0  0  0  0  0  0  0  0  0  0  0
    9.3368   -1.4294    0.0000 C   0  0  0  0  0  0  0  0  0  0  0  0
    8.6350    0.1541    0.0000 C   0  0  0  0  0  0  0  0  0  0  0  0
    8.3255    2.5113    0.0000 C   0  0  0  0  0  0  0  0  0  0  0  0
    6.6027    2.3332    0.0000 C   0  0  0  0  0  0  0  0  0  0  0  0
    3.7320   -1.7188    0.0000 C   0  0  0  0  0  0  0  0  0  0  0  0
    3.7320   -3.7188    0.0000 C   0  0  0  0  0  0  0  0  0  0  0  0
    2.8660   -2.2188    0.0000 C   0  0  0  0  0  0  0  0  0  0  0  0
    2.8660   -3.2188    0.0000 C   0  0  0  0  0  0  0  0  0  0  0  0
    7.3595   -0.3757    0.0000 H   0  0  0  0  0  0  0  0  0  0  0  0
    6.7124    0.9563    0.0000 H   0  0  0  0  0  0  0  0  0  0  0  0
    6.2926   -1.4027    0.0000 H   0  0  0  0  0  0  0  0  0  0  0  0
    5.2456    0.7525    0.0000 H   0  0  0  0  0  0  0  0  0  0  0  0
    6.1645    1.6913    0.0000 H   0  0  0  0  0  0  0  0  0  0  0  0
    5.5731    2.2256    0.0000 H   0  0  0  0  0  0  0  0  0  0  0  0
    8.0278   -0.4749    0.0000 H   0  0  0  0  0  0  0  0  0  0  0  0
    8.0815    1.6717    0.0000 H   0  0  0  0  0  0  0  0  0  0  0  0
    8.9715   -1.9304    0.0000 H   0  0  0  0  0  0  0  0  0  0  0  0
    9.8378   -1.7947    0.0000 H   0  0  0  0  0  0  0  0  0  0  0  0
    9.7021   -0.9285    0.0000 H   0  0  0  0  0  0  0  0  0  0  0  0
    9.2515    0.0882    0.0000 H   0  0  0  0  0  0  0  0  0  0  0  0
    8.7009    0.7706    0.0000 H   0  0  0  0  0  0  0  0  0  0  0  0
    8.0186    0.2200    0.0000 H   0  0  0  0  0  0  0  0  0  0  0  0
    8.6891    2.0090    0.0000 H   0  0  0  0  0  0  0  0  0  0  0  0
    8.8278    2.8748    0.0000 H   0  0  0  0  0  0  0  0  0  0  0  0
    7.9620    3.0135    0.0000 H   0  0  0  0  0  0  0  0  0  0  0  0
    6.8558    2.8992    0.0000 H   0  0  0  0  0  0  0  0  0  0  0  0
    6.0367    2.5864    0.0000 H   0  0  0  0  0  0  0  0  0  0  0  0
    6.3495    1.7672    0.0000 H   0  0  0  0  0  0  0  0  0  0  0  0
    3.7320   -1.0988    0.0000 H   0  0  0  0  0  0  0  0  0  0  0  0
    3.7320   -4.3388    0.0000 H   0  0  0  0  0  0  0  0  0  0  0  0
  1 20  1  0  0  0  0
  2 28  1  0  0  0  0
  3 29  1  0  0  0  0
  4 14  1  0  0  0  0
  4 15  1  0  0  0  0
 12  5  1  1  0  0  0
  5 17  1  0  0  0  0
 13  6  1  1  0  0  0
  6 19  1  0  0  0  0
 14  7  1  6  0  0  0
  7 18  1  0  0  0  0
  7 20  1  0  0  0  0
  8 10  2  0  0  0  0
  8 16  1  0  0  0  0
  9 20  2  0  0  0  0
  9 21  1  0  0  0  0
 10 11  2  0  0  0  0
 12 13  1  0  0  0  0
 12 14  1  0  0  0  0
 12 30  1  0  0  0  0
 13 15  1  0  0  0  0
 13 31  1  0  0  0  0
 14 32  1  0  0  0  0
 15 16  1  6  0  0  0
 15 33  1  0  0  0  0
 16 34  1  0  0  0  0
 16 35  1  0  0  0  0
 17 22  1  0  0  0  0
 17 23  1  0  0  0  0
 17 36  1  0  0  0  0
 18 21  1  0  0  0  0
 18 26  2  0  0  0  0
 19 24  1  0  0  0  0
 19 25  1  0  0  0  0
 19 37  1  0  0  0  0
 21 27  2  0  0  0  0
 22 38  1  0  0  0  0
 22 39  1  0  0  0  0
 22 40  1  0  0  0  0
 23 41  1  0  0  0  0
 23 42  1  0  0  0  0
 23 43  1  0  0  0  0
 24 44  1  0  0  0  0
 24 45  1  0  0  0  0
 24 46  1  0  0  0  0
 25 47  1  0  0  0  0
 25 48  1  0  0  0  0
 25 49  1  0  0  0  0
 26 28  1  0  0  0  0
 26 50  1  0  0  0  0
 27 29  1  0  0  0  0
 27 51  1  0  0  0  0
 28 29  2  0  0  0  0
M  CHG  2  10   1  11  -1
M  END
> <PUBCHEM_COMPOUND_CID>
516060
> <PUBCHEM_COMPOUND_CANONICALIZED>
1
> <PUBCHEM_CACTVS_COMPLEXITY>
609
> <PUBCHEM_CACTVS_HBOND_ACCEPTOR>
6
> <PUBCHEM_CACTVS_HBOND_DONOR>
0
> <PUBCHEM_CACTVS_ROTATABLE_BOND>
7
> <PUBCHEM_CACTVS_SUBSKEYS>
AAADceB7sAAGAAAAAAAAAAAAAAAAAWJAAAAwAAAAAAAAAFgB8AAAHgIIAAAACB7hliYz0LcMFACiASRiZACCgC0hF6AB2mA4dpiLaKLBmpGfIAhvgALayCewEAAAAABAAAIAACQAAIAABAAASAAAAAAAAA==
> <PUBCHEM_IUPAC_OPENEYE_NAME>
1-[(2R,3R,4R,5R)-5-(azidomethyl)-3,4-diisopropoxy-tetrahydrofuran-2-yl]-2,5,6-trichloro-benzimidazole
> <PUBCHEM_IUPAC_CAS_NAME>
1-[(2R,3R,4R,5R)-5-(azidomethyl)-3,4-di(propan-2-yloxy)-2-oxolanyl]-2,5,6-trichlorobenzimidazole
> <PUBCHEM_IUPAC_NAME_MARKUP>
1-[(2<I>R</I>,3<I>R</I>,4<I>R</I>,5<I>R</I>)-5-(azidomethyl)-3,4-di(propan-2-yloxy)oxolan-2-yl]-2,5,6-trichlorobenzimidazole
> <PUBCHEM_IUPAC_NAME>
1-[(2R,3R,4R,5R)-5-(azidomethyl)-3,4-di(propan-2-yloxy)oxolan-2-yl]-2,5,6-trichlorobenzimidazole
> <PUBCHEM_IUPAC_SYSTEMATIC_NAME>
1-[(2R,3R,4R,5R)-5-(azidomethyl)-3,4-di(propan-2-yloxy)oxolan-2-yl]-2,5,6-tris(chloranyl)benzimidazole
> <PUBCHEM_IUPAC_TRADITIONAL_NAME>
1-[(2R,3R,4R,5R)-5-(azidomethyl)-3,4-diisopropoxy-tetrahydrofuran-2-yl]-2,5,6-trichloro-benzimidazole
> <PUBCHEM_IUPAC_INCHI>
InChI=1S/C18H22Cl3N5O3/c1-8(2)27-15-14(7-23-25-22)29-17(16(15)28-9(3)4)26-13-6-11(20)10(19)5-12(13)24-18(26)21/h5-6,8-9,14-17H,7H2,1-4H3/t14-,15-,16-,17-/m1/s1
> <PUBCHEM_IUPAC_INCHIKEY>
UAPHKVQLSNSSHA-QBPKDAKJSA-N
> <PUBCHEM_XLOGP3_AA>
5.8
> <PUBCHEM_EXACT_MASS>
461.078823
> <PUBCHEM_MOLECULAR_FORMULA>
C18H22Cl3N5O3
> <PUBCHEM_MOLECULAR_WEIGHT>
462.8
> <PUBCHEM_OPENEYE_CAN_SMILES>
CC(C)OC1C(OC(C1OC(C)C)N2C3=CC(=C(C=C3N=C2Cl)Cl)Cl)CN=[N+]=[N-]
> <PUBCHEM_OPENEYE_ISO_SMILES>
CC(C)O[C@@H]1[C@H](O[C@H]([C@@H]1OC(C)C)N2C3=CC(=C(C=C3N=C2Cl)Cl)Cl)CN=[N+]=[N-]
> <PUBCHEM_CACTVS_TPSA>
59.9
> <PUBCHEM_MONOISOTOPIC_WEIGHT>
461.078823
> <PUBCHEM_TOTAL_CHARGE>
0
> <PUBCHEM_HEAVY_ATOM_COUNT>
29
> <PUBCHEM_ATOM_DEF_STEREO_COUNT>
4
> <PUBCHEM_ATOM_UDEF_STEREO_COUNT>
0
> <PUBCHEM_BOND_DEF_STEREO_COUNT>
0
> <PUBCHEM_BOND_UDEF_STEREO_COUNT>
0
> <PUBCHEM_ISOTOPIC_ATOM_COUNT>
0
> <PUBCHEM_COMPONENT_COUNT>
1
> <PUBCHEM_CACTVS_TAUTO_COUNT>
-1
> <PUBCHEM_COORDINATE_TYPE>
1
5
255
> <PUBCHEM_BONDANNOTATIONS>
15  16  6
18  21  8
18  26  8
21  27  8
26  28  8
27  29  8
28  29  8
12  5  5
13  6  5
14  7  6
7  18  8
7  20  8
9  20  8
9  21  8
$$$$
