516179
  -OEChem-10302200282D
 83 87  0     1  0  0  0  0  0999 V2000
    7.4899   -7.2910    0.0000 F   0  0  0  0  0  0  0  0  0  0  0  0
    5.6752    5.8820    0.0000 F   0  0  0  0  0  0  0  0  0  0  0  0
    8.8398    7.2910    0.0000 F   0  0  0  0  0  0  0  0  0  0  0  0
    2.3644   -3.9383    0.0000 O   0  0  0  0  0  0  0  0  0  0  0  0
    3.7657   -4.9564    0.0000 O   0  0  0  0  0  0  0  0  0  0  0  0
    4.9413   -3.3384    0.0000 N   0  0  3  0  0  0  0  0  0  0  0  0
    7.3900   -1.5019    0.0000 N   0  0  0  0  0  0  0  0  0  0  0  0
    6.5809    2.0858    0.0000 N   0  0  0  0  0  0  0  0  0  0  0  0
    6.8900    3.0369    0.0000 N   0  0  0  0  0  0  0  0  0  0  0  0
    6.5239   -3.0020    0.0000 C   0  0  2  0  0  0  0  0  0  0  0  0
    6.4194   -3.9965    0.0000 C   0  0  2  0  0  0  0  0  0  0  0  0
    5.6104   -2.5952    0.0000 C   0  0  0  0  0  0  0  0  0  0  0  0
    5.4413   -4.2044    0.0000 C   0  0  0  0  0  0  0  0  0  0  0  0
    7.3900   -2.5020    0.0000 C   0  0  0  0  0  0  0  0  0  0  0  0
    3.9467   -3.2338    0.0000 C   0  0  2  0  0  0  0  0  0  0  0  0
    6.5239   -1.0019    0.0000 C   0  0  0  0  0  0  0  0  0  0  0  0
    8.2560   -1.0019    0.0000 C   0  0  0  0  0  0  0  0  0  0  0  0
    7.1626   -4.6656    0.0000 C   0  0  0  0  0  0  0  0  0  0  0  0
    7.3900    0.4980    0.0000 C   0  0  0  0  0  0  0  0  0  0  0  0
    6.5239   -0.0020    0.0000 C   0  0  0  0  0  0  0  0  0  0  0  0
    8.2560   -0.0020    0.0000 C   0  0  0  0  0  0  0  0  0  0  0  0
    3.5400   -2.3203    0.0000 C   0  0  0  0  0  0  0  0  0  0  0  0
    7.3900    1.4981    0.0000 C   0  0  0  0  0  0  0  0  0  0  0  0
    3.3590   -4.0428    0.0000 C   0  0  0  0  0  0  0  0  0  0  0  0
    6.9546   -5.6438    0.0000 C   0  0  0  0  0  0  0  0  0  0  0  0
    8.1136   -4.3566    0.0000 C   0  0  0  0  0  0  0  0  0  0  0  0
    2.5455   -2.2158    0.0000 C   0  0  0  0  0  0  0  0  0  0  0  0
    4.1278   -1.5113    0.0000 C   0  0  0  0  0  0  0  0  0  0  0  0
    8.1990    2.0858    0.0000 C   0  0  0  0  0  0  0  0  0  0  0  0
    7.6978   -6.3129    0.0000 C   0  0  0  0  0  0  0  0  0  0  0  0
    8.8568   -5.0257    0.0000 C   0  0  0  0  0  0  0  0  0  0  0  0
    7.8900    3.0369    0.0000 C   0  0  0  0  0  0  0  0  0  0  0  0
    8.6488   -6.0039    0.0000 C   0  0  0  0  0  0  0  0  0  0  0  0
    5.6299    1.7768    0.0000 C   0  0  0  0  0  0  0  0  0  0  0  0
    8.4777    3.8459    0.0000 C   0  0  0  0  0  0  0  0  0  0  0  0
    4.8867    2.4460    0.0000 C   0  0  0  0  0  0  0  0  0  0  0  0
    8.0710    4.7594    0.0000 C   0  0  0  0  0  0  0  0  0  0  0  0
    8.6588    5.5685    0.0000 C   0  0  0  0  0  0  0  0  0  0  0  0
    7.0765    4.8640    0.0000 C   0  0  0  0  0  0  0  0  0  0  0  0
    6.6698    5.7775    0.0000 C   0  0  0  0  0  0  0  0  0  0  0  0
    8.2520    6.4820    0.0000 C   0  0  0  0  0  0  0  0  0  0  0  0
    7.2575    6.5865    0.0000 C   0  0  0  0  0  0  0  0  0  0  0  0
    6.4915   -2.3828    0.0000 H   0  0  0  0  0  0  0  0  0  0  0  0
    6.2589   -4.5954    0.0000 H   0  0  0  0  0  0  0  0  0  0  0  0
    5.9204   -2.0583    0.0000 H   0  0  0  0  0  0  0  0  0  0  0  0
    5.1088   -2.2308    0.0000 H   0  0  0  0  0  0  0  0  0  0  0  0
    4.8749   -4.4566    0.0000 H   0  0  0  0  0  0  0  0  0  0  0  0
    5.6328   -4.7940    0.0000 H   0  0  0  0  0  0  0  0  0  0  0  0
    7.6020   -3.0846    0.0000 H   0  0  0  0  0  0  0  0  0  0  0  0
    8.0005   -2.3943    0.0000 H   0  0  0  0  0  0  0  0  0  0  0  0
    4.1989   -3.8002    0.0000 H   0  0  0  0  0  0  0  0  0  0  0  0
    5.9134   -0.8943    0.0000 H   0  0  0  0  0  0  0  0  0  0  0  0
    6.3119   -1.5846    0.0000 H   0  0  0  0  0  0  0  0  0  0  0  0
    8.4680   -1.5846    0.0000 H   0  0  0  0  0  0  0  0  0  0  0  0
    8.8666   -0.8943    0.0000 H   0  0  0  0  0  0  0  0  0  0  0  0
    7.9269    0.8080    0.0000 H   0  0  0  0  0  0  0  0  0  0  0  0
    6.3119    0.5807    0.0000 H   0  0  0  0  0  0  0  0  0  0  0  0
    5.9134   -0.1096    0.0000 H   0  0  0  0  0  0  0  0  0  0  0  0
    8.8666   -0.1096    0.0000 H   0  0  0  0  0  0  0  0  0  0  0  0
    8.4680    0.5807    0.0000 H   0  0  0  0  0  0  0  0  0  0  0  0
    3.2878   -1.7539    0.0000 H   0  0  0  0  0  0  0  0  0  0  0  0
    6.3650   -5.8353    0.0000 H   0  0  0  0  0  0  0  0  0  0  0  0
    8.2425   -3.7501    0.0000 H   0  0  0  0  0  0  0  0  0  0  0  0
    2.6103   -1.5992    0.0000 H   0  0  0  0  0  0  0  0  0  0  0  0
    1.9289   -2.1510    0.0000 H   0  0  0  0  0  0  0  0  0  0  0  0
    2.4807   -2.8324    0.0000 H   0  0  0  0  0  0  0  0  0  0  0  0
    4.6294   -1.8757    0.0000 H   0  0  0  0  0  0  0  0  0  0  0  0
    4.4922   -1.0097    0.0000 H   0  0  0  0  0  0  0  0  0  0  0  0
    3.6262   -1.1468    0.0000 H   0  0  0  0  0  0  0  0  0  0  0  0
    8.7886    1.8942    0.0000 H   0  0  0  0  0  0  0  0  0  0  0  0
    9.4464   -4.8341    0.0000 H   0  0  0  0  0  0  0  0  0  0  0  0
    9.1096   -6.4187    0.0000 H   0  0  0  0  0  0  0  0  0  0  0  0
    5.1413    1.3951    0.0000 H   0  0  0  0  0  0  0  0  0  0  0  0
    5.9210    1.2294    0.0000 H   0  0  0  0  0  0  0  0  0  0  0  0
    2.0000   -4.4399    0.0000 H   0  0  0  0  0  0  0  0  0  0  0  0
    8.9084    3.3999    0.0000 H   0  0  0  0  0  0  0  0  0  0  0  0
    8.9918    4.1926    0.0000 H   0  0  0  0  0  0  0  0  0  0  0  0
    5.3016    2.9067    0.0000 H   0  0  0  0  0  0  0  0  0  0  0  0
    4.4260    2.8608    0.0000 H   0  0  0  0  0  0  0  0  0  0  0  0
    4.4719    1.9852    0.0000 H   0  0  0  0  0  0  0  0  0  0  0  0
    9.2754    5.5037    0.0000 H   0  0  0  0  0  0  0  0  0  0  0  0
    6.7121    4.3624    0.0000 H   0  0  0  0  0  0  0  0  0  0  0  0
    7.0054    7.1529    0.0000 H   0  0  0  0  0  0  0  0  0  0  0  0
  1 30  1  0  0  0  0
  2 40  1  0  0  0  0
  3 41  1  0  0  0  0
  4 24  1  0  0  0  0
  4 75  1  0  0  0  0
  5 24  2  0  0  0  0
  6 12  1  0  0  0  0
  6 13  1  0  0  0  0
  6 15  1  0  0  0  0
  7 14  1  0  0  0  0
  7 16  1  0  0  0  0
  7 17  1  0  0  0  0
  8  9  1  0  0  0  0
  8 23  1  0  0  0  0
  8 34  1  0  0  0  0
  9 32  2  0  0  0  0
 10 11  1  0  0  0  0
 10 12  1  0  0  0  0
 10 14  1  6  0  0  0
 10 43  1  0  0  0  0
 11 13  1  0  0  0  0
 11 18  1  1  0  0  0
 11 44  1  0  0  0  0
 12 45  1  0  0  0  0
 12 46  1  0  0  0  0
 13 47  1  0  0  0  0
 13 48  1  0  0  0  0
 14 49  1  0  0  0  0
 14 50  1  0  0  0  0
 15 22  1  0  0  0  0
 15 24  1  1  0  0  0
 15 51  1  0  0  0  0
 16 20  1  0  0  0  0
 16 52  1  0  0  0  0
 16 53  1  0  0  0  0
 17 21  1  0  0  0  0
 17 54  1  0  0  0  0
 17 55  1  0  0  0  0
 18 25  2  0  0  0  0
 18 26  1  0  0  0  0
 19 20  1  0  0  0  0
 19 21  1  0  0  0  0
 19 23  1  0  0  0  0
 19 56  1  0  0  0  0
 20 57  1  0  0  0  0
 20 58  1  0  0  0  0
 21 59  1  0  0  0  0
 21 60  1  0  0  0  0
 22 27  1  0  0  0  0
 22 28  1  0  0  0  0
 22 61  1  0  0  0  0
 23 29  2  0  0  0  0
 25 30  1  0  0  0  0
 25 62  1  0  0  0  0
 26 31  2  0  0  0  0
 26 63  1  0  0  0  0
 27 64  1  0  0  0  0
 27 65  1  0  0  0  0
 27 66  1  0  0  0  0
 28 67  1  0  0  0  0
 28 68  1  0  0  0  0
 28 69  1  0  0  0  0
 29 32  1  0  0  0  0
 29 70  1  0  0  0  0
 30 33  2  0  0  0  0
 31 33  1  0  0  0  0
 31 71  1  0  0  0  0
 32 35  1  0  0  0  0
 33 72  1  0  0  0  0
 34 36  1  0  0  0  0
 34 73  1  0  0  0  0
 34 74  1  0  0  0  0
 35 37  1  0  0  0  0
 35 76  1  0  0  0  0
 35 77  1  0  0  0  0
 36 78  1  0  0  0  0
 36 79  1  0  0  0  0
 36 80  1  0  0  0  0
 37 38  2  0  0  0  0
 37 39  1  0  0  0  0
 38 41  1  0  0  0  0
 38 81  1  0  0  0  0
 39 40  2  0  0  0  0
 39 82  1  0  0  0  0
 40 42  1  0  0  0  0
 41 42  2  0  0  0  0
 42 83  1  0  0  0  0
M  END
> <PUBCHEM_COMPOUND_CID>
516179
> <PUBCHEM_COMPOUND_CANONICALIZED>
1
> <PUBCHEM_CACTVS_COMPLEXITY>
864
> <PUBCHEM_CACTVS_HBOND_ACCEPTOR>
8
> <PUBCHEM_CACTVS_HBOND_DONOR>
1
> <PUBCHEM_CACTVS_ROTATABLE_BOND>
10
> <PUBCHEM_CACTVS_SUBSKEYS>
AAADcfB/sYAAAAAAAAAAAAAAAAAAAWLAAAA8YIAAAAAAAAAB0AAAHwAICAAADSjBngwyiJMIAgCqAyTyTACSBAAhggAY2CG4ZJgKIDLA0fGE5AhkiADYyAcQgMAOgAAAAAAAAAAAAAAAAAAAAAAAAAAAAA==
> <PUBCHEM_IUPAC_OPENEYE_NAME>
(2R)-2-[(3S,4S)-3-[[4-[5-[(3,5-difluorophenyl)methyl]-2-ethyl-pyrazol-3-yl]-1-piperidyl]methyl]-4-(3-fluorophenyl)pyrrolidin-1-yl]-3-methyl-butanoic acid
> <PUBCHEM_IUPAC_CAS_NAME>
(2R)-2-[(3S,4S)-3-[[4-[5-[(3,5-difluorophenyl)methyl]-2-ethyl-3-pyrazolyl]-1-piperidinyl]methyl]-4-(3-fluorophenyl)-1-pyrrolidinyl]-3-methylbutanoic acid
> <PUBCHEM_IUPAC_NAME_MARKUP>
(2<I>R</I>)-2-[(3<I>S</I>,4<I>S</I>)-3-[[4-[5-[(3,5-difluorophenyl)methyl]-2-ethylpyrazol-3-yl]piperidin-1-yl]methyl]-4-(3-fluorophenyl)pyrrolidin-1-yl]-3-methylbutanoic acid
> <PUBCHEM_IUPAC_NAME>
(2R)-2-[(3S,4S)-3-[[4-[5-[(3,5-difluorophenyl)methyl]-2-ethylpyrazol-3-yl]piperidin-1-yl]methyl]-4-(3-fluorophenyl)pyrrolidin-1-yl]-3-methylbutanoic acid
> <PUBCHEM_IUPAC_SYSTEMATIC_NAME>
(2R)-2-[(3S,4S)-3-[[4-[5-[[3,5-bis(fluoranyl)phenyl]methyl]-2-ethyl-pyrazol-3-yl]piperidin-1-yl]methyl]-4-(3-fluorophenyl)pyrrolidin-1-yl]-3-methyl-butanoic acid
> <PUBCHEM_IUPAC_TRADITIONAL_NAME>
(2R)-2-[(3S,4S)-3-[[4-[5-(3,5-difluorobenzyl)-2-ethyl-pyrazol-3-yl]piperidino]methyl]-4-(3-fluorophenyl)pyrrolidino]-3-methyl-butyric acid
> <PUBCHEM_IUPAC_INCHI>
InChI=1S/C33H41F3N4O2/c1-4-40-31(17-29(37-40)14-22-12-27(35)16-28(36)13-22)23-8-10-38(11-9-23)18-25-19-39(32(21(2)3)33(41)42)20-30(25)24-6-5-7-26(34)15-24/h5-7,12-13,15-17,21,23,25,30,32H,4,8-11,14,18-20H2,1-3H3,(H,41,42)/t25-,30+,32+/m0/s1
> <PUBCHEM_IUPAC_INCHIKEY>
VXMVWENUTABJOM-YAFDPGIASA-N
> <PUBCHEM_XLOGP3_AA>
3.9
> <PUBCHEM_EXACT_MASS>
582.31816105
> <PUBCHEM_MOLECULAR_FORMULA>
C33H41F3N4O2
> <PUBCHEM_MOLECULAR_WEIGHT>
582.7
> <PUBCHEM_OPENEYE_CAN_SMILES>
CCN1C(=CC(=N1)CC2=CC(=CC(=C2)F)F)C3CCN(CC3)CC4CN(CC4C5=CC(=CC=C5)F)C(C(C)C)C(=O)O
> <PUBCHEM_OPENEYE_ISO_SMILES>
CCN1C(=CC(=N1)CC2=CC(=CC(=C2)F)F)C3CCN(CC3)C[C@H]4CN(C[C@@H]4C5=CC(=CC=C5)F)[C@H](C(C)C)C(=O)O
> <PUBCHEM_CACTVS_TPSA>
61.6
> <PUBCHEM_MONOISOTOPIC_WEIGHT>
582.31816105
> <PUBCHEM_TOTAL_CHARGE>
0
> <PUBCHEM_HEAVY_ATOM_COUNT>
42
> <PUBCHEM_ATOM_DEF_STEREO_COUNT>
3
> <PUBCHEM_ATOM_UDEF_STEREO_COUNT>
0
> <PUBCHEM_BOND_DEF_STEREO_COUNT>
0
> <PUBCHEM_BOND_UDEF_STEREO_COUNT>
0
> <PUBCHEM_ISOTOPIC_ATOM_COUNT>
0
> <PUBCHEM_COMPONENT_COUNT>
1
> <PUBCHEM_CACTVS_TAUTO_COUNT>
-1
> <PUBCHEM_COORDINATE_TYPE>
1
5
255
> <PUBCHEM_BONDANNOTATIONS>
10  14  6
11  18  5
15  24  5
18  25  8
18  26  8
23  29  8
25  30  8
26  31  8
29  32  8
30  33  8
31  33  8
37  38  8
37  39  8
38  41  8
39  40  8
40  42  8
41  42  8
8  23  8
8  9  8
9  32  8
$$$$
