516193
  -OEChem-10302200282D
 91 96  0     1  0  0  0  0  0999 V2000
    7.4899   -8.2973    0.0000 F   0  0  0  0  0  0  0  0  0  0  0  0
    2.3644   -4.9446    0.0000 O   0  0  0  0  0  0  0  0  0  0  0  0
    3.7657   -5.9627    0.0000 O   0  0  0  0  0  0  0  0  0  0  0  0
    6.8508    6.4938    0.0000 O   0  0  0  0  0  0  0  0  0  0  0  0
    4.9413   -4.3447    0.0000 N   0  0  3  0  0  0  0  0  0  0  0  0
    7.3900   -2.5082    0.0000 N   0  0  0  0  0  0  0  0  0  0  0  0
    6.5809    1.0795    0.0000 N   0  0  0  0  0  0  0  0  0  0  0  0
    6.8900    2.0306    0.0000 N   0  0  0  0  0  0  0  0  0  0  0  0
    6.5239   -4.0082    0.0000 C   0  0  2  0  0  0  0  0  0  0  0  0
    6.4194   -5.0028    0.0000 C   0  0  2  0  0  0  0  0  0  0  0  0
    5.6104   -3.6015    0.0000 C   0  0  0  0  0  0  0  0  0  0  0  0
    5.4413   -5.2107    0.0000 C   0  0  0  0  0  0  0  0  0  0  0  0
    7.3900   -3.5082    0.0000 C   0  0  0  0  0  0  0  0  0  0  0  0
    3.9467   -4.2401    0.0000 C   0  0  2  0  0  0  0  0  0  0  0  0
    6.5239   -2.0082    0.0000 C   0  0  0  0  0  0  0  0  0  0  0  0
    8.2560   -2.0082    0.0000 C   0  0  0  0  0  0  0  0  0  0  0  0
    7.1626   -5.6719    0.0000 C   0  0  0  0  0  0  0  0  0  0  0  0
    7.3900   -0.5083    0.0000 C   0  0  0  0  0  0  0  0  0  0  0  0
    6.5239   -1.0082    0.0000 C   0  0  0  0  0  0  0  0  0  0  0  0
    8.2560   -1.0082    0.0000 C   0  0  0  0  0  0  0  0  0  0  0  0
    3.5400   -3.3266    0.0000 C   0  0  0  0  0  0  0  0  0  0  0  0
    7.3900    0.4917    0.0000 C   0  0  0  0  0  0  0  0  0  0  0  0
    3.3590   -5.0492    0.0000 C   0  0  0  0  0  0  0  0  0  0  0  0
    6.9546   -6.6500    0.0000 C   0  0  0  0  0  0  0  0  0  0  0  0
    8.1136   -5.3629    0.0000 C   0  0  0  0  0  0  0  0  0  0  0  0
    2.5455   -3.2221    0.0000 C   0  0  0  0  0  0  0  0  0  0  0  0
    4.1278   -2.5176    0.0000 C   0  0  0  0  0  0  0  0  0  0  0  0
    8.1990    1.0795    0.0000 C   0  0  0  0  0  0  0  0  0  0  0  0
    7.6978   -7.3192    0.0000 C   0  0  0  0  0  0  0  0  0  0  0  0
    8.8568   -6.0320    0.0000 C   0  0  0  0  0  0  0  0  0  0  0  0
    7.8900    2.0306    0.0000 C   0  0  0  0  0  0  0  0  0  0  0  0
    8.6488   -7.0102    0.0000 C   0  0  0  0  0  0  0  0  0  0  0  0
    5.6299    0.7705    0.0000 C   0  0  0  0  0  0  0  0  0  0  0  0
    7.4386    7.3028    0.0000 C   0  0  0  0  0  0  0  0  0  0  0  0
    8.3521    7.7095    0.0000 C   0  0  0  0  0  0  0  0  0  0  0  0
    7.5431    8.2973    0.0000 C   0  0  0  0  0  0  0  0  0  0  0  0
    8.4777    2.8396    0.0000 C   0  0  0  0  0  0  0  0  0  0  0  0
    4.8867    1.4397    0.0000 C   0  0  0  0  0  0  0  0  0  0  0  0
    8.0710    3.7532    0.0000 C   0  0  0  0  0  0  0  0  0  0  0  0
    7.2575    5.5802    0.0000 C   0  0  0  0  0  0  0  0  0  0  0  0
    7.0765    3.8577    0.0000 C   0  0  0  0  0  0  0  0  0  0  0  0
    8.6588    4.5622    0.0000 C   0  0  0  0  0  0  0  0  0  0  0  0
    6.6698    4.7712    0.0000 C   0  0  0  0  0  0  0  0  0  0  0  0
    8.2520    5.4757    0.0000 C   0  0  0  0  0  0  0  0  0  0  0  0
    7.0439   -4.3459    0.0000 H   0  0  0  0  0  0  0  0  0  0  0  0
    6.9982   -4.7806    0.0000 H   0  0  0  0  0  0  0  0  0  0  0  0
    5.9204   -3.0646    0.0000 H   0  0  0  0  0  0  0  0  0  0  0  0
    5.1088   -3.2371    0.0000 H   0  0  0  0  0  0  0  0  0  0  0  0
    4.8749   -5.4629    0.0000 H   0  0  0  0  0  0  0  0  0  0  0  0
    5.6328   -5.8003    0.0000 H   0  0  0  0  0  0  0  0  0  0  0  0
    7.6020   -4.0909    0.0000 H   0  0  0  0  0  0  0  0  0  0  0  0
    8.0005   -3.4006    0.0000 H   0  0  0  0  0  0  0  0  0  0  0  0
    4.1989   -4.8065    0.0000 H   0  0  0  0  0  0  0  0  0  0  0  0
    5.9134   -1.9006    0.0000 H   0  0  0  0  0  0  0  0  0  0  0  0
    6.3119   -2.5909    0.0000 H   0  0  0  0  0  0  0  0  0  0  0  0
    8.4680   -2.5909    0.0000 H   0  0  0  0  0  0  0  0  0  0  0  0
    8.8666   -1.9006    0.0000 H   0  0  0  0  0  0  0  0  0  0  0  0
    7.9269   -0.1983    0.0000 H   0  0  0  0  0  0  0  0  0  0  0  0
    6.3119   -0.4256    0.0000 H   0  0  0  0  0  0  0  0  0  0  0  0
    5.9134   -1.1159    0.0000 H   0  0  0  0  0  0  0  0  0  0  0  0
    8.8666   -1.1159    0.0000 H   0  0  0  0  0  0  0  0  0  0  0  0
    8.4680   -0.4256    0.0000 H   0  0  0  0  0  0  0  0  0  0  0  0
    3.2878   -2.7602    0.0000 H   0  0  0  0  0  0  0  0  0  0  0  0
    6.3650   -6.8416    0.0000 H   0  0  0  0  0  0  0  0  0  0  0  0
    8.2425   -4.7564    0.0000 H   0  0  0  0  0  0  0  0  0  0  0  0
    2.6103   -2.6054    0.0000 H   0  0  0  0  0  0  0  0  0  0  0  0
    1.9289   -3.1572    0.0000 H   0  0  0  0  0  0  0  0  0  0  0  0
    2.4807   -3.8387    0.0000 H   0  0  0  0  0  0  0  0  0  0  0  0
    4.6294   -2.8820    0.0000 H   0  0  0  0  0  0  0  0  0  0  0  0
    4.4922   -2.0160    0.0000 H   0  0  0  0  0  0  0  0  0  0  0  0
    3.6262   -2.1531    0.0000 H   0  0  0  0  0  0  0  0  0  0  0  0
    8.7886    0.8879    0.0000 H   0  0  0  0  0  0  0  0  0  0  0  0
    9.4464   -5.8404    0.0000 H   0  0  0  0  0  0  0  0  0  0  0  0
    9.1096   -7.4250    0.0000 H   0  0  0  0  0  0  0  0  0  0  0  0
    5.1413    0.3888    0.0000 H   0  0  0  0  0  0  0  0  0  0  0  0
    5.9210    0.2231    0.0000 H   0  0  0  0  0  0  0  0  0  0  0  0
    2.0000   -5.4462    0.0000 H   0  0  0  0  0  0  0  0  0  0  0  0
    7.8288    6.8210    0.0000 H   0  0  0  0  0  0  0  0  0  0  0  0
    8.6988    7.1955    0.0000 H   0  0  0  0  0  0  0  0  0  0  0  0
    8.7981    8.1402    0.0000 H   0  0  0  0  0  0  0  0  0  0  0  0
    7.8149    8.8546    0.0000 H   0  0  0  0  0  0  0  0  0  0  0  0
    6.9471    8.4682    0.0000 H   0  0  0  0  0  0  0  0  0  0  0  0
    8.9084    2.3936    0.0000 H   0  0  0  0  0  0  0  0  0  0  0  0
    8.9918    3.1863    0.0000 H   0  0  0  0  0  0  0  0  0  0  0  0
    5.3016    1.9004    0.0000 H   0  0  0  0  0  0  0  0  0  0  0  0
    4.4260    1.8545    0.0000 H   0  0  0  0  0  0  0  0  0  0  0  0
    4.4719    0.9789    0.0000 H   0  0  0  0  0  0  0  0  0  0  0  0
    6.7121    3.3561    0.0000 H   0  0  0  0  0  0  0  0  0  0  0  0
    9.2754    4.4974    0.0000 H   0  0  0  0  0  0  0  0  0  0  0  0
    6.0531    4.8360    0.0000 H   0  0  0  0  0  0  0  0  0  0  0  0
    8.6165    5.9773    0.0000 H   0  0  0  0  0  0  0  0  0  0  0  0
  1 29  1  0  0  0  0
  2 23  1  0  0  0  0
  2 77  1  0  0  0  0
  3 23  2  0  0  0  0
  4 34  1  0  0  0  0
  4 40  1  0  0  0  0
  5 11  1  0  0  0  0
  5 12  1  0  0  0  0
  5 14  1  0  0  0  0
  6 13  1  0  0  0  0
  6 15  1  0  0  0  0
  6 16  1  0  0  0  0
  7  8  1  0  0  0  0
  7 22  1  0  0  0  0
  7 33  1  0  0  0  0
  8 31  2  0  0  0  0
  9 10  1  0  0  0  0
  9 11  1  0  0  0  0
  9 13  1  6  0  0  0
  9 45  1  0  0  0  0
 10 12  1  0  0  0  0
 10 17  1  1  0  0  0
 10 46  1  0  0  0  0
 11 47  1  0  0  0  0
 11 48  1  0  0  0  0
 12 49  1  0  0  0  0
 12 50  1  0  0  0  0
 13 51  1  0  0  0  0
 13 52  1  0  0  0  0
 14 21  1  0  0  0  0
 14 23  1  1  0  0  0
 14 53  1  0  0  0  0
 15 19  1  0  0  0  0
 15 54  1  0  0  0  0
 15 55  1  0  0  0  0
 16 20  1  0  0  0  0
 16 56  1  0  0  0  0
 16 57  1  0  0  0  0
 17 24  2  0  0  0  0
 17 25  1  0  0  0  0
 18 19  1  0  0  0  0
 18 20  1  0  0  0  0
 18 22  1  0  0  0  0
 18 58  1  0  0  0  0
 19 59  1  0  0  0  0
 19 60  1  0  0  0  0
 20 61  1  0  0  0  0
 20 62  1  0  0  0  0
 21 26  1  0  0  0  0
 21 27  1  0  0  0  0
 21 63  1  0  0  0  0
 22 28  2  0  0  0  0
 24 29  1  0  0  0  0
 24 64  1  0  0  0  0
 25 30  2  0  0  0  0
 25 65  1  0  0  0  0
 26 66  1  0  0  0  0
 26 67  1  0  0  0  0
 26 68  1  0  0  0  0
 27 69  1  0  0  0  0
 27 70  1  0  0  0  0
 27 71  1  0  0  0  0
 28 31  1  0  0  0  0
 28 72  1  0  0  0  0
 29 32  2  0  0  0  0
 30 32  1  0  0  0  0
 30 73  1  0  0  0  0
 31 37  1  0  0  0  0
 32 74  1  0  0  0  0
 33 38  1  0  0  0  0
 33 75  1  0  0  0  0
 33 76  1  0  0  0  0
 34 35  1  0  0  0  0
 34 36  1  0  0  0  0
 34 78  1  0  0  0  0
 35 36  1  0  0  0  0
 35 79  1  0  0  0  0
 35 80  1  0  0  0  0
 36 81  1  0  0  0  0
 36 82  1  0  0  0  0
 37 39  1  0  0  0  0
 37 83  1  0  0  0  0
 37 84  1  0  0  0  0
 38 85  1  0  0  0  0
 38 86  1  0  0  0  0
 38 87  1  0  0  0  0
 39 41  2  0  0  0  0
 39 42  1  0  0  0  0
 40 43  2  0  0  0  0
 40 44  1  0  0  0  0
 41 43  1  0  0  0  0
 41 88  1  0  0  0  0
 42 44  2  0  0  0  0
 42 89  1  0  0  0  0
 43 90  1  0  0  0  0
 44 91  1  0  0  0  0
M  END
> <PUBCHEM_COMPOUND_CID>
516193
> <PUBCHEM_COMPOUND_CANONICALIZED>
1
> <PUBCHEM_CACTVS_COMPLEXITY>
919
> <PUBCHEM_CACTVS_HBOND_ACCEPTOR>
7
> <PUBCHEM_CACTVS_HBOND_DONOR>
1
> <PUBCHEM_CACTVS_ROTATABLE_BOND>
12
> <PUBCHEM_CACTVS_SUBSKEYS>
AAADcfB/sQAAAAAAAAAAAAAAGAAAAWLAAAA8YIAAAAAAAAAB0AAAHwAICAAADTzhng4yjpMIBgCqAyTyTACSDAAhogAY2CG+bJgOJjLE8fuG/CjkyBHY6AeQwOAOoAAAAAAAAABAAAAAAAAAAAAAAAAAAA==
> <PUBCHEM_IUPAC_OPENEYE_NAME>
(2R)-2-[(3S,4S)-3-[[4-[5-[[4-(cyclopropoxy)phenyl]methyl]-2-ethyl-pyrazol-3-yl]-1-piperidyl]methyl]-4-(3-fluorophenyl)pyrrolidin-1-yl]-3-methyl-butanoic acid
> <PUBCHEM_IUPAC_CAS_NAME>
(2R)-2-[(3S,4S)-3-[[4-[5-[(4-cyclopropyloxyphenyl)methyl]-2-ethyl-3-pyrazolyl]-1-piperidinyl]methyl]-4-(3-fluorophenyl)-1-pyrrolidinyl]-3-methylbutanoic acid
> <PUBCHEM_IUPAC_NAME_MARKUP>
(2<I>R</I>)-2-[(3<I>S</I>,4<I>S</I>)-3-[[4-[5-[(4-cyclopropyloxyphenyl)methyl]-2-ethylpyrazol-3-yl]piperidin-1-yl]methyl]-4-(3-fluorophenyl)pyrrolidin-1-yl]-3-methylbutanoic acid
> <PUBCHEM_IUPAC_NAME>
(2R)-2-[(3S,4S)-3-[[4-[5-[(4-cyclopropyloxyphenyl)methyl]-2-ethylpyrazol-3-yl]piperidin-1-yl]methyl]-4-(3-fluorophenyl)pyrrolidin-1-yl]-3-methylbutanoic acid
> <PUBCHEM_IUPAC_SYSTEMATIC_NAME>
(2R)-2-[(3S,4S)-3-[[4-[5-[(4-cyclopropyloxyphenyl)methyl]-2-ethyl-pyrazol-3-yl]piperidin-1-yl]methyl]-4-(3-fluorophenyl)pyrrolidin-1-yl]-3-methyl-butanoic acid
> <PUBCHEM_IUPAC_TRADITIONAL_NAME>
(2R)-2-[(3S,4S)-3-[[4-[5-[4-(cyclopropoxy)benzyl]-2-ethyl-pyrazol-3-yl]piperidino]methyl]-4-(3-fluorophenyl)pyrrolidino]-3-methyl-butyric acid
> <PUBCHEM_IUPAC_INCHI>
InChI=1S/C36H47FN4O3/c1-4-41-34(20-30(38-41)18-25-8-10-31(11-9-25)44-32-12-13-32)26-14-16-39(17-15-26)21-28-22-40(35(24(2)3)36(42)43)23-33(28)27-6-5-7-29(37)19-27/h5-11,19-20,24,26,28,32-33,35H,4,12-18,21-23H2,1-3H3,(H,42,43)/t28-,33+,35+/m0/s1
> <PUBCHEM_IUPAC_INCHIKEY>
JLVJXUOOJFCQIH-GCFSYYHISA-N
> <PUBCHEM_XLOGP3_AA>
4.2
> <PUBCHEM_EXACT_MASS>
602.36321954
> <PUBCHEM_MOLECULAR_FORMULA>
C36H47FN4O3
> <PUBCHEM_MOLECULAR_WEIGHT>
602.8
> <PUBCHEM_OPENEYE_CAN_SMILES>
CCN1C(=CC(=N1)CC2=CC=C(C=C2)OC3CC3)C4CCN(CC4)CC5CN(CC5C6=CC(=CC=C6)F)C(C(C)C)C(=O)O
> <PUBCHEM_OPENEYE_ISO_SMILES>
CCN1C(=CC(=N1)CC2=CC=C(C=C2)OC3CC3)C4CCN(CC4)C[C@H]5CN(C[C@@H]5C6=CC(=CC=C6)F)[C@H](C(C)C)C(=O)O
> <PUBCHEM_CACTVS_TPSA>
70.8
> <PUBCHEM_MONOISOTOPIC_WEIGHT>
602.36321954
> <PUBCHEM_TOTAL_CHARGE>
0
> <PUBCHEM_HEAVY_ATOM_COUNT>
44
> <PUBCHEM_ATOM_DEF_STEREO_COUNT>
3
> <PUBCHEM_ATOM_UDEF_STEREO_COUNT>
0
> <PUBCHEM_BOND_DEF_STEREO_COUNT>
0
> <PUBCHEM_BOND_UDEF_STEREO_COUNT>
0
> <PUBCHEM_ISOTOPIC_ATOM_COUNT>
0
> <PUBCHEM_COMPONENT_COUNT>
1
> <PUBCHEM_CACTVS_TAUTO_COUNT>
-1
> <PUBCHEM_COORDINATE_TYPE>
1
5
255
> <PUBCHEM_BONDANNOTATIONS>
10  17  5
14  23  5
17  24  8
17  25  8
22  28  8
24  29  8
25  30  8
28  31  8
29  32  8
30  32  8
39  41  8
39  42  8
40  43  8
40  44  8
41  43  8
42  44  8
7  22  8
7  8  8
8  31  8
9  13  6
$$$$
