516198
  -OEChem-10302200282D
 87 91  0     1  0  0  0  0  0999 V2000
    7.4899   -8.2568    0.0000 F   0  0  0  0  0  0  0  0  0  0  0  0
    7.0318    8.2568    0.0000 F   0  0  0  0  0  0  0  0  0  0  0  0
    8.4331    7.2388    0.0000 F   0  0  0  0  0  0  0  0  0  0  0  0
    2.3644   -4.9041    0.0000 O   0  0  0  0  0  0  0  0  0  0  0  0
    3.7657   -5.9222    0.0000 O   0  0  0  0  0  0  0  0  0  0  0  0
    6.8508    6.5343    0.0000 O   0  0  0  0  0  0  0  0  0  0  0  0
    4.9413   -4.3042    0.0000 N   0  0  3  0  0  0  0  0  0  0  0  0
    7.3900   -2.4678    0.0000 N   0  0  0  0  0  0  0  0  0  0  0  0
    6.5809    1.1200    0.0000 N   0  0  0  0  0  0  0  0  0  0  0  0
    6.8900    2.0711    0.0000 N   0  0  0  0  0  0  0  0  0  0  0  0
    6.5239   -3.9678    0.0000 C   0  0  2  0  0  0  0  0  0  0  0  0
    6.4194   -4.9623    0.0000 C   0  0  2  0  0  0  0  0  0  0  0  0
    5.6104   -3.5610    0.0000 C   0  0  0  0  0  0  0  0  0  0  0  0
    5.4413   -5.1702    0.0000 C   0  0  0  0  0  0  0  0  0  0  0  0
    7.3900   -3.4678    0.0000 C   0  0  0  0  0  0  0  0  0  0  0  0
    3.9467   -4.1996    0.0000 C   0  0  2  0  0  0  0  0  0  0  0  0
    6.5239   -1.9678    0.0000 C   0  0  0  0  0  0  0  0  0  0  0  0
    8.2560   -1.9678    0.0000 C   0  0  0  0  0  0  0  0  0  0  0  0
    7.1626   -5.6314    0.0000 C   0  0  0  0  0  0  0  0  0  0  0  0
    7.3900   -0.4678    0.0000 C   0  0  0  0  0  0  0  0  0  0  0  0
    6.5239   -0.9678    0.0000 C   0  0  0  0  0  0  0  0  0  0  0  0
    8.2560   -0.9678    0.0000 C   0  0  0  0  0  0  0  0  0  0  0  0
    3.5400   -3.2861    0.0000 C   0  0  0  0  0  0  0  0  0  0  0  0
    7.3900    0.5322    0.0000 C   0  0  0  0  0  0  0  0  0  0  0  0
    3.3590   -5.0087    0.0000 C   0  0  0  0  0  0  0  0  0  0  0  0
    6.9546   -6.6096    0.0000 C   0  0  0  0  0  0  0  0  0  0  0  0
    8.1136   -5.3224    0.0000 C   0  0  0  0  0  0  0  0  0  0  0  0
    2.5455   -3.1816    0.0000 C   0  0  0  0  0  0  0  0  0  0  0  0
    4.1278   -2.4771    0.0000 C   0  0  0  0  0  0  0  0  0  0  0  0
    8.1990    1.1200    0.0000 C   0  0  0  0  0  0  0  0  0  0  0  0
    7.6978   -7.2787    0.0000 C   0  0  0  0  0  0  0  0  0  0  0  0
    8.8568   -5.9915    0.0000 C   0  0  0  0  0  0  0  0  0  0  0  0
    7.8900    2.0711    0.0000 C   0  0  0  0  0  0  0  0  0  0  0  0
    8.6488   -6.9697    0.0000 C   0  0  0  0  0  0  0  0  0  0  0  0
    5.6299    0.8110    0.0000 C   0  0  0  0  0  0  0  0  0  0  0  0
    8.4777    2.8801    0.0000 C   0  0  0  0  0  0  0  0  0  0  0  0
    4.8867    1.4801    0.0000 C   0  0  0  0  0  0  0  0  0  0  0  0
    8.0710    3.7936    0.0000 C   0  0  0  0  0  0  0  0  0  0  0  0
    8.6588    4.6027    0.0000 C   0  0  0  0  0  0  0  0  0  0  0  0
    7.0765    3.8982    0.0000 C   0  0  0  0  0  0  0  0  0  0  0  0
    8.2520    5.5162    0.0000 C   0  0  0  0  0  0  0  0  0  0  0  0
    6.6698    4.8117    0.0000 C   0  0  0  0  0  0  0  0  0  0  0  0
    7.2575    5.6207    0.0000 C   0  0  0  0  0  0  0  0  0  0  0  0
    7.4386    7.3433    0.0000 C   0  0  0  0  0  0  0  0  0  0  0  0
    7.0439   -4.3054    0.0000 H   0  0  0  0  0  0  0  0  0  0  0  0
    6.9982   -4.7401    0.0000 H   0  0  0  0  0  0  0  0  0  0  0  0
    5.9204   -3.0241    0.0000 H   0  0  0  0  0  0  0  0  0  0  0  0
    5.1088   -3.1966    0.0000 H   0  0  0  0  0  0  0  0  0  0  0  0
    4.8749   -5.4224    0.0000 H   0  0  0  0  0  0  0  0  0  0  0  0
    5.6328   -5.7598    0.0000 H   0  0  0  0  0  0  0  0  0  0  0  0
    7.6020   -4.0504    0.0000 H   0  0  0  0  0  0  0  0  0  0  0  0
    8.0005   -3.3601    0.0000 H   0  0  0  0  0  0  0  0  0  0  0  0
    4.1989   -4.7660    0.0000 H   0  0  0  0  0  0  0  0  0  0  0  0
    5.9134   -1.8601    0.0000 H   0  0  0  0  0  0  0  0  0  0  0  0
    6.3119   -2.5504    0.0000 H   0  0  0  0  0  0  0  0  0  0  0  0
    8.4680   -2.5504    0.0000 H   0  0  0  0  0  0  0  0  0  0  0  0
    8.8666   -1.8601    0.0000 H   0  0  0  0  0  0  0  0  0  0  0  0
    7.9269   -0.1578    0.0000 H   0  0  0  0  0  0  0  0  0  0  0  0
    6.3119   -0.3852    0.0000 H   0  0  0  0  0  0  0  0  0  0  0  0
    5.9134   -1.0754    0.0000 H   0  0  0  0  0  0  0  0  0  0  0  0
    8.8666   -1.0754    0.0000 H   0  0  0  0  0  0  0  0  0  0  0  0
    8.4680   -0.3852    0.0000 H   0  0  0  0  0  0  0  0  0  0  0  0
    3.2878   -2.7197    0.0000 H   0  0  0  0  0  0  0  0  0  0  0  0
    6.3650   -6.8012    0.0000 H   0  0  0  0  0  0  0  0  0  0  0  0
    8.2425   -4.7160    0.0000 H   0  0  0  0  0  0  0  0  0  0  0  0
    2.6103   -2.5650    0.0000 H   0  0  0  0  0  0  0  0  0  0  0  0
    1.9289   -3.1168    0.0000 H   0  0  0  0  0  0  0  0  0  0  0  0
    2.4807   -3.7982    0.0000 H   0  0  0  0  0  0  0  0  0  0  0  0
    4.6294   -2.8415    0.0000 H   0  0  0  0  0  0  0  0  0  0  0  0
    4.4922   -1.9755    0.0000 H   0  0  0  0  0  0  0  0  0  0  0  0
    3.6262   -2.1126    0.0000 H   0  0  0  0  0  0  0  0  0  0  0  0
    8.7886    0.9284    0.0000 H   0  0  0  0  0  0  0  0  0  0  0  0
    9.4464   -5.7999    0.0000 H   0  0  0  0  0  0  0  0  0  0  0  0
    9.1096   -7.3845    0.0000 H   0  0  0  0  0  0  0  0  0  0  0  0
    5.1413    0.4293    0.0000 H   0  0  0  0  0  0  0  0  0  0  0  0
    5.9210    0.2636    0.0000 H   0  0  0  0  0  0  0  0  0  0  0  0
    2.0000   -5.4057    0.0000 H   0  0  0  0  0  0  0  0  0  0  0  0
    8.9084    2.4341    0.0000 H   0  0  0  0  0  0  0  0  0  0  0  0
    8.9918    3.2268    0.0000 H   0  0  0  0  0  0  0  0  0  0  0  0
    5.3016    1.9409    0.0000 H   0  0  0  0  0  0  0  0  0  0  0  0
    4.4260    1.8950    0.0000 H   0  0  0  0  0  0  0  0  0  0  0  0
    4.4719    1.0194    0.0000 H   0  0  0  0  0  0  0  0  0  0  0  0
    9.2754    4.5378    0.0000 H   0  0  0  0  0  0  0  0  0  0  0  0
    6.7121    3.3966    0.0000 H   0  0  0  0  0  0  0  0  0  0  0  0
    8.6165    6.0178    0.0000 H   0  0  0  0  0  0  0  0  0  0  0  0
    6.0531    4.8765    0.0000 H   0  0  0  0  0  0  0  0  0  0  0  0
    7.6908    6.7769    0.0000 H   0  0  0  0  0  0  0  0  0  0  0  0
  1 31  1  0  0  0  0
  2 44  1  0  0  0  0
  3 44  1  0  0  0  0
  4 25  1  0  0  0  0
  4 77  1  0  0  0  0
  5 25  2  0  0  0  0
  6 43  1  0  0  0  0
  6 44  1  0  0  0  0
  7 13  1  0  0  0  0
  7 14  1  0  0  0  0
  7 16  1  0  0  0  0
  8 15  1  0  0  0  0
  8 17  1  0  0  0  0
  8 18  1  0  0  0  0
  9 10  1  0  0  0  0
  9 24  1  0  0  0  0
  9 35  1  0  0  0  0
 10 33  2  0  0  0  0
 11 12  1  0  0  0  0
 11 13  1  0  0  0  0
 11 15  1  6  0  0  0
 11 45  1  0  0  0  0
 12 14  1  0  0  0  0
 12 19  1  1  0  0  0
 12 46  1  0  0  0  0
 13 47  1  0  0  0  0
 13 48  1  0  0  0  0
 14 49  1  0  0  0  0
 14 50  1  0  0  0  0
 15 51  1  0  0  0  0
 15 52  1  0  0  0  0
 16 23  1  0  0  0  0
 16 25  1  1  0  0  0
 16 53  1  0  0  0  0
 17 21  1  0  0  0  0
 17 54  1  0  0  0  0
 17 55  1  0  0  0  0
 18 22  1  0  0  0  0
 18 56  1  0  0  0  0
 18 57  1  0  0  0  0
 19 26  2  0  0  0  0
 19 27  1  0  0  0  0
 20 21  1  0  0  0  0
 20 22  1  0  0  0  0
 20 24  1  0  0  0  0
 20 58  1  0  0  0  0
 21 59  1  0  0  0  0
 21 60  1  0  0  0  0
 22 61  1  0  0  0  0
 22 62  1  0  0  0  0
 23 28  1  0  0  0  0
 23 29  1  0  0  0  0
 23 63  1  0  0  0  0
 24 30  2  0  0  0  0
 26 31  1  0  0  0  0
 26 64  1  0  0  0  0
 27 32  2  0  0  0  0
 27 65  1  0  0  0  0
 28 66  1  0  0  0  0
 28 67  1  0  0  0  0
 28 68  1  0  0  0  0
 29 69  1  0  0  0  0
 29 70  1  0  0  0  0
 29 71  1  0  0  0  0
 30 33  1  0  0  0  0
 30 72  1  0  0  0  0
 31 34  2  0  0  0  0
 32 34  1  0  0  0  0
 32 73  1  0  0  0  0
 33 36  1  0  0  0  0
 34 74  1  0  0  0  0
 35 37  1  0  0  0  0
 35 75  1  0  0  0  0
 35 76  1  0  0  0  0
 36 38  1  0  0  0  0
 36 78  1  0  0  0  0
 36 79  1  0  0  0  0
 37 80  1  0  0  0  0
 37 81  1  0  0  0  0
 37 82  1  0  0  0  0
 38 39  2  0  0  0  0
 38 40  1  0  0  0  0
 39 41  1  0  0  0  0
 39 83  1  0  0  0  0
 40 42  2  0  0  0  0
 40 84  1  0  0  0  0
 41 43  2  0  0  0  0
 41 85  1  0  0  0  0
 42 43  1  0  0  0  0
 42 86  1  0  0  0  0
 44 87  1  0  0  0  0
M  END
> <PUBCHEM_COMPOUND_CID>
516198
> <PUBCHEM_COMPOUND_CANONICALIZED>
1
> <PUBCHEM_CACTVS_COMPLEXITY>
899
> <PUBCHEM_CACTVS_HBOND_ACCEPTOR>
9
> <PUBCHEM_CACTVS_HBOND_DONOR>
1
> <PUBCHEM_CACTVS_ROTATABLE_BOND>
12
> <PUBCHEM_CACTVS_SUBSKEYS>
AAADcfB/sYAAAAAAAAAAAAAAAAAAAWLAAAA8YIAAAAAAAAAB0AAAHwAICAAADSzBnh4yjpMIBgCqAyTyTACSDAAhogAY2CG+bJgOJjLE8fuE9ChkyBHY6AeQwOAOoAAAAAAAAABAAAAAAAAAAAAAAAAAAA==
> <PUBCHEM_IUPAC_OPENEYE_NAME>
(2R)-2-[(3S,4S)-3-[[4-[5-[[4-(difluoromethoxy)phenyl]methyl]-2-ethyl-pyrazol-3-yl]-1-piperidyl]methyl]-4-(3-fluorophenyl)pyrrolidin-1-yl]-3-methyl-butanoic acid
> <PUBCHEM_IUPAC_CAS_NAME>
(2R)-2-[(3S,4S)-3-[[4-[5-[[4-(difluoromethoxy)phenyl]methyl]-2-ethyl-3-pyrazolyl]-1-piperidinyl]methyl]-4-(3-fluorophenyl)-1-pyrrolidinyl]-3-methylbutanoic acid
> <PUBCHEM_IUPAC_NAME_MARKUP>
(2<I>R</I>)-2-[(3<I>S</I>,4<I>S</I>)-3-[[4-[5-[[4-(difluoromethoxy)phenyl]methyl]-2-ethylpyrazol-3-yl]piperidin-1-yl]methyl]-4-(3-fluorophenyl)pyrrolidin-1-yl]-3-methylbutanoic acid
> <PUBCHEM_IUPAC_NAME>
(2R)-2-[(3S,4S)-3-[[4-[5-[[4-(difluoromethoxy)phenyl]methyl]-2-ethylpyrazol-3-yl]piperidin-1-yl]methyl]-4-(3-fluorophenyl)pyrrolidin-1-yl]-3-methylbutanoic acid
> <PUBCHEM_IUPAC_SYSTEMATIC_NAME>
(2R)-2-[(3S,4S)-3-[[4-[5-[[4-[bis(fluoranyl)methoxy]phenyl]methyl]-2-ethyl-pyrazol-3-yl]piperidin-1-yl]methyl]-4-(3-fluorophenyl)pyrrolidin-1-yl]-3-methyl-butanoic acid
> <PUBCHEM_IUPAC_TRADITIONAL_NAME>
(2R)-2-[(3S,4S)-3-[[4-[5-[4-(difluoromethoxy)benzyl]-2-ethyl-pyrazol-3-yl]piperidino]methyl]-4-(3-fluorophenyl)pyrrolidino]-3-methyl-butyric acid
> <PUBCHEM_IUPAC_INCHI>
InChI=1S/C34H43F3N4O3/c1-4-41-31(18-28(38-41)16-23-8-10-29(11-9-23)44-34(36)37)24-12-14-39(15-13-24)19-26-20-40(32(22(2)3)33(42)43)21-30(26)25-6-5-7-27(35)17-25/h5-11,17-18,22,24,26,30,32,34H,4,12-16,19-21H2,1-3H3,(H,42,43)/t26-,30+,32+/m0/s1
> <PUBCHEM_IUPAC_INCHIKEY>
QWGGANWFKFBCQI-NNYJQHGCSA-N
> <PUBCHEM_XLOGP3_AA>
4.6
> <PUBCHEM_EXACT_MASS>
612.32872573
> <PUBCHEM_MOLECULAR_FORMULA>
C34H43F3N4O3
> <PUBCHEM_MOLECULAR_WEIGHT>
612.7
> <PUBCHEM_OPENEYE_CAN_SMILES>
CCN1C(=CC(=N1)CC2=CC=C(C=C2)OC(F)F)C3CCN(CC3)CC4CN(CC4C5=CC(=CC=C5)F)C(C(C)C)C(=O)O
> <PUBCHEM_OPENEYE_ISO_SMILES>
CCN1C(=CC(=N1)CC2=CC=C(C=C2)OC(F)F)C3CCN(CC3)C[C@H]4CN(C[C@@H]4C5=CC(=CC=C5)F)[C@H](C(C)C)C(=O)O
> <PUBCHEM_CACTVS_TPSA>
70.8
> <PUBCHEM_MONOISOTOPIC_WEIGHT>
612.32872573
> <PUBCHEM_TOTAL_CHARGE>
0
> <PUBCHEM_HEAVY_ATOM_COUNT>
44
> <PUBCHEM_ATOM_DEF_STEREO_COUNT>
3
> <PUBCHEM_ATOM_UDEF_STEREO_COUNT>
0
> <PUBCHEM_BOND_DEF_STEREO_COUNT>
0
> <PUBCHEM_BOND_UDEF_STEREO_COUNT>
0
> <PUBCHEM_ISOTOPIC_ATOM_COUNT>
0
> <PUBCHEM_COMPONENT_COUNT>
1
> <PUBCHEM_CACTVS_TAUTO_COUNT>
-1
> <PUBCHEM_COORDINATE_TYPE>
1
5
255
> <PUBCHEM_BONDANNOTATIONS>
10  33  8
11  15  6
12  19  5
16  25  5
19  26  8
19  27  8
24  30  8
26  31  8
27  32  8
30  33  8
31  34  8
32  34  8
38  39  8
38  40  8
39  41  8
40  42  8
41  43  8
42  43  8
9  10  8
9  24  8
$$$$
