516195
  -OEChem-10302200282D
 96100  0     1  0  0  0  0  0999 V2000
    7.4899   -8.2046    0.0000 F   0  0  0  0  0  0  0  0  0  0  0  0
    2.3644   -4.8519    0.0000 O   0  0  0  0  0  0  0  0  0  0  0  0
    3.7657   -5.8699    0.0000 O   0  0  0  0  0  0  0  0  0  0  0  0
    6.8508    6.5865    0.0000 O   0  0  0  0  0  0  0  0  0  0  0  0
    4.9413   -4.2519    0.0000 N   0  0  3  0  0  0  0  0  0  0  0  0
    7.3900   -2.4155    0.0000 N   0  0  0  0  0  0  0  0  0  0  0  0
    6.5809    1.1723    0.0000 N   0  0  0  0  0  0  0  0  0  0  0  0
    6.8900    2.1233    0.0000 N   0  0  0  0  0  0  0  0  0  0  0  0
    6.5239   -3.9155    0.0000 C   0  0  2  0  0  0  0  0  0  0  0  0
    6.4194   -4.9100    0.0000 C   0  0  2  0  0  0  0  0  0  0  0  0
    5.6104   -3.5088    0.0000 C   0  0  0  0  0  0  0  0  0  0  0  0
    5.4413   -5.1179    0.0000 C   0  0  0  0  0  0  0  0  0  0  0  0
    7.3900   -3.4155    0.0000 C   0  0  0  0  0  0  0  0  0  0  0  0
    3.9467   -4.1474    0.0000 C   0  0  2  0  0  0  0  0  0  0  0  0
    6.5239   -1.9155    0.0000 C   0  0  0  0  0  0  0  0  0  0  0  0
    8.2560   -1.9155    0.0000 C   0  0  0  0  0  0  0  0  0  0  0  0
    7.1626   -5.5792    0.0000 C   0  0  0  0  0  0  0  0  0  0  0  0
    7.3900   -0.4155    0.0000 C   0  0  0  0  0  0  0  0  0  0  0  0
    6.5239   -0.9155    0.0000 C   0  0  0  0  0  0  0  0  0  0  0  0
    8.2560   -0.9155    0.0000 C   0  0  0  0  0  0  0  0  0  0  0  0
    3.5400   -3.2338    0.0000 C   0  0  0  0  0  0  0  0  0  0  0  0
    7.3900    0.5845    0.0000 C   0  0  0  0  0  0  0  0  0  0  0  0
    3.3590   -4.9564    0.0000 C   0  0  0  0  0  0  0  0  0  0  0  0
    6.9546   -6.5573    0.0000 C   0  0  0  0  0  0  0  0  0  0  0  0
    8.1136   -5.2701    0.0000 C   0  0  0  0  0  0  0  0  0  0  0  0
    2.5455   -3.1293    0.0000 C   0  0  0  0  0  0  0  0  0  0  0  0
    4.1278   -2.4248    0.0000 C   0  0  0  0  0  0  0  0  0  0  0  0
    8.1990    1.1723    0.0000 C   0  0  0  0  0  0  0  0  0  0  0  0
    7.6978   -7.2264    0.0000 C   0  0  0  0  0  0  0  0  0  0  0  0
    8.8568   -5.9393    0.0000 C   0  0  0  0  0  0  0  0  0  0  0  0
    7.8900    2.1233    0.0000 C   0  0  0  0  0  0  0  0  0  0  0  0
    8.6488   -6.9174    0.0000 C   0  0  0  0  0  0  0  0  0  0  0  0
    5.6299    0.8633    0.0000 C   0  0  0  0  0  0  0  0  0  0  0  0
    8.4777    2.9324    0.0000 C   0  0  0  0  0  0  0  0  0  0  0  0
    4.8867    1.5324    0.0000 C   0  0  0  0  0  0  0  0  0  0  0  0
    8.0710    3.8459    0.0000 C   0  0  0  0  0  0  0  0  0  0  0  0
    8.6588    4.6549    0.0000 C   0  0  0  0  0  0  0  0  0  0  0  0
    7.0765    3.9504    0.0000 C   0  0  0  0  0  0  0  0  0  0  0  0
    8.2520    5.5685    0.0000 C   0  0  0  0  0  0  0  0  0  0  0  0
    6.6698    4.8640    0.0000 C   0  0  0  0  0  0  0  0  0  0  0  0
    7.2575    5.6730    0.0000 C   0  0  0  0  0  0  0  0  0  0  0  0
    7.4386    7.3956    0.0000 C   0  0  0  0  0  0  0  0  0  0  0  0
    8.0264    8.2046    0.0000 C   0  0  0  0  0  0  0  0  0  0  0  0
    6.6296    7.9833    0.0000 C   0  0  0  0  0  0  0  0  0  0  0  0
    8.2476    6.8078    0.0000 C   0  0  0  0  0  0  0  0  0  0  0  0
    6.4915   -3.2964    0.0000 H   0  0  0  0  0  0  0  0  0  0  0  0
    6.9982   -4.6878    0.0000 H   0  0  0  0  0  0  0  0  0  0  0  0
    5.9204   -2.9718    0.0000 H   0  0  0  0  0  0  0  0  0  0  0  0
    5.1088   -3.1443    0.0000 H   0  0  0  0  0  0  0  0  0  0  0  0
    4.8749   -5.3701    0.0000 H   0  0  0  0  0  0  0  0  0  0  0  0
    5.6328   -5.7076    0.0000 H   0  0  0  0  0  0  0  0  0  0  0  0
    7.6020   -3.9981    0.0000 H   0  0  0  0  0  0  0  0  0  0  0  0
    8.0005   -3.3078    0.0000 H   0  0  0  0  0  0  0  0  0  0  0  0
    4.1989   -4.7138    0.0000 H   0  0  0  0  0  0  0  0  0  0  0  0
    5.9134   -1.8078    0.0000 H   0  0  0  0  0  0  0  0  0  0  0  0
    6.3119   -2.4981    0.0000 H   0  0  0  0  0  0  0  0  0  0  0  0
    8.4680   -2.4981    0.0000 H   0  0  0  0  0  0  0  0  0  0  0  0
    8.8666   -1.8078    0.0000 H   0  0  0  0  0  0  0  0  0  0  0  0
    7.9269   -0.1055    0.0000 H   0  0  0  0  0  0  0  0  0  0  0  0
    6.3119   -0.3329    0.0000 H   0  0  0  0  0  0  0  0  0  0  0  0
    5.9134   -1.0232    0.0000 H   0  0  0  0  0  0  0  0  0  0  0  0
    8.8666   -1.0232    0.0000 H   0  0  0  0  0  0  0  0  0  0  0  0
    8.4680   -0.3329    0.0000 H   0  0  0  0  0  0  0  0  0  0  0  0
    3.2878   -2.6674    0.0000 H   0  0  0  0  0  0  0  0  0  0  0  0
    6.3650   -6.7489    0.0000 H   0  0  0  0  0  0  0  0  0  0  0  0
    8.2425   -4.6637    0.0000 H   0  0  0  0  0  0  0  0  0  0  0  0
    2.6103   -2.5127    0.0000 H   0  0  0  0  0  0  0  0  0  0  0  0
    1.9289   -3.0645    0.0000 H   0  0  0  0  0  0  0  0  0  0  0  0
    2.4807   -3.7459    0.0000 H   0  0  0  0  0  0  0  0  0  0  0  0
    4.6294   -2.7892    0.0000 H   0  0  0  0  0  0  0  0  0  0  0  0
    4.4922   -1.9232    0.0000 H   0  0  0  0  0  0  0  0  0  0  0  0
    3.6262   -2.0604    0.0000 H   0  0  0  0  0  0  0  0  0  0  0  0
    8.7886    0.9807    0.0000 H   0  0  0  0  0  0  0  0  0  0  0  0
    9.4464   -5.7477    0.0000 H   0  0  0  0  0  0  0  0  0  0  0  0
    9.1096   -7.3323    0.0000 H   0  0  0  0  0  0  0  0  0  0  0  0
    5.1413    0.4816    0.0000 H   0  0  0  0  0  0  0  0  0  0  0  0
    5.9210    0.3158    0.0000 H   0  0  0  0  0  0  0  0  0  0  0  0
    2.0000   -5.3535    0.0000 H   0  0  0  0  0  0  0  0  0  0  0  0
    8.9084    2.4864    0.0000 H   0  0  0  0  0  0  0  0  0  0  0  0
    8.9918    3.2791    0.0000 H   0  0  0  0  0  0  0  0  0  0  0  0
    5.3016    1.9932    0.0000 H   0  0  0  0  0  0  0  0  0  0  0  0
    4.4260    1.9473    0.0000 H   0  0  0  0  0  0  0  0  0  0  0  0
    4.4719    1.0716    0.0000 H   0  0  0  0  0  0  0  0  0  0  0  0
    9.2754    4.5901    0.0000 H   0  0  0  0  0  0  0  0  0  0  0  0
    6.7121    3.4488    0.0000 H   0  0  0  0  0  0  0  0  0  0  0  0
    8.6165    6.0701    0.0000 H   0  0  0  0  0  0  0  0  0  0  0  0
    6.0531    4.9288    0.0000 H   0  0  0  0  0  0  0  0  0  0  0  0
    8.5280    7.8402    0.0000 H   0  0  0  0  0  0  0  0  0  0  0  0
    8.3908    8.7062    0.0000 H   0  0  0  0  0  0  0  0  0  0  0  0
    7.5248    8.5690    0.0000 H   0  0  0  0  0  0  0  0  0  0  0  0
    6.9940    8.4849    0.0000 H   0  0  0  0  0  0  0  0  0  0  0  0
    6.1280    8.3478    0.0000 H   0  0  0  0  0  0  0  0  0  0  0  0
    6.2651    7.4818    0.0000 H   0  0  0  0  0  0  0  0  0  0  0  0
    7.8832    6.3062    0.0000 H   0  0  0  0  0  0  0  0  0  0  0  0
    8.7492    6.4434    0.0000 H   0  0  0  0  0  0  0  0  0  0  0  0
    8.6120    7.3094    0.0000 H   0  0  0  0  0  0  0  0  0  0  0  0
  1 29  1  0  0  0  0
  2 23  1  0  0  0  0
  2 78  1  0  0  0  0
  3 23  2  0  0  0  0
  4 41  1  0  0  0  0
  4 42  1  0  0  0  0
  5 11  1  0  0  0  0
  5 12  1  0  0  0  0
  5 14  1  0  0  0  0
  6 13  1  0  0  0  0
  6 15  1  0  0  0  0
  6 16  1  0  0  0  0
  7  8  1  0  0  0  0
  7 22  1  0  0  0  0
  7 33  1  0  0  0  0
  8 31  2  0  0  0  0
  9 10  1  0  0  0  0
  9 11  1  0  0  0  0
  9 13  1  6  0  0  0
  9 46  1  0  0  0  0
 10 12  1  0  0  0  0
 10 17  1  1  0  0  0
 10 47  1  0  0  0  0
 11 48  1  0  0  0  0
 11 49  1  0  0  0  0
 12 50  1  0  0  0  0
 12 51  1  0  0  0  0
 13 52  1  0  0  0  0
 13 53  1  0  0  0  0
 14 21  1  0  0  0  0
 14 23  1  1  0  0  0
 14 54  1  0  0  0  0
 15 19  1  0  0  0  0
 15 55  1  0  0  0  0
 15 56  1  0  0  0  0
 16 20  1  0  0  0  0
 16 57  1  0  0  0  0
 16 58  1  0  0  0  0
 17 24  2  0  0  0  0
 17 25  1  0  0  0  0
 18 19  1  0  0  0  0
 18 20  1  0  0  0  0
 18 22  1  0  0  0  0
 18 59  1  0  0  0  0
 19 60  1  0  0  0  0
 19 61  1  0  0  0  0
 20 62  1  0  0  0  0
 20 63  1  0  0  0  0
 21 26  1  0  0  0  0
 21 27  1  0  0  0  0
 21 64  1  0  0  0  0
 22 28  2  0  0  0  0
 24 29  1  0  0  0  0
 24 65  1  0  0  0  0
 25 30  2  0  0  0  0
 25 66  1  0  0  0  0
 26 67  1  0  0  0  0
 26 68  1  0  0  0  0
 26 69  1  0  0  0  0
 27 70  1  0  0  0  0
 27 71  1  0  0  0  0
 27 72  1  0  0  0  0
 28 31  1  0  0  0  0
 28 73  1  0  0  0  0
 29 32  2  0  0  0  0
 30 32  1  0  0  0  0
 30 74  1  0  0  0  0
 31 34  1  0  0  0  0
 32 75  1  0  0  0  0
 33 35  1  0  0  0  0
 33 76  1  0  0  0  0
 33 77  1  0  0  0  0
 34 36  1  0  0  0  0
 34 79  1  0  0  0  0
 34 80  1  0  0  0  0
 35 81  1  0  0  0  0
 35 82  1  0  0  0  0
 35 83  1  0  0  0  0
 36 37  2  0  0  0  0
 36 38  1  0  0  0  0
 37 39  1  0  0  0  0
 37 84  1  0  0  0  0
 38 40  2  0  0  0  0
 38 85  1  0  0  0  0
 39 41  2  0  0  0  0
 39 86  1  0  0  0  0
 40 41  1  0  0  0  0
 40 87  1  0  0  0  0
 42 43  1  0  0  0  0
 42 44  1  0  0  0  0
 42 45  1  0  0  0  0
 43 88  1  0  0  0  0
 43 89  1  0  0  0  0
 43 90  1  0  0  0  0
 44 91  1  0  0  0  0
 44 92  1  0  0  0  0
 44 93  1  0  0  0  0
 45 94  1  0  0  0  0
 45 95  1  0  0  0  0
 45 96  1  0  0  0  0
M  END
> <PUBCHEM_COMPOUND_CID>
516195
> <PUBCHEM_COMPOUND_CANONICALIZED>
1
> <PUBCHEM_CACTVS_COMPLEXITY>
929
> <PUBCHEM_CACTVS_HBOND_ACCEPTOR>
7
> <PUBCHEM_CACTVS_HBOND_DONOR>
1
> <PUBCHEM_CACTVS_ROTATABLE_BOND>
12
> <PUBCHEM_CACTVS_SUBSKEYS>
AAADcfB/sQAAAAAAAAAAAAAAAAAAAWLAAAA8YIAAAAAAAAAB0AAAHwAICAAADWzBngwyjpMIBgCqAyTyTACSDAAhogAY2CG+bJgOJjLE8fuG/CjkyBHY6AeQwOAOoAAAAAAAAABAAAAAAAAAAAAAAAAAAA==
> <PUBCHEM_IUPAC_OPENEYE_NAME>
(2R)-2-[(3S,4S)-3-[[4-[5-[(4-tert-butoxyphenyl)methyl]-2-ethyl-pyrazol-3-yl]-1-piperidyl]methyl]-4-(3-fluorophenyl)pyrrolidin-1-yl]-3-methyl-butanoic acid
> <PUBCHEM_IUPAC_CAS_NAME>
(2R)-2-[(3S,4S)-3-[[4-[2-ethyl-5-[[4-[(2-methylpropan-2-yl)oxy]phenyl]methyl]-3-pyrazolyl]-1-piperidinyl]methyl]-4-(3-fluorophenyl)-1-pyrrolidinyl]-3-methylbutanoic acid
> <PUBCHEM_IUPAC_NAME_MARKUP>
(2<I>R</I>)-2-[(3<I>S</I>,4<I>S</I>)-3-[[4-[2-ethyl-5-[[4-[(2-methylpropan-2-yl)oxy]phenyl]methyl]pyrazol-3-yl]piperidin-1-yl]methyl]-4-(3-fluorophenyl)pyrrolidin-1-yl]-3-methylbutanoic acid
> <PUBCHEM_IUPAC_NAME>
(2R)-2-[(3S,4S)-3-[[4-[2-ethyl-5-[[4-[(2-methylpropan-2-yl)oxy]phenyl]methyl]pyrazol-3-yl]piperidin-1-yl]methyl]-4-(3-fluorophenyl)pyrrolidin-1-yl]-3-methylbutanoic acid
> <PUBCHEM_IUPAC_SYSTEMATIC_NAME>
(2R)-2-[(3S,4S)-3-[[4-[2-ethyl-5-[[4-[(2-methylpropan-2-yl)oxy]phenyl]methyl]pyrazol-3-yl]piperidin-1-yl]methyl]-4-(3-fluorophenyl)pyrrolidin-1-yl]-3-methyl-butanoic acid
> <PUBCHEM_IUPAC_TRADITIONAL_NAME>
(2R)-2-[(3S,4S)-3-[[4-[5-(4-tert-butoxybenzyl)-2-ethyl-pyrazol-3-yl]piperidino]methyl]-4-(3-fluorophenyl)pyrrolidino]-3-methyl-butyric acid
> <PUBCHEM_IUPAC_INCHI>
InChI=1S/C37H51FN4O3/c1-7-42-34(21-31(39-42)19-26-11-13-32(14-12-26)45-37(4,5)6)27-15-17-40(18-16-27)22-29-23-41(35(25(2)3)36(43)44)24-33(29)28-9-8-10-30(38)20-28/h8-14,20-21,25,27,29,33,35H,7,15-19,22-24H2,1-6H3,(H,43,44)/t29-,33+,35+/m0/s1
> <PUBCHEM_IUPAC_INCHIKEY>
NUGQFYBHPBBTJL-HMQVCXRFSA-N
> <PUBCHEM_XLOGP3_AA>
4.7
> <PUBCHEM_EXACT_MASS>
618.39451966
> <PUBCHEM_MOLECULAR_FORMULA>
C37H51FN4O3
> <PUBCHEM_MOLECULAR_WEIGHT>
618.8
> <PUBCHEM_OPENEYE_CAN_SMILES>
CCN1C(=CC(=N1)CC2=CC=C(C=C2)OC(C)(C)C)C3CCN(CC3)CC4CN(CC4C5=CC(=CC=C5)F)C(C(C)C)C(=O)O
> <PUBCHEM_OPENEYE_ISO_SMILES>
CCN1C(=CC(=N1)CC2=CC=C(C=C2)OC(C)(C)C)C3CCN(CC3)C[C@H]4CN(C[C@@H]4C5=CC(=CC=C5)F)[C@H](C(C)C)C(=O)O
> <PUBCHEM_CACTVS_TPSA>
70.8
> <PUBCHEM_MONOISOTOPIC_WEIGHT>
618.39451966
> <PUBCHEM_TOTAL_CHARGE>
0
> <PUBCHEM_HEAVY_ATOM_COUNT>
45
> <PUBCHEM_ATOM_DEF_STEREO_COUNT>
3
> <PUBCHEM_ATOM_UDEF_STEREO_COUNT>
0
> <PUBCHEM_BOND_DEF_STEREO_COUNT>
0
> <PUBCHEM_BOND_UDEF_STEREO_COUNT>
0
> <PUBCHEM_ISOTOPIC_ATOM_COUNT>
0
> <PUBCHEM_COMPONENT_COUNT>
1
> <PUBCHEM_CACTVS_TAUTO_COUNT>
-1
> <PUBCHEM_COORDINATE_TYPE>
1
5
255
> <PUBCHEM_BONDANNOTATIONS>
10  17  5
14  23  5
17  24  8
17  25  8
22  28  8
24  29  8
25  30  8
28  31  8
29  32  8
30  32  8
36  37  8
36  38  8
37  39  8
38  40  8
39  41  8
40  41  8
7  22  8
7  8  8
8  31  8
9  13  6
$$$$
