516281
  -OEChem-10302200282D
 93 97  0     1  0  0  0  0  0999 V2000
    9.8078   -6.6284    0.0000 F   0  0  0  0  0  0  0  0  0  0  0  0
    6.6251    8.2245    0.0000 F   0  0  0  0  0  0  0  0  0  0  0  0
    7.9454    7.7177    0.0000 F   0  0  0  0  0  0  0  0  0  0  0  0
    6.1183    6.9043    0.0000 F   0  0  0  0  0  0  0  0  0  0  0  0
    2.3644   -5.8500    0.0000 O   0  0  0  0  0  0  0  0  0  0  0  0
    3.7657   -6.8680    0.0000 O   0  0  0  0  0  0  0  0  0  0  0  0
    6.8508    5.5884    0.0000 O   0  0  0  0  0  0  0  0  0  0  0  0
    4.9413   -5.2500    0.0000 N   0  0  3  0  0  0  0  0  0  0  0  0
    7.3900   -3.4136    0.0000 N   0  0  0  0  0  0  0  0  0  0  0  0
    6.5809    0.1742    0.0000 N   0  0  0  0  0  0  0  0  0  0  0  0
    6.8900    1.1252    0.0000 N   0  0  0  0  0  0  0  0  0  0  0  0
    6.5239   -4.9136    0.0000 C   0  0  2  0  0  0  0  0  0  0  0  0
    6.4194   -5.9081    0.0000 C   0  0  2  0  0  0  0  0  0  0  0  0
    5.6104   -4.5069    0.0000 C   0  0  0  0  0  0  0  0  0  0  0  0
    5.4413   -6.1160    0.0000 C   0  0  0  0  0  0  0  0  0  0  0  0
    7.3900   -4.4136    0.0000 C   0  0  0  0  0  0  0  0  0  0  0  0
    3.9467   -5.1455    0.0000 C   0  0  2  0  0  0  0  0  0  0  0  0
    3.5400   -4.2319    0.0000 C   0  0  0  0  0  0  0  0  0  0  0  0
    7.1626   -6.5773    0.0000 C   0  0  0  0  0  0  0  0  0  0  0  0
    6.5239   -2.9136    0.0000 C   0  0  0  0  0  0  0  0  0  0  0  0
    8.2560   -2.9136    0.0000 C   0  0  0  0  0  0  0  0  0  0  0  0
    7.3900   -1.4136    0.0000 C   0  0  0  0  0  0  0  0  0  0  0  0
    6.5239   -1.9136    0.0000 C   0  0  0  0  0  0  0  0  0  0  0  0
    8.2560   -1.9136    0.0000 C   0  0  0  0  0  0  0  0  0  0  0  0
    3.3590   -5.9545    0.0000 C   0  0  0  0  0  0  0  0  0  0  0  0
    3.1333   -3.3184    0.0000 C   0  0  0  0  0  0  0  0  0  0  0  0
    2.6264   -4.6387    0.0000 C   0  0  0  0  0  0  0  0  0  0  0  0
    4.4535   -3.8252    0.0000 C   0  0  0  0  0  0  0  0  0  0  0  0
    7.3900   -0.4136    0.0000 C   0  0  0  0  0  0  0  0  0  0  0  0
    8.1136   -6.2682    0.0000 C   0  0  0  0  0  0  0  0  0  0  0  0
    6.9546   -7.5554    0.0000 C   0  0  0  0  0  0  0  0  0  0  0  0
    8.1990    0.1742    0.0000 C   0  0  0  0  0  0  0  0  0  0  0  0
    8.8568   -6.9374    0.0000 C   0  0  0  0  0  0  0  0  0  0  0  0
    7.6978   -8.2245    0.0000 C   0  0  0  0  0  0  0  0  0  0  0  0
    8.6488   -7.9155    0.0000 C   0  0  0  0  0  0  0  0  0  0  0  0
    7.8900    1.1252    0.0000 C   0  0  0  0  0  0  0  0  0  0  0  0
    5.6299   -0.1348    0.0000 C   0  0  0  0  0  0  0  0  0  0  0  0
    8.4777    1.9342    0.0000 C   0  0  0  0  0  0  0  0  0  0  0  0
    4.8867    0.5343    0.0000 C   0  0  0  0  0  0  0  0  0  0  0  0
    8.0710    2.8478    0.0000 C   0  0  0  0  0  0  0  0  0  0  0  0
    7.0765    2.9523    0.0000 C   0  0  0  0  0  0  0  0  0  0  0  0
    8.6588    3.6568    0.0000 C   0  0  0  0  0  0  0  0  0  0  0  0
    6.6698    3.8659    0.0000 C   0  0  0  0  0  0  0  0  0  0  0  0
    8.2520    4.5704    0.0000 C   0  0  0  0  0  0  0  0  0  0  0  0
    7.2575    4.6749    0.0000 C   0  0  0  0  0  0  0  0  0  0  0  0
    7.4386    6.3974    0.0000 C   0  0  0  0  0  0  0  0  0  0  0  0
    7.0318    7.3110    0.0000 C   0  0  0  0  0  0  0  0  0  0  0  0
    7.0439   -5.2513    0.0000 H   0  0  0  0  0  0  0  0  0  0  0  0
    6.9982   -5.6859    0.0000 H   0  0  0  0  0  0  0  0  0  0  0  0
    5.9204   -3.9699    0.0000 H   0  0  0  0  0  0  0  0  0  0  0  0
    5.1088   -4.1424    0.0000 H   0  0  0  0  0  0  0  0  0  0  0  0
    4.8749   -6.3682    0.0000 H   0  0  0  0  0  0  0  0  0  0  0  0
    5.6328   -6.7057    0.0000 H   0  0  0  0  0  0  0  0  0  0  0  0
    7.6020   -4.9962    0.0000 H   0  0  0  0  0  0  0  0  0  0  0  0
    8.0005   -4.3060    0.0000 H   0  0  0  0  0  0  0  0  0  0  0  0
    4.1989   -5.7119    0.0000 H   0  0  0  0  0  0  0  0  0  0  0  0
    5.9134   -2.8060    0.0000 H   0  0  0  0  0  0  0  0  0  0  0  0
    6.3119   -3.4962    0.0000 H   0  0  0  0  0  0  0  0  0  0  0  0
    8.4680   -3.4962    0.0000 H   0  0  0  0  0  0  0  0  0  0  0  0
    8.8666   -2.8060    0.0000 H   0  0  0  0  0  0  0  0  0  0  0  0
    7.9269   -1.1036    0.0000 H   0  0  0  0  0  0  0  0  0  0  0  0
    6.3119   -1.3310    0.0000 H   0  0  0  0  0  0  0  0  0  0  0  0
    5.9134   -2.0213    0.0000 H   0  0  0  0  0  0  0  0  0  0  0  0
    8.8666   -2.0213    0.0000 H   0  0  0  0  0  0  0  0  0  0  0  0
    8.4680   -1.3310    0.0000 H   0  0  0  0  0  0  0  0  0  0  0  0
    3.6997   -3.0662    0.0000 H   0  0  0  0  0  0  0  0  0  0  0  0
    2.8811   -2.7520    0.0000 H   0  0  0  0  0  0  0  0  0  0  0  0
    2.5669   -3.5706    0.0000 H   0  0  0  0  0  0  0  0  0  0  0  0
    2.3743   -4.0723    0.0000 H   0  0  0  0  0  0  0  0  0  0  0  0
    2.0600   -4.8909    0.0000 H   0  0  0  0  0  0  0  0  0  0  0  0
    2.8786   -5.2051    0.0000 H   0  0  0  0  0  0  0  0  0  0  0  0
    4.7057   -4.3916    0.0000 H   0  0  0  0  0  0  0  0  0  0  0  0
    5.0199   -3.5730    0.0000 H   0  0  0  0  0  0  0  0  0  0  0  0
    4.2014   -3.2588    0.0000 H   0  0  0  0  0  0  0  0  0  0  0  0
    8.2425   -5.6618    0.0000 H   0  0  0  0  0  0  0  0  0  0  0  0
    6.3650   -7.7470    0.0000 H   0  0  0  0  0  0  0  0  0  0  0  0
    8.7886   -0.0174    0.0000 H   0  0  0  0  0  0  0  0  0  0  0  0
    7.5689   -8.8310    0.0000 H   0  0  0  0  0  0  0  0  0  0  0  0
    2.0000   -6.3516    0.0000 H   0  0  0  0  0  0  0  0  0  0  0  0
    9.1096   -8.3304    0.0000 H   0  0  0  0  0  0  0  0  0  0  0  0
    5.1413   -0.5166    0.0000 H   0  0  0  0  0  0  0  0  0  0  0  0
    5.9210   -0.6823    0.0000 H   0  0  0  0  0  0  0  0  0  0  0  0
    8.9084    1.4883    0.0000 H   0  0  0  0  0  0  0  0  0  0  0  0
    8.9918    2.2809    0.0000 H   0  0  0  0  0  0  0  0  0  0  0  0
    5.3016    0.9950    0.0000 H   0  0  0  0  0  0  0  0  0  0  0  0
    4.4260    0.9492    0.0000 H   0  0  0  0  0  0  0  0  0  0  0  0
    4.4719    0.0735    0.0000 H   0  0  0  0  0  0  0  0  0  0  0  0
    6.7121    2.4507    0.0000 H   0  0  0  0  0  0  0  0  0  0  0  0
    9.2754    3.5920    0.0000 H   0  0  0  0  0  0  0  0  0  0  0  0
    6.0531    3.9307    0.0000 H   0  0  0  0  0  0  0  0  0  0  0  0
    8.6165    5.0720    0.0000 H   0  0  0  0  0  0  0  0  0  0  0  0
    7.8693    5.9515    0.0000 H   0  0  0  0  0  0  0  0  0  0  0  0
    7.9526    6.7442    0.0000 H   0  0  0  0  0  0  0  0  0  0  0  0
  1 33  1  0  0  0  0
  2 47  1  0  0  0  0
  3 47  1  0  0  0  0
  4 47  1  0  0  0  0
  5 25  1  0  0  0  0
  5 79  1  0  0  0  0
  6 25  2  0  0  0  0
  7 45  1  0  0  0  0
  7 46  1  0  0  0  0
  8 14  1  0  0  0  0
  8 15  1  0  0  0  0
  8 17  1  0  0  0  0
  9 16  1  0  0  0  0
  9 20  1  0  0  0  0
  9 21  1  0  0  0  0
 10 11  1  0  0  0  0
 10 29  1  0  0  0  0
 10 37  1  0  0  0  0
 11 36  2  0  0  0  0
 12 13  1  0  0  0  0
 12 14  1  0  0  0  0
 12 16  1  6  0  0  0
 12 48  1  0  0  0  0
 13 15  1  0  0  0  0
 13 19  1  1  0  0  0
 13 49  1  0  0  0  0
 14 50  1  0  0  0  0
 14 51  1  0  0  0  0
 15 52  1  0  0  0  0
 15 53  1  0  0  0  0
 16 54  1  0  0  0  0
 16 55  1  0  0  0  0
 17 18  1  0  0  0  0
 17 25  1  1  0  0  0
 17 56  1  0  0  0  0
 18 26  1  0  0  0  0
 18 27  1  0  0  0  0
 18 28  1  0  0  0  0
 19 30  2  0  0  0  0
 19 31  1  0  0  0  0
 20 23  1  0  0  0  0
 20 57  1  0  0  0  0
 20 58  1  0  0  0  0
 21 24  1  0  0  0  0
 21 59  1  0  0  0  0
 21 60  1  0  0  0  0
 22 23  1  0  0  0  0
 22 24  1  0  0  0  0
 22 29  1  0  0  0  0
 22 61  1  0  0  0  0
 23 62  1  0  0  0  0
 23 63  1  0  0  0  0
 24 64  1  0  0  0  0
 24 65  1  0  0  0  0
 26 66  1  0  0  0  0
 26 67  1  0  0  0  0
 26 68  1  0  0  0  0
 27 69  1  0  0  0  0
 27 70  1  0  0  0  0
 27 71  1  0  0  0  0
 28 72  1  0  0  0  0
 28 73  1  0  0  0  0
 28 74  1  0  0  0  0
 29 32  2  0  0  0  0
 30 33  1  0  0  0  0
 30 75  1  0  0  0  0
 31 34  2  0  0  0  0
 31 76  1  0  0  0  0
 32 36  1  0  0  0  0
 32 77  1  0  0  0  0
 33 35  2  0  0  0  0
 34 35  1  0  0  0  0
 34 78  1  0  0  0  0
 35 80  1  0  0  0  0
 36 38  1  0  0  0  0
 37 39  1  0  0  0  0
 37 81  1  0  0  0  0
 37 82  1  0  0  0  0
 38 40  1  0  0  0  0
 38 83  1  0  0  0  0
 38 84  1  0  0  0  0
 39 85  1  0  0  0  0
 39 86  1  0  0  0  0
 39 87  1  0  0  0  0
 40 41  2  0  0  0  0
 40 42  1  0  0  0  0
 41 43  1  0  0  0  0
 41 88  1  0  0  0  0
 42 44  2  0  0  0  0
 42 89  1  0  0  0  0
 43 45  2  0  0  0  0
 43 90  1  0  0  0  0
 44 45  1  0  0  0  0
 44 91  1  0  0  0  0
 46 47  1  0  0  0  0
 46 92  1  0  0  0  0
 46 93  1  0  0  0  0
M  END
> <PUBCHEM_COMPOUND_CID>
516281
> <PUBCHEM_COMPOUND_CANONICALIZED>
1
> <PUBCHEM_CACTVS_COMPLEXITY>
996
> <PUBCHEM_CACTVS_HBOND_ACCEPTOR>
10
> <PUBCHEM_CACTVS_HBOND_DONOR>
1
> <PUBCHEM_CACTVS_ROTATABLE_BOND>
12
> <PUBCHEM_CACTVS_SUBSKEYS>
AAADcfB/scAAAAAAAAAAAAAAAAAAAWLAAAA8YIAAAAAAAAAB0AAAHwAICAAADyzhnh4yjpMIBgCqAyTyTACSDAAhogAY2CG+bJgOJjLE8fuG/CjkyBHY6AeQwOAPoAAAAAAAAABAAAAAAAAAAAAAAAAAAA==
> <PUBCHEM_IUPAC_OPENEYE_NAME>
(2R)-2-[(3S,4S)-3-[[4-[2-ethyl-5-[[4-(2,2,2-trifluoroethoxy)phenyl]methyl]pyrazol-3-yl]-1-piperidyl]methyl]-4-(3-fluorophenyl)pyrrolidin-1-yl]-3,3-dimethyl-butanoic acid
> <PUBCHEM_IUPAC_CAS_NAME>
(2R)-2-[(3S,4S)-3-[[4-[2-ethyl-5-[[4-(2,2,2-trifluoroethoxy)phenyl]methyl]-3-pyrazolyl]-1-piperidinyl]methyl]-4-(3-fluorophenyl)-1-pyrrolidinyl]-3,3-dimethylbutanoic acid
> <PUBCHEM_IUPAC_NAME_MARKUP>
(2<I>R</I>)-2-[(3<I>S</I>,4<I>S</I>)-3-[[4-[2-ethyl-5-[[4-(2,2,2-trifluoroethoxy)phenyl]methyl]pyrazol-3-yl]piperidin-1-yl]methyl]-4-(3-fluorophenyl)pyrrolidin-1-yl]-3,3-dimethylbutanoic acid
> <PUBCHEM_IUPAC_NAME>
(2R)-2-[(3S,4S)-3-[[4-[2-ethyl-5-[[4-(2,2,2-trifluoroethoxy)phenyl]methyl]pyrazol-3-yl]piperidin-1-yl]methyl]-4-(3-fluorophenyl)pyrrolidin-1-yl]-3,3-dimethylbutanoic acid
> <PUBCHEM_IUPAC_SYSTEMATIC_NAME>
(2R)-2-[(3S,4S)-3-[[4-[2-ethyl-5-[[4-[2,2,2-tris(fluoranyl)ethoxy]phenyl]methyl]pyrazol-3-yl]piperidin-1-yl]methyl]-4-(3-fluorophenyl)pyrrolidin-1-yl]-3,3-dimethyl-butanoic acid
> <PUBCHEM_IUPAC_TRADITIONAL_NAME>
(2R)-2-[(3S,4S)-3-[[4-[2-ethyl-5-[4-(2,2,2-trifluoroethoxy)benzyl]pyrazol-3-yl]piperidino]methyl]-4-(3-fluorophenyl)pyrrolidino]-3,3-dimethyl-butyric acid
> <PUBCHEM_IUPAC_INCHI>
InChI=1S/C36H46F4N4O3/c1-5-44-32(19-29(41-44)17-24-9-11-30(12-10-24)47-23-36(38,39)40)25-13-15-42(16-14-25)20-27-21-43(33(34(45)46)35(2,3)4)22-31(27)26-7-6-8-28(37)18-26/h6-12,18-19,25,27,31,33H,5,13-17,20-23H2,1-4H3,(H,45,46)/t27-,31+,33-/m0/s1
> <PUBCHEM_IUPAC_INCHIKEY>
NDWYKTGTDRMPDY-QOCRQHEPSA-N
> <PUBCHEM_XLOGP3_AA>
5.2
> <PUBCHEM_EXACT_MASS>
658.35060399
> <PUBCHEM_MOLECULAR_FORMULA>
C36H46F4N4O3
> <PUBCHEM_MOLECULAR_WEIGHT>
658.8
> <PUBCHEM_OPENEYE_CAN_SMILES>
CCN1C(=CC(=N1)CC2=CC=C(C=C2)OCC(F)(F)F)C3CCN(CC3)CC4CN(CC4C5=CC(=CC=C5)F)C(C(=O)O)C(C)(C)C
> <PUBCHEM_OPENEYE_ISO_SMILES>
CCN1C(=CC(=N1)CC2=CC=C(C=C2)OCC(F)(F)F)C3CCN(CC3)C[C@H]4CN(C[C@@H]4C5=CC(=CC=C5)F)[C@@H](C(=O)O)C(C)(C)C
> <PUBCHEM_CACTVS_TPSA>
70.8
> <PUBCHEM_MONOISOTOPIC_WEIGHT>
658.35060399
> <PUBCHEM_TOTAL_CHARGE>
0
> <PUBCHEM_HEAVY_ATOM_COUNT>
47
> <PUBCHEM_ATOM_DEF_STEREO_COUNT>
3
> <PUBCHEM_ATOM_UDEF_STEREO_COUNT>
0
> <PUBCHEM_BOND_DEF_STEREO_COUNT>
0
> <PUBCHEM_BOND_UDEF_STEREO_COUNT>
0
> <PUBCHEM_ISOTOPIC_ATOM_COUNT>
0
> <PUBCHEM_COMPONENT_COUNT>
1
> <PUBCHEM_CACTVS_TAUTO_COUNT>
-1
> <PUBCHEM_COORDINATE_TYPE>
1
5
255
> <PUBCHEM_BONDANNOTATIONS>
10  11  8
10  29  8
11  36  8
12  16  6
13  19  5
17  25  5
19  30  8
19  31  8
29  32  8
30  33  8
31  34  8
32  36  8
33  35  8
34  35  8
40  41  8
40  42  8
41  43  8
42  44  8
43  45  8
44  45  8
$$$$
