516209
  -OEChem-10302200282D
 99104  0     1  0  0  0  0  0999 V2000
   13.1792    3.3831    0.0000 S   0  0  0  0  0  0  0  0  0  0  0  0
    2.0000   -0.4353    0.0000 F   0  0  0  0  0  0  0  0  0  0  0  0
    4.7986   -5.8831    0.0000 O   0  0  0  0  0  0  0  0  0  0  0  0
    3.9326   -4.3831    0.0000 O   0  0  0  0  0  0  0  0  0  0  0  0
   14.1792    3.3831    0.0000 O   0  0  0  0  0  0  0  0  0  0  0  0
   12.1792    3.3831    0.0000 O   0  0  0  0  0  0  0  0  0  0  0  0
    5.6646   -3.3831    0.0000 N   0  0  3  0  0  0  0  0  0  0  0  0
    7.7469   -1.1398    0.0000 N   0  0  0  0  0  0  0  0  0  0  0  0
   11.2305   -2.3194    0.0000 N   0  0  0  0  0  0  0  0  0  0  0  0
   12.2086   -2.1114    0.0000 N   0  0  0  0  0  0  0  0  0  0  0  0
    6.1646   -1.8442    0.0000 C   0  0  2  0  0  0  0  0  0  0  0  0
    5.1646   -1.8442    0.0000 C   0  0  2  0  0  0  0  0  0  0  0  0
    6.4736   -2.7953    0.0000 C   0  0  0  0  0  0  0  0  0  0  0  0
    4.8556   -2.7953    0.0000 C   0  0  0  0  0  0  0  0  0  0  0  0
    6.7524   -1.0352    0.0000 C   0  0  0  0  0  0  0  0  0  0  0  0
    5.6646   -4.3831    0.0000 C   0  0  2  0  0  0  0  0  0  0  0  0
    4.5768   -1.0352    0.0000 C   0  0  0  0  0  0  0  0  0  0  0  0
    8.1537   -2.0533    0.0000 C   0  0  0  0  0  0  0  0  0  0  0  0
    8.3347   -0.3307    0.0000 C   0  0  0  0  0  0  0  0  0  0  0  0
    9.7360   -1.3488    0.0000 C   0  0  0  0  0  0  0  0  0  0  0  0
    6.5306   -4.8831    0.0000 C   0  0  2  0  0  0  0  0  0  0  0  0
    9.1482   -2.1578    0.0000 C   0  0  0  0  0  0  0  0  0  0  0  0
    9.3292   -0.4353    0.0000 C   0  0  0  0  0  0  0  0  0  0  0  0
    4.7986   -4.8831    0.0000 C   0  0  0  0  0  0  0  0  0  0  0  0
    6.5306   -5.8831    0.0000 C   0  0  0  0  0  0  0  0  0  0  0  0
   10.7305   -1.4533    0.0000 C   0  0  0  0  0  0  0  0  0  0  0  0
    3.5823   -1.1398    0.0000 C   0  0  0  0  0  0  0  0  0  0  0  0
    4.9836   -0.1217    0.0000 C   0  0  0  0  0  0  0  0  0  0  0  0
    7.3967   -4.3831    0.0000 C   0  0  0  0  0  0  0  0  0  0  0  0
   11.3996   -0.7102    0.0000 C   0  0  0  0  0  0  0  0  0  0  0  0
    7.3967   -6.3831    0.0000 C   0  0  0  0  0  0  0  0  0  0  0  0
    2.9945   -0.3307    0.0000 C   0  0  0  0  0  0  0  0  0  0  0  0
    4.3958    0.6873    0.0000 C   0  0  0  0  0  0  0  0  0  0  0  0
    3.4013    0.5828    0.0000 C   0  0  0  0  0  0  0  0  0  0  0  0
   12.3132   -1.1169    0.0000 C   0  0  0  0  0  0  0  0  0  0  0  0
   10.8238   -3.2329    0.0000 C   0  0  0  0  0  0  0  0  0  0  0  0
   13.1792   -0.6169    0.0000 C   0  0  0  0  0  0  0  0  0  0  0  0
   11.4115   -4.0419    0.0000 C   0  0  0  0  0  0  0  0  0  0  0  0
   13.1792    0.3831    0.0000 C   0  0  0  0  0  0  0  0  0  0  0  0
   12.3132    0.8831    0.0000 C   0  0  0  0  0  0  0  0  0  0  0  0
   14.0452    0.8831    0.0000 C   0  0  0  0  0  0  0  0  0  0  0  0
   12.3132    1.8831    0.0000 C   0  0  0  0  0  0  0  0  0  0  0  0
   14.0452    1.8831    0.0000 C   0  0  0  0  0  0  0  0  0  0  0  0
   13.1792    2.3831    0.0000 C   0  0  0  0  0  0  0  0  0  0  0  0
   13.1792    4.3831    0.0000 C   0  0  0  0  0  0  0  0  0  0  0  0
   12.3132    4.8831    0.0000 C   0  0  0  0  0  0  0  0  0  0  0  0
   14.0452    4.8831    0.0000 C   0  0  0  0  0  0  0  0  0  0  0  0
   12.3132    5.8831    0.0000 C   0  0  0  0  0  0  0  0  0  0  0  0
   14.0452    5.8831    0.0000 C   0  0  0  0  0  0  0  0  0  0  0  0
   13.1792    6.3831    0.0000 C   0  0  0  0  0  0  0  0  0  0  0  0
    5.8831   -1.2918    0.0000 H   0  0  0  0  0  0  0  0  0  0  0  0
    4.5522   -1.9412    0.0000 H   0  0  0  0  0  0  0  0  0  0  0  0
    6.7836   -3.3322    0.0000 H   0  0  0  0  0  0  0  0  0  0  0  0
    7.0400   -2.5431    0.0000 H   0  0  0  0  0  0  0  0  0  0  0  0
    4.2892   -2.5431    0.0000 H   0  0  0  0  0  0  0  0  0  0  0  0
    4.5456   -3.3322    0.0000 H   0  0  0  0  0  0  0  0  0  0  0  0
    6.9233   -0.4392    0.0000 H   0  0  0  0  0  0  0  0  0  0  0  0
    6.1952   -0.7634    0.0000 H   0  0  0  0  0  0  0  0  0  0  0  0
    5.1277   -4.0731    0.0000 H   0  0  0  0  0  0  0  0  0  0  0  0
    7.5521   -2.2033    0.0000 H   0  0  0  0  0  0  0  0  0  0  0  0
    8.1969   -2.6718    0.0000 H   0  0  0  0  0  0  0  0  0  0  0  0
    8.5056    0.2653    0.0000 H   0  0  0  0  0  0  0  0  0  0  0  0
    7.7774   -0.0589    0.0000 H   0  0  0  0  0  0  0  0  0  0  0  0
   10.1004   -0.8472    0.0000 H   0  0  0  0  0  0  0  0  0  0  0  0
    6.5306   -4.2631    0.0000 H   0  0  0  0  0  0  0  0  0  0  0  0
    8.9773   -2.7538    0.0000 H   0  0  0  0  0  0  0  0  0  0  0  0
    9.7054   -2.4296    0.0000 H   0  0  0  0  0  0  0  0  0  0  0  0
    9.9308   -0.2853    0.0000 H   0  0  0  0  0  0  0  0  0  0  0  0
    9.2860    0.1832    0.0000 H   0  0  0  0  0  0  0  0  0  0  0  0
    5.9201   -5.7754    0.0000 H   0  0  0  0  0  0  0  0  0  0  0  0
    6.3186   -6.4657    0.0000 H   0  0  0  0  0  0  0  0  0  0  0  0
    3.3301   -1.7061    0.0000 H   0  0  0  0  0  0  0  0  0  0  0  0
    5.6002   -0.0569    0.0000 H   0  0  0  0  0  0  0  0  0  0  0  0
    7.7067   -4.9200    0.0000 H   0  0  0  0  0  0  0  0  0  0  0  0
    7.9336   -4.0731    0.0000 H   0  0  0  0  0  0  0  0  0  0  0  0
    7.0867   -3.8461    0.0000 H   0  0  0  0  0  0  0  0  0  0  0  0
   11.2707   -0.1037    0.0000 H   0  0  0  0  0  0  0  0  0  0  0  0
    7.0867   -6.9200    0.0000 H   0  0  0  0  0  0  0  0  0  0  0  0
    7.9336   -6.6931    0.0000 H   0  0  0  0  0  0  0  0  0  0  0  0
    7.7067   -5.8461    0.0000 H   0  0  0  0  0  0  0  0  0  0  0  0
    4.6480    1.2537    0.0000 H   0  0  0  0  0  0  0  0  0  0  0  0
    3.0368    1.0844    0.0000 H   0  0  0  0  0  0  0  0  0  0  0  0
    4.2617   -6.1931    0.0000 H   0  0  0  0  0  0  0  0  0  0  0  0
   10.3097   -2.8862    0.0000 H   0  0  0  0  0  0  0  0  0  0  0  0
   10.3931   -3.6789    0.0000 H   0  0  0  0  0  0  0  0  0  0  0  0
   13.3912   -1.1995    0.0000 H   0  0  0  0  0  0  0  0  0  0  0  0
   13.7898   -0.5093    0.0000 H   0  0  0  0  0  0  0  0  0  0  0  0
   10.9099   -4.4064    0.0000 H   0  0  0  0  0  0  0  0  0  0  0  0
   11.7760   -4.5435    0.0000 H   0  0  0  0  0  0  0  0  0  0  0  0
   11.9131   -3.6775    0.0000 H   0  0  0  0  0  0  0  0  0  0  0  0
   11.7762    0.5731    0.0000 H   0  0  0  0  0  0  0  0  0  0  0  0
   14.5821    0.5731    0.0000 H   0  0  0  0  0  0  0  0  0  0  0  0
   11.7762    2.1931    0.0000 H   0  0  0  0  0  0  0  0  0  0  0  0
   14.5821    2.1931    0.0000 H   0  0  0  0  0  0  0  0  0  0  0  0
   11.7762    4.5731    0.0000 H   0  0  0  0  0  0  0  0  0  0  0  0
   14.5821    4.5731    0.0000 H   0  0  0  0  0  0  0  0  0  0  0  0
   11.7762    6.1931    0.0000 H   0  0  0  0  0  0  0  0  0  0  0  0
   14.5821    6.1931    0.0000 H   0  0  0  0  0  0  0  0  0  0  0  0
   13.1792    7.0031    0.0000 H   0  0  0  0  0  0  0  0  0  0  0  0
  1  5  2  0  0  0  0
  1  6  2  0  0  0  0
  1 44  1  0  0  0  0
  1 45  1  0  0  0  0
  2 32  1  0  0  0  0
  3 24  1  0  0  0  0
  3 83  1  0  0  0  0
  4 24  2  0  0  0  0
  7 13  1  0  0  0  0
  7 14  1  0  0  0  0
  7 16  1  0  0  0  0
  8 15  1  0  0  0  0
  8 18  1  0  0  0  0
  8 19  1  0  0  0  0
  9 10  1  0  0  0  0
  9 26  1  0  0  0  0
  9 36  1  0  0  0  0
 10 35  2  0  0  0  0
 11 12  1  0  0  0  0
 11 13  1  0  0  0  0
 11 15  1  1  0  0  0
 11 51  1  0  0  0  0
 12 14  1  0  0  0  0
 12 17  1  6  0  0  0
 12 52  1  0  0  0  0
 13 53  1  0  0  0  0
 13 54  1  0  0  0  0
 14 55  1  0  0  0  0
 14 56  1  0  0  0  0
 15 57  1  0  0  0  0
 15 58  1  0  0  0  0
 16 21  1  0  0  0  0
 16 24  1  6  0  0  0
 16 59  1  0  0  0  0
 17 27  2  0  0  0  0
 17 28  1  0  0  0  0
 18 22  1  0  0  0  0
 18 60  1  0  0  0  0
 18 61  1  0  0  0  0
 19 23  1  0  0  0  0
 19 62  1  0  0  0  0
 19 63  1  0  0  0  0
 20 22  1  0  0  0  0
 20 23  1  0  0  0  0
 20 26  1  0  0  0  0
 20 64  1  0  0  0  0
 21 25  1  0  0  0  0
 21 29  1  1  0  0  0
 21 65  1  0  0  0  0
 22 66  1  0  0  0  0
 22 67  1  0  0  0  0
 23 68  1  0  0  0  0
 23 69  1  0  0  0  0
 25 31  1  0  0  0  0
 25 70  1  0  0  0  0
 25 71  1  0  0  0  0
 26 30  2  0  0  0  0
 27 32  1  0  0  0  0
 27 72  1  0  0  0  0
 28 33  2  0  0  0  0
 28 73  1  0  0  0  0
 29 74  1  0  0  0  0
 29 75  1  0  0  0  0
 29 76  1  0  0  0  0
 30 35  1  0  0  0  0
 30 77  1  0  0  0  0
 31 78  1  0  0  0  0
 31 79  1  0  0  0  0
 31 80  1  0  0  0  0
 32 34  2  0  0  0  0
 33 34  1  0  0  0  0
 33 81  1  0  0  0  0
 34 82  1  0  0  0  0
 35 37  1  0  0  0  0
 36 38  1  0  0  0  0
 36 84  1  0  0  0  0
 36 85  1  0  0  0  0
 37 39  1  0  0  0  0
 37 86  1  0  0  0  0
 37 87  1  0  0  0  0
 38 88  1  0  0  0  0
 38 89  1  0  0  0  0
 38 90  1  0  0  0  0
 39 40  2  0  0  0  0
 39 41  1  0  0  0  0
 40 42  1  0  0  0  0
 40 91  1  0  0  0  0
 41 43  2  0  0  0  0
 41 92  1  0  0  0  0
 42 44  2  0  0  0  0
 42 93  1  0  0  0  0
 43 44  1  0  0  0  0
 43 94  1  0  0  0  0
 45 46  2  0  0  0  0
 45 47  1  0  0  0  0
 46 48  1  0  0  0  0
 46 95  1  0  0  0  0
 47 49  2  0  0  0  0
 47 96  1  0  0  0  0
 48 50  2  0  0  0  0
 48 97  1  0  0  0  0
 49 50  1  0  0  0  0
 49 98  1  0  0  0  0
 50 99  1  0  0  0  0
M  END
> <PUBCHEM_COMPOUND_CID>
516209
> <PUBCHEM_COMPOUND_CANONICALIZED>
1
> <PUBCHEM_CACTVS_COMPLEXITY>
1180
> <PUBCHEM_CACTVS_HBOND_ACCEPTOR>
8
> <PUBCHEM_CACTVS_HBOND_DONOR>
1
> <PUBCHEM_CACTVS_ROTATABLE_BOND>
13
> <PUBCHEM_CACTVS_SUBSKEYS>
AAADcfB/uQBAAAAAAAAAAAAAAAAAAWLAAAA8YMEAAAAAAAAB1AAAHwQICAAADSjB3gwyiZMIAgqqAyTyTHDSBAAhihAY2Dm4ZJgKIDLg0fGE5AhkiAD4yAeYgMAOkAAAAAAAAAAgAAAAAAAAAAAAAAAAAA==
> <PUBCHEM_IUPAC_OPENEYE_NAME>
(2R,3S)-2-[(3S,4S)-3-[[4-[5-[[4-(benzenesulfonyl)phenyl]methyl]-2-ethyl-pyrazol-3-yl]-1-piperidyl]methyl]-4-(3-fluorophenyl)pyrrolidin-1-yl]-3-methyl-pentanoic acid
> <PUBCHEM_IUPAC_CAS_NAME>
(2R,3S)-2-[(3S,4S)-3-[[4-[5-[[4-(benzenesulfonyl)phenyl]methyl]-2-ethyl-3-pyrazolyl]-1-piperidinyl]methyl]-4-(3-fluorophenyl)-1-pyrrolidinyl]-3-methylpentanoic acid
> <PUBCHEM_IUPAC_NAME_MARKUP>
(2<I>R</I>,3<I>S</I>)-2-[(3<I>S</I>,4<I>S</I>)-3-[[4-[5-[[4-(benzenesulfonyl)phenyl]methyl]-2-ethylpyrazol-3-yl]piperidin-1-yl]methyl]-4-(3-fluorophenyl)pyrrolidin-1-yl]-3-methylpentanoic acid
> <PUBCHEM_IUPAC_NAME>
(2R,3S)-2-[(3S,4S)-3-[[4-[5-[[4-(benzenesulfonyl)phenyl]methyl]-2-ethylpyrazol-3-yl]piperidin-1-yl]methyl]-4-(3-fluorophenyl)pyrrolidin-1-yl]-3-methylpentanoic acid
> <PUBCHEM_IUPAC_SYSTEMATIC_NAME>
(2R,3S)-2-[(3S,4S)-3-[[4-[2-ethyl-5-[[4-(phenylsulfonyl)phenyl]methyl]pyrazol-3-yl]piperidin-1-yl]methyl]-4-(3-fluorophenyl)pyrrolidin-1-yl]-3-methyl-pentanoic acid
> <PUBCHEM_IUPAC_TRADITIONAL_NAME>
(2R,3S)-2-[(3S,4S)-3-[[4-[5-(4-besylbenzyl)-2-ethyl-pyrazol-3-yl]piperidino]methyl]-4-(3-fluorophenyl)pyrrolidino]-3-methyl-valeric acid
> <PUBCHEM_IUPAC_INCHI>
InChI=1S/C40H49FN4O4S/c1-4-28(3)39(40(46)47)44-26-32(37(27-44)31-10-9-11-33(41)23-31)25-43-20-18-30(19-21-43)38-24-34(42-45(38)5-2)22-29-14-16-36(17-15-29)50(48,49)35-12-7-6-8-13-35/h6-17,23-24,28,30,32,37,39H,4-5,18-22,25-27H2,1-3H3,(H,46,47)/t28-,32-,37+,39+/m0/s1
> <PUBCHEM_IUPAC_INCHIKEY>
MLKJWAJODRUMOO-CRJIABDTSA-N
> <PUBCHEM_XLOGP3_AA>
4.9
> <PUBCHEM_EXACT_MASS>
700.34585539
> <PUBCHEM_MOLECULAR_FORMULA>
C40H49FN4O4S
> <PUBCHEM_MOLECULAR_WEIGHT>
700.9
> <PUBCHEM_OPENEYE_CAN_SMILES>
CCC(C)C(C(=O)O)N1CC(C(C1)C2=CC(=CC=C2)F)CN3CCC(CC3)C4=CC(=NN4CC)CC5=CC=C(C=C5)S(=O)(=O)C6=CC=CC=C6
> <PUBCHEM_OPENEYE_ISO_SMILES>
CC[C@H](C)[C@H](C(=O)O)N1C[C@@H]([C@H](C1)C2=CC(=CC=C2)F)CN3CCC(CC3)C4=CC(=NN4CC)CC5=CC=C(C=C5)S(=O)(=O)C6=CC=CC=C6
> <PUBCHEM_CACTVS_TPSA>
104
> <PUBCHEM_MONOISOTOPIC_WEIGHT>
700.34585539
> <PUBCHEM_TOTAL_CHARGE>
0
> <PUBCHEM_HEAVY_ATOM_COUNT>
50
> <PUBCHEM_ATOM_DEF_STEREO_COUNT>
4
> <PUBCHEM_ATOM_UDEF_STEREO_COUNT>
0
> <PUBCHEM_BOND_DEF_STEREO_COUNT>
0
> <PUBCHEM_BOND_UDEF_STEREO_COUNT>
0
> <PUBCHEM_ISOTOPIC_ATOM_COUNT>
0
> <PUBCHEM_COMPONENT_COUNT>
1
> <PUBCHEM_CACTVS_TAUTO_COUNT>
-1
> <PUBCHEM_COORDINATE_TYPE>
1
5
255
> <PUBCHEM_BONDANNOTATIONS>
10  35  8
11  15  5
12  17  6
16  24  6
17  27  8
17  28  8
21  29  5
26  30  8
27  32  8
28  33  8
30  35  8
32  34  8
33  34  8
39  40  8
39  41  8
40  42  8
41  43  8
42  44  8
43  44  8
45  46  8
45  47  8
46  48  8
47  49  8
48  50  8
49  50  8
9  10  8
9  26  8
$$$$
