516263
  -OEChem-10302200282D
 92 96  0     1  0  0  0  0  0999 V2000
   11.9154   -6.8540    0.0000 F   0  0  0  0  0  0  0  0  0  0  0  0
    4.5981    6.8540    0.0000 F   0  0  0  0  0  0  0  0  0  0  0  0
    3.5981    5.8540    0.0000 F   0  0  0  0  0  0  0  0  0  0  0  0
    5.5981    5.8540    0.0000 F   0  0  0  0  0  0  0  0  0  0  0  0
    2.0000    2.3540    0.0000 F   0  0  0  0  0  0  0  0  0  0  0  0
    2.3660    3.7201    0.0000 F   0  0  0  0  0  0  0  0  0  0  0  0
    3.3660    1.9880    0.0000 F   0  0  0  0  0  0  0  0  0  0  0  0
   12.9323    0.1582    0.0000 O   0  0  0  0  0  0  0  0  0  0  0  0
   11.2381   -0.2019    0.0000 O   0  0  0  0  0  0  0  0  0  0  0  0
   11.6539   -2.1582    0.0000 N   0  0  3  0  0  0  0  0  0  0  0  0
    8.5935   -2.1118    0.0000 N   0  0  0  0  0  0  0  0  0  0  0  0
    5.8301    0.3152    0.0000 N   0  0  0  0  0  0  0  0  0  0  0  0
    5.5211    1.2663    0.0000 N   0  0  0  0  0  0  0  0  0  0  0  0
   10.1758   -2.8163    0.0000 C   0  0  2  0  0  0  0  0  0  0  0  0
   10.8449   -3.5595    0.0000 C   0  0  2  0  0  0  0  0  0  0  0  0
   10.6758   -1.9503    0.0000 C   0  0  0  0  0  0  0  0  0  0  0  0
   11.7585   -3.1528    0.0000 C   0  0  0  0  0  0  0  0  0  0  0  0
    9.1813   -2.9209    0.0000 C   0  0  0  0  0  0  0  0  0  0  0  0
   12.3971   -1.4891    0.0000 C   0  0  2  0  0  0  0  0  0  0  0  0
   13.3481   -1.7981    0.0000 C   0  0  0  0  0  0  0  0  0  0  0  0
   10.6370   -4.5376    0.0000 C   0  0  0  0  0  0  0  0  0  0  0  0
    9.0002   -1.1983    0.0000 C   0  0  0  0  0  0  0  0  0  0  0  0
    7.5990   -2.2164    0.0000 C   0  0  0  0  0  0  0  0  0  0  0  0
    7.4179   -0.4938    0.0000 C   0  0  0  0  0  0  0  0  0  0  0  0
    8.4124   -0.3893    0.0000 C   0  0  0  0  0  0  0  0  0  0  0  0
    7.0112   -1.4074    0.0000 C   0  0  0  0  0  0  0  0  0  0  0  0
   12.1892   -0.5109    0.0000 C   0  0  0  0  0  0  0  0  0  0  0  0
   14.2992   -2.1071    0.0000 C   0  0  0  0  0  0  0  0  0  0  0  0
   13.6572   -0.8471    0.0000 C   0  0  0  0  0  0  0  0  0  0  0  0
   13.0391   -2.7492    0.0000 C   0  0  0  0  0  0  0  0  0  0  0  0
    6.8301    0.3152    0.0000 C   0  0  0  0  0  0  0  0  0  0  0  0
   11.3802   -5.2068    0.0000 C   0  0  0  0  0  0  0  0  0  0  0  0
    9.6860   -4.8466    0.0000 C   0  0  0  0  0  0  0  0  0  0  0  0
    7.1391    1.2663    0.0000 C   0  0  0  0  0  0  0  0  0  0  0  0
   11.1722   -6.1849    0.0000 C   0  0  0  0  0  0  0  0  0  0  0  0
    9.4780   -5.8248    0.0000 C   0  0  0  0  0  0  0  0  0  0  0  0
   10.2212   -6.4939    0.0000 C   0  0  0  0  0  0  0  0  0  0  0  0
    6.3301    1.8540    0.0000 C   0  0  0  0  0  0  0  0  0  0  0  0
    5.2423   -0.4938    0.0000 C   0  0  0  0  0  0  0  0  0  0  0  0
    6.3301    2.8540    0.0000 C   0  0  0  0  0  0  0  0  0  0  0  0
    4.2478   -0.3893    0.0000 C   0  0  0  0  0  0  0  0  0  0  0  0
    5.4641    3.3540    0.0000 C   0  0  0  0  0  0  0  0  0  0  0  0
    4.5981    2.8540    0.0000 C   0  0  0  0  0  0  0  0  0  0  0  0
    5.4641    4.3540    0.0000 C   0  0  0  0  0  0  0  0  0  0  0  0
    3.7320    3.3540    0.0000 C   0  0  0  0  0  0  0  0  0  0  0  0
    4.5981    4.8540    0.0000 C   0  0  0  0  0  0  0  0  0  0  0  0
    3.7320    4.3540    0.0000 C   0  0  0  0  0  0  0  0  0  0  0  0
    4.5981    5.8540    0.0000 C   0  0  0  0  0  0  0  0  0  0  0  0
    2.8660    2.8540    0.0000 C   0  0  0  0  0  0  0  0  0  0  0  0
    9.8381   -2.2964    0.0000 H   0  0  0  0  0  0  0  0  0  0  0  0
   10.2460   -3.7200    0.0000 H   0  0  0  0  0  0  0  0  0  0  0  0
   10.8674   -1.3607    0.0000 H   0  0  0  0  0  0  0  0  0  0  0  0
   10.1094   -1.6981    0.0000 H   0  0  0  0  0  0  0  0  0  0  0  0
   11.9501   -3.7424    0.0000 H   0  0  0  0  0  0  0  0  0  0  0  0
   12.3649   -3.0238    0.0000 H   0  0  0  0  0  0  0  0  0  0  0  0
    8.6240   -3.1927    0.0000 H   0  0  0  0  0  0  0  0  0  0  0  0
    9.3522   -3.5168    0.0000 H   0  0  0  0  0  0  0  0  0  0  0  0
   11.8074   -1.2975    0.0000 H   0  0  0  0  0  0  0  0  0  0  0  0
    9.5142   -1.5450    0.0000 H   0  0  0  0  0  0  0  0  0  0  0  0
    9.4309   -0.7523    0.0000 H   0  0  0  0  0  0  0  0  0  0  0  0
    7.0417   -2.4882    0.0000 H   0  0  0  0  0  0  0  0  0  0  0  0
    7.7699   -2.8124    0.0000 H   0  0  0  0  0  0  0  0  0  0  0  0
    7.6701    0.0726    0.0000 H   0  0  0  0  0  0  0  0  0  0  0  0
    8.9697   -0.1175    0.0000 H   0  0  0  0  0  0  0  0  0  0  0  0
    8.2415    0.2067    0.0000 H   0  0  0  0  0  0  0  0  0  0  0  0
    6.4972   -1.0607    0.0000 H   0  0  0  0  0  0  0  0  0  0  0  0
    6.5805   -1.8534    0.0000 H   0  0  0  0  0  0  0  0  0  0  0  0
   14.1076   -2.6968    0.0000 H   0  0  0  0  0  0  0  0  0  0  0  0
   14.8889   -2.2987    0.0000 H   0  0  0  0  0  0  0  0  0  0  0  0
   14.4908   -1.5175    0.0000 H   0  0  0  0  0  0  0  0  0  0  0  0
   14.2468   -1.0386    0.0000 H   0  0  0  0  0  0  0  0  0  0  0  0
   13.8487   -0.2574    0.0000 H   0  0  0  0  0  0  0  0  0  0  0  0
   13.0675   -0.6555    0.0000 H   0  0  0  0  0  0  0  0  0  0  0  0
   12.4495   -2.5576    0.0000 H   0  0  0  0  0  0  0  0  0  0  0  0
   12.8475   -3.3388    0.0000 H   0  0  0  0  0  0  0  0  0  0  0  0
   13.6288   -2.9408    0.0000 H   0  0  0  0  0  0  0  0  0  0  0  0
   11.9698   -5.0152    0.0000 H   0  0  0  0  0  0  0  0  0  0  0  0
    9.2252   -4.4318    0.0000 H   0  0  0  0  0  0  0  0  0  0  0  0
    7.7288    1.4578    0.0000 H   0  0  0  0  0  0  0  0  0  0  0  0
    8.8884   -6.0164    0.0000 H   0  0  0  0  0  0  0  0  0  0  0  0
   12.8034    0.7646    0.0000 H   0  0  0  0  0  0  0  0  0  0  0  0
   10.0923   -7.1004    0.0000 H   0  0  0  0  0  0  0  0  0  0  0  0
    5.0714   -1.0898    0.0000 H   0  0  0  0  0  0  0  0  0  0  0  0
    5.7996   -0.7656    0.0000 H   0  0  0  0  0  0  0  0  0  0  0  0
    6.9407    2.7464    0.0000 H   0  0  0  0  0  0  0  0  0  0  0  0
    6.5422    3.4366    0.0000 H   0  0  0  0  0  0  0  0  0  0  0  0
    4.3126    0.2273    0.0000 H   0  0  0  0  0  0  0  0  0  0  0  0
    3.6312   -0.3245    0.0000 H   0  0  0  0  0  0  0  0  0  0  0  0
    4.1830   -1.0059    0.0000 H   0  0  0  0  0  0  0  0  0  0  0  0
    4.5981    2.2340    0.0000 H   0  0  0  0  0  0  0  0  0  0  0  0
    6.0010    4.6640    0.0000 H   0  0  0  0  0  0  0  0  0  0  0  0
    3.1951    4.6640    0.0000 H   0  0  0  0  0  0  0  0  0  0  0  0
  1 35  1  0  0  0  0
  2 48  1  0  0  0  0
  3 48  1  0  0  0  0
  4 48  1  0  0  0  0
  5 49  1  0  0  0  0
  6 49  1  0  0  0  0
  7 49  1  0  0  0  0
  8 27  1  0  0  0  0
  8 81  1  0  0  0  0
  9 27  2  0  0  0  0
 10 16  1  0  0  0  0
 10 17  1  0  0  0  0
 10 19  1  0  0  0  0
 11 18  1  0  0  0  0
 11 22  1  0  0  0  0
 11 23  1  0  0  0  0
 12 13  1  0  0  0  0
 12 31  1  0  0  0  0
 12 39  1  0  0  0  0
 13 38  2  0  0  0  0
 14 15  1  0  0  0  0
 14 16  1  0  0  0  0
 14 18  1  1  0  0  0
 14 50  1  0  0  0  0
 15 17  1  0  0  0  0
 15 21  1  6  0  0  0
 15 51  1  0  0  0  0
 16 52  1  0  0  0  0
 16 53  1  0  0  0  0
 17 54  1  0  0  0  0
 17 55  1  0  0  0  0
 18 56  1  0  0  0  0
 18 57  1  0  0  0  0
 19 20  1  0  0  0  0
 19 27  1  1  0  0  0
 19 58  1  0  0  0  0
 20 28  1  0  0  0  0
 20 29  1  0  0  0  0
 20 30  1  0  0  0  0
 21 32  2  0  0  0  0
 21 33  1  0  0  0  0
 22 25  1  0  0  0  0
 22 59  1  0  0  0  0
 22 60  1  0  0  0  0
 23 26  1  0  0  0  0
 23 61  1  0  0  0  0
 23 62  1  0  0  0  0
 24 25  1  0  0  0  0
 24 26  1  0  0  0  0
 24 31  1  0  0  0  0
 24 63  1  0  0  0  0
 25 64  1  0  0  0  0
 25 65  1  0  0  0  0
 26 66  1  0  0  0  0
 26 67  1  0  0  0  0
 28 68  1  0  0  0  0
 28 69  1  0  0  0  0
 28 70  1  0  0  0  0
 29 71  1  0  0  0  0
 29 72  1  0  0  0  0
 29 73  1  0  0  0  0
 30 74  1  0  0  0  0
 30 75  1  0  0  0  0
 30 76  1  0  0  0  0
 31 34  2  0  0  0  0
 32 35  1  0  0  0  0
 32 77  1  0  0  0  0
 33 36  2  0  0  0  0
 33 78  1  0  0  0  0
 34 38  1  0  0  0  0
 34 79  1  0  0  0  0
 35 37  2  0  0  0  0
 36 37  1  0  0  0  0
 36 80  1  0  0  0  0
 37 82  1  0  0  0  0
 38 40  1  0  0  0  0
 39 41  1  0  0  0  0
 39 83  1  0  0  0  0
 39 84  1  0  0  0  0
 40 42  1  0  0  0  0
 40 85  1  0  0  0  0
 40 86  1  0  0  0  0
 41 87  1  0  0  0  0
 41 88  1  0  0  0  0
 41 89  1  0  0  0  0
 42 43  2  0  0  0  0
 42 44  1  0  0  0  0
 43 45  1  0  0  0  0
 43 90  1  0  0  0  0
 44 46  2  0  0  0  0
 44 91  1  0  0  0  0
 45 47  2  0  0  0  0
 45 49  1  0  0  0  0
 46 47  1  0  0  0  0
 46 48  1  0  0  0  0
 47 92  1  0  0  0  0
M  END
> <PUBCHEM_COMPOUND_CID>
516263
> <PUBCHEM_COMPOUND_CANONICALIZED>
1
> <PUBCHEM_CACTVS_COMPLEXITY>
1070
> <PUBCHEM_CACTVS_HBOND_ACCEPTOR>
12
> <PUBCHEM_CACTVS_HBOND_DONOR>
1
> <PUBCHEM_CACTVS_ROTATABLE_BOND>
10
> <PUBCHEM_CACTVS_SUBSKEYS>
AAADcfB/scAAAAAAAAAAAAAAAAAAAWLAAAA8YIAAAAAAAAAB0AAAHwAICAAADyjBnhwyiJMIAgCqAyTyTACSBAAhggAY2CG4ZJgKIDLA0fGE5AhkiADYyAcQgMAPgAACAAAAAAAAAAQAAAAAAAAAAAAAAA==
> <PUBCHEM_IUPAC_OPENEYE_NAME>
(2R)-2-[(3S,4S)-3-[[4-[5-[[3,5-bis(trifluoromethyl)phenyl]methyl]-2-ethyl-pyrazol-3-yl]-1-piperidyl]methyl]-4-(3-fluorophenyl)pyrrolidin-1-yl]-3,3-dimethyl-butanoic acid
> <PUBCHEM_IUPAC_CAS_NAME>
(2R)-2-[(3S,4S)-3-[[4-[5-[[3,5-bis(trifluoromethyl)phenyl]methyl]-2-ethyl-3-pyrazolyl]-1-piperidinyl]methyl]-4-(3-fluorophenyl)-1-pyrrolidinyl]-3,3-dimethylbutanoic acid
> <PUBCHEM_IUPAC_NAME_MARKUP>
(2<I>R</I>)-2-[(3<I>S</I>,4<I>S</I>)-3-[[4-[5-[[3,5-bis(trifluoromethyl)phenyl]methyl]-2-ethylpyrazol-3-yl]piperidin-1-yl]methyl]-4-(3-fluorophenyl)pyrrolidin-1-yl]-3,3-dimethylbutanoic acid
> <PUBCHEM_IUPAC_NAME>
(2R)-2-[(3S,4S)-3-[[4-[5-[[3,5-bis(trifluoromethyl)phenyl]methyl]-2-ethylpyrazol-3-yl]piperidin-1-yl]methyl]-4-(3-fluorophenyl)pyrrolidin-1-yl]-3,3-dimethylbutanoic acid
> <PUBCHEM_IUPAC_SYSTEMATIC_NAME>
(2R)-2-[(3S,4S)-3-[[4-[5-[[3,5-bis(trifluoromethyl)phenyl]methyl]-2-ethyl-pyrazol-3-yl]piperidin-1-yl]methyl]-4-(3-fluorophenyl)pyrrolidin-1-yl]-3,3-dimethyl-butanoic acid
> <PUBCHEM_IUPAC_TRADITIONAL_NAME>
(2R)-2-[(3S,4S)-3-[[4-[5-[3,5-bis(trifluoromethyl)benzyl]-2-ethyl-pyrazol-3-yl]piperidino]methyl]-4-(3-fluorophenyl)pyrrolidino]-3,3-dimethyl-butyric acid
> <PUBCHEM_IUPAC_INCHI>
InChI=1S/C36H43F7N4O2/c1-5-47-31(18-29(44-47)15-22-13-26(35(38,39)40)17-27(14-22)36(41,42)43)23-9-11-45(12-10-23)19-25-20-46(32(33(48)49)34(2,3)4)21-30(25)24-7-6-8-28(37)16-24/h6-8,13-14,16-18,23,25,30,32H,5,9-12,15,19-21H2,1-4H3,(H,48,49)/t25-,30+,32-/m0/s1
> <PUBCHEM_IUPAC_INCHIKEY>
VIENJCFWEDWDHW-RMRIFHTGSA-N
> <PUBCHEM_XLOGP3_AA>
5.9
> <PUBCHEM_EXACT_MASS>
696.32742376
> <PUBCHEM_MOLECULAR_FORMULA>
C36H43F7N4O2
> <PUBCHEM_MOLECULAR_WEIGHT>
696.7
> <PUBCHEM_OPENEYE_CAN_SMILES>
CCN1C(=CC(=N1)CC2=CC(=CC(=C2)C(F)(F)F)C(F)(F)F)C3CCN(CC3)CC4CN(CC4C5=CC(=CC=C5)F)C(C(=O)O)C(C)(C)C
> <PUBCHEM_OPENEYE_ISO_SMILES>
CCN1C(=CC(=N1)CC2=CC(=CC(=C2)C(F)(F)F)C(F)(F)F)C3CCN(CC3)C[C@H]4CN(C[C@@H]4C5=CC(=CC=C5)F)[C@@H](C(=O)O)C(C)(C)C
> <PUBCHEM_CACTVS_TPSA>
61.6
> <PUBCHEM_MONOISOTOPIC_WEIGHT>
696.32742376
> <PUBCHEM_TOTAL_CHARGE>
0
> <PUBCHEM_HEAVY_ATOM_COUNT>
49
> <PUBCHEM_ATOM_DEF_STEREO_COUNT>
3
> <PUBCHEM_ATOM_UDEF_STEREO_COUNT>
0
> <PUBCHEM_BOND_DEF_STEREO_COUNT>
0
> <PUBCHEM_BOND_UDEF_STEREO_COUNT>
0
> <PUBCHEM_ISOTOPIC_ATOM_COUNT>
0
> <PUBCHEM_COMPONENT_COUNT>
1
> <PUBCHEM_CACTVS_TAUTO_COUNT>
-1
> <PUBCHEM_COORDINATE_TYPE>
1
5
255
> <PUBCHEM_BONDANNOTATIONS>
12  13  8
12  31  8
13  38  8
14  18  5
15  21  6
19  27  5
21  32  8
21  33  8
31  34  8
32  35  8
33  36  8
34  38  8
35  37  8
36  37  8
42  43  8
42  44  8
43  45  8
44  46  8
45  47  8
46  47  8
$$$$
