516287
  -OEChem-10302200282D
 93 97  0     1  0  0  0  0  0999 V2000
    9.8078   -5.8193    0.0000 F   0  0  0  0  0  0  0  0  0  0  0  0
    8.8398    6.1884    0.0000 F   0  0  0  0  0  0  0  0  0  0  0  0
    2.3644   -5.0410    0.0000 O   0  0  0  0  0  0  0  0  0  0  0  0
    3.7657   -6.0590    0.0000 O   0  0  0  0  0  0  0  0  0  0  0  0
    6.8508    6.3974    0.0000 O   0  0  0  0  0  0  0  0  0  0  0  0
    4.9413   -4.4410    0.0000 N   0  0  3  0  0  0  0  0  0  0  0  0
    7.3900   -2.6046    0.0000 N   0  0  0  0  0  0  0  0  0  0  0  0
    6.5809    0.9832    0.0000 N   0  0  0  0  0  0  0  0  0  0  0  0
    6.8900    1.9342    0.0000 N   0  0  0  0  0  0  0  0  0  0  0  0
    6.5239   -4.1046    0.0000 C   0  0  2  0  0  0  0  0  0  0  0  0
    6.4194   -5.0991    0.0000 C   0  0  2  0  0  0  0  0  0  0  0  0
    5.6104   -3.6979    0.0000 C   0  0  0  0  0  0  0  0  0  0  0  0
    5.4413   -5.3070    0.0000 C   0  0  0  0  0  0  0  0  0  0  0  0
    7.3900   -3.6046    0.0000 C   0  0  0  0  0  0  0  0  0  0  0  0
    3.9467   -4.3365    0.0000 C   0  0  2  0  0  0  0  0  0  0  0  0
    3.5400   -3.4229    0.0000 C   0  0  0  0  0  0  0  0  0  0  0  0
    7.1626   -5.7682    0.0000 C   0  0  0  0  0  0  0  0  0  0  0  0
    6.5239   -2.1046    0.0000 C   0  0  0  0  0  0  0  0  0  0  0  0
    8.2560   -2.1046    0.0000 C   0  0  0  0  0  0  0  0  0  0  0  0
    7.3900   -0.6046    0.0000 C   0  0  0  0  0  0  0  0  0  0  0  0
    6.5239   -1.1046    0.0000 C   0  0  0  0  0  0  0  0  0  0  0  0
    8.2560   -1.1046    0.0000 C   0  0  0  0  0  0  0  0  0  0  0  0
    3.3590   -5.1455    0.0000 C   0  0  0  0  0  0  0  0  0  0  0  0
    3.1333   -2.5094    0.0000 C   0  0  0  0  0  0  0  0  0  0  0  0
    2.6264   -3.8297    0.0000 C   0  0  0  0  0  0  0  0  0  0  0  0
    4.4535   -3.0162    0.0000 C   0  0  0  0  0  0  0  0  0  0  0  0
    7.3900    0.3954    0.0000 C   0  0  0  0  0  0  0  0  0  0  0  0
    8.1136   -5.4592    0.0000 C   0  0  0  0  0  0  0  0  0  0  0  0
    6.9546   -6.7464    0.0000 C   0  0  0  0  0  0  0  0  0  0  0  0
    8.1990    0.9832    0.0000 C   0  0  0  0  0  0  0  0  0  0  0  0
    8.8568   -6.1284    0.0000 C   0  0  0  0  0  0  0  0  0  0  0  0
    7.6978   -7.4155    0.0000 C   0  0  0  0  0  0  0  0  0  0  0  0
    8.6488   -7.1065    0.0000 C   0  0  0  0  0  0  0  0  0  0  0  0
    7.8900    1.9342    0.0000 C   0  0  0  0  0  0  0  0  0  0  0  0
    5.6299    0.6742    0.0000 C   0  0  0  0  0  0  0  0  0  0  0  0
    8.4777    2.7433    0.0000 C   0  0  0  0  0  0  0  0  0  0  0  0
    4.8867    1.3433    0.0000 C   0  0  0  0  0  0  0  0  0  0  0  0
    8.0710    3.6568    0.0000 C   0  0  0  0  0  0  0  0  0  0  0  0
    8.6588    4.4658    0.0000 C   0  0  0  0  0  0  0  0  0  0  0  0
    7.0765    3.7613    0.0000 C   0  0  0  0  0  0  0  0  0  0  0  0
    8.2520    5.3794    0.0000 C   0  0  0  0  0  0  0  0  0  0  0  0
    6.6698    4.6749    0.0000 C   0  0  0  0  0  0  0  0  0  0  0  0
    7.2575    5.4839    0.0000 C   0  0  0  0  0  0  0  0  0  0  0  0
    5.8563    6.5020    0.0000 C   0  0  0  0  0  0  0  0  0  0  0  0
    5.4495    7.4155    0.0000 C   0  0  0  0  0  0  0  0  0  0  0  0
    6.4915   -3.4854    0.0000 H   0  0  0  0  0  0  0  0  0  0  0  0
    6.2589   -5.6980    0.0000 H   0  0  0  0  0  0  0  0  0  0  0  0
    5.9204   -3.1609    0.0000 H   0  0  0  0  0  0  0  0  0  0  0  0
    5.1088   -3.3334    0.0000 H   0  0  0  0  0  0  0  0  0  0  0  0
    4.8749   -5.5592    0.0000 H   0  0  0  0  0  0  0  0  0  0  0  0
    5.6328   -5.8967    0.0000 H   0  0  0  0  0  0  0  0  0  0  0  0
    7.6020   -4.1872    0.0000 H   0  0  0  0  0  0  0  0  0  0  0  0
    8.0005   -3.4969    0.0000 H   0  0  0  0  0  0  0  0  0  0  0  0
    4.1989   -4.9029    0.0000 H   0  0  0  0  0  0  0  0  0  0  0  0
    5.9134   -1.9969    0.0000 H   0  0  0  0  0  0  0  0  0  0  0  0
    6.3119   -2.6872    0.0000 H   0  0  0  0  0  0  0  0  0  0  0  0
    8.4680   -2.6872    0.0000 H   0  0  0  0  0  0  0  0  0  0  0  0
    8.8666   -1.9969    0.0000 H   0  0  0  0  0  0  0  0  0  0  0  0
    7.9269   -0.2946    0.0000 H   0  0  0  0  0  0  0  0  0  0  0  0
    6.3119   -0.5220    0.0000 H   0  0  0  0  0  0  0  0  0  0  0  0
    5.9134   -1.2122    0.0000 H   0  0  0  0  0  0  0  0  0  0  0  0
    8.8666   -1.2122    0.0000 H   0  0  0  0  0  0  0  0  0  0  0  0
    8.4680   -0.5220    0.0000 H   0  0  0  0  0  0  0  0  0  0  0  0
    3.6997   -2.2572    0.0000 H   0  0  0  0  0  0  0  0  0  0  0  0
    2.8811   -1.9430    0.0000 H   0  0  0  0  0  0  0  0  0  0  0  0
    2.5669   -2.7616    0.0000 H   0  0  0  0  0  0  0  0  0  0  0  0
    2.3743   -3.2633    0.0000 H   0  0  0  0  0  0  0  0  0  0  0  0
    2.0600   -4.0818    0.0000 H   0  0  0  0  0  0  0  0  0  0  0  0
    2.8786   -4.3961    0.0000 H   0  0  0  0  0  0  0  0  0  0  0  0
    4.7057   -3.5826    0.0000 H   0  0  0  0  0  0  0  0  0  0  0  0
    5.0199   -2.7640    0.0000 H   0  0  0  0  0  0  0  0  0  0  0  0
    4.2014   -2.4498    0.0000 H   0  0  0  0  0  0  0  0  0  0  0  0
    8.2425   -4.8528    0.0000 H   0  0  0  0  0  0  0  0  0  0  0  0
    6.3650   -6.9380    0.0000 H   0  0  0  0  0  0  0  0  0  0  0  0
    8.7886    0.7916    0.0000 H   0  0  0  0  0  0  0  0  0  0  0  0
    7.5689   -8.0220    0.0000 H   0  0  0  0  0  0  0  0  0  0  0  0
    2.0000   -5.5426    0.0000 H   0  0  0  0  0  0  0  0  0  0  0  0
    9.1096   -7.5214    0.0000 H   0  0  0  0  0  0  0  0  0  0  0  0
    5.1413    0.2925    0.0000 H   0  0  0  0  0  0  0  0  0  0  0  0
    5.9210    0.1267    0.0000 H   0  0  0  0  0  0  0  0  0  0  0  0
    8.9084    2.2973    0.0000 H   0  0  0  0  0  0  0  0  0  0  0  0
    8.9918    3.0900    0.0000 H   0  0  0  0  0  0  0  0  0  0  0  0
    5.3016    1.8041    0.0000 H   0  0  0  0  0  0  0  0  0  0  0  0
    4.4260    1.7582    0.0000 H   0  0  0  0  0  0  0  0  0  0  0  0
    4.4719    0.8826    0.0000 H   0  0  0  0  0  0  0  0  0  0  0  0
    9.2754    4.4010    0.0000 H   0  0  0  0  0  0  0  0  0  0  0  0
    6.7121    3.2598    0.0000 H   0  0  0  0  0  0  0  0  0  0  0  0
    6.0531    4.7397    0.0000 H   0  0  0  0  0  0  0  0  0  0  0  0
    5.2547    6.3520    0.0000 H   0  0  0  0  0  0  0  0  0  0  0  0
    5.8995    5.8835    0.0000 H   0  0  0  0  0  0  0  0  0  0  0  0
    6.0159    7.6677    0.0000 H   0  0  0  0  0  0  0  0  0  0  0  0
    5.1974    7.9819    0.0000 H   0  0  0  0  0  0  0  0  0  0  0  0
    4.8831    7.1634    0.0000 H   0  0  0  0  0  0  0  0  0  0  0  0
  1 31  1  0  0  0  0
  2 41  1  0  0  0  0
  3 23  1  0  0  0  0
  3 77  1  0  0  0  0
  4 23  2  0  0  0  0
  5 43  1  0  0  0  0
  5 44  1  0  0  0  0
  6 12  1  0  0  0  0
  6 13  1  0  0  0  0
  6 15  1  0  0  0  0
  7 14  1  0  0  0  0
  7 18  1  0  0  0  0
  7 19  1  0  0  0  0
  8  9  1  0  0  0  0
  8 27  1  0  0  0  0
  8 35  1  0  0  0  0
  9 34  2  0  0  0  0
 10 11  1  0  0  0  0
 10 12  1  0  0  0  0
 10 14  1  6  0  0  0
 10 46  1  0  0  0  0
 11 13  1  0  0  0  0
 11 17  1  1  0  0  0
 11 47  1  0  0  0  0
 12 48  1  0  0  0  0
 12 49  1  0  0  0  0
 13 50  1  0  0  0  0
 13 51  1  0  0  0  0
 14 52  1  0  0  0  0
 14 53  1  0  0  0  0
 15 16  1  0  0  0  0
 15 23  1  1  0  0  0
 15 54  1  0  0  0  0
 16 24  1  0  0  0  0
 16 25  1  0  0  0  0
 16 26  1  0  0  0  0
 17 28  2  0  0  0  0
 17 29  1  0  0  0  0
 18 21  1  0  0  0  0
 18 55  1  0  0  0  0
 18 56  1  0  0  0  0
 19 22  1  0  0  0  0
 19 57  1  0  0  0  0
 19 58  1  0  0  0  0
 20 21  1  0  0  0  0
 20 22  1  0  0  0  0
 20 27  1  0  0  0  0
 20 59  1  0  0  0  0
 21 60  1  0  0  0  0
 21 61  1  0  0  0  0
 22 62  1  0  0  0  0
 22 63  1  0  0  0  0
 24 64  1  0  0  0  0
 24 65  1  0  0  0  0
 24 66  1  0  0  0  0
 25 67  1  0  0  0  0
 25 68  1  0  0  0  0
 25 69  1  0  0  0  0
 26 70  1  0  0  0  0
 26 71  1  0  0  0  0
 26 72  1  0  0  0  0
 27 30  2  0  0  0  0
 28 31  1  0  0  0  0
 28 73  1  0  0  0  0
 29 32  2  0  0  0  0
 29 74  1  0  0  0  0
 30 34  1  0  0  0  0
 30 75  1  0  0  0  0
 31 33  2  0  0  0  0
 32 33  1  0  0  0  0
 32 76  1  0  0  0  0
 33 78  1  0  0  0  0
 34 36  1  0  0  0  0
 35 37  1  0  0  0  0
 35 79  1  0  0  0  0
 35 80  1  0  0  0  0
 36 38  1  0  0  0  0
 36 81  1  0  0  0  0
 36 82  1  0  0  0  0
 37 83  1  0  0  0  0
 37 84  1  0  0  0  0
 37 85  1  0  0  0  0
 38 39  2  0  0  0  0
 38 40  1  0  0  0  0
 39 41  1  0  0  0  0
 39 86  1  0  0  0  0
 40 42  2  0  0  0  0
 40 87  1  0  0  0  0
 41 43  2  0  0  0  0
 42 43  1  0  0  0  0
 42 88  1  0  0  0  0
 44 45  1  0  0  0  0
 44 89  1  0  0  0  0
 44 90  1  0  0  0  0
 45 91  1  0  0  0  0
 45 92  1  0  0  0  0
 45 93  1  0  0  0  0
M  END
> <PUBCHEM_COMPOUND_CID>
516287
> <PUBCHEM_COMPOUND_CANONICALIZED>
1
> <PUBCHEM_CACTVS_COMPLEXITY>
944
> <PUBCHEM_CACTVS_HBOND_ACCEPTOR>
8
> <PUBCHEM_CACTVS_HBOND_DONOR>
1
> <PUBCHEM_CACTVS_ROTATABLE_BOND>
12
> <PUBCHEM_CACTVS_SUBSKEYS>
AAADcfB/sYAAAAAAAAAAAAAAAAAAAWLAAAA8YIAAAAAAAAAB0AAAHwAICAAADyzhng4yjpMIBgCqAyTyTACSDAAhogAY2CG+bJgOJjLE8fuG/CjkyBHY6AeQwOAPoAAAAAAAAABAAAAAAAAAAAAAAAAAAA==
> <PUBCHEM_IUPAC_OPENEYE_NAME>
(2R)-2-[(3S,4S)-3-[[4-[5-[(4-ethoxy-3-fluoro-phenyl)methyl]-2-ethyl-pyrazol-3-yl]-1-piperidyl]methyl]-4-(3-fluorophenyl)pyrrolidin-1-yl]-3,3-dimethyl-butanoic acid
> <PUBCHEM_IUPAC_CAS_NAME>
(2R)-2-[(3S,4S)-3-[[4-[5-[(4-ethoxy-3-fluorophenyl)methyl]-2-ethyl-3-pyrazolyl]-1-piperidinyl]methyl]-4-(3-fluorophenyl)-1-pyrrolidinyl]-3,3-dimethylbutanoic acid
> <PUBCHEM_IUPAC_NAME_MARKUP>
(2<I>R</I>)-2-[(3<I>S</I>,4<I>S</I>)-3-[[4-[5-[(4-ethoxy-3-fluorophenyl)methyl]-2-ethylpyrazol-3-yl]piperidin-1-yl]methyl]-4-(3-fluorophenyl)pyrrolidin-1-yl]-3,3-dimethylbutanoic acid
> <PUBCHEM_IUPAC_NAME>
(2R)-2-[(3S,4S)-3-[[4-[5-[(4-ethoxy-3-fluorophenyl)methyl]-2-ethylpyrazol-3-yl]piperidin-1-yl]methyl]-4-(3-fluorophenyl)pyrrolidin-1-yl]-3,3-dimethylbutanoic acid
> <PUBCHEM_IUPAC_SYSTEMATIC_NAME>
(2R)-2-[(3S,4S)-3-[[4-[5-[(4-ethoxy-3-fluoranyl-phenyl)methyl]-2-ethyl-pyrazol-3-yl]piperidin-1-yl]methyl]-4-(3-fluorophenyl)pyrrolidin-1-yl]-3,3-dimethyl-butanoic acid
> <PUBCHEM_IUPAC_TRADITIONAL_NAME>
(2R)-2-[(3S,4S)-3-[[4-[5-(4-ethoxy-3-fluoro-benzyl)-2-ethyl-pyrazol-3-yl]piperidino]methyl]-4-(3-fluorophenyl)pyrrolidino]-3,3-dimethyl-butyric acid
> <PUBCHEM_IUPAC_INCHI>
InChI=1S/C36H48F2N4O3/c1-6-42-32(20-29(39-42)17-24-11-12-33(45-7-2)31(38)18-24)25-13-15-40(16-14-25)21-27-22-41(34(35(43)44)36(3,4)5)23-30(27)26-9-8-10-28(37)19-26/h8-12,18-20,25,27,30,34H,6-7,13-17,21-23H2,1-5H3,(H,43,44)/t27-,30+,34-/m0/s1
> <PUBCHEM_IUPAC_INCHIKEY>
INTDOQGZDPJUHG-UFZHQWOOSA-N
> <PUBCHEM_XLOGP3_AA>
4.5
> <PUBCHEM_EXACT_MASS>
622.36944773
> <PUBCHEM_MOLECULAR_FORMULA>
C36H48F2N4O3
> <PUBCHEM_MOLECULAR_WEIGHT>
622.8
> <PUBCHEM_OPENEYE_CAN_SMILES>
CCN1C(=CC(=N1)CC2=CC(=C(C=C2)OCC)F)C3CCN(CC3)CC4CN(CC4C5=CC(=CC=C5)F)C(C(=O)O)C(C)(C)C
> <PUBCHEM_OPENEYE_ISO_SMILES>
CCN1C(=CC(=N1)CC2=CC(=C(C=C2)OCC)F)C3CCN(CC3)C[C@H]4CN(C[C@@H]4C5=CC(=CC=C5)F)[C@@H](C(=O)O)C(C)(C)C
> <PUBCHEM_CACTVS_TPSA>
70.8
> <PUBCHEM_MONOISOTOPIC_WEIGHT>
622.36944773
> <PUBCHEM_TOTAL_CHARGE>
0
> <PUBCHEM_HEAVY_ATOM_COUNT>
45
> <PUBCHEM_ATOM_DEF_STEREO_COUNT>
3
> <PUBCHEM_ATOM_UDEF_STEREO_COUNT>
0
> <PUBCHEM_BOND_DEF_STEREO_COUNT>
0
> <PUBCHEM_BOND_UDEF_STEREO_COUNT>
0
> <PUBCHEM_ISOTOPIC_ATOM_COUNT>
0
> <PUBCHEM_COMPONENT_COUNT>
1
> <PUBCHEM_CACTVS_TAUTO_COUNT>
-1
> <PUBCHEM_COORDINATE_TYPE>
1
5
255
> <PUBCHEM_BONDANNOTATIONS>
10  14  6
11  17  5
15  23  5
17  28  8
17  29  8
27  30  8
28  31  8
29  32  8
30  34  8
31  33  8
32  33  8
38  39  8
38  40  8
39  41  8
40  42  8
41  43  8
42  43  8
8  27  8
8  9  8
9  34  8
$$$$
