516207
  -OEChem-10302200282D
 87 91  0     1  0  0  0  0  0999 V2000
    7.7132   -7.8523    0.0000 F   0  0  0  0  0  0  0  0  0  0  0  0
    2.7688   -2.7771    0.0000 O   0  0  0  0  0  0  0  0  0  0  0  0
    4.3511   -2.0726    0.0000 O   0  0  0  0  0  0  0  0  0  0  0  0
    5.1646   -3.8997    0.0000 N   0  0  3  0  0  0  0  0  0  0  0  0
    7.6133   -2.0632    0.0000 N   0  0  0  0  0  0  0  0  0  0  0  0
    6.8043    1.5245    0.0000 N   0  0  0  0  0  0  0  0  0  0  0  0
    7.1133    2.4756    0.0000 N   0  0  0  0  0  0  0  0  0  0  0  0
    6.6674    7.8523    0.0000 N   0  0  0  0  0  0  0  0  0  0  0  0
    6.7473   -3.5632    0.0000 C   0  0  2  0  0  0  0  0  0  0  0  0
    6.6428   -4.5578    0.0000 C   0  0  2  0  0  0  0  0  0  0  0  0
    5.8338   -3.1565    0.0000 C   0  0  0  0  0  0  0  0  0  0  0  0
    5.6646   -4.7657    0.0000 C   0  0  0  0  0  0  0  0  0  0  0  0
    7.6133   -3.0632    0.0000 C   0  0  0  0  0  0  0  0  0  0  0  0
    4.1701   -3.7951    0.0000 C   0  0  2  0  0  0  0  0  0  0  0  0
    7.3859   -5.2269    0.0000 C   0  0  0  0  0  0  0  0  0  0  0  0
    6.7473   -1.5632    0.0000 C   0  0  0  0  0  0  0  0  0  0  0  0
    8.4793   -1.5632    0.0000 C   0  0  0  0  0  0  0  0  0  0  0  0
    7.6133   -0.0633    0.0000 C   0  0  0  0  0  0  0  0  0  0  0  0
    3.5823   -4.6042    0.0000 C   0  0  2  0  0  0  0  0  0  0  0  0
    6.7473   -0.5633    0.0000 C   0  0  0  0  0  0  0  0  0  0  0  0
    8.4793   -0.5633    0.0000 C   0  0  0  0  0  0  0  0  0  0  0  0
    7.6133    0.9367    0.0000 C   0  0  0  0  0  0  0  0  0  0  0  0
    3.7634   -2.8816    0.0000 C   0  0  0  0  0  0  0  0  0  0  0  0
    2.5878   -4.4996    0.0000 C   0  0  0  0  0  0  0  0  0  0  0  0
    7.1780   -6.2050    0.0000 C   0  0  0  0  0  0  0  0  0  0  0  0
    8.3370   -4.9179    0.0000 C   0  0  0  0  0  0  0  0  0  0  0  0
    3.9890   -5.5177    0.0000 C   0  0  0  0  0  0  0  0  0  0  0  0
    8.4223    1.5245    0.0000 C   0  0  0  0  0  0  0  0  0  0  0  0
    2.0000   -5.3086    0.0000 C   0  0  0  0  0  0  0  0  0  0  0  0
    7.9211   -6.8742    0.0000 C   0  0  0  0  0  0  0  0  0  0  0  0
    9.0801   -5.5870    0.0000 C   0  0  0  0  0  0  0  0  0  0  0  0
    8.1133    2.4756    0.0000 C   0  0  0  0  0  0  0  0  0  0  0  0
    8.8722   -6.5652    0.0000 C   0  0  0  0  0  0  0  0  0  0  0  0
    5.8532    1.2155    0.0000 C   0  0  0  0  0  0  0  0  0  0  0  0
    8.7011    3.2846    0.0000 C   0  0  0  0  0  0  0  0  0  0  0  0
    5.1101    1.8846    0.0000 C   0  0  0  0  0  0  0  0  0  0  0  0
    8.2944    4.1982    0.0000 C   0  0  0  0  0  0  0  0  0  0  0  0
    8.8822    5.0072    0.0000 C   0  0  0  0  0  0  0  0  0  0  0  0
    7.2998    4.3027    0.0000 C   0  0  0  0  0  0  0  0  0  0  0  0
    8.4754    5.9207    0.0000 C   0  0  0  0  0  0  0  0  0  0  0  0
    6.8931    5.2162    0.0000 C   0  0  0  0  0  0  0  0  0  0  0  0
    7.4809    6.0252    0.0000 C   0  0  0  0  0  0  0  0  0  0  0  0
    7.0742    6.9388    0.0000 C   0  0  0  0  0  0  0  0  0  0  0  0
    7.2673   -3.9009    0.0000 H   0  0  0  0  0  0  0  0  0  0  0  0
    6.4823   -5.1566    0.0000 H   0  0  0  0  0  0  0  0  0  0  0  0
    6.1437   -2.6196    0.0000 H   0  0  0  0  0  0  0  0  0  0  0  0
    5.3322   -2.7921    0.0000 H   0  0  0  0  0  0  0  0  0  0  0  0
    5.0982   -5.0179    0.0000 H   0  0  0  0  0  0  0  0  0  0  0  0
    5.8562   -5.3553    0.0000 H   0  0  0  0  0  0  0  0  0  0  0  0
    7.8254   -3.6459    0.0000 H   0  0  0  0  0  0  0  0  0  0  0  0
    8.2239   -2.9556    0.0000 H   0  0  0  0  0  0  0  0  0  0  0  0
    4.5345   -3.2935    0.0000 H   0  0  0  0  0  0  0  0  0  0  0  0
    6.1367   -1.4556    0.0000 H   0  0  0  0  0  0  0  0  0  0  0  0
    6.5352   -2.1459    0.0000 H   0  0  0  0  0  0  0  0  0  0  0  0
    8.6914   -2.1459    0.0000 H   0  0  0  0  0  0  0  0  0  0  0  0
    9.0899   -1.4556    0.0000 H   0  0  0  0  0  0  0  0  0  0  0  0
    7.0764    0.2467    0.0000 H   0  0  0  0  0  0  0  0  0  0  0  0
    3.2179   -5.1057    0.0000 H   0  0  0  0  0  0  0  0  0  0  0  0
    6.5352    0.0194    0.0000 H   0  0  0  0  0  0  0  0  0  0  0  0
    6.1367   -0.6709    0.0000 H   0  0  0  0  0  0  0  0  0  0  0  0
    9.0899   -0.6709    0.0000 H   0  0  0  0  0  0  0  0  0  0  0  0
    8.6914    0.0194    0.0000 H   0  0  0  0  0  0  0  0  0  0  0  0
    2.7587   -3.9036    0.0000 H   0  0  0  0  0  0  0  0  0  0  0  0
    2.0305   -4.2278    0.0000 H   0  0  0  0  0  0  0  0  0  0  0  0
    6.5883   -6.3966    0.0000 H   0  0  0  0  0  0  0  0  0  0  0  0
    8.4659   -4.3114    0.0000 H   0  0  0  0  0  0  0  0  0  0  0  0
    3.4226   -5.7699    0.0000 H   0  0  0  0  0  0  0  0  0  0  0  0
    4.2412   -6.0841    0.0000 H   0  0  0  0  0  0  0  0  0  0  0  0
    4.5554   -5.2655    0.0000 H   0  0  0  0  0  0  0  0  0  0  0  0
    9.0120    1.3329    0.0000 H   0  0  0  0  0  0  0  0  0  0  0  0
    1.4984   -4.9442    0.0000 H   0  0  0  0  0  0  0  0  0  0  0  0
    1.6356   -5.8102    0.0000 H   0  0  0  0  0  0  0  0  0  0  0  0
    2.5016   -5.6731    0.0000 H   0  0  0  0  0  0  0  0  0  0  0  0
    9.6698   -5.3954    0.0000 H   0  0  0  0  0  0  0  0  0  0  0  0
    9.3330   -6.9800    0.0000 H   0  0  0  0  0  0  0  0  0  0  0  0
    2.5167   -2.2107    0.0000 H   0  0  0  0  0  0  0  0  0  0  0  0
    5.3647    0.8338    0.0000 H   0  0  0  0  0  0  0  0  0  0  0  0
    6.1443    0.6681    0.0000 H   0  0  0  0  0  0  0  0  0  0  0  0
    9.1318    2.8386    0.0000 H   0  0  0  0  0  0  0  0  0  0  0  0
    9.2151    3.6313    0.0000 H   0  0  0  0  0  0  0  0  0  0  0  0
    5.5250    2.3454    0.0000 H   0  0  0  0  0  0  0  0  0  0  0  0
    4.6494    2.2995    0.0000 H   0  0  0  0  0  0  0  0  0  0  0  0
    4.6952    1.4239    0.0000 H   0  0  0  0  0  0  0  0  0  0  0  0
    9.4988    4.9424    0.0000 H   0  0  0  0  0  0  0  0  0  0  0  0
    6.9354    3.8011    0.0000 H   0  0  0  0  0  0  0  0  0  0  0  0
    8.8398    6.4223    0.0000 H   0  0  0  0  0  0  0  0  0  0  0  0
    6.2765    5.2810    0.0000 H   0  0  0  0  0  0  0  0  0  0  0  0
  1 30  1  0  0  0  0
  2 23  1  0  0  0  0
  2 76  1  0  0  0  0
  3 23  2  0  0  0  0
  4 11  1  0  0  0  0
  4 12  1  0  0  0  0
  4 14  1  0  0  0  0
  5 13  1  0  0  0  0
  5 16  1  0  0  0  0
  5 17  1  0  0  0  0
  6  7  1  0  0  0  0
  6 22  1  0  0  0  0
  6 34  1  0  0  0  0
  7 32  2  0  0  0  0
  8 43  3  0  0  0  0
  9 10  1  0  0  0  0
  9 11  1  0  0  0  0
  9 13  1  6  0  0  0
  9 44  1  0  0  0  0
 10 12  1  0  0  0  0
 10 15  1  1  0  0  0
 10 45  1  0  0  0  0
 11 46  1  0  0  0  0
 11 47  1  0  0  0  0
 12 48  1  0  0  0  0
 12 49  1  0  0  0  0
 13 50  1  0  0  0  0
 13 51  1  0  0  0  0
 14 19  1  0  0  0  0
 14 23  1  6  0  0  0
 14 52  1  0  0  0  0
 15 25  2  0  0  0  0
 15 26  1  0  0  0  0
 16 20  1  0  0  0  0
 16 53  1  0  0  0  0
 16 54  1  0  0  0  0
 17 21  1  0  0  0  0
 17 55  1  0  0  0  0
 17 56  1  0  0  0  0
 18 20  1  0  0  0  0
 18 21  1  0  0  0  0
 18 22  1  0  0  0  0
 18 57  1  0  0  0  0
 19 24  1  0  0  0  0
 19 27  1  1  0  0  0
 19 58  1  0  0  0  0
 20 59  1  0  0  0  0
 20 60  1  0  0  0  0
 21 61  1  0  0  0  0
 21 62  1  0  0  0  0
 22 28  2  0  0  0  0
 24 29  1  0  0  0  0
 24 63  1  0  0  0  0
 24 64  1  0  0  0  0
 25 30  1  0  0  0  0
 25 65  1  0  0  0  0
 26 31  2  0  0  0  0
 26 66  1  0  0  0  0
 27 67  1  0  0  0  0
 27 68  1  0  0  0  0
 27 69  1  0  0  0  0
 28 32  1  0  0  0  0
 28 70  1  0  0  0  0
 29 71  1  0  0  0  0
 29 72  1  0  0  0  0
 29 73  1  0  0  0  0
 30 33  2  0  0  0  0
 31 33  1  0  0  0  0
 31 74  1  0  0  0  0
 32 35  1  0  0  0  0
 33 75  1  0  0  0  0
 34 36  1  0  0  0  0
 34 77  1  0  0  0  0
 34 78  1  0  0  0  0
 35 37  1  0  0  0  0
 35 79  1  0  0  0  0
 35 80  1  0  0  0  0
 36 81  1  0  0  0  0
 36 82  1  0  0  0  0
 36 83  1  0  0  0  0
 37 38  2  0  0  0  0
 37 39  1  0  0  0  0
 38 40  1  0  0  0  0
 38 84  1  0  0  0  0
 39 41  2  0  0  0  0
 39 85  1  0  0  0  0
 40 42  2  0  0  0  0
 40 86  1  0  0  0  0
 41 42  1  0  0  0  0
 41 87  1  0  0  0  0
 42 43  1  0  0  0  0
M  END
> <PUBCHEM_COMPOUND_CID>
516207
> <PUBCHEM_COMPOUND_CANONICALIZED>
1
> <PUBCHEM_CACTVS_COMPLEXITY>
942
> <PUBCHEM_CACTVS_HBOND_ACCEPTOR>
7
> <PUBCHEM_CACTVS_HBOND_DONOR>
1
> <PUBCHEM_CACTVS_ROTATABLE_BOND>
11
> <PUBCHEM_CACTVS_SUBSKEYS>
AAADcfB/sQAAAAAAAAAAAAAAAAAAAWLAAAA8YIAAAAAAAAAB0AAAHwAICAAADSjBngwyiJMIAgC6ByTyTACyBAAhggAY2CG4ZJgKoDLA0fGE5AhkiADYyA+YgMAOwAAAAAAAAACAAAAAAAAAAAAAAAAAAA==
> <PUBCHEM_IUPAC_OPENEYE_NAME>
(2R,3S)-2-[(3S,4S)-3-[[4-[5-[(4-cyanophenyl)methyl]-2-ethyl-pyrazol-3-yl]-1-piperidyl]methyl]-4-(3-fluorophenyl)pyrrolidin-1-yl]-3-methyl-pentanoic acid
> <PUBCHEM_IUPAC_CAS_NAME>
(2R,3S)-2-[(3S,4S)-3-[[4-[5-[(4-cyanophenyl)methyl]-2-ethyl-3-pyrazolyl]-1-piperidinyl]methyl]-4-(3-fluorophenyl)-1-pyrrolidinyl]-3-methylpentanoic acid
> <PUBCHEM_IUPAC_NAME_MARKUP>
(2<I>R</I>,3<I>S</I>)-2-[(3<I>S</I>,4<I>S</I>)-3-[[4-[5-[(4-cyanophenyl)methyl]-2-ethylpyrazol-3-yl]piperidin-1-yl]methyl]-4-(3-fluorophenyl)pyrrolidin-1-yl]-3-methylpentanoic acid
> <PUBCHEM_IUPAC_NAME>
(2R,3S)-2-[(3S,4S)-3-[[4-[5-[(4-cyanophenyl)methyl]-2-ethylpyrazol-3-yl]piperidin-1-yl]methyl]-4-(3-fluorophenyl)pyrrolidin-1-yl]-3-methylpentanoic acid
> <PUBCHEM_IUPAC_SYSTEMATIC_NAME>
(2R,3S)-2-[(3S,4S)-3-[[4-[5-[(4-cyanophenyl)methyl]-2-ethyl-pyrazol-3-yl]piperidin-1-yl]methyl]-4-(3-fluorophenyl)pyrrolidin-1-yl]-3-methyl-pentanoic acid
> <PUBCHEM_IUPAC_TRADITIONAL_NAME>
(2R,3S)-2-[(3S,4S)-3-[[4-[5-(4-cyanobenzyl)-2-ethyl-pyrazol-3-yl]piperidino]methyl]-4-(3-fluorophenyl)pyrrolidino]-3-methyl-valeric acid
> <PUBCHEM_IUPAC_INCHI>
InChI=1S/C35H44FN5O2/c1-4-24(3)34(35(42)43)40-22-29(32(23-40)28-7-6-8-30(36)18-28)21-39-15-13-27(14-16-39)33-19-31(38-41(33)5-2)17-25-9-11-26(20-37)12-10-25/h6-12,18-19,24,27,29,32,34H,4-5,13-17,21-23H2,1-3H3,(H,42,43)/t24-,29-,32+,34+/m0/s1
> <PUBCHEM_IUPAC_INCHIKEY>
QXILTVSZVUBYFU-YFWLMSIWSA-N
> <PUBCHEM_XLOGP3_AA>
3.8
> <PUBCHEM_EXACT_MASS>
585.34790383
> <PUBCHEM_MOLECULAR_FORMULA>
C35H44FN5O2
> <PUBCHEM_MOLECULAR_WEIGHT>
585.8
> <PUBCHEM_OPENEYE_CAN_SMILES>
CCC(C)C(C(=O)O)N1CC(C(C1)C2=CC(=CC=C2)F)CN3CCC(CC3)C4=CC(=NN4CC)CC5=CC=C(C=C5)C#N
> <PUBCHEM_OPENEYE_ISO_SMILES>
CC[C@H](C)[C@H](C(=O)O)N1C[C@@H]([C@H](C1)C2=CC(=CC=C2)F)CN3CCC(CC3)C4=CC(=NN4CC)CC5=CC=C(C=C5)C#N
> <PUBCHEM_CACTVS_TPSA>
85.4
> <PUBCHEM_MONOISOTOPIC_WEIGHT>
585.34790383
> <PUBCHEM_TOTAL_CHARGE>
0
> <PUBCHEM_HEAVY_ATOM_COUNT>
43
> <PUBCHEM_ATOM_DEF_STEREO_COUNT>
4
> <PUBCHEM_ATOM_UDEF_STEREO_COUNT>
0
> <PUBCHEM_BOND_DEF_STEREO_COUNT>
0
> <PUBCHEM_BOND_UDEF_STEREO_COUNT>
0
> <PUBCHEM_ISOTOPIC_ATOM_COUNT>
0
> <PUBCHEM_COMPONENT_COUNT>
1
> <PUBCHEM_CACTVS_TAUTO_COUNT>
-1
> <PUBCHEM_COORDINATE_TYPE>
1
5
255
> <PUBCHEM_BONDANNOTATIONS>
10  15  5
14  23  6
15  25  8
15  26  8
19  27  5
22  28  8
25  30  8
26  31  8
28  32  8
30  33  8
31  33  8
37  38  8
37  39  8
38  40  8
39  41  8
40  42  8
41  42  8
6  22  8
6  7  8
7  32  8
9  13  6
$$$$
