516274
  -OEChem-10302200282D
 94 99  0     1  0  0  0  0  0999 V2000
    9.8078   -6.2121    0.0000 F   0  0  0  0  0  0  0  0  0  0  0  0
    2.3644   -5.4337    0.0000 O   0  0  0  0  0  0  0  0  0  0  0  0
    3.7657   -6.4518    0.0000 O   0  0  0  0  0  0  0  0  0  0  0  0
    6.8508    6.0047    0.0000 O   0  0  0  0  0  0  0  0  0  0  0  0
    4.9413   -4.8337    0.0000 N   0  0  3  0  0  0  0  0  0  0  0  0
    7.3900   -2.9973    0.0000 N   0  0  0  0  0  0  0  0  0  0  0  0
    6.5809    0.5905    0.0000 N   0  0  0  0  0  0  0  0  0  0  0  0
    6.8900    1.5415    0.0000 N   0  0  0  0  0  0  0  0  0  0  0  0
    6.5239   -4.4973    0.0000 C   0  0  2  0  0  0  0  0  0  0  0  0
    6.4194   -5.4918    0.0000 C   0  0  2  0  0  0  0  0  0  0  0  0
    5.6104   -4.0906    0.0000 C   0  0  0  0  0  0  0  0  0  0  0  0
    5.4413   -5.6998    0.0000 C   0  0  0  0  0  0  0  0  0  0  0  0
    7.3900   -3.9973    0.0000 C   0  0  0  0  0  0  0  0  0  0  0  0
    3.9467   -4.7292    0.0000 C   0  0  2  0  0  0  0  0  0  0  0  0
    3.5400   -3.8157    0.0000 C   0  0  0  0  0  0  0  0  0  0  0  0
    7.1626   -6.1610    0.0000 C   0  0  0  0  0  0  0  0  0  0  0  0
    6.5239   -2.4973    0.0000 C   0  0  0  0  0  0  0  0  0  0  0  0
    8.2560   -2.4973    0.0000 C   0  0  0  0  0  0  0  0  0  0  0  0
    7.3900   -0.9973    0.0000 C   0  0  0  0  0  0  0  0  0  0  0  0
    6.5239   -1.4973    0.0000 C   0  0  0  0  0  0  0  0  0  0  0  0
    8.2560   -1.4973    0.0000 C   0  0  0  0  0  0  0  0  0  0  0  0
    3.3590   -5.5382    0.0000 C   0  0  0  0  0  0  0  0  0  0  0  0
    3.1333   -2.9021    0.0000 C   0  0  0  0  0  0  0  0  0  0  0  0
    2.6264   -4.2224    0.0000 C   0  0  0  0  0  0  0  0  0  0  0  0
    4.4535   -3.4089    0.0000 C   0  0  0  0  0  0  0  0  0  0  0  0
    7.3900    0.0027    0.0000 C   0  0  0  0  0  0  0  0  0  0  0  0
    8.1136   -5.8520    0.0000 C   0  0  0  0  0  0  0  0  0  0  0  0
    6.9546   -7.1391    0.0000 C   0  0  0  0  0  0  0  0  0  0  0  0
    8.1990    0.5905    0.0000 C   0  0  0  0  0  0  0  0  0  0  0  0
    8.8568   -6.5211    0.0000 C   0  0  0  0  0  0  0  0  0  0  0  0
    7.6978   -7.8083    0.0000 C   0  0  0  0  0  0  0  0  0  0  0  0
    8.6488   -7.4992    0.0000 C   0  0  0  0  0  0  0  0  0  0  0  0
    7.8900    1.5415    0.0000 C   0  0  0  0  0  0  0  0  0  0  0  0
    5.6299    0.2814    0.0000 C   0  0  0  0  0  0  0  0  0  0  0  0
    7.4386    6.8137    0.0000 C   0  0  0  0  0  0  0  0  0  0  0  0
    8.4777    2.3505    0.0000 C   0  0  0  0  0  0  0  0  0  0  0  0
    8.3521    7.2205    0.0000 C   0  0  0  0  0  0  0  0  0  0  0  0
    7.5431    7.8083    0.0000 C   0  0  0  0  0  0  0  0  0  0  0  0
    4.8867    0.9506    0.0000 C   0  0  0  0  0  0  0  0  0  0  0  0
    8.0710    3.2641    0.0000 C   0  0  0  0  0  0  0  0  0  0  0  0
    7.2575    5.0912    0.0000 C   0  0  0  0  0  0  0  0  0  0  0  0
    7.0765    3.3686    0.0000 C   0  0  0  0  0  0  0  0  0  0  0  0
    8.6588    4.0731    0.0000 C   0  0  0  0  0  0  0  0  0  0  0  0
    6.6698    4.2822    0.0000 C   0  0  0  0  0  0  0  0  0  0  0  0
    8.2520    4.9866    0.0000 C   0  0  0  0  0  0  0  0  0  0  0  0
    7.0439   -4.8350    0.0000 H   0  0  0  0  0  0  0  0  0  0  0  0
    6.9982   -5.2697    0.0000 H   0  0  0  0  0  0  0  0  0  0  0  0
    5.9204   -3.5536    0.0000 H   0  0  0  0  0  0  0  0  0  0  0  0
    5.1088   -3.7262    0.0000 H   0  0  0  0  0  0  0  0  0  0  0  0
    4.8749   -5.9519    0.0000 H   0  0  0  0  0  0  0  0  0  0  0  0
    5.6328   -6.2894    0.0000 H   0  0  0  0  0  0  0  0  0  0  0  0
    7.6020   -4.5799    0.0000 H   0  0  0  0  0  0  0  0  0  0  0  0
    8.0005   -3.8897    0.0000 H   0  0  0  0  0  0  0  0  0  0  0  0
    4.1989   -5.2956    0.0000 H   0  0  0  0  0  0  0  0  0  0  0  0
    5.9134   -2.3897    0.0000 H   0  0  0  0  0  0  0  0  0  0  0  0
    6.3119   -3.0799    0.0000 H   0  0  0  0  0  0  0  0  0  0  0  0
    8.4680   -3.0799    0.0000 H   0  0  0  0  0  0  0  0  0  0  0  0
    8.8666   -2.3897    0.0000 H   0  0  0  0  0  0  0  0  0  0  0  0
    7.9269   -0.6873    0.0000 H   0  0  0  0  0  0  0  0  0  0  0  0
    6.3119   -0.9147    0.0000 H   0  0  0  0  0  0  0  0  0  0  0  0
    5.9134   -1.6050    0.0000 H   0  0  0  0  0  0  0  0  0  0  0  0
    8.8666   -1.6050    0.0000 H   0  0  0  0  0  0  0  0  0  0  0  0
    8.4680   -0.9147    0.0000 H   0  0  0  0  0  0  0  0  0  0  0  0
    3.6997   -2.6499    0.0000 H   0  0  0  0  0  0  0  0  0  0  0  0
    2.8811   -2.3357    0.0000 H   0  0  0  0  0  0  0  0  0  0  0  0
    2.5669   -3.1543    0.0000 H   0  0  0  0  0  0  0  0  0  0  0  0
    2.3743   -3.6560    0.0000 H   0  0  0  0  0  0  0  0  0  0  0  0
    2.0600   -4.4746    0.0000 H   0  0  0  0  0  0  0  0  0  0  0  0
    2.8786   -4.7888    0.0000 H   0  0  0  0  0  0  0  0  0  0  0  0
    4.7057   -3.9753    0.0000 H   0  0  0  0  0  0  0  0  0  0  0  0
    5.0199   -3.1568    0.0000 H   0  0  0  0  0  0  0  0  0  0  0  0
    4.2014   -2.8425    0.0000 H   0  0  0  0  0  0  0  0  0  0  0  0
    8.2425   -5.2455    0.0000 H   0  0  0  0  0  0  0  0  0  0  0  0
    6.3650   -7.3307    0.0000 H   0  0  0  0  0  0  0  0  0  0  0  0
    8.7886    0.3989    0.0000 H   0  0  0  0  0  0  0  0  0  0  0  0
    7.5689   -8.4147    0.0000 H   0  0  0  0  0  0  0  0  0  0  0  0
    2.0000   -5.9353    0.0000 H   0  0  0  0  0  0  0  0  0  0  0  0
    9.1096   -7.9141    0.0000 H   0  0  0  0  0  0  0  0  0  0  0  0
    5.1413   -0.1003    0.0000 H   0  0  0  0  0  0  0  0  0  0  0  0
    5.9210   -0.2660    0.0000 H   0  0  0  0  0  0  0  0  0  0  0  0
    7.8288    6.3319    0.0000 H   0  0  0  0  0  0  0  0  0  0  0  0
    8.6988    6.7065    0.0000 H   0  0  0  0  0  0  0  0  0  0  0  0
    8.7981    7.6512    0.0000 H   0  0  0  0  0  0  0  0  0  0  0  0
    7.8149    8.3655    0.0000 H   0  0  0  0  0  0  0  0  0  0  0  0
    6.9471    7.9792    0.0000 H   0  0  0  0  0  0  0  0  0  0  0  0
    8.9084    1.9045    0.0000 H   0  0  0  0  0  0  0  0  0  0  0  0
    8.9918    2.6972    0.0000 H   0  0  0  0  0  0  0  0  0  0  0  0
    5.3016    1.4113    0.0000 H   0  0  0  0  0  0  0  0  0  0  0  0
    4.4260    1.3654    0.0000 H   0  0  0  0  0  0  0  0  0  0  0  0
    4.4719    0.4898    0.0000 H   0  0  0  0  0  0  0  0  0  0  0  0
    6.7121    2.8670    0.0000 H   0  0  0  0  0  0  0  0  0  0  0  0
    9.2754    4.0083    0.0000 H   0  0  0  0  0  0  0  0  0  0  0  0
    6.0531    4.3470    0.0000 H   0  0  0  0  0  0  0  0  0  0  0  0
    8.6165    5.4882    0.0000 H   0  0  0  0  0  0  0  0  0  0  0  0
  1 30  1  0  0  0  0
  2 22  1  0  0  0  0
  2 77  1  0  0  0  0
  3 22  2  0  0  0  0
  4 35  1  0  0  0  0
  4 41  1  0  0  0  0
  5 11  1  0  0  0  0
  5 12  1  0  0  0  0
  5 14  1  0  0  0  0
  6 13  1  0  0  0  0
  6 17  1  0  0  0  0
  6 18  1  0  0  0  0
  7  8  1  0  0  0  0
  7 26  1  0  0  0  0
  7 34  1  0  0  0  0
  8 33  2  0  0  0  0
  9 10  1  0  0  0  0
  9 11  1  0  0  0  0
  9 13  1  6  0  0  0
  9 46  1  0  0  0  0
 10 12  1  0  0  0  0
 10 16  1  1  0  0  0
 10 47  1  0  0  0  0
 11 48  1  0  0  0  0
 11 49  1  0  0  0  0
 12 50  1  0  0  0  0
 12 51  1  0  0  0  0
 13 52  1  0  0  0  0
 13 53  1  0  0  0  0
 14 15  1  0  0  0  0
 14 22  1  1  0  0  0
 14 54  1  0  0  0  0
 15 23  1  0  0  0  0
 15 24  1  0  0  0  0
 15 25  1  0  0  0  0
 16 27  2  0  0  0  0
 16 28  1  0  0  0  0
 17 20  1  0  0  0  0
 17 55  1  0  0  0  0
 17 56  1  0  0  0  0
 18 21  1  0  0  0  0
 18 57  1  0  0  0  0
 18 58  1  0  0  0  0
 19 20  1  0  0  0  0
 19 21  1  0  0  0  0
 19 26  1  0  0  0  0
 19 59  1  0  0  0  0
 20 60  1  0  0  0  0
 20 61  1  0  0  0  0
 21 62  1  0  0  0  0
 21 63  1  0  0  0  0
 23 64  1  0  0  0  0
 23 65  1  0  0  0  0
 23 66  1  0  0  0  0
 24 67  1  0  0  0  0
 24 68  1  0  0  0  0
 24 69  1  0  0  0  0
 25 70  1  0  0  0  0
 25 71  1  0  0  0  0
 25 72  1  0  0  0  0
 26 29  2  0  0  0  0
 27 30  1  0  0  0  0
 27 73  1  0  0  0  0
 28 31  2  0  0  0  0
 28 74  1  0  0  0  0
 29 33  1  0  0  0  0
 29 75  1  0  0  0  0
 30 32  2  0  0  0  0
 31 32  1  0  0  0  0
 31 76  1  0  0  0  0
 32 78  1  0  0  0  0
 33 36  1  0  0  0  0
 34 39  1  0  0  0  0
 34 79  1  0  0  0  0
 34 80  1  0  0  0  0
 35 37  1  0  0  0  0
 35 38  1  0  0  0  0
 35 81  1  0  0  0  0
 36 40  1  0  0  0  0
 36 86  1  0  0  0  0
 36 87  1  0  0  0  0
 37 38  1  0  0  0  0
 37 82  1  0  0  0  0
 37 83  1  0  0  0  0
 38 84  1  0  0  0  0
 38 85  1  0  0  0  0
 39 88  1  0  0  0  0
 39 89  1  0  0  0  0
 39 90  1  0  0  0  0
 40 42  2  0  0  0  0
 40 43  1  0  0  0  0
 41 44  2  0  0  0  0
 41 45  1  0  0  0  0
 42 44  1  0  0  0  0
 42 91  1  0  0  0  0
 43 45  2  0  0  0  0
 43 92  1  0  0  0  0
 44 93  1  0  0  0  0
 45 94  1  0  0  0  0
M  END
> <PUBCHEM_COMPOUND_CID>
516274
> <PUBCHEM_COMPOUND_CANONICALIZED>
1
> <PUBCHEM_CACTVS_COMPLEXITY>
958
> <PUBCHEM_CACTVS_HBOND_ACCEPTOR>
7
> <PUBCHEM_CACTVS_HBOND_DONOR>
1
> <PUBCHEM_CACTVS_ROTATABLE_BOND>
12
> <PUBCHEM_CACTVS_SUBSKEYS>
AAADcfB/sQAAAAAAAAAAAAAAGAAAAWLAAAA8YIAAAAAAAAAB0AAAHwAICAAADzzhng4yjpMIBgCqAyTyTACSDAAhogAY2CG+bJgOJjLE8fuG/CjkyBHY6AeQwOAPoAAAAAAAAABAAAAAAAAAAAAAAAAAAA==
> <PUBCHEM_IUPAC_OPENEYE_NAME>
(2R)-2-[(3S,4S)-3-[[4-[5-[[4-(cyclopropoxy)phenyl]methyl]-2-ethyl-pyrazol-3-yl]-1-piperidyl]methyl]-4-(3-fluorophenyl)pyrrolidin-1-yl]-3,3-dimethyl-butanoic acid
> <PUBCHEM_IUPAC_CAS_NAME>
(2R)-2-[(3S,4S)-3-[[4-[5-[(4-cyclopropyloxyphenyl)methyl]-2-ethyl-3-pyrazolyl]-1-piperidinyl]methyl]-4-(3-fluorophenyl)-1-pyrrolidinyl]-3,3-dimethylbutanoic acid
> <PUBCHEM_IUPAC_NAME_MARKUP>
(2<I>R</I>)-2-[(3<I>S</I>,4<I>S</I>)-3-[[4-[5-[(4-cyclopropyloxyphenyl)methyl]-2-ethylpyrazol-3-yl]piperidin-1-yl]methyl]-4-(3-fluorophenyl)pyrrolidin-1-yl]-3,3-dimethylbutanoic acid
> <PUBCHEM_IUPAC_NAME>
(2R)-2-[(3S,4S)-3-[[4-[5-[(4-cyclopropyloxyphenyl)methyl]-2-ethylpyrazol-3-yl]piperidin-1-yl]methyl]-4-(3-fluorophenyl)pyrrolidin-1-yl]-3,3-dimethylbutanoic acid
> <PUBCHEM_IUPAC_SYSTEMATIC_NAME>
(2R)-2-[(3S,4S)-3-[[4-[5-[(4-cyclopropyloxyphenyl)methyl]-2-ethyl-pyrazol-3-yl]piperidin-1-yl]methyl]-4-(3-fluorophenyl)pyrrolidin-1-yl]-3,3-dimethyl-butanoic acid
> <PUBCHEM_IUPAC_TRADITIONAL_NAME>
(2R)-2-[(3S,4S)-3-[[4-[5-[4-(cyclopropoxy)benzyl]-2-ethyl-pyrazol-3-yl]piperidino]methyl]-4-(3-fluorophenyl)pyrrolidino]-3,3-dimethyl-butyric acid
> <PUBCHEM_IUPAC_INCHI>
InChI=1S/C37H49FN4O3/c1-5-42-34(21-30(39-42)19-25-9-11-31(12-10-25)45-32-13-14-32)26-15-17-40(18-16-26)22-28-23-41(35(36(43)44)37(2,3)4)24-33(28)27-7-6-8-29(38)20-27/h6-12,20-21,26,28,32-33,35H,5,13-19,22-24H2,1-4H3,(H,43,44)/t28-,33+,35-/m0/s1
> <PUBCHEM_IUPAC_INCHIKEY>
BQQDYTWNFPNXMT-IDLKRKCPSA-N
> <PUBCHEM_XLOGP3_AA>
4.6
> <PUBCHEM_EXACT_MASS>
616.37886960
> <PUBCHEM_MOLECULAR_FORMULA>
C37H49FN4O3
> <PUBCHEM_MOLECULAR_WEIGHT>
616.8
> <PUBCHEM_OPENEYE_CAN_SMILES>
CCN1C(=CC(=N1)CC2=CC=C(C=C2)OC3CC3)C4CCN(CC4)CC5CN(CC5C6=CC(=CC=C6)F)C(C(=O)O)C(C)(C)C
> <PUBCHEM_OPENEYE_ISO_SMILES>
CCN1C(=CC(=N1)CC2=CC=C(C=C2)OC3CC3)C4CCN(CC4)C[C@H]5CN(C[C@@H]5C6=CC(=CC=C6)F)[C@@H](C(=O)O)C(C)(C)C
> <PUBCHEM_CACTVS_TPSA>
70.8
> <PUBCHEM_MONOISOTOPIC_WEIGHT>
616.37886960
> <PUBCHEM_TOTAL_CHARGE>
0
> <PUBCHEM_HEAVY_ATOM_COUNT>
45
> <PUBCHEM_ATOM_DEF_STEREO_COUNT>
3
> <PUBCHEM_ATOM_UDEF_STEREO_COUNT>
0
> <PUBCHEM_BOND_DEF_STEREO_COUNT>
0
> <PUBCHEM_BOND_UDEF_STEREO_COUNT>
0
> <PUBCHEM_ISOTOPIC_ATOM_COUNT>
0
> <PUBCHEM_COMPONENT_COUNT>
1
> <PUBCHEM_CACTVS_TAUTO_COUNT>
-1
> <PUBCHEM_COORDINATE_TYPE>
1
5
255
> <PUBCHEM_BONDANNOTATIONS>
10  16  5
14  22  5
16  27  8
16  28  8
26  29  8
27  30  8
28  31  8
29  33  8
30  32  8
31  32  8
40  42  8
40  43  8
41  44  8
41  45  8
42  44  8
43  45  8
7  26  8
7  8  8
8  33  8
9  13  6
$$$$
