516223
  -OEChem-10302200282D
 93 97  0     1  0  0  0  0  0999 V2000
    7.7132   -8.7136    0.0000 F   0  0  0  0  0  0  0  0  0  0  0  0
    6.8485    8.7136    0.0000 F   0  0  0  0  0  0  0  0  0  0  0  0
    8.1688    8.2068    0.0000 F   0  0  0  0  0  0  0  0  0  0  0  0
    6.3417    7.3933    0.0000 F   0  0  0  0  0  0  0  0  0  0  0  0
    2.7688   -3.6383    0.0000 O   0  0  0  0  0  0  0  0  0  0  0  0
    4.3511   -2.9338    0.0000 O   0  0  0  0  0  0  0  0  0  0  0  0
    7.0742    6.0775    0.0000 O   0  0  0  0  0  0  0  0  0  0  0  0
    5.1646   -4.7609    0.0000 N   0  0  3  0  0  0  0  0  0  0  0  0
    7.6133   -2.9245    0.0000 N   0  0  0  0  0  0  0  0  0  0  0  0
    6.8043    0.6632    0.0000 N   0  0  0  0  0  0  0  0  0  0  0  0
    7.1133    1.6143    0.0000 N   0  0  0  0  0  0  0  0  0  0  0  0
    6.7473   -4.4245    0.0000 C   0  0  2  0  0  0  0  0  0  0  0  0
    6.6428   -5.4191    0.0000 C   0  0  2  0  0  0  0  0  0  0  0  0
    5.8338   -4.0178    0.0000 C   0  0  0  0  0  0  0  0  0  0  0  0
    5.6646   -5.6270    0.0000 C   0  0  0  0  0  0  0  0  0  0  0  0
    7.6133   -3.9245    0.0000 C   0  0  0  0  0  0  0  0  0  0  0  0
    4.1701   -4.6564    0.0000 C   0  0  2  0  0  0  0  0  0  0  0  0
    7.3859   -6.0882    0.0000 C   0  0  0  0  0  0  0  0  0  0  0  0
    6.7473   -2.4245    0.0000 C   0  0  0  0  0  0  0  0  0  0  0  0
    8.4793   -2.4245    0.0000 C   0  0  0  0  0  0  0  0  0  0  0  0
    7.6133   -0.9245    0.0000 C   0  0  0  0  0  0  0  0  0  0  0  0
    3.5823   -5.4654    0.0000 C   0  0  2  0  0  0  0  0  0  0  0  0
    6.7473   -1.4245    0.0000 C   0  0  0  0  0  0  0  0  0  0  0  0
    8.4793   -1.4245    0.0000 C   0  0  0  0  0  0  0  0  0  0  0  0
    3.7634   -3.7429    0.0000 C   0  0  0  0  0  0  0  0  0  0  0  0
    2.5878   -5.3609    0.0000 C   0  0  0  0  0  0  0  0  0  0  0  0
    7.6133    0.0755    0.0000 C   0  0  0  0  0  0  0  0  0  0  0  0
    7.1780   -7.0663    0.0000 C   0  0  0  0  0  0  0  0  0  0  0  0
    8.3370   -5.7792    0.0000 C   0  0  0  0  0  0  0  0  0  0  0  0
    3.9890   -6.3790    0.0000 C   0  0  0  0  0  0  0  0  0  0  0  0
    8.4223    0.6632    0.0000 C   0  0  0  0  0  0  0  0  0  0  0  0
    2.0000   -6.1699    0.0000 C   0  0  0  0  0  0  0  0  0  0  0  0
    7.9211   -7.7355    0.0000 C   0  0  0  0  0  0  0  0  0  0  0  0
    9.0801   -6.4483    0.0000 C   0  0  0  0  0  0  0  0  0  0  0  0
    8.8722   -7.4264    0.0000 C   0  0  0  0  0  0  0  0  0  0  0  0
    8.1133    1.6143    0.0000 C   0  0  0  0  0  0  0  0  0  0  0  0
    5.8532    0.3542    0.0000 C   0  0  0  0  0  0  0  0  0  0  0  0
    8.7011    2.4233    0.0000 C   0  0  0  0  0  0  0  0  0  0  0  0
    5.1101    1.0234    0.0000 C   0  0  0  0  0  0  0  0  0  0  0  0
    8.2944    3.3369    0.0000 C   0  0  0  0  0  0  0  0  0  0  0  0
    7.2998    3.4414    0.0000 C   0  0  0  0  0  0  0  0  0  0  0  0
    8.8822    4.1459    0.0000 C   0  0  0  0  0  0  0  0  0  0  0  0
    6.8931    4.3549    0.0000 C   0  0  0  0  0  0  0  0  0  0  0  0
    8.4754    5.0594    0.0000 C   0  0  0  0  0  0  0  0  0  0  0  0
    7.4809    5.1640    0.0000 C   0  0  0  0  0  0  0  0  0  0  0  0
    7.6619    6.8865    0.0000 C   0  0  0  0  0  0  0  0  0  0  0  0
    7.2552    7.8001    0.0000 C   0  0  0  0  0  0  0  0  0  0  0  0
    7.2673   -4.7622    0.0000 H   0  0  0  0  0  0  0  0  0  0  0  0
    7.2216   -5.1969    0.0000 H   0  0  0  0  0  0  0  0  0  0  0  0
    6.1437   -3.4809    0.0000 H   0  0  0  0  0  0  0  0  0  0  0  0
    5.3322   -3.6534    0.0000 H   0  0  0  0  0  0  0  0  0  0  0  0
    5.0982   -5.8792    0.0000 H   0  0  0  0  0  0  0  0  0  0  0  0
    5.8562   -6.2166    0.0000 H   0  0  0  0  0  0  0  0  0  0  0  0
    7.8254   -4.5071    0.0000 H   0  0  0  0  0  0  0  0  0  0  0  0
    8.2239   -3.8169    0.0000 H   0  0  0  0  0  0  0  0  0  0  0  0
    4.5345   -4.1548    0.0000 H   0  0  0  0  0  0  0  0  0  0  0  0
    6.1367   -2.3169    0.0000 H   0  0  0  0  0  0  0  0  0  0  0  0
    6.5352   -3.0071    0.0000 H   0  0  0  0  0  0  0  0  0  0  0  0
    8.6914   -3.0071    0.0000 H   0  0  0  0  0  0  0  0  0  0  0  0
    9.0899   -2.3169    0.0000 H   0  0  0  0  0  0  0  0  0  0  0  0
    7.0764   -0.6145    0.0000 H   0  0  0  0  0  0  0  0  0  0  0  0
    3.2179   -5.9670    0.0000 H   0  0  0  0  0  0  0  0  0  0  0  0
    6.5352   -0.8419    0.0000 H   0  0  0  0  0  0  0  0  0  0  0  0
    6.1367   -1.5322    0.0000 H   0  0  0  0  0  0  0  0  0  0  0  0
    9.0899   -1.5322    0.0000 H   0  0  0  0  0  0  0  0  0  0  0  0
    8.6914   -0.8419    0.0000 H   0  0  0  0  0  0  0  0  0  0  0  0
    2.7587   -4.7649    0.0000 H   0  0  0  0  0  0  0  0  0  0  0  0
    2.0305   -5.0891    0.0000 H   0  0  0  0  0  0  0  0  0  0  0  0
    6.5883   -7.2579    0.0000 H   0  0  0  0  0  0  0  0  0  0  0  0
    8.4659   -5.1727    0.0000 H   0  0  0  0  0  0  0  0  0  0  0  0
    3.4226   -6.6312    0.0000 H   0  0  0  0  0  0  0  0  0  0  0  0
    4.2412   -6.9454    0.0000 H   0  0  0  0  0  0  0  0  0  0  0  0
    4.5554   -6.1268    0.0000 H   0  0  0  0  0  0  0  0  0  0  0  0
    9.0120    0.4717    0.0000 H   0  0  0  0  0  0  0  0  0  0  0  0
    1.4984   -5.8055    0.0000 H   0  0  0  0  0  0  0  0  0  0  0  0
    1.6356   -6.6715    0.0000 H   0  0  0  0  0  0  0  0  0  0  0  0
    2.5016   -6.5344    0.0000 H   0  0  0  0  0  0  0  0  0  0  0  0
    9.6698   -6.2567    0.0000 H   0  0  0  0  0  0  0  0  0  0  0  0
    9.3330   -7.8413    0.0000 H   0  0  0  0  0  0  0  0  0  0  0  0
    2.5167   -3.0719    0.0000 H   0  0  0  0  0  0  0  0  0  0  0  0
    5.3647   -0.0275    0.0000 H   0  0  0  0  0  0  0  0  0  0  0  0
    6.1443   -0.1932    0.0000 H   0  0  0  0  0  0  0  0  0  0  0  0
    9.1318    1.9773    0.0000 H   0  0  0  0  0  0  0  0  0  0  0  0
    9.2151    2.7700    0.0000 H   0  0  0  0  0  0  0  0  0  0  0  0
    5.5250    1.4841    0.0000 H   0  0  0  0  0  0  0  0  0  0  0  0
    4.6494    1.4382    0.0000 H   0  0  0  0  0  0  0  0  0  0  0  0
    4.6952    0.5626    0.0000 H   0  0  0  0  0  0  0  0  0  0  0  0
    6.9354    2.9398    0.0000 H   0  0  0  0  0  0  0  0  0  0  0  0
    9.4988    4.0811    0.0000 H   0  0  0  0  0  0  0  0  0  0  0  0
    6.2765    4.4197    0.0000 H   0  0  0  0  0  0  0  0  0  0  0  0
    8.8398    5.5610    0.0000 H   0  0  0  0  0  0  0  0  0  0  0  0
    8.0926    6.4405    0.0000 H   0  0  0  0  0  0  0  0  0  0  0  0
    8.1759    7.2332    0.0000 H   0  0  0  0  0  0  0  0  0  0  0  0
  1 33  1  0  0  0  0
  2 47  1  0  0  0  0
  3 47  1  0  0  0  0
  4 47  1  0  0  0  0
  5 25  1  0  0  0  0
  5 80  1  0  0  0  0
  6 25  2  0  0  0  0
  7 45  1  0  0  0  0
  7 46  1  0  0  0  0
  8 14  1  0  0  0  0
  8 15  1  0  0  0  0
  8 17  1  0  0  0  0
  9 16  1  0  0  0  0
  9 19  1  0  0  0  0
  9 20  1  0  0  0  0
 10 11  1  0  0  0  0
 10 27  1  0  0  0  0
 10 37  1  0  0  0  0
 11 36  2  0  0  0  0
 12 13  1  0  0  0  0
 12 14  1  0  0  0  0
 12 16  1  6  0  0  0
 12 48  1  0  0  0  0
 13 15  1  0  0  0  0
 13 18  1  1  0  0  0
 13 49  1  0  0  0  0
 14 50  1  0  0  0  0
 14 51  1  0  0  0  0
 15 52  1  0  0  0  0
 15 53  1  0  0  0  0
 16 54  1  0  0  0  0
 16 55  1  0  0  0  0
 17 22  1  0  0  0  0
 17 25  1  6  0  0  0
 17 56  1  0  0  0  0
 18 28  2  0  0  0  0
 18 29  1  0  0  0  0
 19 23  1  0  0  0  0
 19 57  1  0  0  0  0
 19 58  1  0  0  0  0
 20 24  1  0  0  0  0
 20 59  1  0  0  0  0
 20 60  1  0  0  0  0
 21 23  1  0  0  0  0
 21 24  1  0  0  0  0
 21 27  1  0  0  0  0
 21 61  1  0  0  0  0
 22 26  1  0  0  0  0
 22 30  1  1  0  0  0
 22 62  1  0  0  0  0
 23 63  1  0  0  0  0
 23 64  1  0  0  0  0
 24 65  1  0  0  0  0
 24 66  1  0  0  0  0
 26 32  1  0  0  0  0
 26 67  1  0  0  0  0
 26 68  1  0  0  0  0
 27 31  2  0  0  0  0
 28 33  1  0  0  0  0
 28 69  1  0  0  0  0
 29 34  2  0  0  0  0
 29 70  1  0  0  0  0
 30 71  1  0  0  0  0
 30 72  1  0  0  0  0
 30 73  1  0  0  0  0
 31 36  1  0  0  0  0
 31 74  1  0  0  0  0
 32 75  1  0  0  0  0
 32 76  1  0  0  0  0
 32 77  1  0  0  0  0
 33 35  2  0  0  0  0
 34 35  1  0  0  0  0
 34 78  1  0  0  0  0
 35 79  1  0  0  0  0
 36 38  1  0  0  0  0
 37 39  1  0  0  0  0
 37 81  1  0  0  0  0
 37 82  1  0  0  0  0
 38 40  1  0  0  0  0
 38 83  1  0  0  0  0
 38 84  1  0  0  0  0
 39 85  1  0  0  0  0
 39 86  1  0  0  0  0
 39 87  1  0  0  0  0
 40 41  2  0  0  0  0
 40 42  1  0  0  0  0
 41 43  1  0  0  0  0
 41 88  1  0  0  0  0
 42 44  2  0  0  0  0
 42 89  1  0  0  0  0
 43 45  2  0  0  0  0
 43 90  1  0  0  0  0
 44 45  1  0  0  0  0
 44 91  1  0  0  0  0
 46 47  1  0  0  0  0
 46 92  1  0  0  0  0
 46 93  1  0  0  0  0
M  END
> <PUBCHEM_COMPOUND_CID>
516223
> <PUBCHEM_COMPOUND_CANONICALIZED>
1
> <PUBCHEM_CACTVS_COMPLEXITY>
974
> <PUBCHEM_CACTVS_HBOND_ACCEPTOR>
10
> <PUBCHEM_CACTVS_HBOND_DONOR>
1
> <PUBCHEM_CACTVS_ROTATABLE_BOND>
13
> <PUBCHEM_CACTVS_SUBSKEYS>
AAADcfB/scAAAAAAAAAAAAAAAAAAAWLAAAA8YIAAAAAAAAAB0AAAHwAICAAADSzhnh4yjpMIBgCqAyTyTACSDAAhogAY2CG+bJgOJjLE8fuG/CjkyBHY6AeYwOAOoAAAAAAAAABAAAAAAAAAAAAAAAAAAA==
> <PUBCHEM_IUPAC_OPENEYE_NAME>
(2R,3S)-2-[(3S,4S)-3-[[4-[2-ethyl-5-[[4-(2,2,2-trifluoroethoxy)phenyl]methyl]pyrazol-3-yl]-1-piperidyl]methyl]-4-(3-fluorophenyl)pyrrolidin-1-yl]-3-methyl-pentanoic acid
> <PUBCHEM_IUPAC_CAS_NAME>
(2R,3S)-2-[(3S,4S)-3-[[4-[2-ethyl-5-[[4-(2,2,2-trifluoroethoxy)phenyl]methyl]-3-pyrazolyl]-1-piperidinyl]methyl]-4-(3-fluorophenyl)-1-pyrrolidinyl]-3-methylpentanoic acid
> <PUBCHEM_IUPAC_NAME_MARKUP>
(2<I>R</I>,3<I>S</I>)-2-[(3<I>S</I>,4<I>S</I>)-3-[[4-[2-ethyl-5-[[4-(2,2,2-trifluoroethoxy)phenyl]methyl]pyrazol-3-yl]piperidin-1-yl]methyl]-4-(3-fluorophenyl)pyrrolidin-1-yl]-3-methylpentanoic acid
> <PUBCHEM_IUPAC_NAME>
(2R,3S)-2-[(3S,4S)-3-[[4-[2-ethyl-5-[[4-(2,2,2-trifluoroethoxy)phenyl]methyl]pyrazol-3-yl]piperidin-1-yl]methyl]-4-(3-fluorophenyl)pyrrolidin-1-yl]-3-methylpentanoic acid
> <PUBCHEM_IUPAC_SYSTEMATIC_NAME>
(2R,3S)-2-[(3S,4S)-3-[[4-[2-ethyl-5-[[4-[2,2,2-tris(fluoranyl)ethoxy]phenyl]methyl]pyrazol-3-yl]piperidin-1-yl]methyl]-4-(3-fluorophenyl)pyrrolidin-1-yl]-3-methyl-pentanoic acid
> <PUBCHEM_IUPAC_TRADITIONAL_NAME>
(2R,3S)-2-[(3S,4S)-3-[[4-[2-ethyl-5-[4-(2,2,2-trifluoroethoxy)benzyl]pyrazol-3-yl]piperidino]methyl]-4-(3-fluorophenyl)pyrrolidino]-3-methyl-valeric acid
> <PUBCHEM_IUPAC_INCHI>
InChI=1S/C36H46F4N4O3/c1-4-24(3)34(35(45)46)43-21-28(32(22-43)27-7-6-8-29(37)18-27)20-42-15-13-26(14-16-42)33-19-30(41-44(33)5-2)17-25-9-11-31(12-10-25)47-23-36(38,39)40/h6-12,18-19,24,26,28,32,34H,4-5,13-17,20-23H2,1-3H3,(H,45,46)/t24-,28-,32+,34+/m0/s1
> <PUBCHEM_IUPAC_INCHIKEY>
BYGHXMKCHHHFAS-FZKFUBHISA-N
> <PUBCHEM_XLOGP3_AA>
5.1
> <PUBCHEM_EXACT_MASS>
658.35060399
> <PUBCHEM_MOLECULAR_FORMULA>
C36H46F4N4O3
> <PUBCHEM_MOLECULAR_WEIGHT>
658.8
> <PUBCHEM_OPENEYE_CAN_SMILES>
CCC(C)C(C(=O)O)N1CC(C(C1)C2=CC(=CC=C2)F)CN3CCC(CC3)C4=CC(=NN4CC)CC5=CC=C(C=C5)OCC(F)(F)F
> <PUBCHEM_OPENEYE_ISO_SMILES>
CC[C@H](C)[C@H](C(=O)O)N1C[C@@H]([C@H](C1)C2=CC(=CC=C2)F)CN3CCC(CC3)C4=CC(=NN4CC)CC5=CC=C(C=C5)OCC(F)(F)F
> <PUBCHEM_CACTVS_TPSA>
70.8
> <PUBCHEM_MONOISOTOPIC_WEIGHT>
658.35060399
> <PUBCHEM_TOTAL_CHARGE>
0
> <PUBCHEM_HEAVY_ATOM_COUNT>
47
> <PUBCHEM_ATOM_DEF_STEREO_COUNT>
4
> <PUBCHEM_ATOM_UDEF_STEREO_COUNT>
0
> <PUBCHEM_BOND_DEF_STEREO_COUNT>
0
> <PUBCHEM_BOND_UDEF_STEREO_COUNT>
0
> <PUBCHEM_ISOTOPIC_ATOM_COUNT>
0
> <PUBCHEM_COMPONENT_COUNT>
1
> <PUBCHEM_CACTVS_TAUTO_COUNT>
-1
> <PUBCHEM_COORDINATE_TYPE>
1
5
255
> <PUBCHEM_BONDANNOTATIONS>
10  11  8
10  27  8
11  36  8
12  16  6
13  18  5
17  25  6
18  28  8
18  29  8
22  30  5
27  31  8
28  33  8
29  34  8
31  36  8
33  35  8
34  35  8
40  41  8
40  42  8
41  43  8
42  44  8
43  45  8
44  45  8
$$$$
