516283
  -OEChem-10302200282D
 87 91  0     1  0  0  0  0  0999 V2000
    9.8078   -5.5611    0.0000 F   0  0  0  0  0  0  0  0  0  0  0  0
    2.3644   -4.7827    0.0000 O   0  0  0  0  0  0  0  0  0  0  0  0
    3.7657   -5.8008    0.0000 O   0  0  0  0  0  0  0  0  0  0  0  0
    6.8508    6.6557    0.0000 O   0  0  0  0  0  0  0  0  0  0  0  0
    4.9413   -4.1828    0.0000 N   0  0  3  0  0  0  0  0  0  0  0  0
    7.3900   -2.3464    0.0000 N   0  0  0  0  0  0  0  0  0  0  0  0
    6.5809    1.2414    0.0000 N   0  0  0  0  0  0  0  0  0  0  0  0
    6.8900    2.1925    0.0000 N   0  0  0  0  0  0  0  0  0  0  0  0
    6.5239   -3.8464    0.0000 C   0  0  2  0  0  0  0  0  0  0  0  0
    6.4194   -4.8409    0.0000 C   0  0  2  0  0  0  0  0  0  0  0  0
    5.6104   -3.4396    0.0000 C   0  0  0  0  0  0  0  0  0  0  0  0
    5.4413   -5.0488    0.0000 C   0  0  0  0  0  0  0  0  0  0  0  0
    7.3900   -3.3464    0.0000 C   0  0  0  0  0  0  0  0  0  0  0  0
    3.9467   -4.0782    0.0000 C   0  0  2  0  0  0  0  0  0  0  0  0
    3.5400   -3.1647    0.0000 C   0  0  0  0  0  0  0  0  0  0  0  0
    7.1626   -5.5100    0.0000 C   0  0  0  0  0  0  0  0  0  0  0  0
    6.5239   -1.8464    0.0000 C   0  0  0  0  0  0  0  0  0  0  0  0
    8.2560   -1.8464    0.0000 C   0  0  0  0  0  0  0  0  0  0  0  0
    7.3900   -0.3464    0.0000 C   0  0  0  0  0  0  0  0  0  0  0  0
    6.5239   -0.8464    0.0000 C   0  0  0  0  0  0  0  0  0  0  0  0
    8.2560   -0.8464    0.0000 C   0  0  0  0  0  0  0  0  0  0  0  0
    3.3590   -4.8872    0.0000 C   0  0  0  0  0  0  0  0  0  0  0  0
    3.1333   -2.2511    0.0000 C   0  0  0  0  0  0  0  0  0  0  0  0
    2.6264   -3.5714    0.0000 C   0  0  0  0  0  0  0  0  0  0  0  0
    4.4535   -2.7580    0.0000 C   0  0  0  0  0  0  0  0  0  0  0  0
    7.3900    0.6536    0.0000 C   0  0  0  0  0  0  0  0  0  0  0  0
    8.1136   -5.2010    0.0000 C   0  0  0  0  0  0  0  0  0  0  0  0
    6.9546   -6.4882    0.0000 C   0  0  0  0  0  0  0  0  0  0  0  0
    8.1990    1.2414    0.0000 C   0  0  0  0  0  0  0  0  0  0  0  0
    8.8568   -5.8701    0.0000 C   0  0  0  0  0  0  0  0  0  0  0  0
    7.6978   -7.1573    0.0000 C   0  0  0  0  0  0  0  0  0  0  0  0
    8.6488   -6.8483    0.0000 C   0  0  0  0  0  0  0  0  0  0  0  0
    7.8900    2.1925    0.0000 C   0  0  0  0  0  0  0  0  0  0  0  0
    5.6299    0.9324    0.0000 C   0  0  0  0  0  0  0  0  0  0  0  0
    8.4777    3.0015    0.0000 C   0  0  0  0  0  0  0  0  0  0  0  0
    4.8867    1.6016    0.0000 C   0  0  0  0  0  0  0  0  0  0  0  0
    8.0710    3.9150    0.0000 C   0  0  0  0  0  0  0  0  0  0  0  0
    8.6588    4.7241    0.0000 C   0  0  0  0  0  0  0  0  0  0  0  0
    7.0765    4.0196    0.0000 C   0  0  0  0  0  0  0  0  0  0  0  0
    8.2520    5.6376    0.0000 C   0  0  0  0  0  0  0  0  0  0  0  0
    6.6698    4.9331    0.0000 C   0  0  0  0  0  0  0  0  0  0  0  0
    7.2575    5.7422    0.0000 C   0  0  0  0  0  0  0  0  0  0  0  0
    6.4915   -3.2272    0.0000 H   0  0  0  0  0  0  0  0  0  0  0  0
    6.2589   -5.4398    0.0000 H   0  0  0  0  0  0  0  0  0  0  0  0
    5.9204   -2.9027    0.0000 H   0  0  0  0  0  0  0  0  0  0  0  0
    5.1088   -3.0752    0.0000 H   0  0  0  0  0  0  0  0  0  0  0  0
    4.8749   -5.3010    0.0000 H   0  0  0  0  0  0  0  0  0  0  0  0
    5.6328   -5.6384    0.0000 H   0  0  0  0  0  0  0  0  0  0  0  0
    7.6020   -3.9290    0.0000 H   0  0  0  0  0  0  0  0  0  0  0  0
    8.0005   -3.2387    0.0000 H   0  0  0  0  0  0  0  0  0  0  0  0
    4.1989   -4.6446    0.0000 H   0  0  0  0  0  0  0  0  0  0  0  0
    5.9134   -1.7387    0.0000 H   0  0  0  0  0  0  0  0  0  0  0  0
    6.3119   -2.4290    0.0000 H   0  0  0  0  0  0  0  0  0  0  0  0
    8.4680   -2.4290    0.0000 H   0  0  0  0  0  0  0  0  0  0  0  0
    8.8666   -1.7387    0.0000 H   0  0  0  0  0  0  0  0  0  0  0  0
    7.9269   -0.0364    0.0000 H   0  0  0  0  0  0  0  0  0  0  0  0
    6.3119   -0.2637    0.0000 H   0  0  0  0  0  0  0  0  0  0  0  0
    5.9134   -0.9540    0.0000 H   0  0  0  0  0  0  0  0  0  0  0  0
    8.8666   -0.9540    0.0000 H   0  0  0  0  0  0  0  0  0  0  0  0
    8.4680   -0.2637    0.0000 H   0  0  0  0  0  0  0  0  0  0  0  0
    3.6997   -1.9990    0.0000 H   0  0  0  0  0  0  0  0  0  0  0  0
    2.8811   -1.6847    0.0000 H   0  0  0  0  0  0  0  0  0  0  0  0
    2.5669   -2.5033    0.0000 H   0  0  0  0  0  0  0  0  0  0  0  0
    2.3743   -3.0050    0.0000 H   0  0  0  0  0  0  0  0  0  0  0  0
    2.0600   -3.8236    0.0000 H   0  0  0  0  0  0  0  0  0  0  0  0
    2.8786   -4.1378    0.0000 H   0  0  0  0  0  0  0  0  0  0  0  0
    4.7057   -3.3244    0.0000 H   0  0  0  0  0  0  0  0  0  0  0  0
    5.0199   -2.5058    0.0000 H   0  0  0  0  0  0  0  0  0  0  0  0
    4.2014   -2.1916    0.0000 H   0  0  0  0  0  0  0  0  0  0  0  0
    8.2425   -4.5945    0.0000 H   0  0  0  0  0  0  0  0  0  0  0  0
    6.3650   -6.6797    0.0000 H   0  0  0  0  0  0  0  0  0  0  0  0
    8.7886    1.0498    0.0000 H   0  0  0  0  0  0  0  0  0  0  0  0
    7.5689   -7.7637    0.0000 H   0  0  0  0  0  0  0  0  0  0  0  0
    2.0000   -5.2843    0.0000 H   0  0  0  0  0  0  0  0  0  0  0  0
    9.1096   -7.2631    0.0000 H   0  0  0  0  0  0  0  0  0  0  0  0
    5.1413    0.5507    0.0000 H   0  0  0  0  0  0  0  0  0  0  0  0
    5.9210    0.3850    0.0000 H   0  0  0  0  0  0  0  0  0  0  0  0
    8.9084    2.5555    0.0000 H   0  0  0  0  0  0  0  0  0  0  0  0
    8.9918    3.3482    0.0000 H   0  0  0  0  0  0  0  0  0  0  0  0
    5.3016    2.0623    0.0000 H   0  0  0  0  0  0  0  0  0  0  0  0
    4.4260    2.0164    0.0000 H   0  0  0  0  0  0  0  0  0  0  0  0
    4.4719    1.1408    0.0000 H   0  0  0  0  0  0  0  0  0  0  0  0
    9.2754    4.6593    0.0000 H   0  0  0  0  0  0  0  0  0  0  0  0
    6.7121    3.5180    0.0000 H   0  0  0  0  0  0  0  0  0  0  0  0
    8.6165    6.1392    0.0000 H   0  0  0  0  0  0  0  0  0  0  0  0
    6.0531    4.9979    0.0000 H   0  0  0  0  0  0  0  0  0  0  0  0
    7.2152    7.1573    0.0000 H   0  0  0  0  0  0  0  0  0  0  0  0
  1 30  1  0  0  0  0
  2 22  1  0  0  0  0
  2 74  1  0  0  0  0
  3 22  2  0  0  0  0
  4 42  1  0  0  0  0
  4 87  1  0  0  0  0
  5 11  1  0  0  0  0
  5 12  1  0  0  0  0
  5 14  1  0  0  0  0
  6 13  1  0  0  0  0
  6 17  1  0  0  0  0
  6 18  1  0  0  0  0
  7  8  1  0  0  0  0
  7 26  1  0  0  0  0
  7 34  1  0  0  0  0
  8 33  2  0  0  0  0
  9 10  1  0  0  0  0
  9 11  1  0  0  0  0
  9 13  1  6  0  0  0
  9 43  1  0  0  0  0
 10 12  1  0  0  0  0
 10 16  1  1  0  0  0
 10 44  1  0  0  0  0
 11 45  1  0  0  0  0
 11 46  1  0  0  0  0
 12 47  1  0  0  0  0
 12 48  1  0  0  0  0
 13 49  1  0  0  0  0
 13 50  1  0  0  0  0
 14 15  1  0  0  0  0
 14 22  1  1  0  0  0
 14 51  1  0  0  0  0
 15 23  1  0  0  0  0
 15 24  1  0  0  0  0
 15 25  1  0  0  0  0
 16 27  2  0  0  0  0
 16 28  1  0  0  0  0
 17 20  1  0  0  0  0
 17 52  1  0  0  0  0
 17 53  1  0  0  0  0
 18 21  1  0  0  0  0
 18 54  1  0  0  0  0
 18 55  1  0  0  0  0
 19 20  1  0  0  0  0
 19 21  1  0  0  0  0
 19 26  1  0  0  0  0
 19 56  1  0  0  0  0
 20 57  1  0  0  0  0
 20 58  1  0  0  0  0
 21 59  1  0  0  0  0
 21 60  1  0  0  0  0
 23 61  1  0  0  0  0
 23 62  1  0  0  0  0
 23 63  1  0  0  0  0
 24 64  1  0  0  0  0
 24 65  1  0  0  0  0
 24 66  1  0  0  0  0
 25 67  1  0  0  0  0
 25 68  1  0  0  0  0
 25 69  1  0  0  0  0
 26 29  2  0  0  0  0
 27 30  1  0  0  0  0
 27 70  1  0  0  0  0
 28 31  2  0  0  0  0
 28 71  1  0  0  0  0
 29 33  1  0  0  0  0
 29 72  1  0  0  0  0
 30 32  2  0  0  0  0
 31 32  1  0  0  0  0
 31 73  1  0  0  0  0
 32 75  1  0  0  0  0
 33 35  1  0  0  0  0
 34 36  1  0  0  0  0
 34 76  1  0  0  0  0
 34 77  1  0  0  0  0
 35 37  1  0  0  0  0
 35 78  1  0  0  0  0
 35 79  1  0  0  0  0
 36 80  1  0  0  0  0
 36 81  1  0  0  0  0
 36 82  1  0  0  0  0
 37 38  2  0  0  0  0
 37 39  1  0  0  0  0
 38 40  1  0  0  0  0
 38 83  1  0  0  0  0
 39 41  2  0  0  0  0
 39 84  1  0  0  0  0
 40 42  2  0  0  0  0
 40 85  1  0  0  0  0
 41 42  1  0  0  0  0
 41 86  1  0  0  0  0
M  END
> <PUBCHEM_COMPOUND_CID>
516283
> <PUBCHEM_COMPOUND_CANONICALIZED>
1
> <PUBCHEM_CACTVS_COMPLEXITY>
869
> <PUBCHEM_CACTVS_HBOND_ACCEPTOR>
7
> <PUBCHEM_CACTVS_HBOND_DONOR>
2
> <PUBCHEM_CACTVS_ROTATABLE_BOND>
10
> <PUBCHEM_CACTVS_SUBSKEYS>
AAADcfB/sQAAAAAAAAAAAAAAAAAAAWLAAAA8YIAAAAAAAAAB0AAAHwAICAAADyzBngwyjpMIAgCqAyTyTACSBAAhogAY2CG+bJgKJjLC0fOE9AhkyBHY2AeQwOAPoAAAAAAAAABAAAAAAAAAAAAAAAAAAA==
> <PUBCHEM_IUPAC_OPENEYE_NAME>
(2R)-2-[(3S,4S)-3-[[4-[2-ethyl-5-[(4-hydroxyphenyl)methyl]pyrazol-3-yl]-1-piperidyl]methyl]-4-(3-fluorophenyl)pyrrolidin-1-yl]-3,3-dimethyl-butanoic acid
> <PUBCHEM_IUPAC_CAS_NAME>
(2R)-2-[(3S,4S)-3-[[4-[2-ethyl-5-[(4-hydroxyphenyl)methyl]-3-pyrazolyl]-1-piperidinyl]methyl]-4-(3-fluorophenyl)-1-pyrrolidinyl]-3,3-dimethylbutanoic acid
> <PUBCHEM_IUPAC_NAME_MARKUP>
(2<I>R</I>)-2-[(3<I>S</I>,4<I>S</I>)-3-[[4-[2-ethyl-5-[(4-hydroxyphenyl)methyl]pyrazol-3-yl]piperidin-1-yl]methyl]-4-(3-fluorophenyl)pyrrolidin-1-yl]-3,3-dimethylbutanoic acid
> <PUBCHEM_IUPAC_NAME>
(2R)-2-[(3S,4S)-3-[[4-[2-ethyl-5-[(4-hydroxyphenyl)methyl]pyrazol-3-yl]piperidin-1-yl]methyl]-4-(3-fluorophenyl)pyrrolidin-1-yl]-3,3-dimethylbutanoic acid
> <PUBCHEM_IUPAC_SYSTEMATIC_NAME>
(2R)-2-[(3S,4S)-3-[[4-[2-ethyl-5-[(4-hydroxyphenyl)methyl]pyrazol-3-yl]piperidin-1-yl]methyl]-4-(3-fluorophenyl)pyrrolidin-1-yl]-3,3-dimethyl-butanoic acid
> <PUBCHEM_IUPAC_TRADITIONAL_NAME>
(2R)-2-[(3S,4S)-3-[[4-[2-ethyl-5-(4-hydroxybenzyl)pyrazol-3-yl]piperidino]methyl]-4-(3-fluorophenyl)pyrrolidino]-3,3-dimethyl-butyric acid
> <PUBCHEM_IUPAC_INCHI>
InChI=1S/C34H45FN4O3/c1-5-39-31(19-28(36-39)17-23-9-11-29(40)12-10-23)24-13-15-37(16-14-24)20-26-21-38(32(33(41)42)34(2,3)4)22-30(26)25-7-6-8-27(35)18-25/h6-12,18-19,24,26,30,32,40H,5,13-17,20-22H2,1-4H3,(H,41,42)/t26-,30+,32-/m0/s1
> <PUBCHEM_IUPAC_INCHIKEY>
DWPMZRNGNHVNJD-LEFKNYOOSA-N
> <PUBCHEM_XLOGP3_AA>
3.7
> <PUBCHEM_EXACT_MASS>
576.34756947
> <PUBCHEM_MOLECULAR_FORMULA>
C34H45FN4O3
> <PUBCHEM_MOLECULAR_WEIGHT>
576.7
> <PUBCHEM_OPENEYE_CAN_SMILES>
CCN1C(=CC(=N1)CC2=CC=C(C=C2)O)C3CCN(CC3)CC4CN(CC4C5=CC(=CC=C5)F)C(C(=O)O)C(C)(C)C
> <PUBCHEM_OPENEYE_ISO_SMILES>
CCN1C(=CC(=N1)CC2=CC=C(C=C2)O)C3CCN(CC3)C[C@H]4CN(C[C@@H]4C5=CC(=CC=C5)F)[C@@H](C(=O)O)C(C)(C)C
> <PUBCHEM_CACTVS_TPSA>
81.8
> <PUBCHEM_MONOISOTOPIC_WEIGHT>
576.34756947
> <PUBCHEM_TOTAL_CHARGE>
0
> <PUBCHEM_HEAVY_ATOM_COUNT>
42
> <PUBCHEM_ATOM_DEF_STEREO_COUNT>
3
> <PUBCHEM_ATOM_UDEF_STEREO_COUNT>
0
> <PUBCHEM_BOND_DEF_STEREO_COUNT>
0
> <PUBCHEM_BOND_UDEF_STEREO_COUNT>
0
> <PUBCHEM_ISOTOPIC_ATOM_COUNT>
0
> <PUBCHEM_COMPONENT_COUNT>
1
> <PUBCHEM_CACTVS_TAUTO_COUNT>
-1
> <PUBCHEM_COORDINATE_TYPE>
1
5
255
> <PUBCHEM_BONDANNOTATIONS>
10  16  5
14  22  5
16  27  8
16  28  8
26  29  8
27  30  8
28  31  8
29  33  8
30  32  8
31  32  8
37  38  8
37  39  8
38  40  8
39  41  8
40  42  8
41  42  8
7  26  8
7  8  8
8  33  8
9  13  6
$$$$
