516273
  -OEChem-10302200282D
 99103  0     1  0  0  0  0  0999 V2000
    9.8078   -7.0329    0.0000 F   0  0  0  0  0  0  0  0  0  0  0  0
    2.3644   -6.2545    0.0000 O   0  0  0  0  0  0  0  0  0  0  0  0
    3.7657   -7.2726    0.0000 O   0  0  0  0  0  0  0  0  0  0  0  0
    6.8508    5.1839    0.0000 O   0  0  0  0  0  0  0  0  0  0  0  0
    4.9413   -5.6545    0.0000 N   0  0  3  0  0  0  0  0  0  0  0  0
    7.3900   -3.8181    0.0000 N   0  0  0  0  0  0  0  0  0  0  0  0
    6.5809   -0.2303    0.0000 N   0  0  0  0  0  0  0  0  0  0  0  0
    6.8900    0.7207    0.0000 N   0  0  0  0  0  0  0  0  0  0  0  0
    6.5239   -5.3181    0.0000 C   0  0  2  0  0  0  0  0  0  0  0  0
    6.4194   -6.3126    0.0000 C   0  0  2  0  0  0  0  0  0  0  0  0
    5.6104   -4.9114    0.0000 C   0  0  0  0  0  0  0  0  0  0  0  0
    5.4413   -6.5206    0.0000 C   0  0  0  0  0  0  0  0  0  0  0  0
    7.3900   -4.8181    0.0000 C   0  0  0  0  0  0  0  0  0  0  0  0
    3.9467   -5.5500    0.0000 C   0  0  2  0  0  0  0  0  0  0  0  0
    3.5400   -4.6364    0.0000 C   0  0  0  0  0  0  0  0  0  0  0  0
    7.1626   -6.9818    0.0000 C   0  0  0  0  0  0  0  0  0  0  0  0
    6.5239   -3.3181    0.0000 C   0  0  0  0  0  0  0  0  0  0  0  0
    8.2560   -3.3181    0.0000 C   0  0  0  0  0  0  0  0  0  0  0  0
    7.3900   -1.8181    0.0000 C   0  0  0  0  0  0  0  0  0  0  0  0
    6.5239   -2.3181    0.0000 C   0  0  0  0  0  0  0  0  0  0  0  0
    8.2560   -2.3181    0.0000 C   0  0  0  0  0  0  0  0  0  0  0  0
    3.3590   -6.3590    0.0000 C   0  0  0  0  0  0  0  0  0  0  0  0
    3.1333   -3.7229    0.0000 C   0  0  0  0  0  0  0  0  0  0  0  0
    2.6264   -5.0432    0.0000 C   0  0  0  0  0  0  0  0  0  0  0  0
    4.4535   -4.2297    0.0000 C   0  0  0  0  0  0  0  0  0  0  0  0
    7.3900   -0.8181    0.0000 C   0  0  0  0  0  0  0  0  0  0  0  0
    8.1136   -6.6728    0.0000 C   0  0  0  0  0  0  0  0  0  0  0  0
    6.9546   -7.9599    0.0000 C   0  0  0  0  0  0  0  0  0  0  0  0
    8.1990   -0.2303    0.0000 C   0  0  0  0  0  0  0  0  0  0  0  0
    8.8568   -7.3419    0.0000 C   0  0  0  0  0  0  0  0  0  0  0  0
    7.6978   -8.6290    0.0000 C   0  0  0  0  0  0  0  0  0  0  0  0
    8.6488   -8.3200    0.0000 C   0  0  0  0  0  0  0  0  0  0  0  0
    7.8900    0.7207    0.0000 C   0  0  0  0  0  0  0  0  0  0  0  0
    5.6299   -0.5393    0.0000 C   0  0  0  0  0  0  0  0  0  0  0  0
    8.4777    1.5297    0.0000 C   0  0  0  0  0  0  0  0  0  0  0  0
    4.8867    0.1298    0.0000 C   0  0  0  0  0  0  0  0  0  0  0  0
    8.0710    2.4433    0.0000 C   0  0  0  0  0  0  0  0  0  0  0  0
    7.0765    2.5478    0.0000 C   0  0  0  0  0  0  0  0  0  0  0  0
    8.6588    3.2523    0.0000 C   0  0  0  0  0  0  0  0  0  0  0  0
    6.6698    3.4614    0.0000 C   0  0  0  0  0  0  0  0  0  0  0  0
    8.2520    4.1658    0.0000 C   0  0  0  0  0  0  0  0  0  0  0  0
    7.2575    4.2704    0.0000 C   0  0  0  0  0  0  0  0  0  0  0  0
    7.4386    5.9929    0.0000 C   0  0  0  0  0  0  0  0  0  0  0  0
    7.0318    6.9065    0.0000 C   0  0  0  0  0  0  0  0  0  0  0  0
    7.6196    7.7155    0.0000 C   0  0  0  0  0  0  0  0  0  0  0  0
    7.2129    8.6290    0.0000 C   0  0  0  0  0  0  0  0  0  0  0  0
    7.0439   -5.6558    0.0000 H   0  0  0  0  0  0  0  0  0  0  0  0
    6.9982   -6.0904    0.0000 H   0  0  0  0  0  0  0  0  0  0  0  0
    5.9204   -4.3744    0.0000 H   0  0  0  0  0  0  0  0  0  0  0  0
    5.1088   -4.5470    0.0000 H   0  0  0  0  0  0  0  0  0  0  0  0
    4.8749   -6.7727    0.0000 H   0  0  0  0  0  0  0  0  0  0  0  0
    5.6328   -7.1102    0.0000 H   0  0  0  0  0  0  0  0  0  0  0  0
    7.6020   -5.4007    0.0000 H   0  0  0  0  0  0  0  0  0  0  0  0
    8.0005   -4.7105    0.0000 H   0  0  0  0  0  0  0  0  0  0  0  0
    4.1989   -6.1164    0.0000 H   0  0  0  0  0  0  0  0  0  0  0  0
    5.9134   -3.2105    0.0000 H   0  0  0  0  0  0  0  0  0  0  0  0
    6.3119   -3.9007    0.0000 H   0  0  0  0  0  0  0  0  0  0  0  0
    8.4680   -3.9007    0.0000 H   0  0  0  0  0  0  0  0  0  0  0  0
    8.8666   -3.2105    0.0000 H   0  0  0  0  0  0  0  0  0  0  0  0
    7.9269   -1.5081    0.0000 H   0  0  0  0  0  0  0  0  0  0  0  0
    6.3119   -1.7355    0.0000 H   0  0  0  0  0  0  0  0  0  0  0  0
    5.9134   -2.4258    0.0000 H   0  0  0  0  0  0  0  0  0  0  0  0
    8.8666   -2.4258    0.0000 H   0  0  0  0  0  0  0  0  0  0  0  0
    8.4680   -1.7355    0.0000 H   0  0  0  0  0  0  0  0  0  0  0  0
    3.6997   -3.4707    0.0000 H   0  0  0  0  0  0  0  0  0  0  0  0
    2.8811   -3.1565    0.0000 H   0  0  0  0  0  0  0  0  0  0  0  0
    2.5669   -3.9751    0.0000 H   0  0  0  0  0  0  0  0  0  0  0  0
    2.3743   -4.4768    0.0000 H   0  0  0  0  0  0  0  0  0  0  0  0
    2.0600   -5.2954    0.0000 H   0  0  0  0  0  0  0  0  0  0  0  0
    2.8786   -5.6096    0.0000 H   0  0  0  0  0  0  0  0  0  0  0  0
    4.7057   -4.7961    0.0000 H   0  0  0  0  0  0  0  0  0  0  0  0
    5.0199   -3.9775    0.0000 H   0  0  0  0  0  0  0  0  0  0  0  0
    4.2014   -3.6633    0.0000 H   0  0  0  0  0  0  0  0  0  0  0  0
    8.2425   -6.0663    0.0000 H   0  0  0  0  0  0  0  0  0  0  0  0
    6.3650   -8.1515    0.0000 H   0  0  0  0  0  0  0  0  0  0  0  0
    8.7886   -0.4219    0.0000 H   0  0  0  0  0  0  0  0  0  0  0  0
    7.5689   -9.2355    0.0000 H   0  0  0  0  0  0  0  0  0  0  0  0
    2.0000   -6.7561    0.0000 H   0  0  0  0  0  0  0  0  0  0  0  0
    9.1096   -8.7349    0.0000 H   0  0  0  0  0  0  0  0  0  0  0  0
    5.1413   -0.9211    0.0000 H   0  0  0  0  0  0  0  0  0  0  0  0
    5.9210   -1.0868    0.0000 H   0  0  0  0  0  0  0  0  0  0  0  0
    8.9084    1.0838    0.0000 H   0  0  0  0  0  0  0  0  0  0  0  0
    8.9918    1.8764    0.0000 H   0  0  0  0  0  0  0  0  0  0  0  0
    5.3016    0.5905    0.0000 H   0  0  0  0  0  0  0  0  0  0  0  0
    4.4260    0.5446    0.0000 H   0  0  0  0  0  0  0  0  0  0  0  0
    4.4719   -0.3310    0.0000 H   0  0  0  0  0  0  0  0  0  0  0  0
    6.7121    2.0462    0.0000 H   0  0  0  0  0  0  0  0  0  0  0  0
    9.2754    3.1875    0.0000 H   0  0  0  0  0  0  0  0  0  0  0  0
    6.0531    3.5262    0.0000 H   0  0  0  0  0  0  0  0  0  0  0  0
    8.6165    4.6674    0.0000 H   0  0  0  0  0  0  0  0  0  0  0  0
    7.8693    5.5470    0.0000 H   0  0  0  0  0  0  0  0  0  0  0  0
    7.9526    6.3396    0.0000 H   0  0  0  0  0  0  0  0  0  0  0  0
    6.6012    7.3525    0.0000 H   0  0  0  0  0  0  0  0  0  0  0  0
    6.5178    6.5598    0.0000 H   0  0  0  0  0  0  0  0  0  0  0  0
    8.0503    7.2695    0.0000 H   0  0  0  0  0  0  0  0  0  0  0  0
    8.1336    8.0622    0.0000 H   0  0  0  0  0  0  0  0  0  0  0  0
    7.7793    8.8812    0.0000 H   0  0  0  0  0  0  0  0  0  0  0  0
    6.9607    9.1954    0.0000 H   0  0  0  0  0  0  0  0  0  0  0  0
    6.6465    8.3769    0.0000 H   0  0  0  0  0  0  0  0  0  0  0  0
  1 30  1  0  0  0  0
  2 22  1  0  0  0  0
  2 78  1  0  0  0  0
  3 22  2  0  0  0  0
  4 42  1  0  0  0  0
  4 43  1  0  0  0  0
  5 11  1  0  0  0  0
  5 12  1  0  0  0  0
  5 14  1  0  0  0  0
  6 13  1  0  0  0  0
  6 17  1  0  0  0  0
  6 18  1  0  0  0  0
  7  8  1  0  0  0  0
  7 26  1  0  0  0  0
  7 34  1  0  0  0  0
  8 33  2  0  0  0  0
  9 10  1  0  0  0  0
  9 11  1  0  0  0  0
  9 13  1  6  0  0  0
  9 47  1  0  0  0  0
 10 12  1  0  0  0  0
 10 16  1  1  0  0  0
 10 48  1  0  0  0  0
 11 49  1  0  0  0  0
 11 50  1  0  0  0  0
 12 51  1  0  0  0  0
 12 52  1  0  0  0  0
 13 53  1  0  0  0  0
 13 54  1  0  0  0  0
 14 15  1  0  0  0  0
 14 22  1  1  0  0  0
 14 55  1  0  0  0  0
 15 23  1  0  0  0  0
 15 24  1  0  0  0  0
 15 25  1  0  0  0  0
 16 27  2  0  0  0  0
 16 28  1  0  0  0  0
 17 20  1  0  0  0  0
 17 56  1  0  0  0  0
 17 57  1  0  0  0  0
 18 21  1  0  0  0  0
 18 58  1  0  0  0  0
 18 59  1  0  0  0  0
 19 20  1  0  0  0  0
 19 21  1  0  0  0  0
 19 26  1  0  0  0  0
 19 60  1  0  0  0  0
 20 61  1  0  0  0  0
 20 62  1  0  0  0  0
 21 63  1  0  0  0  0
 21 64  1  0  0  0  0
 23 65  1  0  0  0  0
 23 66  1  0  0  0  0
 23 67  1  0  0  0  0
 24 68  1  0  0  0  0
 24 69  1  0  0  0  0
 24 70  1  0  0  0  0
 25 71  1  0  0  0  0
 25 72  1  0  0  0  0
 25 73  1  0  0  0  0
 26 29  2  0  0  0  0
 27 30  1  0  0  0  0
 27 74  1  0  0  0  0
 28 31  2  0  0  0  0
 28 75  1  0  0  0  0
 29 33  1  0  0  0  0
 29 76  1  0  0  0  0
 30 32  2  0  0  0  0
 31 32  1  0  0  0  0
 31 77  1  0  0  0  0
 32 79  1  0  0  0  0
 33 35  1  0  0  0  0
 34 36  1  0  0  0  0
 34 80  1  0  0  0  0
 34 81  1  0  0  0  0
 35 37  1  0  0  0  0
 35 82  1  0  0  0  0
 35 83  1  0  0  0  0
 36 84  1  0  0  0  0
 36 85  1  0  0  0  0
 36 86  1  0  0  0  0
 37 38  2  0  0  0  0
 37 39  1  0  0  0  0
 38 40  1  0  0  0  0
 38 87  1  0  0  0  0
 39 41  2  0  0  0  0
 39 88  1  0  0  0  0
 40 42  2  0  0  0  0
 40 89  1  0  0  0  0
 41 42  1  0  0  0  0
 41 90  1  0  0  0  0
 43 44  1  0  0  0  0
 43 91  1  0  0  0  0
 43 92  1  0  0  0  0
 44 45  1  0  0  0  0
 44 93  1  0  0  0  0
 44 94  1  0  0  0  0
 45 46  1  0  0  0  0
 45 95  1  0  0  0  0
 45 96  1  0  0  0  0
 46 97  1  0  0  0  0
 46 98  1  0  0  0  0
 46 99  1  0  0  0  0
M  END
> <PUBCHEM_COMPOUND_CID>
516273
> <PUBCHEM_COMPOUND_CANONICALIZED>
1
> <PUBCHEM_CACTVS_COMPLEXITY>
931
> <PUBCHEM_CACTVS_HBOND_ACCEPTOR>
7
> <PUBCHEM_CACTVS_HBOND_DONOR>
1
> <PUBCHEM_CACTVS_ROTATABLE_BOND>
14
> <PUBCHEM_CACTVS_SUBSKEYS>
AAADcfB/sQAAAAAAAAAAAAAAAAAAAWLAAAA8YIAAAAAAAAAB0AAAHwAICAAADyzhng4yjpMIBgCqAyTyTACSDAAhogAY2CG+bJgOJjLE8fuG/CjkyBHY6AeQwOAPoAAAAAAAAABAAAAAAAAAAAAAAAAAAA==
> <PUBCHEM_IUPAC_OPENEYE_NAME>
(2R)-2-[(3S,4S)-3-[[4-[5-[(4-butoxyphenyl)methyl]-2-ethyl-pyrazol-3-yl]-1-piperidyl]methyl]-4-(3-fluorophenyl)pyrrolidin-1-yl]-3,3-dimethyl-butanoic acid
> <PUBCHEM_IUPAC_CAS_NAME>
(2R)-2-[(3S,4S)-3-[[4-[5-[(4-butoxyphenyl)methyl]-2-ethyl-3-pyrazolyl]-1-piperidinyl]methyl]-4-(3-fluorophenyl)-1-pyrrolidinyl]-3,3-dimethylbutanoic acid
> <PUBCHEM_IUPAC_NAME_MARKUP>
(2<I>R</I>)-2-[(3<I>S</I>,4<I>S</I>)-3-[[4-[5-[(4-butoxyphenyl)methyl]-2-ethylpyrazol-3-yl]piperidin-1-yl]methyl]-4-(3-fluorophenyl)pyrrolidin-1-yl]-3,3-dimethylbutanoic acid
> <PUBCHEM_IUPAC_NAME>
(2R)-2-[(3S,4S)-3-[[4-[5-[(4-butoxyphenyl)methyl]-2-ethylpyrazol-3-yl]piperidin-1-yl]methyl]-4-(3-fluorophenyl)pyrrolidin-1-yl]-3,3-dimethylbutanoic acid
> <PUBCHEM_IUPAC_SYSTEMATIC_NAME>
(2R)-2-[(3S,4S)-3-[[4-[5-[(4-butoxyphenyl)methyl]-2-ethyl-pyrazol-3-yl]piperidin-1-yl]methyl]-4-(3-fluorophenyl)pyrrolidin-1-yl]-3,3-dimethyl-butanoic acid
> <PUBCHEM_IUPAC_TRADITIONAL_NAME>
(2R)-2-[(3S,4S)-3-[[4-[5-(4-butoxybenzyl)-2-ethyl-pyrazol-3-yl]piperidino]methyl]-4-(3-fluorophenyl)pyrrolidino]-3,3-dimethyl-butyric acid
> <PUBCHEM_IUPAC_INCHI>
InChI=1S/C38H53FN4O3/c1-6-8-20-46-33-14-12-27(13-15-33)21-32-23-35(43(7-2)40-32)28-16-18-41(19-17-28)24-30-25-42(36(37(44)45)38(3,4)5)26-34(30)29-10-9-11-31(39)22-29/h9-15,22-23,28,30,34,36H,6-8,16-21,24-26H2,1-5H3,(H,44,45)/t30-,34+,36-/m0/s1
> <PUBCHEM_IUPAC_INCHIKEY>
MRFRACBBILXIMQ-JYIZODLMSA-N
> <PUBCHEM_XLOGP3_AA>
5.3
> <PUBCHEM_EXACT_MASS>
632.41016973
> <PUBCHEM_MOLECULAR_FORMULA>
C38H53FN4O3
> <PUBCHEM_MOLECULAR_WEIGHT>
632.8
> <PUBCHEM_OPENEYE_CAN_SMILES>
CCCCOC1=CC=C(C=C1)CC2=NN(C(=C2)C3CCN(CC3)CC4CN(CC4C5=CC(=CC=C5)F)C(C(=O)O)C(C)(C)C)CC
> <PUBCHEM_OPENEYE_ISO_SMILES>
CCCCOC1=CC=C(C=C1)CC2=NN(C(=C2)C3CCN(CC3)C[C@H]4CN(C[C@@H]4C5=CC(=CC=C5)F)[C@@H](C(=O)O)C(C)(C)C)CC
> <PUBCHEM_CACTVS_TPSA>
70.8
> <PUBCHEM_MONOISOTOPIC_WEIGHT>
632.41016973
> <PUBCHEM_TOTAL_CHARGE>
0
> <PUBCHEM_HEAVY_ATOM_COUNT>
46
> <PUBCHEM_ATOM_DEF_STEREO_COUNT>
3
> <PUBCHEM_ATOM_UDEF_STEREO_COUNT>
0
> <PUBCHEM_BOND_DEF_STEREO_COUNT>
0
> <PUBCHEM_BOND_UDEF_STEREO_COUNT>
0
> <PUBCHEM_ISOTOPIC_ATOM_COUNT>
0
> <PUBCHEM_COMPONENT_COUNT>
1
> <PUBCHEM_CACTVS_TAUTO_COUNT>
-1
> <PUBCHEM_COORDINATE_TYPE>
1
5
255
> <PUBCHEM_BONDANNOTATIONS>
10  16  5
14  22  5
16  27  8
16  28  8
26  29  8
27  30  8
28  31  8
29  33  8
30  32  8
31  32  8
37  38  8
37  39  8
38  40  8
39  41  8
40  42  8
41  42  8
7  26  8
7  8  8
8  33  8
9  13  6
$$$$
