516275
  -OEChem-10302200282D
 97102  0     1  0  0  0  0  0999 V2000
    9.8078   -6.2869    0.0000 F   0  0  0  0  0  0  0  0  0  0  0  0
    2.3644   -5.5085    0.0000 O   0  0  0  0  0  0  0  0  0  0  0  0
    3.7657   -6.5266    0.0000 O   0  0  0  0  0  0  0  0  0  0  0  0
    6.8508    5.9299    0.0000 O   0  0  0  0  0  0  0  0  0  0  0  0
    4.9413   -4.9085    0.0000 N   0  0  3  0  0  0  0  0  0  0  0  0
    7.3900   -3.0721    0.0000 N   0  0  0  0  0  0  0  0  0  0  0  0
    6.5809    0.5157    0.0000 N   0  0  0  0  0  0  0  0  0  0  0  0
    6.8900    1.4667    0.0000 N   0  0  0  0  0  0  0  0  0  0  0  0
    6.5239   -4.5721    0.0000 C   0  0  2  0  0  0  0  0  0  0  0  0
    6.4194   -5.5666    0.0000 C   0  0  2  0  0  0  0  0  0  0  0  0
    5.6104   -4.1654    0.0000 C   0  0  0  0  0  0  0  0  0  0  0  0
    5.4413   -5.7746    0.0000 C   0  0  0  0  0  0  0  0  0  0  0  0
    7.3900   -4.0721    0.0000 C   0  0  0  0  0  0  0  0  0  0  0  0
    3.9467   -4.8040    0.0000 C   0  0  2  0  0  0  0  0  0  0  0  0
    3.5400   -3.8905    0.0000 C   0  0  0  0  0  0  0  0  0  0  0  0
    7.1626   -6.2358    0.0000 C   0  0  0  0  0  0  0  0  0  0  0  0
    6.5239   -2.5721    0.0000 C   0  0  0  0  0  0  0  0  0  0  0  0
    8.2560   -2.5721    0.0000 C   0  0  0  0  0  0  0  0  0  0  0  0
    7.3900   -1.0721    0.0000 C   0  0  0  0  0  0  0  0  0  0  0  0
    6.5239   -1.5721    0.0000 C   0  0  0  0  0  0  0  0  0  0  0  0
    8.2560   -1.5721    0.0000 C   0  0  0  0  0  0  0  0  0  0  0  0
    3.3590   -5.6130    0.0000 C   0  0  0  0  0  0  0  0  0  0  0  0
    3.1333   -2.9769    0.0000 C   0  0  0  0  0  0  0  0  0  0  0  0
    2.6264   -4.2972    0.0000 C   0  0  0  0  0  0  0  0  0  0  0  0
    4.4535   -3.4837    0.0000 C   0  0  0  0  0  0  0  0  0  0  0  0
    7.3900   -0.0721    0.0000 C   0  0  0  0  0  0  0  0  0  0  0  0
    8.1136   -5.9268    0.0000 C   0  0  0  0  0  0  0  0  0  0  0  0
    6.9546   -7.2139    0.0000 C   0  0  0  0  0  0  0  0  0  0  0  0
    8.1990    0.5157    0.0000 C   0  0  0  0  0  0  0  0  0  0  0  0
    8.8568   -6.5959    0.0000 C   0  0  0  0  0  0  0  0  0  0  0  0
    7.6978   -7.8831    0.0000 C   0  0  0  0  0  0  0  0  0  0  0  0
    8.6488   -7.5740    0.0000 C   0  0  0  0  0  0  0  0  0  0  0  0
    7.8900    1.4667    0.0000 C   0  0  0  0  0  0  0  0  0  0  0  0
    5.6299    0.2066    0.0000 C   0  0  0  0  0  0  0  0  0  0  0  0
    8.4777    2.2757    0.0000 C   0  0  0  0  0  0  0  0  0  0  0  0
    7.4386    6.7389    0.0000 C   0  0  0  0  0  0  0  0  0  0  0  0
    4.8867    0.8758    0.0000 C   0  0  0  0  0  0  0  0  0  0  0  0
    8.4263    6.8954    0.0000 C   0  0  0  0  0  0  0  0  0  0  0  0
    7.2822    7.7266    0.0000 C   0  0  0  0  0  0  0  0  0  0  0  0
    8.2698    7.8831    0.0000 C   0  0  0  0  0  0  0  0  0  0  0  0
    8.0710    3.1893    0.0000 C   0  0  0  0  0  0  0  0  0  0  0  0
    7.0765    3.2938    0.0000 C   0  0  0  0  0  0  0  0  0  0  0  0
    8.6588    3.9983    0.0000 C   0  0  0  0  0  0  0  0  0  0  0  0
    7.2575    5.0164    0.0000 C   0  0  0  0  0  0  0  0  0  0  0  0
    6.6698    4.2074    0.0000 C   0  0  0  0  0  0  0  0  0  0  0  0
    8.2520    4.9118    0.0000 C   0  0  0  0  0  0  0  0  0  0  0  0
    7.0439   -4.9098    0.0000 H   0  0  0  0  0  0  0  0  0  0  0  0
    6.9982   -5.3445    0.0000 H   0  0  0  0  0  0  0  0  0  0  0  0
    5.9204   -3.6284    0.0000 H   0  0  0  0  0  0  0  0  0  0  0  0
    5.1088   -3.8010    0.0000 H   0  0  0  0  0  0  0  0  0  0  0  0
    4.8749   -6.0267    0.0000 H   0  0  0  0  0  0  0  0  0  0  0  0
    5.6328   -6.3642    0.0000 H   0  0  0  0  0  0  0  0  0  0  0  0
    7.6020   -4.6547    0.0000 H   0  0  0  0  0  0  0  0  0  0  0  0
    8.0005   -3.9645    0.0000 H   0  0  0  0  0  0  0  0  0  0  0  0
    4.1989   -5.3704    0.0000 H   0  0  0  0  0  0  0  0  0  0  0  0
    5.9134   -2.4645    0.0000 H   0  0  0  0  0  0  0  0  0  0  0  0
    6.3119   -3.1547    0.0000 H   0  0  0  0  0  0  0  0  0  0  0  0
    8.4680   -3.1547    0.0000 H   0  0  0  0  0  0  0  0  0  0  0  0
    8.8666   -2.4645    0.0000 H   0  0  0  0  0  0  0  0  0  0  0  0
    7.9269   -0.7621    0.0000 H   0  0  0  0  0  0  0  0  0  0  0  0
    6.3119   -0.9895    0.0000 H   0  0  0  0  0  0  0  0  0  0  0  0
    5.9134   -1.6798    0.0000 H   0  0  0  0  0  0  0  0  0  0  0  0
    8.8666   -1.6798    0.0000 H   0  0  0  0  0  0  0  0  0  0  0  0
    8.4680   -0.9895    0.0000 H   0  0  0  0  0  0  0  0  0  0  0  0
    3.6997   -2.7247    0.0000 H   0  0  0  0  0  0  0  0  0  0  0  0
    2.8811   -2.4105    0.0000 H   0  0  0  0  0  0  0  0  0  0  0  0
    2.5669   -3.2291    0.0000 H   0  0  0  0  0  0  0  0  0  0  0  0
    2.3743   -3.7308    0.0000 H   0  0  0  0  0  0  0  0  0  0  0  0
    2.0600   -4.5494    0.0000 H   0  0  0  0  0  0  0  0  0  0  0  0
    2.8786   -4.8636    0.0000 H   0  0  0  0  0  0  0  0  0  0  0  0
    4.7057   -4.0501    0.0000 H   0  0  0  0  0  0  0  0  0  0  0  0
    5.0199   -3.2316    0.0000 H   0  0  0  0  0  0  0  0  0  0  0  0
    4.2014   -2.9173    0.0000 H   0  0  0  0  0  0  0  0  0  0  0  0
    8.2425   -5.3203    0.0000 H   0  0  0  0  0  0  0  0  0  0  0  0
    6.3650   -7.4055    0.0000 H   0  0  0  0  0  0  0  0  0  0  0  0
    8.7886    0.3241    0.0000 H   0  0  0  0  0  0  0  0  0  0  0  0
    7.5689   -8.4895    0.0000 H   0  0  0  0  0  0  0  0  0  0  0  0
    2.0000   -6.0101    0.0000 H   0  0  0  0  0  0  0  0  0  0  0  0
    9.1096   -7.9889    0.0000 H   0  0  0  0  0  0  0  0  0  0  0  0
    5.1413   -0.1751    0.0000 H   0  0  0  0  0  0  0  0  0  0  0  0
    5.9210   -0.3408    0.0000 H   0  0  0  0  0  0  0  0  0  0  0  0
    8.9084    1.8297    0.0000 H   0  0  0  0  0  0  0  0  0  0  0  0
    8.9918    2.6224    0.0000 H   0  0  0  0  0  0  0  0  0  0  0  0
    7.7625    6.2103    0.0000 H   0  0  0  0  0  0  0  0  0  0  0  0
    8.5233    6.2830    0.0000 H   0  0  0  0  0  0  0  0  0  0  0  0
    9.0386    6.9924    0.0000 H   0  0  0  0  0  0  0  0  0  0  0  0
    7.1852    8.3390    0.0000 H   0  0  0  0  0  0  0  0  0  0  0  0
    6.6698    7.6296    0.0000 H   0  0  0  0  0  0  0  0  0  0  0  0
    8.8822    7.9800    0.0000 H   0  0  0  0  0  0  0  0  0  0  0  0
    8.1728    8.4954    0.0000 H   0  0  0  0  0  0  0  0  0  0  0  0
    5.3016    1.3365    0.0000 H   0  0  0  0  0  0  0  0  0  0  0  0
    4.4260    1.2906    0.0000 H   0  0  0  0  0  0  0  0  0  0  0  0
    4.4719    0.4150    0.0000 H   0  0  0  0  0  0  0  0  0  0  0  0
    6.7121    2.7922    0.0000 H   0  0  0  0  0  0  0  0  0  0  0  0
    9.2754    3.9335    0.0000 H   0  0  0  0  0  0  0  0  0  0  0  0
    6.0531    4.2722    0.0000 H   0  0  0  0  0  0  0  0  0  0  0  0
    8.6165    5.4134    0.0000 H   0  0  0  0  0  0  0  0  0  0  0  0
  1 30  1  0  0  0  0
  2 22  1  0  0  0  0
  2 78  1  0  0  0  0
  3 22  2  0  0  0  0
  4 36  1  0  0  0  0
  4 44  1  0  0  0  0
  5 11  1  0  0  0  0
  5 12  1  0  0  0  0
  5 14  1  0  0  0  0
  6 13  1  0  0  0  0
  6 17  1  0  0  0  0
  6 18  1  0  0  0  0
  7  8  1  0  0  0  0
  7 26  1  0  0  0  0
  7 34  1  0  0  0  0
  8 33  2  0  0  0  0
  9 10  1  0  0  0  0
  9 11  1  0  0  0  0
  9 13  1  6  0  0  0
  9 47  1  0  0  0  0
 10 12  1  0  0  0  0
 10 16  1  1  0  0  0
 10 48  1  0  0  0  0
 11 49  1  0  0  0  0
 11 50  1  0  0  0  0
 12 51  1  0  0  0  0
 12 52  1  0  0  0  0
 13 53  1  0  0  0  0
 13 54  1  0  0  0  0
 14 15  1  0  0  0  0
 14 22  1  1  0  0  0
 14 55  1  0  0  0  0
 15 23  1  0  0  0  0
 15 24  1  0  0  0  0
 15 25  1  0  0  0  0
 16 27  2  0  0  0  0
 16 28  1  0  0  0  0
 17 20  1  0  0  0  0
 17 56  1  0  0  0  0
 17 57  1  0  0  0  0
 18 21  1  0  0  0  0
 18 58  1  0  0  0  0
 18 59  1  0  0  0  0
 19 20  1  0  0  0  0
 19 21  1  0  0  0  0
 19 26  1  0  0  0  0
 19 60  1  0  0  0  0
 20 61  1  0  0  0  0
 20 62  1  0  0  0  0
 21 63  1  0  0  0  0
 21 64  1  0  0  0  0
 23 65  1  0  0  0  0
 23 66  1  0  0  0  0
 23 67  1  0  0  0  0
 24 68  1  0  0  0  0
 24 69  1  0  0  0  0
 24 70  1  0  0  0  0
 25 71  1  0  0  0  0
 25 72  1  0  0  0  0
 25 73  1  0  0  0  0
 26 29  2  0  0  0  0
 27 30  1  0  0  0  0
 27 74  1  0  0  0  0
 28 31  2  0  0  0  0
 28 75  1  0  0  0  0
 29 33  1  0  0  0  0
 29 76  1  0  0  0  0
 30 32  2  0  0  0  0
 31 32  1  0  0  0  0
 31 77  1  0  0  0  0
 32 79  1  0  0  0  0
 33 35  1  0  0  0  0
 34 37  1  0  0  0  0
 34 80  1  0  0  0  0
 34 81  1  0  0  0  0
 35 41  1  0  0  0  0
 35 82  1  0  0  0  0
 35 83  1  0  0  0  0
 36 38  1  0  0  0  0
 36 39  1  0  0  0  0
 36 84  1  0  0  0  0
 37 91  1  0  0  0  0
 37 92  1  0  0  0  0
 37 93  1  0  0  0  0
 38 40  1  0  0  0  0
 38 85  1  0  0  0  0
 38 86  1  0  0  0  0
 39 40  1  0  0  0  0
 39 87  1  0  0  0  0
 39 88  1  0  0  0  0
 40 89  1  0  0  0  0
 40 90  1  0  0  0  0
 41 42  2  0  0  0  0
 41 43  1  0  0  0  0
 42 45  1  0  0  0  0
 42 94  1  0  0  0  0
 43 46  2  0  0  0  0
 43 95  1  0  0  0  0
 44 45  2  0  0  0  0
 44 46  1  0  0  0  0
 45 96  1  0  0  0  0
 46 97  1  0  0  0  0
M  END
> <PUBCHEM_COMPOUND_CID>
516275
> <PUBCHEM_COMPOUND_CANONICALIZED>
1
> <PUBCHEM_CACTVS_COMPLEXITY>
974
> <PUBCHEM_CACTVS_HBOND_ACCEPTOR>
7
> <PUBCHEM_CACTVS_HBOND_DONOR>
1
> <PUBCHEM_CACTVS_ROTATABLE_BOND>
12
> <PUBCHEM_CACTVS_SUBSKEYS>
AAADcfB/sQAAAAAAAAAAAAAAAABgAWLAAAA8YIAAAAAAAAAB0AAAHwAICAAADzzhng4yjpMIBgCqAyTyTACSDAAhogAY2CG+bJgOJjLE8fuG/CjkyBHY6AeQwOAPoAAAAAAAAABAAAAAAAAAAAAAAAAAAA==
> <PUBCHEM_IUPAC_OPENEYE_NAME>
(2R)-2-[(3S,4S)-3-[[4-[5-[[4-(cyclobutoxy)phenyl]methyl]-2-ethyl-pyrazol-3-yl]-1-piperidyl]methyl]-4-(3-fluorophenyl)pyrrolidin-1-yl]-3,3-dimethyl-butanoic acid
> <PUBCHEM_IUPAC_CAS_NAME>
(2R)-2-[(3S,4S)-3-[[4-[5-[(4-cyclobutyloxyphenyl)methyl]-2-ethyl-3-pyrazolyl]-1-piperidinyl]methyl]-4-(3-fluorophenyl)-1-pyrrolidinyl]-3,3-dimethylbutanoic acid
> <PUBCHEM_IUPAC_NAME_MARKUP>
(2<I>R</I>)-2-[(3<I>S</I>,4<I>S</I>)-3-[[4-[5-[(4-cyclobutyloxyphenyl)methyl]-2-ethylpyrazol-3-yl]piperidin-1-yl]methyl]-4-(3-fluorophenyl)pyrrolidin-1-yl]-3,3-dimethylbutanoic acid
> <PUBCHEM_IUPAC_NAME>
(2R)-2-[(3S,4S)-3-[[4-[5-[(4-cyclobutyloxyphenyl)methyl]-2-ethylpyrazol-3-yl]piperidin-1-yl]methyl]-4-(3-fluorophenyl)pyrrolidin-1-yl]-3,3-dimethylbutanoic acid
> <PUBCHEM_IUPAC_SYSTEMATIC_NAME>
(2R)-2-[(3S,4S)-3-[[4-[5-[(4-cyclobutyloxyphenyl)methyl]-2-ethyl-pyrazol-3-yl]piperidin-1-yl]methyl]-4-(3-fluorophenyl)pyrrolidin-1-yl]-3,3-dimethyl-butanoic acid
> <PUBCHEM_IUPAC_TRADITIONAL_NAME>
(2R)-2-[(3S,4S)-3-[[4-[5-[4-(cyclobutoxy)benzyl]-2-ethyl-pyrazol-3-yl]piperidino]methyl]-4-(3-fluorophenyl)pyrrolidino]-3,3-dimethyl-butyric acid
> <PUBCHEM_IUPAC_INCHI>
InChI=1S/C38H51FN4O3/c1-5-43-35(22-31(40-43)20-26-12-14-33(15-13-26)46-32-10-7-11-32)27-16-18-41(19-17-27)23-29-24-42(36(37(44)45)38(2,3)4)25-34(29)28-8-6-9-30(39)21-28/h6,8-9,12-15,21-22,27,29,32,34,36H,5,7,10-11,16-20,23-25H2,1-4H3,(H,44,45)/t29-,34+,36-/m0/s1
> <PUBCHEM_IUPAC_INCHIKEY>
OTAQHXMWYBKCMQ-FAQYSXNFSA-N
> <PUBCHEM_XLOGP3_AA>
5
> <PUBCHEM_EXACT_MASS>
630.39451966
> <PUBCHEM_MOLECULAR_FORMULA>
C38H51FN4O3
> <PUBCHEM_MOLECULAR_WEIGHT>
630.8
> <PUBCHEM_OPENEYE_CAN_SMILES>
CCN1C(=CC(=N1)CC2=CC=C(C=C2)OC3CCC3)C4CCN(CC4)CC5CN(CC5C6=CC(=CC=C6)F)C(C(=O)O)C(C)(C)C
> <PUBCHEM_OPENEYE_ISO_SMILES>
CCN1C(=CC(=N1)CC2=CC=C(C=C2)OC3CCC3)C4CCN(CC4)C[C@H]5CN(C[C@@H]5C6=CC(=CC=C6)F)[C@@H](C(=O)O)C(C)(C)C
> <PUBCHEM_CACTVS_TPSA>
70.8
> <PUBCHEM_MONOISOTOPIC_WEIGHT>
630.39451966
> <PUBCHEM_TOTAL_CHARGE>
0
> <PUBCHEM_HEAVY_ATOM_COUNT>
46
> <PUBCHEM_ATOM_DEF_STEREO_COUNT>
3
> <PUBCHEM_ATOM_UDEF_STEREO_COUNT>
0
> <PUBCHEM_BOND_DEF_STEREO_COUNT>
0
> <PUBCHEM_BOND_UDEF_STEREO_COUNT>
0
> <PUBCHEM_ISOTOPIC_ATOM_COUNT>
0
> <PUBCHEM_COMPONENT_COUNT>
1
> <PUBCHEM_CACTVS_TAUTO_COUNT>
-1
> <PUBCHEM_COORDINATE_TYPE>
1
5
255
> <PUBCHEM_BONDANNOTATIONS>
10  16  5
14  22  5
16  27  8
16  28  8
26  29  8
27  30  8
28  31  8
29  33  8
30  32  8
31  32  8
41  42  8
41  43  8
42  45  8
43  46  8
44  45  8
44  46  8
7  26  8
7  8  8
8  33  8
9  13  6
$$$$
