516220
  -OEChem-10302200282D
100105  0     1  0  0  0  0  0999 V2000
    7.7132   -9.1704    0.0000 F   0  0  0  0  0  0  0  0  0  0  0  0
    2.7688   -4.0951    0.0000 O   0  0  0  0  0  0  0  0  0  0  0  0
    4.3511   -3.3906    0.0000 O   0  0  0  0  0  0  0  0  0  0  0  0
    7.0742    5.6207    0.0000 O   0  0  0  0  0  0  0  0  0  0  0  0
    5.1646   -5.2177    0.0000 N   0  0  3  0  0  0  0  0  0  0  0  0
    7.6133   -3.3813    0.0000 N   0  0  0  0  0  0  0  0  0  0  0  0
    6.8043    0.2065    0.0000 N   0  0  0  0  0  0  0  0  0  0  0  0
    7.1133    1.1575    0.0000 N   0  0  0  0  0  0  0  0  0  0  0  0
    6.7473   -4.8813    0.0000 C   0  0  2  0  0  0  0  0  0  0  0  0
    6.6428   -5.8758    0.0000 C   0  0  2  0  0  0  0  0  0  0  0  0
    5.8338   -4.4746    0.0000 C   0  0  0  0  0  0  0  0  0  0  0  0
    5.6646   -6.0837    0.0000 C   0  0  0  0  0  0  0  0  0  0  0  0
    7.6133   -4.3813    0.0000 C   0  0  0  0  0  0  0  0  0  0  0  0
    4.1701   -5.1132    0.0000 C   0  0  2  0  0  0  0  0  0  0  0  0
    7.3859   -6.5450    0.0000 C   0  0  0  0  0  0  0  0  0  0  0  0
    6.7473   -2.8813    0.0000 C   0  0  0  0  0  0  0  0  0  0  0  0
    8.4793   -2.8813    0.0000 C   0  0  0  0  0  0  0  0  0  0  0  0
    7.6133   -1.3813    0.0000 C   0  0  0  0  0  0  0  0  0  0  0  0
    3.5823   -5.9222    0.0000 C   0  0  2  0  0  0  0  0  0  0  0  0
    6.7473   -1.8813    0.0000 C   0  0  0  0  0  0  0  0  0  0  0  0
    8.4793   -1.8813    0.0000 C   0  0  0  0  0  0  0  0  0  0  0  0
    3.7634   -4.1996    0.0000 C   0  0  0  0  0  0  0  0  0  0  0  0
    2.5878   -5.8177    0.0000 C   0  0  0  0  0  0  0  0  0  0  0  0
    7.6133   -0.3813    0.0000 C   0  0  0  0  0  0  0  0  0  0  0  0
    7.1780   -7.5231    0.0000 C   0  0  0  0  0  0  0  0  0  0  0  0
    8.3370   -6.2359    0.0000 C   0  0  0  0  0  0  0  0  0  0  0  0
    3.9890   -6.8358    0.0000 C   0  0  0  0  0  0  0  0  0  0  0  0
    8.4223    0.2065    0.0000 C   0  0  0  0  0  0  0  0  0  0  0  0
    2.0000   -6.6267    0.0000 C   0  0  0  0  0  0  0  0  0  0  0  0
    7.9211   -8.1922    0.0000 C   0  0  0  0  0  0  0  0  0  0  0  0
    9.0801   -6.9051    0.0000 C   0  0  0  0  0  0  0  0  0  0  0  0
    8.8722   -7.8832    0.0000 C   0  0  0  0  0  0  0  0  0  0  0  0
    8.1133    1.1575    0.0000 C   0  0  0  0  0  0  0  0  0  0  0  0
    5.8532   -0.1025    0.0000 C   0  0  0  0  0  0  0  0  0  0  0  0
    8.7011    1.9666    0.0000 C   0  0  0  0  0  0  0  0  0  0  0  0
    5.1101    0.5666    0.0000 C   0  0  0  0  0  0  0  0  0  0  0  0
    8.2944    2.8801    0.0000 C   0  0  0  0  0  0  0  0  0  0  0  0
    7.2998    2.9846    0.0000 C   0  0  0  0  0  0  0  0  0  0  0  0
    8.8822    3.6891    0.0000 C   0  0  0  0  0  0  0  0  0  0  0  0
    6.8931    3.8982    0.0000 C   0  0  0  0  0  0  0  0  0  0  0  0
    8.4754    4.6027    0.0000 C   0  0  0  0  0  0  0  0  0  0  0  0
    7.4809    4.7072    0.0000 C   0  0  0  0  0  0  0  0  0  0  0  0
    7.6619    6.4298    0.0000 C   0  0  0  0  0  0  0  0  0  0  0  0
    7.2552    7.3433    0.0000 C   0  0  0  0  0  0  0  0  0  0  0  0
    6.2607    7.4478    0.0000 C   0  0  0  0  0  0  0  0  0  0  0  0
    7.8430    8.1523    0.0000 C   0  0  0  0  0  0  0  0  0  0  0  0
    5.8539    8.3614    0.0000 C   0  0  0  0  0  0  0  0  0  0  0  0
    7.4362    9.0659    0.0000 C   0  0  0  0  0  0  0  0  0  0  0  0
    6.4417    9.1704    0.0000 C   0  0  0  0  0  0  0  0  0  0  0  0
    6.7148   -4.2622    0.0000 H   0  0  0  0  0  0  0  0  0  0  0  0
    6.4823   -6.4747    0.0000 H   0  0  0  0  0  0  0  0  0  0  0  0
    6.1437   -3.9376    0.0000 H   0  0  0  0  0  0  0  0  0  0  0  0
    5.3322   -4.1101    0.0000 H   0  0  0  0  0  0  0  0  0  0  0  0
    5.0982   -6.3359    0.0000 H   0  0  0  0  0  0  0  0  0  0  0  0
    5.8562   -6.6734    0.0000 H   0  0  0  0  0  0  0  0  0  0  0  0
    7.8254   -4.9639    0.0000 H   0  0  0  0  0  0  0  0  0  0  0  0
    8.2239   -4.2736    0.0000 H   0  0  0  0  0  0  0  0  0  0  0  0
    4.5345   -4.6116    0.0000 H   0  0  0  0  0  0  0  0  0  0  0  0
    6.1367   -2.7736    0.0000 H   0  0  0  0  0  0  0  0  0  0  0  0
    6.5352   -3.4639    0.0000 H   0  0  0  0  0  0  0  0  0  0  0  0
    8.6914   -3.4639    0.0000 H   0  0  0  0  0  0  0  0  0  0  0  0
    9.0899   -2.7736    0.0000 H   0  0  0  0  0  0  0  0  0  0  0  0
    7.0764   -1.0713    0.0000 H   0  0  0  0  0  0  0  0  0  0  0  0
    4.1989   -5.9870    0.0000 H   0  0  0  0  0  0  0  0  0  0  0  0
    6.5352   -1.2987    0.0000 H   0  0  0  0  0  0  0  0  0  0  0  0
    6.1367   -1.9890    0.0000 H   0  0  0  0  0  0  0  0  0  0  0  0
    9.0899   -1.9890    0.0000 H   0  0  0  0  0  0  0  0  0  0  0  0
    8.6914   -1.2987    0.0000 H   0  0  0  0  0  0  0  0  0  0  0  0
    2.7587   -5.2217    0.0000 H   0  0  0  0  0  0  0  0  0  0  0  0
    2.0305   -5.5459    0.0000 H   0  0  0  0  0  0  0  0  0  0  0  0
    6.5883   -7.7147    0.0000 H   0  0  0  0  0  0  0  0  0  0  0  0
    8.4659   -5.6295    0.0000 H   0  0  0  0  0  0  0  0  0  0  0  0
    3.4226   -7.0879    0.0000 H   0  0  0  0  0  0  0  0  0  0  0  0
    4.2412   -7.4022    0.0000 H   0  0  0  0  0  0  0  0  0  0  0  0
    4.5554   -6.5836    0.0000 H   0  0  0  0  0  0  0  0  0  0  0  0
    9.0120    0.0149    0.0000 H   0  0  0  0  0  0  0  0  0  0  0  0
    1.4984   -6.2623    0.0000 H   0  0  0  0  0  0  0  0  0  0  0  0
    1.6356   -7.1283    0.0000 H   0  0  0  0  0  0  0  0  0  0  0  0
    2.5016   -6.9911    0.0000 H   0  0  0  0  0  0  0  0  0  0  0  0
    9.6698   -6.7135    0.0000 H   0  0  0  0  0  0  0  0  0  0  0  0
    9.3330   -8.2981    0.0000 H   0  0  0  0  0  0  0  0  0  0  0  0
    2.5167   -3.5287    0.0000 H   0  0  0  0  0  0  0  0  0  0  0  0
    5.3647   -0.4842    0.0000 H   0  0  0  0  0  0  0  0  0  0  0  0
    6.1443   -0.6500    0.0000 H   0  0  0  0  0  0  0  0  0  0  0  0
    9.1318    1.5206    0.0000 H   0  0  0  0  0  0  0  0  0  0  0  0
    9.2151    2.3132    0.0000 H   0  0  0  0  0  0  0  0  0  0  0  0
    5.5250    1.0273    0.0000 H   0  0  0  0  0  0  0  0  0  0  0  0
    4.6494    0.9815    0.0000 H   0  0  0  0  0  0  0  0  0  0  0  0
    4.6952    0.1058    0.0000 H   0  0  0  0  0  0  0  0  0  0  0  0
    6.9354    2.4830    0.0000 H   0  0  0  0  0  0  0  0  0  0  0  0
    9.4988    3.6243    0.0000 H   0  0  0  0  0  0  0  0  0  0  0  0
    6.2765    3.9630    0.0000 H   0  0  0  0  0  0  0  0  0  0  0  0
    8.8398    5.1043    0.0000 H   0  0  0  0  0  0  0  0  0  0  0  0
    8.0926    5.9838    0.0000 H   0  0  0  0  0  0  0  0  0  0  0  0
    8.1759    6.7764    0.0000 H   0  0  0  0  0  0  0  0  0  0  0  0
    5.8962    6.9462    0.0000 H   0  0  0  0  0  0  0  0  0  0  0  0
    8.4596    8.0875    0.0000 H   0  0  0  0  0  0  0  0  0  0  0  0
    5.2373    8.4262    0.0000 H   0  0  0  0  0  0  0  0  0  0  0  0
    7.8007    9.5674    0.0000 H   0  0  0  0  0  0  0  0  0  0  0  0
    6.1896    9.7368    0.0000 H   0  0  0  0  0  0  0  0  0  0  0  0
  1 30  1  0  0  0  0
  2 22  1  0  0  0  0
  2 82  1  0  0  0  0
  3 22  2  0  0  0  0
  4 42  1  0  0  0  0
  4 43  1  0  0  0  0
  5 11  1  0  0  0  0
  5 12  1  0  0  0  0
  5 14  1  0  0  0  0
  6 13  1  0  0  0  0
  6 16  1  0  0  0  0
  6 17  1  0  0  0  0
  7  8  1  0  0  0  0
  7 24  1  0  0  0  0
  7 34  1  0  0  0  0
  8 33  2  0  0  0  0
  9 10  1  0  0  0  0
  9 11  1  0  0  0  0
  9 13  1  6  0  0  0
  9 50  1  0  0  0  0
 10 12  1  0  0  0  0
 10 15  1  1  0  0  0
 10 51  1  0  0  0  0
 11 52  1  0  0  0  0
 11 53  1  0  0  0  0
 12 54  1  0  0  0  0
 12 55  1  0  0  0  0
 13 56  1  0  0  0  0
 13 57  1  0  0  0  0
 14 19  1  0  0  0  0
 14 22  1  6  0  0  0
 14 58  1  0  0  0  0
 15 25  2  0  0  0  0
 15 26  1  0  0  0  0
 16 20  1  0  0  0  0
 16 59  1  0  0  0  0
 16 60  1  0  0  0  0
 17 21  1  0  0  0  0
 17 61  1  0  0  0  0
 17 62  1  0  0  0  0
 18 20  1  0  0  0  0
 18 21  1  0  0  0  0
 18 24  1  0  0  0  0
 18 63  1  0  0  0  0
 19 23  1  0  0  0  0
 19 27  1  1  0  0  0
 19 64  1  0  0  0  0
 20 65  1  0  0  0  0
 20 66  1  0  0  0  0
 21 67  1  0  0  0  0
 21 68  1  0  0  0  0
 23 29  1  0  0  0  0
 23 69  1  0  0  0  0
 23 70  1  0  0  0  0
 24 28  2  0  0  0  0
 25 30  1  0  0  0  0
 25 71  1  0  0  0  0
 26 31  2  0  0  0  0
 26 72  1  0  0  0  0
 27 73  1  0  0  0  0
 27 74  1  0  0  0  0
 27 75  1  0  0  0  0
 28 33  1  0  0  0  0
 28 76  1  0  0  0  0
 29 77  1  0  0  0  0
 29 78  1  0  0  0  0
 29 79  1  0  0  0  0
 30 32  2  0  0  0  0
 31 32  1  0  0  0  0
 31 80  1  0  0  0  0
 32 81  1  0  0  0  0
 33 35  1  0  0  0  0
 34 36  1  0  0  0  0
 34 83  1  0  0  0  0
 34 84  1  0  0  0  0
 35 37  1  0  0  0  0
 35 85  1  0  0  0  0
 35 86  1  0  0  0  0
 36 87  1  0  0  0  0
 36 88  1  0  0  0  0
 36 89  1  0  0  0  0
 37 38  2  0  0  0  0
 37 39  1  0  0  0  0
 38 40  1  0  0  0  0
 38 90  1  0  0  0  0
 39 41  2  0  0  0  0
 39 91  1  0  0  0  0
 40 42  2  0  0  0  0
 40 92  1  0  0  0  0
 41 42  1  0  0  0  0
 41 93  1  0  0  0  0
 43 44  1  0  0  0  0
 43 94  1  0  0  0  0
 43 95  1  0  0  0  0
 44 45  2  0  0  0  0
 44 46  1  0  0  0  0
 45 47  1  0  0  0  0
 45 96  1  0  0  0  0
 46 48  2  0  0  0  0
 46 97  1  0  0  0  0
 47 49  2  0  0  0  0
 47 98  1  0  0  0  0
 48 49  1  0  0  0  0
 48 99  1  0  0  0  0
 49100  1  0  0  0  0
M  END
> <PUBCHEM_COMPOUND_CID>
516220
> <PUBCHEM_COMPOUND_CANONICALIZED>
1
> <PUBCHEM_CACTVS_COMPLEXITY>
997
> <PUBCHEM_CACTVS_HBOND_ACCEPTOR>
7
> <PUBCHEM_CACTVS_HBOND_DONOR>
1
> <PUBCHEM_CACTVS_ROTATABLE_BOND>
14
> <PUBCHEM_CACTVS_SUBSKEYS>
AAADcfB/sQAAAAAAAAAAAAAAAAAAAWLAAAA8YMEAAAAAAAAB1AAAHwAICAAADSzhng4yjpMIBgCqAyTyTACSDAAhogAY2CG+bJgOJjLE8fuG/CjkyBHY6AeYwOAOoAAAAAAAAABAAAAAAAAAAAAAAAAAAA==
> <PUBCHEM_IUPAC_OPENEYE_NAME>
(2R,3S)-2-[(3S,4S)-3-[[4-[5-[(4-benzyloxyphenyl)methyl]-2-ethyl-pyrazol-3-yl]-1-piperidyl]methyl]-4-(3-fluorophenyl)pyrrolidin-1-yl]-3-methyl-pentanoic acid
> <PUBCHEM_IUPAC_CAS_NAME>
(2R,3S)-2-[(3S,4S)-3-[[4-[2-ethyl-5-[(4-phenylmethoxyphenyl)methyl]-3-pyrazolyl]-1-piperidinyl]methyl]-4-(3-fluorophenyl)-1-pyrrolidinyl]-3-methylpentanoic acid
> <PUBCHEM_IUPAC_NAME_MARKUP>
(2<I>R</I>,3<I>S</I>)-2-[(3<I>S</I>,4<I>S</I>)-3-[[4-[2-ethyl-5-[(4-phenylmethoxyphenyl)methyl]pyrazol-3-yl]piperidin-1-yl]methyl]-4-(3-fluorophenyl)pyrrolidin-1-yl]-3-methylpentanoic acid
> <PUBCHEM_IUPAC_NAME>
(2R,3S)-2-[(3S,4S)-3-[[4-[2-ethyl-5-[(4-phenylmethoxyphenyl)methyl]pyrazol-3-yl]piperidin-1-yl]methyl]-4-(3-fluorophenyl)pyrrolidin-1-yl]-3-methylpentanoic acid
> <PUBCHEM_IUPAC_SYSTEMATIC_NAME>
(2R,3S)-2-[(3S,4S)-3-[[4-[2-ethyl-5-[(4-phenylmethoxyphenyl)methyl]pyrazol-3-yl]piperidin-1-yl]methyl]-4-(3-fluorophenyl)pyrrolidin-1-yl]-3-methyl-pentanoic acid
> <PUBCHEM_IUPAC_TRADITIONAL_NAME>
(2R,3S)-2-[(3S,4S)-3-[[4-[5-(4-benzoxybenzyl)-2-ethyl-pyrazol-3-yl]piperidino]methyl]-4-(3-fluorophenyl)pyrrolidino]-3-methyl-valeric acid
> <PUBCHEM_IUPAC_INCHI>
InChI=1S/C41H51FN4O3/c1-4-29(3)40(41(47)48)45-26-34(38(27-45)33-12-9-13-35(42)23-33)25-44-20-18-32(19-21-44)39-24-36(43-46(39)5-2)22-30-14-16-37(17-15-30)49-28-31-10-7-6-8-11-31/h6-17,23-24,29,32,34,38,40H,4-5,18-22,25-28H2,1-3H3,(H,47,48)/t29-,34-,38+,40+/m0/s1
> <PUBCHEM_IUPAC_INCHIKEY>
HLZAJLBSYWFNOU-DDEBSJFKSA-N
> <PUBCHEM_XLOGP3_AA>
5.5
> <PUBCHEM_EXACT_MASS>
666.39451966
> <PUBCHEM_MOLECULAR_FORMULA>
C41H51FN4O3
> <PUBCHEM_MOLECULAR_WEIGHT>
666.9
> <PUBCHEM_OPENEYE_CAN_SMILES>
CCC(C)C(C(=O)O)N1CC(C(C1)C2=CC(=CC=C2)F)CN3CCC(CC3)C4=CC(=NN4CC)CC5=CC=C(C=C5)OCC6=CC=CC=C6
> <PUBCHEM_OPENEYE_ISO_SMILES>
CC[C@H](C)[C@H](C(=O)O)N1C[C@@H]([C@H](C1)C2=CC(=CC=C2)F)CN3CCC(CC3)C4=CC(=NN4CC)CC5=CC=C(C=C5)OCC6=CC=CC=C6
> <PUBCHEM_CACTVS_TPSA>
70.8
> <PUBCHEM_MONOISOTOPIC_WEIGHT>
666.39451966
> <PUBCHEM_TOTAL_CHARGE>
0
> <PUBCHEM_HEAVY_ATOM_COUNT>
49
> <PUBCHEM_ATOM_DEF_STEREO_COUNT>
4
> <PUBCHEM_ATOM_UDEF_STEREO_COUNT>
0
> <PUBCHEM_BOND_DEF_STEREO_COUNT>
0
> <PUBCHEM_BOND_UDEF_STEREO_COUNT>
0
> <PUBCHEM_ISOTOPIC_ATOM_COUNT>
0
> <PUBCHEM_COMPONENT_COUNT>
1
> <PUBCHEM_CACTVS_TAUTO_COUNT>
-1
> <PUBCHEM_COORDINATE_TYPE>
1
5
255
> <PUBCHEM_BONDANNOTATIONS>
10  15  5
14  22  6
15  25  8
15  26  8
19  27  5
24  28  8
25  30  8
26  31  8
28  33  8
30  32  8
31  32  8
37  38  8
37  39  8
38  40  8
39  41  8
40  42  8
41  42  8
44  45  8
44  46  8
45  47  8
46  48  8
47  49  8
48  49  8
7  24  8
7  8  8
8  33  8
9  13  6
$$$$
