516225
  -OEChem-10302200282D
 87 91  0     1  0  0  0  0  0999 V2000
    7.7132   -7.6464    0.0000 F   0  0  0  0  0  0  0  0  0  0  0  0
    2.7688   -2.5711    0.0000 O   0  0  0  0  0  0  0  0  0  0  0  0
    4.3511   -1.8666    0.0000 O   0  0  0  0  0  0  0  0  0  0  0  0
    7.0742    7.1448    0.0000 O   0  0  0  0  0  0  0  0  0  0  0  0
    5.1646   -3.6937    0.0000 N   0  0  3  0  0  0  0  0  0  0  0  0
    7.6133   -1.8573    0.0000 N   0  0  0  0  0  0  0  0  0  0  0  0
    6.8043    1.7305    0.0000 N   0  0  0  0  0  0  0  0  0  0  0  0
    7.1133    2.6816    0.0000 N   0  0  0  0  0  0  0  0  0  0  0  0
    6.7473   -3.3573    0.0000 C   0  0  2  0  0  0  0  0  0  0  0  0
    6.6428   -4.3518    0.0000 C   0  0  2  0  0  0  0  0  0  0  0  0
    5.8338   -2.9505    0.0000 C   0  0  0  0  0  0  0  0  0  0  0  0
    5.6646   -4.5597    0.0000 C   0  0  0  0  0  0  0  0  0  0  0  0
    7.6133   -2.8573    0.0000 C   0  0  0  0  0  0  0  0  0  0  0  0
    4.1701   -3.5892    0.0000 C   0  0  2  0  0  0  0  0  0  0  0  0
    7.3859   -5.0209    0.0000 C   0  0  0  0  0  0  0  0  0  0  0  0
    6.7473   -1.3573    0.0000 C   0  0  0  0  0  0  0  0  0  0  0  0
    8.4793   -1.3573    0.0000 C   0  0  0  0  0  0  0  0  0  0  0  0
    7.6133    0.1427    0.0000 C   0  0  0  0  0  0  0  0  0  0  0  0
    3.5823   -4.3982    0.0000 C   0  0  2  0  0  0  0  0  0  0  0  0
    6.7473   -0.3573    0.0000 C   0  0  0  0  0  0  0  0  0  0  0  0
    8.4793   -0.3573    0.0000 C   0  0  0  0  0  0  0  0  0  0  0  0
    7.6133    1.1427    0.0000 C   0  0  0  0  0  0  0  0  0  0  0  0
    3.7634   -2.6756    0.0000 C   0  0  0  0  0  0  0  0  0  0  0  0
    2.5878   -4.2936    0.0000 C   0  0  0  0  0  0  0  0  0  0  0  0
    7.1780   -5.9991    0.0000 C   0  0  0  0  0  0  0  0  0  0  0  0
    8.3370   -4.7119    0.0000 C   0  0  0  0  0  0  0  0  0  0  0  0
    3.9890   -5.3117    0.0000 C   0  0  0  0  0  0  0  0  0  0  0  0
    8.4223    1.7305    0.0000 C   0  0  0  0  0  0  0  0  0  0  0  0
    2.0000   -5.1027    0.0000 C   0  0  0  0  0  0  0  0  0  0  0  0
    7.9211   -6.6682    0.0000 C   0  0  0  0  0  0  0  0  0  0  0  0
    9.0801   -5.3810    0.0000 C   0  0  0  0  0  0  0  0  0  0  0  0
    8.1133    2.6816    0.0000 C   0  0  0  0  0  0  0  0  0  0  0  0
    8.8722   -6.3592    0.0000 C   0  0  0  0  0  0  0  0  0  0  0  0
    5.8532    1.4215    0.0000 C   0  0  0  0  0  0  0  0  0  0  0  0
    8.7011    3.4906    0.0000 C   0  0  0  0  0  0  0  0  0  0  0  0
    5.1101    2.0906    0.0000 C   0  0  0  0  0  0  0  0  0  0  0  0
    8.2944    4.4041    0.0000 C   0  0  0  0  0  0  0  0  0  0  0  0
    7.2998    4.5087    0.0000 C   0  0  0  0  0  0  0  0  0  0  0  0
    8.8822    5.2131    0.0000 C   0  0  0  0  0  0  0  0  0  0  0  0
    6.8931    5.4222    0.0000 C   0  0  0  0  0  0  0  0  0  0  0  0
    8.4754    6.1267    0.0000 C   0  0  0  0  0  0  0  0  0  0  0  0
    7.4809    6.2312    0.0000 C   0  0  0  0  0  0  0  0  0  0  0  0
    7.2673   -3.6950    0.0000 H   0  0  0  0  0  0  0  0  0  0  0  0
    6.4823   -4.9507    0.0000 H   0  0  0  0  0  0  0  0  0  0  0  0
    6.1437   -2.4136    0.0000 H   0  0  0  0  0  0  0  0  0  0  0  0
    5.3322   -2.5861    0.0000 H   0  0  0  0  0  0  0  0  0  0  0  0
    5.0982   -4.8119    0.0000 H   0  0  0  0  0  0  0  0  0  0  0  0
    5.8562   -5.1494    0.0000 H   0  0  0  0  0  0  0  0  0  0  0  0
    7.8254   -3.4399    0.0000 H   0  0  0  0  0  0  0  0  0  0  0  0
    8.2239   -2.7496    0.0000 H   0  0  0  0  0  0  0  0  0  0  0  0
    4.5345   -3.0876    0.0000 H   0  0  0  0  0  0  0  0  0  0  0  0
    6.1367   -1.2496    0.0000 H   0  0  0  0  0  0  0  0  0  0  0  0
    6.5352   -1.9399    0.0000 H   0  0  0  0  0  0  0  0  0  0  0  0
    8.6914   -1.9399    0.0000 H   0  0  0  0  0  0  0  0  0  0  0  0
    9.0899   -1.2496    0.0000 H   0  0  0  0  0  0  0  0  0  0  0  0
    7.0764    0.4527    0.0000 H   0  0  0  0  0  0  0  0  0  0  0  0
    3.2179   -4.8998    0.0000 H   0  0  0  0  0  0  0  0  0  0  0  0
    6.5352    0.2253    0.0000 H   0  0  0  0  0  0  0  0  0  0  0  0
    6.1367   -0.4649    0.0000 H   0  0  0  0  0  0  0  0  0  0  0  0
    9.0899   -0.4649    0.0000 H   0  0  0  0  0  0  0  0  0  0  0  0
    8.6914    0.2253    0.0000 H   0  0  0  0  0  0  0  0  0  0  0  0
    2.7587   -3.6977    0.0000 H   0  0  0  0  0  0  0  0  0  0  0  0
    2.0305   -4.0218    0.0000 H   0  0  0  0  0  0  0  0  0  0  0  0
    6.5883   -6.1907    0.0000 H   0  0  0  0  0  0  0  0  0  0  0  0
    8.4659   -4.1055    0.0000 H   0  0  0  0  0  0  0  0  0  0  0  0
    3.4226   -5.5639    0.0000 H   0  0  0  0  0  0  0  0  0  0  0  0
    4.2412   -5.8781    0.0000 H   0  0  0  0  0  0  0  0  0  0  0  0
    4.5554   -5.0595    0.0000 H   0  0  0  0  0  0  0  0  0  0  0  0
    9.0120    1.5389    0.0000 H   0  0  0  0  0  0  0  0  0  0  0  0
    1.4984   -4.7382    0.0000 H   0  0  0  0  0  0  0  0  0  0  0  0
    1.6356   -5.6043    0.0000 H   0  0  0  0  0  0  0  0  0  0  0  0
    2.5016   -5.4671    0.0000 H   0  0  0  0  0  0  0  0  0  0  0  0
    9.6698   -5.1894    0.0000 H   0  0  0  0  0  0  0  0  0  0  0  0
    9.3330   -6.7740    0.0000 H   0  0  0  0  0  0  0  0  0  0  0  0
    2.5167   -2.0047    0.0000 H   0  0  0  0  0  0  0  0  0  0  0  0
    5.3647    1.0398    0.0000 H   0  0  0  0  0  0  0  0  0  0  0  0
    6.1443    0.8741    0.0000 H   0  0  0  0  0  0  0  0  0  0  0  0
    9.1318    3.0446    0.0000 H   0  0  0  0  0  0  0  0  0  0  0  0
    9.2151    3.8373    0.0000 H   0  0  0  0  0  0  0  0  0  0  0  0
    5.5250    2.5514    0.0000 H   0  0  0  0  0  0  0  0  0  0  0  0
    4.6494    2.5055    0.0000 H   0  0  0  0  0  0  0  0  0  0  0  0
    4.6952    1.6299    0.0000 H   0  0  0  0  0  0  0  0  0  0  0  0
    6.9354    4.0071    0.0000 H   0  0  0  0  0  0  0  0  0  0  0  0
    9.4988    5.1483    0.0000 H   0  0  0  0  0  0  0  0  0  0  0  0
    6.2765    5.4870    0.0000 H   0  0  0  0  0  0  0  0  0  0  0  0
    8.8398    6.6283    0.0000 H   0  0  0  0  0  0  0  0  0  0  0  0
    7.4386    7.6464    0.0000 H   0  0  0  0  0  0  0  0  0  0  0  0
  1 30  1  0  0  0  0
  2 23  1  0  0  0  0
  2 75  1  0  0  0  0
  3 23  2  0  0  0  0
  4 42  1  0  0  0  0
  4 87  1  0  0  0  0
  5 11  1  0  0  0  0
  5 12  1  0  0  0  0
  5 14  1  0  0  0  0
  6 13  1  0  0  0  0
  6 16  1  0  0  0  0
  6 17  1  0  0  0  0
  7  8  1  0  0  0  0
  7 22  1  0  0  0  0
  7 34  1  0  0  0  0
  8 32  2  0  0  0  0
  9 10  1  0  0  0  0
  9 11  1  0  0  0  0
  9 13  1  6  0  0  0
  9 43  1  0  0  0  0
 10 12  1  0  0  0  0
 10 15  1  1  0  0  0
 10 44  1  0  0  0  0
 11 45  1  0  0  0  0
 11 46  1  0  0  0  0
 12 47  1  0  0  0  0
 12 48  1  0  0  0  0
 13 49  1  0  0  0  0
 13 50  1  0  0  0  0
 14 19  1  0  0  0  0
 14 23  1  6  0  0  0
 14 51  1  0  0  0  0
 15 25  2  0  0  0  0
 15 26  1  0  0  0  0
 16 20  1  0  0  0  0
 16 52  1  0  0  0  0
 16 53  1  0  0  0  0
 17 21  1  0  0  0  0
 17 54  1  0  0  0  0
 17 55  1  0  0  0  0
 18 20  1  0  0  0  0
 18 21  1  0  0  0  0
 18 22  1  0  0  0  0
 18 56  1  0  0  0  0
 19 24  1  0  0  0  0
 19 27  1  1  0  0  0
 19 57  1  0  0  0  0
 20 58  1  0  0  0  0
 20 59  1  0  0  0  0
 21 60  1  0  0  0  0
 21 61  1  0  0  0  0
 22 28  2  0  0  0  0
 24 29  1  0  0  0  0
 24 62  1  0  0  0  0
 24 63  1  0  0  0  0
 25 30  1  0  0  0  0
 25 64  1  0  0  0  0
 26 31  2  0  0  0  0
 26 65  1  0  0  0  0
 27 66  1  0  0  0  0
 27 67  1  0  0  0  0
 27 68  1  0  0  0  0
 28 32  1  0  0  0  0
 28 69  1  0  0  0  0
 29 70  1  0  0  0  0
 29 71  1  0  0  0  0
 29 72  1  0  0  0  0
 30 33  2  0  0  0  0
 31 33  1  0  0  0  0
 31 73  1  0  0  0  0
 32 35  1  0  0  0  0
 33 74  1  0  0  0  0
 34 36  1  0  0  0  0
 34 76  1  0  0  0  0
 34 77  1  0  0  0  0
 35 37  1  0  0  0  0
 35 78  1  0  0  0  0
 35 79  1  0  0  0  0
 36 80  1  0  0  0  0
 36 81  1  0  0  0  0
 36 82  1  0  0  0  0
 37 38  2  0  0  0  0
 37 39  1  0  0  0  0
 38 40  1  0  0  0  0
 38 83  1  0  0  0  0
 39 41  2  0  0  0  0
 39 84  1  0  0  0  0
 40 42  2  0  0  0  0
 40 85  1  0  0  0  0
 41 42  1  0  0  0  0
 41 86  1  0  0  0  0
M  END
> <PUBCHEM_COMPOUND_CID>
516225
> <PUBCHEM_COMPOUND_CANONICALIZED>
1
> <PUBCHEM_CACTVS_COMPLEXITY>
849
> <PUBCHEM_CACTVS_HBOND_ACCEPTOR>
7
> <PUBCHEM_CACTVS_HBOND_DONOR>
2
> <PUBCHEM_CACTVS_ROTATABLE_BOND>
11
> <PUBCHEM_CACTVS_SUBSKEYS>
AAADcfB/sQAAAAAAAAAAAAAAAAAAAWLAAAA8YIAAAAAAAAAB0AAAHwAICAAADSzBngwyjpMIAgCqAyTyTACSBAAhogAY2CG+bJgKJjLC0fOE9AhkyBHY2AeYwOAOoAAAAAAAAABAAAAAAAAAAAAAAAAAAA==
> <PUBCHEM_IUPAC_OPENEYE_NAME>
(2R,3S)-2-[(3S,4S)-3-[[4-[2-ethyl-5-[(4-hydroxyphenyl)methyl]pyrazol-3-yl]-1-piperidyl]methyl]-4-(3-fluorophenyl)pyrrolidin-1-yl]-3-methyl-pentanoic acid
> <PUBCHEM_IUPAC_CAS_NAME>
(2R,3S)-2-[(3S,4S)-3-[[4-[2-ethyl-5-[(4-hydroxyphenyl)methyl]-3-pyrazolyl]-1-piperidinyl]methyl]-4-(3-fluorophenyl)-1-pyrrolidinyl]-3-methylpentanoic acid
> <PUBCHEM_IUPAC_NAME_MARKUP>
(2<I>R</I>,3<I>S</I>)-2-[(3<I>S</I>,4<I>S</I>)-3-[[4-[2-ethyl-5-[(4-hydroxyphenyl)methyl]pyrazol-3-yl]piperidin-1-yl]methyl]-4-(3-fluorophenyl)pyrrolidin-1-yl]-3-methylpentanoic acid
> <PUBCHEM_IUPAC_NAME>
(2R,3S)-2-[(3S,4S)-3-[[4-[2-ethyl-5-[(4-hydroxyphenyl)methyl]pyrazol-3-yl]piperidin-1-yl]methyl]-4-(3-fluorophenyl)pyrrolidin-1-yl]-3-methylpentanoic acid
> <PUBCHEM_IUPAC_SYSTEMATIC_NAME>
(2R,3S)-2-[(3S,4S)-3-[[4-[2-ethyl-5-[(4-hydroxyphenyl)methyl]pyrazol-3-yl]piperidin-1-yl]methyl]-4-(3-fluorophenyl)pyrrolidin-1-yl]-3-methyl-pentanoic acid
> <PUBCHEM_IUPAC_TRADITIONAL_NAME>
(2R,3S)-2-[(3S,4S)-3-[[4-[2-ethyl-5-(4-hydroxybenzyl)pyrazol-3-yl]piperidino]methyl]-4-(3-fluorophenyl)pyrrolidino]-3-methyl-valeric acid
> <PUBCHEM_IUPAC_INCHI>
InChI=1S/C34H45FN4O3/c1-4-23(3)33(34(41)42)38-21-27(31(22-38)26-7-6-8-28(35)18-26)20-37-15-13-25(14-16-37)32-19-29(36-39(32)5-2)17-24-9-11-30(40)12-10-24/h6-12,18-19,23,25,27,31,33,40H,4-5,13-17,20-22H2,1-3H3,(H,41,42)/t23-,27-,31+,33+/m0/s1
> <PUBCHEM_IUPAC_INCHIKEY>
AYQPUUZHDGKDRB-MQMFKJKRSA-N
> <PUBCHEM_XLOGP3_AA>
3.7
> <PUBCHEM_EXACT_MASS>
576.34756947
> <PUBCHEM_MOLECULAR_FORMULA>
C34H45FN4O3
> <PUBCHEM_MOLECULAR_WEIGHT>
576.7
> <PUBCHEM_OPENEYE_CAN_SMILES>
CCC(C)C(C(=O)O)N1CC(C(C1)C2=CC(=CC=C2)F)CN3CCC(CC3)C4=CC(=NN4CC)CC5=CC=C(C=C5)O
> <PUBCHEM_OPENEYE_ISO_SMILES>
CC[C@H](C)[C@H](C(=O)O)N1C[C@@H]([C@H](C1)C2=CC(=CC=C2)F)CN3CCC(CC3)C4=CC(=NN4CC)CC5=CC=C(C=C5)O
> <PUBCHEM_CACTVS_TPSA>
81.8
> <PUBCHEM_MONOISOTOPIC_WEIGHT>
576.34756947
> <PUBCHEM_TOTAL_CHARGE>
0
> <PUBCHEM_HEAVY_ATOM_COUNT>
42
> <PUBCHEM_ATOM_DEF_STEREO_COUNT>
4
> <PUBCHEM_ATOM_UDEF_STEREO_COUNT>
0
> <PUBCHEM_BOND_DEF_STEREO_COUNT>
0
> <PUBCHEM_BOND_UDEF_STEREO_COUNT>
0
> <PUBCHEM_ISOTOPIC_ATOM_COUNT>
0
> <PUBCHEM_COMPONENT_COUNT>
1
> <PUBCHEM_CACTVS_TAUTO_COUNT>
-1
> <PUBCHEM_COORDINATE_TYPE>
1
5
255
> <PUBCHEM_BONDANNOTATIONS>
10  15  5
14  23  6
15  25  8
15  26  8
19  27  5
22  28  8
25  30  8
26  31  8
28  32  8
30  33  8
31  33  8
37  38  8
37  39  8
38  40  8
39  41  8
40  42  8
41  42  8
7  22  8
7  8  8
8  32  8
9  13  6
$$$$
