516288
  -OEChem-10302200282D
 92 97  0     1  0  0  0  0  0999 V2000
    2.5352   -6.3628    0.0000 F   0  0  0  0  0  0  0  0  0  0  0  0
    8.5812   -5.3847    0.0000 O   0  0  0  0  0  0  0  0  0  0  0  0
    6.8870   -5.7448    0.0000 O   0  0  0  0  0  0  0  0  0  0  0  0
    6.4712   -3.7885    0.0000 N   0  0  3  0  0  0  0  0  0  0  0  0
    4.9811   -1.1149    0.0000 N   0  0  0  0  0  0  0  0  0  0  0  0
    5.7014    2.4918    0.0000 N   0  0  0  0  0  0  0  0  0  0  0  0
    6.3705    3.2349    0.0000 N   0  0  0  0  0  0  0  0  0  0  0  0
    5.1622   -2.8374    0.0000 C   0  0  2  0  0  0  0  0  0  0  0  0
    4.8532   -3.7885    0.0000 C   0  0  2  0  0  0  0  0  0  0  0  0
    6.1622   -2.8374    0.0000 C   0  0  0  0  0  0  0  0  0  0  0  0
    5.6622   -4.3763    0.0000 C   0  0  0  0  0  0  0  0  0  0  0  0
    4.5744   -2.0284    0.0000 C   0  0  0  0  0  0  0  0  0  0  0  0
    7.4223   -4.0975    0.0000 C   0  0  2  0  0  0  0  0  0  0  0  0
    8.1654   -3.4284    0.0000 C   0  0  0  0  0  0  0  0  0  0  0  0
    3.9021   -4.0975    0.0000 C   0  0  0  0  0  0  0  0  0  0  0  0
    5.9757   -1.0104    0.0000 C   0  0  0  0  0  0  0  0  0  0  0  0
    4.3934   -0.3059    0.0000 C   0  0  0  0  0  0  0  0  0  0  0  0
    5.7946    0.7122    0.0000 C   0  0  0  0  0  0  0  0  0  0  0  0
    6.3824   -0.0968    0.0000 C   0  0  0  0  0  0  0  0  0  0  0  0
    4.8001    0.6077    0.0000 C   0  0  0  0  0  0  0  0  0  0  0  0
    7.6302   -5.0757    0.0000 C   0  0  0  0  0  0  0  0  0  0  0  0
    8.9086   -2.7593    0.0000 C   0  0  0  0  0  0  0  0  0  0  0  0
    8.8345   -4.1715    0.0000 C   0  0  0  0  0  0  0  0  0  0  0  0
    7.4963   -2.6852    0.0000 C   0  0  0  0  0  0  0  0  0  0  0  0
    6.2014    1.6257    0.0000 C   0  0  0  0  0  0  0  0  0  0  0  0
    3.6942   -5.0757    0.0000 C   0  0  0  0  0  0  0  0  0  0  0  0
    3.1590   -3.4284    0.0000 C   0  0  0  0  0  0  0  0  0  0  0  0
    7.1795    1.8337    0.0000 C   0  0  0  0  0  0  0  0  0  0  0  0
    2.7431   -5.3847    0.0000 C   0  0  0  0  0  0  0  0  0  0  0  0
    2.2079   -3.7374    0.0000 C   0  0  0  0  0  0  0  0  0  0  0  0
    2.0000   -4.7156    0.0000 C   0  0  0  0  0  0  0  0  0  0  0  0
    7.2840    2.8282    0.0000 C   0  0  0  0  0  0  0  0  0  0  0  0
    4.7068    2.5963    0.0000 C   0  0  0  0  0  0  0  0  0  0  0  0
    8.1500    3.3282    0.0000 C   0  0  0  0  0  0  0  0  0  0  0  0
    4.3001    3.5098    0.0000 C   0  0  0  0  0  0  0  0  0  0  0  0
    8.1500    4.3282    0.0000 C   0  0  0  0  0  0  0  0  0  0  0  0
    9.0161    4.8282    0.0000 C   0  0  0  0  0  0  0  0  0  0  0  0
    7.2840    4.8282    0.0000 C   0  0  0  0  0  0  0  0  0  0  0  0
    9.0161    5.8282    0.0000 C   0  0  0  0  0  0  0  0  0  0  0  0
    7.2840    5.8282    0.0000 C   0  0  0  0  0  0  0  0  0  0  0  0
    9.9100    4.2935    0.0000 C   0  0  0  0  0  0  0  0  0  0  0  0
    8.1500    6.3282    0.0000 C   0  0  0  0  0  0  0  0  0  0  0  0
    9.9100    6.3628    0.0000 C   0  0  0  0  0  0  0  0  0  0  0  0
   10.8161    4.8074    0.0000 C   0  0  0  0  0  0  0  0  0  0  0  0
   10.8161    5.8490    0.0000 C   0  0  0  0  0  0  0  0  0  0  0  0
    4.5498   -2.9344    0.0000 H   0  0  0  0  0  0  0  0  0  0  0  0
    4.7562   -4.4009    0.0000 H   0  0  0  0  0  0  0  0  0  0  0  0
    6.7686   -2.7085    0.0000 H   0  0  0  0  0  0  0  0  0  0  0  0
    6.0974   -2.2208    0.0000 H   0  0  0  0  0  0  0  0  0  0  0  0
    5.2473   -4.8370    0.0000 H   0  0  0  0  0  0  0  0  0  0  0  0
    6.0770   -4.8370    0.0000 H   0  0  0  0  0  0  0  0  0  0  0  0
    4.0604   -1.6817    0.0000 H   0  0  0  0  0  0  0  0  0  0  0  0
    4.1437   -2.4744    0.0000 H   0  0  0  0  0  0  0  0  0  0  0  0
    6.9615   -4.5124    0.0000 H   0  0  0  0  0  0  0  0  0  0  0  0
    5.9324   -1.6288    0.0000 H   0  0  0  0  0  0  0  0  0  0  0  0
    6.5772   -1.1604    0.0000 H   0  0  0  0  0  0  0  0  0  0  0  0
    3.8794    0.0408    0.0000 H   0  0  0  0  0  0  0  0  0  0  0  0
    3.9627   -0.7519    0.0000 H   0  0  0  0  0  0  0  0  0  0  0  0
    6.4112    0.7770    0.0000 H   0  0  0  0  0  0  0  0  0  0  0  0
    6.8964   -0.4435    0.0000 H   0  0  0  0  0  0  0  0  0  0  0  0
    6.8131    0.3492    0.0000 H   0  0  0  0  0  0  0  0  0  0  0  0
    4.8433    1.2262    0.0000 H   0  0  0  0  0  0  0  0  0  0  0  0
    4.1985    0.7577    0.0000 H   0  0  0  0  0  0  0  0  0  0  0  0
    9.3234   -3.2200    0.0000 H   0  0  0  0  0  0  0  0  0  0  0  0
    9.3693   -2.3444    0.0000 H   0  0  0  0  0  0  0  0  0  0  0  0
    8.4937   -2.2985    0.0000 H   0  0  0  0  0  0  0  0  0  0  0  0
    8.3738   -4.5864    0.0000 H   0  0  0  0  0  0  0  0  0  0  0  0
    9.2494   -4.6323    0.0000 H   0  0  0  0  0  0  0  0  0  0  0  0
    9.2953   -3.7567    0.0000 H   0  0  0  0  0  0  0  0  0  0  0  0
    7.9570   -2.2704    0.0000 H   0  0  0  0  0  0  0  0  0  0  0  0
    7.0814   -2.2245    0.0000 H   0  0  0  0  0  0  0  0  0  0  0  0
    7.0355   -3.1001    0.0000 H   0  0  0  0  0  0  0  0  0  0  0  0
    4.1550   -5.4905    0.0000 H   0  0  0  0  0  0  0  0  0  0  0  0
    3.2879   -2.8220    0.0000 H   0  0  0  0  0  0  0  0  0  0  0  0
    7.6402    1.4188    0.0000 H   0  0  0  0  0  0  0  0  0  0  0  0
    1.7472   -3.3226    0.0000 H   0  0  0  0  0  0  0  0  0  0  0  0
    8.7101   -5.9911    0.0000 H   0  0  0  0  0  0  0  0  0  0  0  0
    1.4103   -4.9072    0.0000 H   0  0  0  0  0  0  0  0  0  0  0  0
    4.1052    2.4463    0.0000 H   0  0  0  0  0  0  0  0  0  0  0  0
    4.7501    1.9778    0.0000 H   0  0  0  0  0  0  0  0  0  0  0  0
    8.3621    2.7456    0.0000 H   0  0  0  0  0  0  0  0  0  0  0  0
    8.7606    3.4358    0.0000 H   0  0  0  0  0  0  0  0  0  0  0  0
    4.8665    3.7620    0.0000 H   0  0  0  0  0  0  0  0  0  0  0  0
    4.0479    4.0762    0.0000 H   0  0  0  0  0  0  0  0  0  0  0  0
    3.7337    3.2577    0.0000 H   0  0  0  0  0  0  0  0  0  0  0  0
    6.7471    4.5182    0.0000 H   0  0  0  0  0  0  0  0  0  0  0  0
    6.7471    6.1382    0.0000 H   0  0  0  0  0  0  0  0  0  0  0  0
    9.9029    3.6736    0.0000 H   0  0  0  0  0  0  0  0  0  0  0  0
    8.1500    6.9482    0.0000 H   0  0  0  0  0  0  0  0  0  0  0  0
    9.9029    6.9828    0.0000 H   0  0  0  0  0  0  0  0  0  0  0  0
   11.3518    4.4953    0.0000 H   0  0  0  0  0  0  0  0  0  0  0  0
   11.3518    6.1611    0.0000 H   0  0  0  0  0  0  0  0  0  0  0  0
  1 29  1  0  0  0  0
  2 21  1  0  0  0  0
  2 77  1  0  0  0  0
  3 21  2  0  0  0  0
  4 10  1  0  0  0  0
  4 11  1  0  0  0  0
  4 13  1  0  0  0  0
  5 12  1  0  0  0  0
  5 16  1  0  0  0  0
  5 17  1  0  0  0  0
  6  7  1  0  0  0  0
  6 25  1  0  0  0  0
  6 33  1  0  0  0  0
  7 32  2  0  0  0  0
  8  9  1  0  0  0  0
  8 10  1  0  0  0  0
  8 12  1  1  0  0  0
  8 46  1  0  0  0  0
  9 11  1  0  0  0  0
  9 15  1  6  0  0  0
  9 47  1  0  0  0  0
 10 48  1  0  0  0  0
 10 49  1  0  0  0  0
 11 50  1  0  0  0  0
 11 51  1  0  0  0  0
 12 52  1  0  0  0  0
 12 53  1  0  0  0  0
 13 14  1  0  0  0  0
 13 21  1  6  0  0  0
 13 54  1  0  0  0  0
 14 22  1  0  0  0  0
 14 23  1  0  0  0  0
 14 24  1  0  0  0  0
 15 26  2  0  0  0  0
 15 27  1  0  0  0  0
 16 19  1  0  0  0  0
 16 55  1  0  0  0  0
 16 56  1  0  0  0  0
 17 20  1  0  0  0  0
 17 57  1  0  0  0  0
 17 58  1  0  0  0  0
 18 19  1  0  0  0  0
 18 20  1  0  0  0  0
 18 25  1  0  0  0  0
 18 59  1  0  0  0  0
 19 60  1  0  0  0  0
 19 61  1  0  0  0  0
 20 62  1  0  0  0  0
 20 63  1  0  0  0  0
 22 64  1  0  0  0  0
 22 65  1  0  0  0  0
 22 66  1  0  0  0  0
 23 67  1  0  0  0  0
 23 68  1  0  0  0  0
 23 69  1  0  0  0  0
 24 70  1  0  0  0  0
 24 71  1  0  0  0  0
 24 72  1  0  0  0  0
 25 28  2  0  0  0  0
 26 29  1  0  0  0  0
 26 73  1  0  0  0  0
 27 30  2  0  0  0  0
 27 74  1  0  0  0  0
 28 32  1  0  0  0  0
 28 75  1  0  0  0  0
 29 31  2  0  0  0  0
 30 31  1  0  0  0  0
 30 76  1  0  0  0  0
 31 78  1  0  0  0  0
 32 34  1  0  0  0  0
 33 35  1  0  0  0  0
 33 79  1  0  0  0  0
 33 80  1  0  0  0  0
 34 36  1  0  0  0  0
 34 81  1  0  0  0  0
 34 82  1  0  0  0  0
 35 83  1  0  0  0  0
 35 84  1  0  0  0  0
 35 85  1  0  0  0  0
 36 37  1  0  0  0  0
 36 38  2  0  0  0  0
 37 39  1  0  0  0  0
 37 41  2  0  0  0  0
 38 40  1  0  0  0  0
 38 86  1  0  0  0  0
 39 42  1  0  0  0  0
 39 43  2  0  0  0  0
 40 42  2  0  0  0  0
 40 87  1  0  0  0  0
 41 44  1  0  0  0  0
 41 88  1  0  0  0  0
 42 89  1  0  0  0  0
 43 45  1  0  0  0  0
 43 90  1  0  0  0  0
 44 45  2  0  0  0  0
 44 91  1  0  0  0  0
 45 92  1  0  0  0  0
M  END
> <PUBCHEM_COMPOUND_CID>
516288
> <PUBCHEM_COMPOUND_CANONICALIZED>
1
> <PUBCHEM_CACTVS_COMPLEXITY>
966
> <PUBCHEM_CACTVS_HBOND_ACCEPTOR>
6
> <PUBCHEM_CACTVS_HBOND_DONOR>
1
> <PUBCHEM_CACTVS_ROTATABLE_BOND>
10
> <PUBCHEM_CACTVS_SUBSKEYS>
AAADcfB/sQAAAAAAAAAAAAAAAAAAAWLAAAA8YMEAAAAAAADB1AAAHwAICAAADyjBngwyiNMIAgCqAyTyTACSBAAhggAY2CG4ZJgKIDLA0fGE5AhkiADYyAcQgMAPgAACAAAQAAAAAAQAACAAAAAAAAAAAA==
> <PUBCHEM_IUPAC_OPENEYE_NAME>
(2R)-2-[(3S,4S)-3-[[4-[2-ethyl-5-(1-naphthylmethyl)pyrazol-3-yl]-1-piperidyl]methyl]-4-(3-fluorophenyl)pyrrolidin-1-yl]-3,3-dimethyl-butanoic acid
> <PUBCHEM_IUPAC_CAS_NAME>
(2R)-2-[(3S,4S)-3-[[4-[2-ethyl-5-(1-naphthalenylmethyl)-3-pyrazolyl]-1-piperidinyl]methyl]-4-(3-fluorophenyl)-1-pyrrolidinyl]-3,3-dimethylbutanoic acid
> <PUBCHEM_IUPAC_NAME_MARKUP>
(2<I>R</I>)-2-[(3<I>S</I>,4<I>S</I>)-3-[[4-[2-ethyl-5-(naphthalen-1-ylmethyl)pyrazol-3-yl]piperidin-1-yl]methyl]-4-(3-fluorophenyl)pyrrolidin-1-yl]-3,3-dimethylbutanoic acid
> <PUBCHEM_IUPAC_NAME>
(2R)-2-[(3S,4S)-3-[[4-[2-ethyl-5-(naphthalen-1-ylmethyl)pyrazol-3-yl]piperidin-1-yl]methyl]-4-(3-fluorophenyl)pyrrolidin-1-yl]-3,3-dimethylbutanoic acid
> <PUBCHEM_IUPAC_SYSTEMATIC_NAME>
(2R)-2-[(3S,4S)-3-[[4-[2-ethyl-5-(naphthalen-1-ylmethyl)pyrazol-3-yl]piperidin-1-yl]methyl]-4-(3-fluorophenyl)pyrrolidin-1-yl]-3,3-dimethyl-butanoic acid
> <PUBCHEM_IUPAC_TRADITIONAL_NAME>
(2R)-2-[(3S,4S)-3-[[4-[2-ethyl-5-(1-naphthylmethyl)pyrazol-3-yl]piperidino]methyl]-4-(3-fluorophenyl)pyrrolidino]-3,3-dimethyl-butyric acid
> <PUBCHEM_IUPAC_INCHI>
InChI=1S/C38H47FN4O2/c1-5-43-35(22-32(40-43)21-29-12-8-11-26-10-6-7-15-33(26)29)27-16-18-41(19-17-27)23-30-24-42(36(37(44)45)38(2,3)4)25-34(30)28-13-9-14-31(39)20-28/h6-15,20,22,27,30,34,36H,5,16-19,21,23-25H2,1-4H3,(H,44,45)/t30-,34+,36-/m0/s1
> <PUBCHEM_IUPAC_INCHIKEY>
WAFABTWJGIOLMS-JYIZODLMSA-N
> <PUBCHEM_XLOGP3_AA>
5.3
> <PUBCHEM_EXACT_MASS>
610.36830492
> <PUBCHEM_MOLECULAR_FORMULA>
C38H47FN4O2
> <PUBCHEM_MOLECULAR_WEIGHT>
610.8
> <PUBCHEM_OPENEYE_CAN_SMILES>
CCN1C(=CC(=N1)CC2=CC=CC3=CC=CC=C32)C4CCN(CC4)CC5CN(CC5C6=CC(=CC=C6)F)C(C(=O)O)C(C)(C)C
> <PUBCHEM_OPENEYE_ISO_SMILES>
CCN1C(=CC(=N1)CC2=CC=CC3=CC=CC=C32)C4CCN(CC4)C[C@H]5CN(C[C@@H]5C6=CC(=CC=C6)F)[C@@H](C(=O)O)C(C)(C)C
> <PUBCHEM_CACTVS_TPSA>
61.6
> <PUBCHEM_MONOISOTOPIC_WEIGHT>
610.36830492
> <PUBCHEM_TOTAL_CHARGE>
0
> <PUBCHEM_HEAVY_ATOM_COUNT>
45
> <PUBCHEM_ATOM_DEF_STEREO_COUNT>
3
> <PUBCHEM_ATOM_UDEF_STEREO_COUNT>
0
> <PUBCHEM_BOND_DEF_STEREO_COUNT>
0
> <PUBCHEM_BOND_UDEF_STEREO_COUNT>
0
> <PUBCHEM_ISOTOPIC_ATOM_COUNT>
0
> <PUBCHEM_COMPONENT_COUNT>
1
> <PUBCHEM_CACTVS_TAUTO_COUNT>
-1
> <PUBCHEM_COORDINATE_TYPE>
1
5
255
> <PUBCHEM_BONDANNOTATIONS>
13  21  6
15  26  8
15  27  8
25  28  8
26  29  8
27  30  8
28  32  8
29  31  8
30  31  8
36  37  8
36  38  8
37  39  8
37  41  8
38  40  8
39  42  8
39  43  8
40  42  8
41  44  8
43  45  8
44  45  8
6  25  8
6  7  8
7  32  8
8  12  5
9  15  6
$$$$
