516294
  -OEChem-10302200282D
 90 95  0     1  0  0  0  0  0999 V2000
    7.7132   -6.9388    0.0000 F   0  0  0  0  0  0  0  0  0  0  0  0
    2.7688   -1.8635    0.0000 O   0  0  0  0  0  0  0  0  0  0  0  0
    4.3511   -1.1590    0.0000 O   0  0  0  0  0  0  0  0  0  0  0  0
    5.1646   -2.9861    0.0000 N   0  0  3  0  0  0  0  0  0  0  0  0
    7.6133   -1.1497    0.0000 N   0  0  0  0  0  0  0  0  0  0  0  0
    6.8043    2.4381    0.0000 N   0  0  0  0  0  0  0  0  0  0  0  0
    7.1133    3.3891    0.0000 N   0  0  0  0  0  0  0  0  0  0  0  0
    6.7473   -2.6497    0.0000 C   0  0  2  0  0  0  0  0  0  0  0  0
    6.6428   -3.6442    0.0000 C   0  0  2  0  0  0  0  0  0  0  0  0
    5.8338   -2.2430    0.0000 C   0  0  0  0  0  0  0  0  0  0  0  0
    5.6646   -3.8521    0.0000 C   0  0  0  0  0  0  0  0  0  0  0  0
    4.1701   -2.8816    0.0000 C   0  0  2  0  0  0  0  0  0  0  0  0
    3.5823   -3.6906    0.0000 C   0  0  0  0  0  0  0  0  0  0  0  0
    7.6133   -2.1497    0.0000 C   0  0  0  0  0  0  0  0  0  0  0  0
    2.5878   -3.5861    0.0000 C   0  0  0  0  0  0  0  0  0  0  0  0
    3.9890   -4.6042    0.0000 C   0  0  0  0  0  0  0  0  0  0  0  0
    7.3859   -4.3134    0.0000 C   0  0  0  0  0  0  0  0  0  0  0  0
    6.7473   -0.6497    0.0000 C   0  0  0  0  0  0  0  0  0  0  0  0
    8.4793   -0.6497    0.0000 C   0  0  0  0  0  0  0  0  0  0  0  0
    2.0000   -4.3951    0.0000 C   0  0  0  0  0  0  0  0  0  0  0  0
    3.4013   -5.4132    0.0000 C   0  0  0  0  0  0  0  0  0  0  0  0
    7.6133    0.8503    0.0000 C   0  0  0  0  0  0  0  0  0  0  0  0
    2.4067   -5.3086    0.0000 C   0  0  0  0  0  0  0  0  0  0  0  0
    6.7473    0.3503    0.0000 C   0  0  0  0  0  0  0  0  0  0  0  0
    8.4793    0.3503    0.0000 C   0  0  0  0  0  0  0  0  0  0  0  0
    3.7634   -1.9680    0.0000 C   0  0  0  0  0  0  0  0  0  0  0  0
    7.1780   -5.2915    0.0000 C   0  0  0  0  0  0  0  0  0  0  0  0
    8.3370   -4.0043    0.0000 C   0  0  0  0  0  0  0  0  0  0  0  0
    7.6133    1.8503    0.0000 C   0  0  0  0  0  0  0  0  0  0  0  0
    7.9211   -5.9606    0.0000 C   0  0  0  0  0  0  0  0  0  0  0  0
    9.0801   -4.6735    0.0000 C   0  0  0  0  0  0  0  0  0  0  0  0
    8.4223    2.4381    0.0000 C   0  0  0  0  0  0  0  0  0  0  0  0
    8.8722   -5.6516    0.0000 C   0  0  0  0  0  0  0  0  0  0  0  0
    8.1133    3.3891    0.0000 C   0  0  0  0  0  0  0  0  0  0  0  0
    5.8532    2.1291    0.0000 C   0  0  0  0  0  0  0  0  0  0  0  0
    8.7011    4.1982    0.0000 C   0  0  0  0  0  0  0  0  0  0  0  0
    5.1101    2.7982    0.0000 C   0  0  0  0  0  0  0  0  0  0  0  0
    8.2944    5.1117    0.0000 C   0  0  0  0  0  0  0  0  0  0  0  0
    7.2998    5.2162    0.0000 C   0  0  0  0  0  0  0  0  0  0  0  0
    8.8822    5.9207    0.0000 C   0  0  0  0  0  0  0  0  0  0  0  0
    6.8931    6.1298    0.0000 C   0  0  0  0  0  0  0  0  0  0  0  0
    8.4754    6.8343    0.0000 C   0  0  0  0  0  0  0  0  0  0  0  0
    7.4809    6.9388    0.0000 C   0  0  0  0  0  0  0  0  0  0  0  0
    7.2673   -2.9874    0.0000 H   0  0  0  0  0  0  0  0  0  0  0  0
    6.4823   -4.2431    0.0000 H   0  0  0  0  0  0  0  0  0  0  0  0
    6.1437   -1.7060    0.0000 H   0  0  0  0  0  0  0  0  0  0  0  0
    5.3322   -1.8785    0.0000 H   0  0  0  0  0  0  0  0  0  0  0  0
    5.0982   -4.1043    0.0000 H   0  0  0  0  0  0  0  0  0  0  0  0
    5.8562   -4.4418    0.0000 H   0  0  0  0  0  0  0  0  0  0  0  0
    4.5345   -2.3800    0.0000 H   0  0  0  0  0  0  0  0  0  0  0  0
    3.3301   -3.1242    0.0000 H   0  0  0  0  0  0  0  0  0  0  0  0
    7.8254   -2.7323    0.0000 H   0  0  0  0  0  0  0  0  0  0  0  0
    8.2239   -2.0420    0.0000 H   0  0  0  0  0  0  0  0  0  0  0  0
    2.7587   -2.9901    0.0000 H   0  0  0  0  0  0  0  0  0  0  0  0
    2.0305   -3.3143    0.0000 H   0  0  0  0  0  0  0  0  0  0  0  0
    4.4197   -5.0501    0.0000 H   0  0  0  0  0  0  0  0  0  0  0  0
    4.5030   -4.2575    0.0000 H   0  0  0  0  0  0  0  0  0  0  0  0
    6.1367   -0.5420    0.0000 H   0  0  0  0  0  0  0  0  0  0  0  0
    6.5352   -1.2323    0.0000 H   0  0  0  0  0  0  0  0  0  0  0  0
    8.6914   -1.2323    0.0000 H   0  0  0  0  0  0  0  0  0  0  0  0
    9.0899   -0.5420    0.0000 H   0  0  0  0  0  0  0  0  0  0  0  0
    1.5693   -3.9491    0.0000 H   0  0  0  0  0  0  0  0  0  0  0  0
    1.4860   -4.7418    0.0000 H   0  0  0  0  0  0  0  0  0  0  0  0
    3.2304   -6.0092    0.0000 H   0  0  0  0  0  0  0  0  0  0  0  0
    3.9585   -5.6850    0.0000 H   0  0  0  0  0  0  0  0  0  0  0  0
    7.0764    1.1603    0.0000 H   0  0  0  0  0  0  0  0  0  0  0  0
    1.8052   -5.4586    0.0000 H   0  0  0  0  0  0  0  0  0  0  0  0
    2.4500   -5.9271    0.0000 H   0  0  0  0  0  0  0  0  0  0  0  0
    6.5352    0.9329    0.0000 H   0  0  0  0  0  0  0  0  0  0  0  0
    6.1367    0.2426    0.0000 H   0  0  0  0  0  0  0  0  0  0  0  0
    9.0899    0.2426    0.0000 H   0  0  0  0  0  0  0  0  0  0  0  0
    8.6914    0.9329    0.0000 H   0  0  0  0  0  0  0  0  0  0  0  0
    6.5883   -5.4831    0.0000 H   0  0  0  0  0  0  0  0  0  0  0  0
    8.4659   -3.3979    0.0000 H   0  0  0  0  0  0  0  0  0  0  0  0
    9.6698   -4.4819    0.0000 H   0  0  0  0  0  0  0  0  0  0  0  0
    2.5167   -1.2971    0.0000 H   0  0  0  0  0  0  0  0  0  0  0  0
    9.0120    2.2465    0.0000 H   0  0  0  0  0  0  0  0  0  0  0  0
    9.3330   -6.0665    0.0000 H   0  0  0  0  0  0  0  0  0  0  0  0
    5.3647    1.7474    0.0000 H   0  0  0  0  0  0  0  0  0  0  0  0
    6.1443    1.5816    0.0000 H   0  0  0  0  0  0  0  0  0  0  0  0
    9.1318    3.7522    0.0000 H   0  0  0  0  0  0  0  0  0  0  0  0
    9.2151    4.5448    0.0000 H   0  0  0  0  0  0  0  0  0  0  0  0
    5.5250    3.2589    0.0000 H   0  0  0  0  0  0  0  0  0  0  0  0
    4.6494    3.2130    0.0000 H   0  0  0  0  0  0  0  0  0  0  0  0
    4.6952    2.3374    0.0000 H   0  0  0  0  0  0  0  0  0  0  0  0
    6.9354    4.7146    0.0000 H   0  0  0  0  0  0  0  0  0  0  0  0
    9.4988    5.8559    0.0000 H   0  0  0  0  0  0  0  0  0  0  0  0
    6.2765    6.1946    0.0000 H   0  0  0  0  0  0  0  0  0  0  0  0
    8.8398    7.3358    0.0000 H   0  0  0  0  0  0  0  0  0  0  0  0
    7.2287    7.5052    0.0000 H   0  0  0  0  0  0  0  0  0  0  0  0
  1 30  1  0  0  0  0
  2 26  1  0  0  0  0
  2 76  1  0  0  0  0
  3 26  2  0  0  0  0
  4 10  1  0  0  0  0
  4 11  1  0  0  0  0
  4 12  1  0  0  0  0
  5 14  1  0  0  0  0
  5 18  1  0  0  0  0
  5 19  1  0  0  0  0
  6  7  1  0  0  0  0
  6 29  1  0  0  0  0
  6 35  1  0  0  0  0
  7 34  2  0  0  0  0
  8  9  1  0  0  0  0
  8 10  1  0  0  0  0
  8 14  1  6  0  0  0
  8 44  1  0  0  0  0
  9 11  1  0  0  0  0
  9 17  1  1  0  0  0
  9 45  1  0  0  0  0
 10 46  1  0  0  0  0
 10 47  1  0  0  0  0
 11 48  1  0  0  0  0
 11 49  1  0  0  0  0
 12 13  1  0  0  0  0
 12 26  1  6  0  0  0
 12 50  1  0  0  0  0
 13 15  1  0  0  0  0
 13 16  1  0  0  0  0
 13 51  1  0  0  0  0
 14 52  1  0  0  0  0
 14 53  1  0  0  0  0
 15 20  1  0  0  0  0
 15 54  1  0  0  0  0
 15 55  1  0  0  0  0
 16 21  1  0  0  0  0
 16 56  1  0  0  0  0
 16 57  1  0  0  0  0
 17 27  2  0  0  0  0
 17 28  1  0  0  0  0
 18 24  1  0  0  0  0
 18 58  1  0  0  0  0
 18 59  1  0  0  0  0
 19 25  1  0  0  0  0
 19 60  1  0  0  0  0
 19 61  1  0  0  0  0
 20 23  1  0  0  0  0
 20 62  1  0  0  0  0
 20 63  1  0  0  0  0
 21 23  1  0  0  0  0
 21 64  1  0  0  0  0
 21 65  1  0  0  0  0
 22 24  1  0  0  0  0
 22 25  1  0  0  0  0
 22 29  1  0  0  0  0
 22 66  1  0  0  0  0
 23 67  1  0  0  0  0
 23 68  1  0  0  0  0
 24 69  1  0  0  0  0
 24 70  1  0  0  0  0
 25 71  1  0  0  0  0
 25 72  1  0  0  0  0
 27 30  1  0  0  0  0
 27 73  1  0  0  0  0
 28 31  2  0  0  0  0
 28 74  1  0  0  0  0
 29 32  2  0  0  0  0
 30 33  2  0  0  0  0
 31 33  1  0  0  0  0
 31 75  1  0  0  0  0
 32 34  1  0  0  0  0
 32 77  1  0  0  0  0
 33 78  1  0  0  0  0
 34 36  1  0  0  0  0
 35 37  1  0  0  0  0
 35 79  1  0  0  0  0
 35 80  1  0  0  0  0
 36 38  1  0  0  0  0
 36 81  1  0  0  0  0
 36 82  1  0  0  0  0
 37 83  1  0  0  0  0
 37 84  1  0  0  0  0
 37 85  1  0  0  0  0
 38 39  2  0  0  0  0
 38 40  1  0  0  0  0
 39 41  1  0  0  0  0
 39 86  1  0  0  0  0
 40 42  2  0  0  0  0
 40 87  1  0  0  0  0
 41 43  2  0  0  0  0
 41 88  1  0  0  0  0
 42 43  1  0  0  0  0
 42 89  1  0  0  0  0
 43 90  1  0  0  0  0
M  END
> <PUBCHEM_COMPOUND_CID>
516294
> <PUBCHEM_COMPOUND_CANONICALIZED>
1
> <PUBCHEM_CACTVS_COMPLEXITY>
871
> <PUBCHEM_CACTVS_HBOND_ACCEPTOR>
6
> <PUBCHEM_CACTVS_HBOND_DONOR>
1
> <PUBCHEM_CACTVS_ROTATABLE_BOND>
10
> <PUBCHEM_CACTVS_SUBSKEYS>
AAADcfB/sQAAAAAAAAAAAAAAAAAAAWLAAAA8YMEAAAAAAAAB0AAAHwAICAAADSjBngwyiJMIAgCqAyTyTACSBAAhggAY2CG4ZJgKIDLA0fGE5AhkiADYyAeYyOCOgAAAAAAAAAAAAAAAAAAAAAAAAAAAAA==
> <PUBCHEM_IUPAC_OPENEYE_NAME>
(2R)-2-[(3S,4S)-3-[[4-(5-benzyl-2-ethyl-pyrazol-3-yl)-1-piperidyl]methyl]-4-(3-fluorophenyl)pyrrolidin-1-yl]-2-cyclohexyl-acetic acid
> <PUBCHEM_IUPAC_CAS_NAME>
(2R)-2-cyclohexyl-2-[(3S,4S)-3-[[4-[2-ethyl-5-(phenylmethyl)-3-pyrazolyl]-1-piperidinyl]methyl]-4-(3-fluorophenyl)-1-pyrrolidinyl]acetic acid
> <PUBCHEM_IUPAC_NAME_MARKUP>
(2<I>R</I>)-2-[(3<I>S</I>,4<I>S</I>)-3-[[4-(5-benzyl-2-ethylpyrazol-3-yl)piperidin-1-yl]methyl]-4-(3-fluorophenyl)pyrrolidin-1-yl]-2-cyclohexylacetic acid
> <PUBCHEM_IUPAC_NAME>
(2R)-2-[(3S,4S)-3-[[4-(5-benzyl-2-ethylpyrazol-3-yl)piperidin-1-yl]methyl]-4-(3-fluorophenyl)pyrrolidin-1-yl]-2-cyclohexylacetic acid
> <PUBCHEM_IUPAC_SYSTEMATIC_NAME>
(2R)-2-cyclohexyl-2-[(3S,4S)-3-[[4-[2-ethyl-5-(phenylmethyl)pyrazol-3-yl]piperidin-1-yl]methyl]-4-(3-fluorophenyl)pyrrolidin-1-yl]ethanoic acid
> <PUBCHEM_IUPAC_TRADITIONAL_NAME>
(2R)-2-[(3S,4S)-3-[[4-(5-benzyl-2-ethyl-pyrazol-3-yl)piperidino]methyl]-4-(3-fluorophenyl)pyrrolidino]-2-cyclohexyl-acetic acid
> <PUBCHEM_IUPAC_INCHI>
InChI=1S/C36H47FN4O2/c1-2-41-34(22-32(38-41)20-26-10-5-3-6-11-26)27-16-18-39(19-17-27)23-30-24-40(25-33(30)29-14-9-15-31(37)21-29)35(36(42)43)28-12-7-4-8-13-28/h3,5-6,9-11,14-15,21-22,27-28,30,33,35H,2,4,7-8,12-13,16-20,23-25H2,1H3,(H,42,43)/t30-,33+,35+/m0/s1
> <PUBCHEM_IUPAC_INCHIKEY>
NGQNBQOIRABSGM-KZDQMGDASA-N
> <PUBCHEM_XLOGP3_AA>
4.7
> <PUBCHEM_EXACT_MASS>
586.36830492
> <PUBCHEM_MOLECULAR_FORMULA>
C36H47FN4O2
> <PUBCHEM_MOLECULAR_WEIGHT>
586.8
> <PUBCHEM_OPENEYE_CAN_SMILES>
CCN1C(=CC(=N1)CC2=CC=CC=C2)C3CCN(CC3)CC4CN(CC4C5=CC(=CC=C5)F)C(C6CCCCC6)C(=O)O
> <PUBCHEM_OPENEYE_ISO_SMILES>
CCN1C(=CC(=N1)CC2=CC=CC=C2)C3CCN(CC3)C[C@H]4CN(C[C@@H]4C5=CC(=CC=C5)F)[C@H](C6CCCCC6)C(=O)O
> <PUBCHEM_CACTVS_TPSA>
61.6
> <PUBCHEM_MONOISOTOPIC_WEIGHT>
586.36830492
> <PUBCHEM_TOTAL_CHARGE>
0
> <PUBCHEM_HEAVY_ATOM_COUNT>
43
> <PUBCHEM_ATOM_DEF_STEREO_COUNT>
3
> <PUBCHEM_ATOM_UDEF_STEREO_COUNT>
0
> <PUBCHEM_BOND_DEF_STEREO_COUNT>
0
> <PUBCHEM_BOND_UDEF_STEREO_COUNT>
0
> <PUBCHEM_ISOTOPIC_ATOM_COUNT>
0
> <PUBCHEM_COMPONENT_COUNT>
1
> <PUBCHEM_CACTVS_TAUTO_COUNT>
-1
> <PUBCHEM_COORDINATE_TYPE>
1
5
255
> <PUBCHEM_BONDANNOTATIONS>
12  26  6
17  27  8
17  28  8
27  30  8
28  31  8
29  32  8
30  33  8
31  33  8
32  34  8
38  39  8
38  40  8
39  41  8
40  42  8
41  43  8
42  43  8
6  29  8
6  7  8
7  34  8
8  14  6
9  17  5
$$$$
