516200
  -OEChem-10302200282D
 88 92  0     1  0  0  0  0  0999 V2000
   11.2834    3.9868    0.0000 F   0  0  0  0  0  0  0  0  0  0  0  0
    4.1669    6.3032    0.0000 O   0  0  0  0  0  0  0  0  0  0  0  0
    5.8611    6.6633    0.0000 O   0  0  0  0  0  0  0  0  0  0  0  0
    4.5981   -6.4097    0.0000 O   0  0  0  0  0  0  0  0  0  0  0  0
    6.2769    4.7070    0.0000 N   0  0  3  0  0  0  0  0  0  0  0  0
    7.7670    2.0334    0.0000 N   0  0  0  0  0  0  0  0  0  0  0  0
    7.0468   -1.5732    0.0000 N   0  0  0  0  0  0  0  0  0  0  0  0
    6.3776   -2.3164    0.0000 N   0  0  0  0  0  0  0  0  0  0  0  0
    2.0000   -5.9097    0.0000 N   0  0  0  0  0  0  0  0  0  0  0  0
    7.5859    3.7560    0.0000 C   0  0  2  0  0  0  0  0  0  0  0  0
    7.8950    4.7070    0.0000 C   0  0  2  0  0  0  0  0  0  0  0  0
    6.5859    3.7560    0.0000 C   0  0  0  0  0  0  0  0  0  0  0  0
    7.0859    5.2948    0.0000 C   0  0  0  0  0  0  0  0  0  0  0  0
    8.1737    2.9470    0.0000 C   0  0  0  0  0  0  0  0  0  0  0  0
    5.3259    5.0160    0.0000 C   0  0  2  0  0  0  0  0  0  0  0  0
    8.3548    1.2244    0.0000 C   0  0  0  0  0  0  0  0  0  0  0  0
    6.7725    1.9289    0.0000 C   0  0  0  0  0  0  0  0  0  0  0  0
    8.8460    5.0160    0.0000 C   0  0  0  0  0  0  0  0  0  0  0  0
    6.9535    0.2063    0.0000 C   0  0  0  0  0  0  0  0  0  0  0  0
    7.9480    0.3108    0.0000 C   0  0  0  0  0  0  0  0  0  0  0  0
    6.3657    1.0153    0.0000 C   0  0  0  0  0  0  0  0  0  0  0  0
    4.5827    4.3469    0.0000 C   0  0  0  0  0  0  0  0  0  0  0  0
    6.5468   -0.7072    0.0000 C   0  0  0  0  0  0  0  0  0  0  0  0
    5.1180    5.9942    0.0000 C   0  0  0  0  0  0  0  0  0  0  0  0
    9.5892    4.3469    0.0000 C   0  0  0  0  0  0  0  0  0  0  0  0
    9.0539    5.9942    0.0000 C   0  0  0  0  0  0  0  0  0  0  0  0
    3.6317    4.6559    0.0000 C   0  0  0  0  0  0  0  0  0  0  0  0
    4.7906    3.3688    0.0000 C   0  0  0  0  0  0  0  0  0  0  0  0
    5.5686   -0.9151    0.0000 C   0  0  0  0  0  0  0  0  0  0  0  0
   10.5402    4.6559    0.0000 C   0  0  0  0  0  0  0  0  0  0  0  0
   10.0050    6.3032    0.0000 C   0  0  0  0  0  0  0  0  0  0  0  0
    5.4641   -1.9097    0.0000 C   0  0  0  0  0  0  0  0  0  0  0  0
   10.7481    5.6341    0.0000 C   0  0  0  0  0  0  0  0  0  0  0  0
    8.0413   -1.6778    0.0000 C   0  0  0  0  0  0  0  0  0  0  0  0
    4.5981   -2.4097    0.0000 C   0  0  0  0  0  0  0  0  0  0  0  0
    8.4480   -2.5913    0.0000 C   0  0  0  0  0  0  0  0  0  0  0  0
    4.5981   -3.4097    0.0000 C   0  0  0  0  0  0  0  0  0  0  0  0
    3.7320   -3.9097    0.0000 C   0  0  0  0  0  0  0  0  0  0  0  0
    5.4641   -3.9097    0.0000 C   0  0  0  0  0  0  0  0  0  0  0  0
    3.7320   -4.9097    0.0000 C   0  0  0  0  0  0  0  0  0  0  0  0
    5.4641   -4.9097    0.0000 C   0  0  0  0  0  0  0  0  0  0  0  0
    4.5981   -5.4097    0.0000 C   0  0  0  0  0  0  0  0  0  0  0  0
    2.8660   -5.4097    0.0000 C   0  0  0  0  0  0  0  0  0  0  0  0
    5.4641   -6.9097    0.0000 C   0  0  0  0  0  0  0  0  0  0  0  0
    7.3045    3.2036    0.0000 H   0  0  0  0  0  0  0  0  0  0  0  0
    8.3334    4.2686    0.0000 H   0  0  0  0  0  0  0  0  0  0  0  0
    5.9795    3.6271    0.0000 H   0  0  0  0  0  0  0  0  0  0  0  0
    6.6508    3.1394    0.0000 H   0  0  0  0  0  0  0  0  0  0  0  0
    7.5008    5.7556    0.0000 H   0  0  0  0  0  0  0  0  0  0  0  0
    6.6711    5.7556    0.0000 H   0  0  0  0  0  0  0  0  0  0  0  0
    8.6877    2.6003    0.0000 H   0  0  0  0  0  0  0  0  0  0  0  0
    8.6044    3.3930    0.0000 H   0  0  0  0  0  0  0  0  0  0  0  0
    5.7866    5.4309    0.0000 H   0  0  0  0  0  0  0  0  0  0  0  0
    8.8688    0.8777    0.0000 H   0  0  0  0  0  0  0  0  0  0  0  0
    8.7855    1.6704    0.0000 H   0  0  0  0  0  0  0  0  0  0  0  0
    6.8157    2.5474    0.0000 H   0  0  0  0  0  0  0  0  0  0  0  0
    6.1709    2.0789    0.0000 H   0  0  0  0  0  0  0  0  0  0  0  0
    6.3369    0.1415    0.0000 H   0  0  0  0  0  0  0  0  0  0  0  0
    7.9048   -0.3076    0.0000 H   0  0  0  0  0  0  0  0  0  0  0  0
    8.5496    0.1609    0.0000 H   0  0  0  0  0  0  0  0  0  0  0  0
    5.8517    1.3620    0.0000 H   0  0  0  0  0  0  0  0  0  0  0  0
    5.9350    0.5693    0.0000 H   0  0  0  0  0  0  0  0  0  0  0  0
    5.1724    4.1553    0.0000 H   0  0  0  0  0  0  0  0  0  0  0  0
    9.4602    3.7405    0.0000 H   0  0  0  0  0  0  0  0  0  0  0  0
    8.5932    6.4090    0.0000 H   0  0  0  0  0  0  0  0  0  0  0  0
    3.8232    5.2456    0.0000 H   0  0  0  0  0  0  0  0  0  0  0  0
    3.0420    4.8475    0.0000 H   0  0  0  0  0  0  0  0  0  0  0  0
    3.4401    4.0663    0.0000 H   0  0  0  0  0  0  0  0  0  0  0  0
    4.1842    3.2399    0.0000 H   0  0  0  0  0  0  0  0  0  0  0  0
    4.9195    2.7623    0.0000 H   0  0  0  0  0  0  0  0  0  0  0  0
    5.3971    3.4977    0.0000 H   0  0  0  0  0  0  0  0  0  0  0  0
    5.1079   -0.5003    0.0000 H   0  0  0  0  0  0  0  0  0  0  0  0
   10.1339    6.9097    0.0000 H   0  0  0  0  0  0  0  0  0  0  0  0
   11.3378    5.8257    0.0000 H   0  0  0  0  0  0  0  0  0  0  0  0
    8.6429   -1.5278    0.0000 H   0  0  0  0  0  0  0  0  0  0  0  0
    7.9980   -1.0593    0.0000 H   0  0  0  0  0  0  0  0  0  0  0  0
    4.0380    6.9097    0.0000 H   0  0  0  0  0  0  0  0  0  0  0  0
    4.3860   -1.8270    0.0000 H   0  0  0  0  0  0  0  0  0  0  0  0
    3.9875   -2.5173    0.0000 H   0  0  0  0  0  0  0  0  0  0  0  0
    7.8816   -2.8435    0.0000 H   0  0  0  0  0  0  0  0  0  0  0  0
    8.7002   -3.1577    0.0000 H   0  0  0  0  0  0  0  0  0  0  0  0
    9.0144   -2.3392    0.0000 H   0  0  0  0  0  0  0  0  0  0  0  0
    3.1951   -3.5997    0.0000 H   0  0  0  0  0  0  0  0  0  0  0  0
    6.0010   -3.5997    0.0000 H   0  0  0  0  0  0  0  0  0  0  0  0
    6.0010   -5.2197    0.0000 H   0  0  0  0  0  0  0  0  0  0  0  0
    5.1541   -7.4466    0.0000 H   0  0  0  0  0  0  0  0  0  0  0  0
    6.0010   -7.2197    0.0000 H   0  0  0  0  0  0  0  0  0  0  0  0
    5.7741   -6.3727    0.0000 H   0  0  0  0  0  0  0  0  0  0  0  0
  1 30  1  0  0  0  0
  2 24  1  0  0  0  0
  2 77  1  0  0  0  0
  3 24  2  0  0  0  0
  4 42  1  0  0  0  0
  4 44  1  0  0  0  0
  5 12  1  0  0  0  0
  5 13  1  0  0  0  0
  5 15  1  0  0  0  0
  6 14  1  0  0  0  0
  6 16  1  0  0  0  0
  6 17  1  0  0  0  0
  7  8  1  0  0  0  0
  7 23  1  0  0  0  0
  7 34  1  0  0  0  0
  8 32  2  0  0  0  0
  9 43  3  0  0  0  0
 10 11  1  0  0  0  0
 10 12  1  0  0  0  0
 10 14  1  1  0  0  0
 10 45  1  0  0  0  0
 11 13  1  0  0  0  0
 11 18  1  6  0  0  0
 11 46  1  0  0  0  0
 12 47  1  0  0  0  0
 12 48  1  0  0  0  0
 13 49  1  0  0  0  0
 13 50  1  0  0  0  0
 14 51  1  0  0  0  0
 14 52  1  0  0  0  0
 15 22  1  0  0  0  0
 15 24  1  6  0  0  0
 15 53  1  0  0  0  0
 16 20  1  0  0  0  0
 16 54  1  0  0  0  0
 16 55  1  0  0  0  0
 17 21  1  0  0  0  0
 17 56  1  0  0  0  0
 17 57  1  0  0  0  0
 18 25  2  0  0  0  0
 18 26  1  0  0  0  0
 19 20  1  0  0  0  0
 19 21  1  0  0  0  0
 19 23  1  0  0  0  0
 19 58  1  0  0  0  0
 20 59  1  0  0  0  0
 20 60  1  0  0  0  0
 21 61  1  0  0  0  0
 21 62  1  0  0  0  0
 22 27  1  0  0  0  0
 22 28  1  0  0  0  0
 22 63  1  0  0  0  0
 23 29  2  0  0  0  0
 25 30  1  0  0  0  0
 25 64  1  0  0  0  0
 26 31  2  0  0  0  0
 26 65  1  0  0  0  0
 27 66  1  0  0  0  0
 27 67  1  0  0  0  0
 27 68  1  0  0  0  0
 28 69  1  0  0  0  0
 28 70  1  0  0  0  0
 28 71  1  0  0  0  0
 29 32  1  0  0  0  0
 29 72  1  0  0  0  0
 30 33  2  0  0  0  0
 31 33  1  0  0  0  0
 31 73  1  0  0  0  0
 32 35  1  0  0  0  0
 33 74  1  0  0  0  0
 34 36  1  0  0  0  0
 34 75  1  0  0  0  0
 34 76  1  0  0  0  0
 35 37  1  0  0  0  0
 35 78  1  0  0  0  0
 35 79  1  0  0  0  0
 36 80  1  0  0  0  0
 36 81  1  0  0  0  0
 36 82  1  0  0  0  0
 37 38  2  0  0  0  0
 37 39  1  0  0  0  0
 38 40  1  0  0  0  0
 38 83  1  0  0  0  0
 39 41  2  0  0  0  0
 39 84  1  0  0  0  0
 40 42  2  0  0  0  0
 40 43  1  0  0  0  0
 41 42  1  0  0  0  0
 41 85  1  0  0  0  0
 44 86  1  0  0  0  0
 44 87  1  0  0  0  0
 44 88  1  0  0  0  0
M  END
> <PUBCHEM_COMPOUND_CID>
516200
> <PUBCHEM_COMPOUND_CANONICALIZED>
1
> <PUBCHEM_CACTVS_COMPLEXITY>
983
> <PUBCHEM_CACTVS_HBOND_ACCEPTOR>
8
> <PUBCHEM_CACTVS_HBOND_DONOR>
1
> <PUBCHEM_CACTVS_ROTATABLE_BOND>
11
> <PUBCHEM_CACTVS_SUBSKEYS>
AAADcfB/sQAAAAAAAAAAAAAAAAAAAWLAAAA8YIAAAAAAAAAB0AAAHwAICAAADSzBng4yjpMIBgC6ByTyTACyDAAhogAY2CG+bJgOpjLE8fuE9ChkyBHY6A+QwOAOoAACAAAIAABAAAQAABAAAAAAAAAAAA==
> <PUBCHEM_IUPAC_OPENEYE_NAME>
(2R)-2-[(3S,4S)-3-[[4-[5-[(3-cyano-4-methoxy-phenyl)methyl]-2-ethyl-pyrazol-3-yl]-1-piperidyl]methyl]-4-(3-fluorophenyl)pyrrolidin-1-yl]-3-methyl-butanoic acid
> <PUBCHEM_IUPAC_CAS_NAME>
(2R)-2-[(3S,4S)-3-[[4-[5-[(3-cyano-4-methoxyphenyl)methyl]-2-ethyl-3-pyrazolyl]-1-piperidinyl]methyl]-4-(3-fluorophenyl)-1-pyrrolidinyl]-3-methylbutanoic acid
> <PUBCHEM_IUPAC_NAME_MARKUP>
(2<I>R</I>)-2-[(3<I>S</I>,4<I>S</I>)-3-[[4-[5-[(3-cyano-4-methoxyphenyl)methyl]-2-ethylpyrazol-3-yl]piperidin-1-yl]methyl]-4-(3-fluorophenyl)pyrrolidin-1-yl]-3-methylbutanoic acid
> <PUBCHEM_IUPAC_NAME>
(2R)-2-[(3S,4S)-3-[[4-[5-[(3-cyano-4-methoxyphenyl)methyl]-2-ethylpyrazol-3-yl]piperidin-1-yl]methyl]-4-(3-fluorophenyl)pyrrolidin-1-yl]-3-methylbutanoic acid
> <PUBCHEM_IUPAC_SYSTEMATIC_NAME>
(2R)-2-[(3S,4S)-3-[[4-[5-[(3-cyano-4-methoxy-phenyl)methyl]-2-ethyl-pyrazol-3-yl]piperidin-1-yl]methyl]-4-(3-fluorophenyl)pyrrolidin-1-yl]-3-methyl-butanoic acid
> <PUBCHEM_IUPAC_TRADITIONAL_NAME>
(2R)-2-[(3S,4S)-3-[[4-[5-(3-cyano-4-methoxy-benzyl)-2-ethyl-pyrazol-3-yl]piperidino]methyl]-4-(3-fluorophenyl)pyrrolidino]-3-methyl-butyric acid
> <PUBCHEM_IUPAC_INCHI>
InChI=1S/C35H44FN5O3/c1-5-41-32(18-30(38-41)16-24-9-10-33(44-4)27(15-24)19-37)25-11-13-39(14-12-25)20-28-21-40(34(23(2)3)35(42)43)22-31(28)26-7-6-8-29(36)17-26/h6-10,15,17-18,23,25,28,31,34H,5,11-14,16,20-22H2,1-4H3,(H,42,43)/t28-,31+,34+/m0/s1
> <PUBCHEM_IUPAC_INCHIKEY>
RLMKPCDGHIJQNP-LKQHQURMSA-N
> <PUBCHEM_XLOGP3_AA>
3.4
> <PUBCHEM_EXACT_MASS>
601.34281844
> <PUBCHEM_MOLECULAR_FORMULA>
C35H44FN5O3
> <PUBCHEM_MOLECULAR_WEIGHT>
601.8
> <PUBCHEM_OPENEYE_CAN_SMILES>
CCN1C(=CC(=N1)CC2=CC(=C(C=C2)OC)C#N)C3CCN(CC3)CC4CN(CC4C5=CC(=CC=C5)F)C(C(C)C)C(=O)O
> <PUBCHEM_OPENEYE_ISO_SMILES>
CCN1C(=CC(=N1)CC2=CC(=C(C=C2)OC)C#N)C3CCN(CC3)C[C@H]4CN(C[C@@H]4C5=CC(=CC=C5)F)[C@H](C(C)C)C(=O)O
> <PUBCHEM_CACTVS_TPSA>
94.6
> <PUBCHEM_MONOISOTOPIC_WEIGHT>
601.34281844
> <PUBCHEM_TOTAL_CHARGE>
0
> <PUBCHEM_HEAVY_ATOM_COUNT>
44
> <PUBCHEM_ATOM_DEF_STEREO_COUNT>
3
> <PUBCHEM_ATOM_UDEF_STEREO_COUNT>
0
> <PUBCHEM_BOND_DEF_STEREO_COUNT>
0
> <PUBCHEM_BOND_UDEF_STEREO_COUNT>
0
> <PUBCHEM_ISOTOPIC_ATOM_COUNT>
0
> <PUBCHEM_COMPONENT_COUNT>
1
> <PUBCHEM_CACTVS_TAUTO_COUNT>
-1
> <PUBCHEM_COORDINATE_TYPE>
1
5
255
> <PUBCHEM_BONDANNOTATIONS>
10  14  5
11  18  6
15  24  6
18  25  8
18  26  8
23  29  8
25  30  8
26  31  8
29  32  8
30  33  8
31  33  8
37  38  8
37  39  8
38  40  8
39  41  8
40  42  8
41  42  8
7  23  8
7  8  8
8  32  8
$$$$
