516277
  -OEChem-10302200282D
 99103  0     1  0  0  0  0  0999 V2000
    9.8078   -6.1193    0.0000 F   0  0  0  0  0  0  0  0  0  0  0  0
    2.3644   -5.3409    0.0000 O   0  0  0  0  0  0  0  0  0  0  0  0
    3.7657   -6.3590    0.0000 O   0  0  0  0  0  0  0  0  0  0  0  0
    6.8508    6.0975    0.0000 O   0  0  0  0  0  0  0  0  0  0  0  0
    4.9413   -4.7410    0.0000 N   0  0  3  0  0  0  0  0  0  0  0  0
    7.3900   -2.9046    0.0000 N   0  0  0  0  0  0  0  0  0  0  0  0
    6.5809    0.6832    0.0000 N   0  0  0  0  0  0  0  0  0  0  0  0
    6.8900    1.6343    0.0000 N   0  0  0  0  0  0  0  0  0  0  0  0
    6.5239   -4.4046    0.0000 C   0  0  2  0  0  0  0  0  0  0  0  0
    6.4194   -5.3991    0.0000 C   0  0  2  0  0  0  0  0  0  0  0  0
    5.6104   -3.9978    0.0000 C   0  0  0  0  0  0  0  0  0  0  0  0
    5.4413   -5.6070    0.0000 C   0  0  0  0  0  0  0  0  0  0  0  0
    7.3900   -3.9046    0.0000 C   0  0  0  0  0  0  0  0  0  0  0  0
    3.9467   -4.6364    0.0000 C   0  0  2  0  0  0  0  0  0  0  0  0
    3.5400   -3.7229    0.0000 C   0  0  0  0  0  0  0  0  0  0  0  0
    7.1626   -6.0682    0.0000 C   0  0  0  0  0  0  0  0  0  0  0  0
    6.5239   -2.4046    0.0000 C   0  0  0  0  0  0  0  0  0  0  0  0
    8.2560   -2.4046    0.0000 C   0  0  0  0  0  0  0  0  0  0  0  0
    7.3900   -0.9046    0.0000 C   0  0  0  0  0  0  0  0  0  0  0  0
    6.5239   -1.4046    0.0000 C   0  0  0  0  0  0  0  0  0  0  0  0
    8.2560   -1.4046    0.0000 C   0  0  0  0  0  0  0  0  0  0  0  0
    3.3590   -5.4455    0.0000 C   0  0  0  0  0  0  0  0  0  0  0  0
    3.1333   -2.8094    0.0000 C   0  0  0  0  0  0  0  0  0  0  0  0
    2.6264   -4.1296    0.0000 C   0  0  0  0  0  0  0  0  0  0  0  0
    4.4535   -3.3162    0.0000 C   0  0  0  0  0  0  0  0  0  0  0  0
    7.3900    0.0954    0.0000 C   0  0  0  0  0  0  0  0  0  0  0  0
    8.1136   -5.7592    0.0000 C   0  0  0  0  0  0  0  0  0  0  0  0
    6.9546   -7.0464    0.0000 C   0  0  0  0  0  0  0  0  0  0  0  0
    8.1990    0.6832    0.0000 C   0  0  0  0  0  0  0  0  0  0  0  0
    8.8568   -6.4283    0.0000 C   0  0  0  0  0  0  0  0  0  0  0  0
    7.6978   -7.7155    0.0000 C   0  0  0  0  0  0  0  0  0  0  0  0
    8.6488   -7.4065    0.0000 C   0  0  0  0  0  0  0  0  0  0  0  0
    7.8900    1.6343    0.0000 C   0  0  0  0  0  0  0  0  0  0  0  0
    5.6299    0.3742    0.0000 C   0  0  0  0  0  0  0  0  0  0  0  0
    8.4777    2.4433    0.0000 C   0  0  0  0  0  0  0  0  0  0  0  0
    4.8867    1.0433    0.0000 C   0  0  0  0  0  0  0  0  0  0  0  0
    8.0710    3.3568    0.0000 C   0  0  0  0  0  0  0  0  0  0  0  0
    8.6588    4.1658    0.0000 C   0  0  0  0  0  0  0  0  0  0  0  0
    7.0765    3.4614    0.0000 C   0  0  0  0  0  0  0  0  0  0  0  0
    8.2520    5.0794    0.0000 C   0  0  0  0  0  0  0  0  0  0  0  0
    6.6698    4.3749    0.0000 C   0  0  0  0  0  0  0  0  0  0  0  0
    7.2575    5.1839    0.0000 C   0  0  0  0  0  0  0  0  0  0  0  0
    7.4386    6.9065    0.0000 C   0  0  0  0  0  0  0  0  0  0  0  0
    8.0264    7.7155    0.0000 C   0  0  0  0  0  0  0  0  0  0  0  0
    6.6296    7.4943    0.0000 C   0  0  0  0  0  0  0  0  0  0  0  0
    8.2476    6.3187    0.0000 C   0  0  0  0  0  0  0  0  0  0  0  0
    6.4915   -3.7854    0.0000 H   0  0  0  0  0  0  0  0  0  0  0  0
    6.9982   -5.1769    0.0000 H   0  0  0  0  0  0  0  0  0  0  0  0
    5.9204   -3.4609    0.0000 H   0  0  0  0  0  0  0  0  0  0  0  0
    5.1088   -3.6334    0.0000 H   0  0  0  0  0  0  0  0  0  0  0  0
    4.8749   -5.8592    0.0000 H   0  0  0  0  0  0  0  0  0  0  0  0
    5.6328   -6.1967    0.0000 H   0  0  0  0  0  0  0  0  0  0  0  0
    7.6020   -4.4872    0.0000 H   0  0  0  0  0  0  0  0  0  0  0  0
    8.0005   -3.7969    0.0000 H   0  0  0  0  0  0  0  0  0  0  0  0
    4.1989   -5.2028    0.0000 H   0  0  0  0  0  0  0  0  0  0  0  0
    5.9134   -2.2969    0.0000 H   0  0  0  0  0  0  0  0  0  0  0  0
    6.3119   -2.9872    0.0000 H   0  0  0  0  0  0  0  0  0  0  0  0
    8.4680   -2.9872    0.0000 H   0  0  0  0  0  0  0  0  0  0  0  0
    8.8666   -2.2969    0.0000 H   0  0  0  0  0  0  0  0  0  0  0  0
    7.9269   -0.5946    0.0000 H   0  0  0  0  0  0  0  0  0  0  0  0
    6.3119   -0.8220    0.0000 H   0  0  0  0  0  0  0  0  0  0  0  0
    5.9134   -1.5122    0.0000 H   0  0  0  0  0  0  0  0  0  0  0  0
    8.8666   -1.5122    0.0000 H   0  0  0  0  0  0  0  0  0  0  0  0
    8.4680   -0.8220    0.0000 H   0  0  0  0  0  0  0  0  0  0  0  0
    3.6997   -2.5572    0.0000 H   0  0  0  0  0  0  0  0  0  0  0  0
    2.8811   -2.2430    0.0000 H   0  0  0  0  0  0  0  0  0  0  0  0
    2.5669   -3.0615    0.0000 H   0  0  0  0  0  0  0  0  0  0  0  0
    2.3743   -3.5632    0.0000 H   0  0  0  0  0  0  0  0  0  0  0  0
    2.0600   -4.3818    0.0000 H   0  0  0  0  0  0  0  0  0  0  0  0
    2.8786   -4.6960    0.0000 H   0  0  0  0  0  0  0  0  0  0  0  0
    4.7057   -3.8826    0.0000 H   0  0  0  0  0  0  0  0  0  0  0  0
    5.0199   -3.0640    0.0000 H   0  0  0  0  0  0  0  0  0  0  0  0
    4.2014   -2.7498    0.0000 H   0  0  0  0  0  0  0  0  0  0  0  0
    8.2425   -5.1528    0.0000 H   0  0  0  0  0  0  0  0  0  0  0  0
    6.3650   -7.2380    0.0000 H   0  0  0  0  0  0  0  0  0  0  0  0
    8.7886    0.4916    0.0000 H   0  0  0  0  0  0  0  0  0  0  0  0
    7.5689   -8.3220    0.0000 H   0  0  0  0  0  0  0  0  0  0  0  0
    2.0000   -5.8425    0.0000 H   0  0  0  0  0  0  0  0  0  0  0  0
    9.1096   -7.8214    0.0000 H   0  0  0  0  0  0  0  0  0  0  0  0
    5.1413   -0.0075    0.0000 H   0  0  0  0  0  0  0  0  0  0  0  0
    5.9210   -0.1732    0.0000 H   0  0  0  0  0  0  0  0  0  0  0  0
    8.9084    1.9973    0.0000 H   0  0  0  0  0  0  0  0  0  0  0  0
    8.9918    2.7900    0.0000 H   0  0  0  0  0  0  0  0  0  0  0  0
    5.3016    1.5041    0.0000 H   0  0  0  0  0  0  0  0  0  0  0  0
    4.4260    1.4582    0.0000 H   0  0  0  0  0  0  0  0  0  0  0  0
    4.4719    0.5826    0.0000 H   0  0  0  0  0  0  0  0  0  0  0  0
    9.2754    4.1010    0.0000 H   0  0  0  0  0  0  0  0  0  0  0  0
    6.7121    2.9598    0.0000 H   0  0  0  0  0  0  0  0  0  0  0  0
    8.6165    5.5810    0.0000 H   0  0  0  0  0  0  0  0  0  0  0  0
    6.0531    4.4397    0.0000 H   0  0  0  0  0  0  0  0  0  0  0  0
    8.5280    7.3511    0.0000 H   0  0  0  0  0  0  0  0  0  0  0  0
    8.3908    8.2171    0.0000 H   0  0  0  0  0  0  0  0  0  0  0  0
    7.5248    8.0799    0.0000 H   0  0  0  0  0  0  0  0  0  0  0  0
    6.9940    7.9959    0.0000 H   0  0  0  0  0  0  0  0  0  0  0  0
    6.1280    7.8587    0.0000 H   0  0  0  0  0  0  0  0  0  0  0  0
    6.2651    6.9927    0.0000 H   0  0  0  0  0  0  0  0  0  0  0  0
    7.8832    5.8171    0.0000 H   0  0  0  0  0  0  0  0  0  0  0  0
    8.7492    5.9543    0.0000 H   0  0  0  0  0  0  0  0  0  0  0  0
    8.6120    6.8203    0.0000 H   0  0  0  0  0  0  0  0  0  0  0  0
  1 30  1  0  0  0  0
  2 22  1  0  0  0  0
  2 78  1  0  0  0  0
  3 22  2  0  0  0  0
  4 42  1  0  0  0  0
  4 43  1  0  0  0  0
  5 11  1  0  0  0  0
  5 12  1  0  0  0  0
  5 14  1  0  0  0  0
  6 13  1  0  0  0  0
  6 17  1  0  0  0  0
  6 18  1  0  0  0  0
  7  8  1  0  0  0  0
  7 26  1  0  0  0  0
  7 34  1  0  0  0  0
  8 33  2  0  0  0  0
  9 10  1  0  0  0  0
  9 11  1  0  0  0  0
  9 13  1  6  0  0  0
  9 47  1  0  0  0  0
 10 12  1  0  0  0  0
 10 16  1  1  0  0  0
 10 48  1  0  0  0  0
 11 49  1  0  0  0  0
 11 50  1  0  0  0  0
 12 51  1  0  0  0  0
 12 52  1  0  0  0  0
 13 53  1  0  0  0  0
 13 54  1  0  0  0  0
 14 15  1  0  0  0  0
 14 22  1  1  0  0  0
 14 55  1  0  0  0  0
 15 23  1  0  0  0  0
 15 24  1  0  0  0  0
 15 25  1  0  0  0  0
 16 27  2  0  0  0  0
 16 28  1  0  0  0  0
 17 20  1  0  0  0  0
 17 56  1  0  0  0  0
 17 57  1  0  0  0  0
 18 21  1  0  0  0  0
 18 58  1  0  0  0  0
 18 59  1  0  0  0  0
 19 20  1  0  0  0  0
 19 21  1  0  0  0  0
 19 26  1  0  0  0  0
 19 60  1  0  0  0  0
 20 61  1  0  0  0  0
 20 62  1  0  0  0  0
 21 63  1  0  0  0  0
 21 64  1  0  0  0  0
 23 65  1  0  0  0  0
 23 66  1  0  0  0  0
 23 67  1  0  0  0  0
 24 68  1  0  0  0  0
 24 69  1  0  0  0  0
 24 70  1  0  0  0  0
 25 71  1  0  0  0  0
 25 72  1  0  0  0  0
 25 73  1  0  0  0  0
 26 29  2  0  0  0  0
 27 30  1  0  0  0  0
 27 74  1  0  0  0  0
 28 31  2  0  0  0  0
 28 75  1  0  0  0  0
 29 33  1  0  0  0  0
 29 76  1  0  0  0  0
 30 32  2  0  0  0  0
 31 32  1  0  0  0  0
 31 77  1  0  0  0  0
 32 79  1  0  0  0  0
 33 35  1  0  0  0  0
 34 36  1  0  0  0  0
 34 80  1  0  0  0  0
 34 81  1  0  0  0  0
 35 37  1  0  0  0  0
 35 82  1  0  0  0  0
 35 83  1  0  0  0  0
 36 84  1  0  0  0  0
 36 85  1  0  0  0  0
 36 86  1  0  0  0  0
 37 38  2  0  0  0  0
 37 39  1  0  0  0  0
 38 40  1  0  0  0  0
 38 87  1  0  0  0  0
 39 41  2  0  0  0  0
 39 88  1  0  0  0  0
 40 42  2  0  0  0  0
 40 89  1  0  0  0  0
 41 42  1  0  0  0  0
 41 90  1  0  0  0  0
 43 44  1  0  0  0  0
 43 45  1  0  0  0  0
 43 46  1  0  0  0  0
 44 91  1  0  0  0  0
 44 92  1  0  0  0  0
 44 93  1  0  0  0  0
 45 94  1  0  0  0  0
 45 95  1  0  0  0  0
 45 96  1  0  0  0  0
 46 97  1  0  0  0  0
 46 98  1  0  0  0  0
 46 99  1  0  0  0  0
M  END
> <PUBCHEM_COMPOUND_CID>
516277
> <PUBCHEM_COMPOUND_CANONICALIZED>
1
> <PUBCHEM_CACTVS_COMPLEXITY>
968
> <PUBCHEM_CACTVS_HBOND_ACCEPTOR>
7
> <PUBCHEM_CACTVS_HBOND_DONOR>
1
> <PUBCHEM_CACTVS_ROTATABLE_BOND>
12
> <PUBCHEM_CACTVS_SUBSKEYS>
AAADcfB/sQAAAAAAAAAAAAAAAAAAAWLAAAA8YIAAAAAAAAAB0AAAHwAICAAAD2zBngwyjpMIBgCqAyTyTACSDAAhogAY2CG+bJgOJjLE8fuG/CjkyBHY6AeQwOAPoAAAAAAAAABAAAAAAAAAAAAAAAAAAA==
> <PUBCHEM_IUPAC_OPENEYE_NAME>
(2R)-2-[(3S,4S)-3-[[4-[5-[(4-tert-butoxyphenyl)methyl]-2-ethyl-pyrazol-3-yl]-1-piperidyl]methyl]-4-(3-fluorophenyl)pyrrolidin-1-yl]-3,3-dimethyl-butanoic acid
> <PUBCHEM_IUPAC_CAS_NAME>
(2R)-2-[(3S,4S)-3-[[4-[2-ethyl-5-[[4-[(2-methylpropan-2-yl)oxy]phenyl]methyl]-3-pyrazolyl]-1-piperidinyl]methyl]-4-(3-fluorophenyl)-1-pyrrolidinyl]-3,3-dimethylbutanoic acid
> <PUBCHEM_IUPAC_NAME_MARKUP>
(2<I>R</I>)-2-[(3<I>S</I>,4<I>S</I>)-3-[[4-[2-ethyl-5-[[4-[(2-methylpropan-2-yl)oxy]phenyl]methyl]pyrazol-3-yl]piperidin-1-yl]methyl]-4-(3-fluorophenyl)pyrrolidin-1-yl]-3,3-dimethylbutanoic acid
> <PUBCHEM_IUPAC_NAME>
(2R)-2-[(3S,4S)-3-[[4-[2-ethyl-5-[[4-[(2-methylpropan-2-yl)oxy]phenyl]methyl]pyrazol-3-yl]piperidin-1-yl]methyl]-4-(3-fluorophenyl)pyrrolidin-1-yl]-3,3-dimethylbutanoic acid
> <PUBCHEM_IUPAC_SYSTEMATIC_NAME>
(2R)-2-[(3S,4S)-3-[[4-[2-ethyl-5-[[4-[(2-methylpropan-2-yl)oxy]phenyl]methyl]pyrazol-3-yl]piperidin-1-yl]methyl]-4-(3-fluorophenyl)pyrrolidin-1-yl]-3,3-dimethyl-butanoic acid
> <PUBCHEM_IUPAC_TRADITIONAL_NAME>
(2R)-2-[(3S,4S)-3-[[4-[5-(4-tert-butoxybenzyl)-2-ethyl-pyrazol-3-yl]piperidino]methyl]-4-(3-fluorophenyl)pyrrolidino]-3,3-dimethyl-butyric acid
> <PUBCHEM_IUPAC_INCHI>
InChI=1S/C38H53FN4O3/c1-8-43-34(22-31(40-43)20-26-12-14-32(15-13-26)46-38(5,6)7)27-16-18-41(19-17-27)23-29-24-42(35(36(44)45)37(2,3)4)25-33(29)28-10-9-11-30(39)21-28/h9-15,21-22,27,29,33,35H,8,16-20,23-25H2,1-7H3,(H,44,45)/t29-,33+,35-/m0/s1
> <PUBCHEM_IUPAC_INCHIKEY>
CYOVZSWTZMONDR-AUFCLJJTSA-N
> <PUBCHEM_XLOGP3_AA>
5.1
> <PUBCHEM_EXACT_MASS>
632.41016973
> <PUBCHEM_MOLECULAR_FORMULA>
C38H53FN4O3
> <PUBCHEM_MOLECULAR_WEIGHT>
632.8
> <PUBCHEM_OPENEYE_CAN_SMILES>
CCN1C(=CC(=N1)CC2=CC=C(C=C2)OC(C)(C)C)C3CCN(CC3)CC4CN(CC4C5=CC(=CC=C5)F)C(C(=O)O)C(C)(C)C
> <PUBCHEM_OPENEYE_ISO_SMILES>
CCN1C(=CC(=N1)CC2=CC=C(C=C2)OC(C)(C)C)C3CCN(CC3)C[C@H]4CN(C[C@@H]4C5=CC(=CC=C5)F)[C@@H](C(=O)O)C(C)(C)C
> <PUBCHEM_CACTVS_TPSA>
70.8
> <PUBCHEM_MONOISOTOPIC_WEIGHT>
632.41016973
> <PUBCHEM_TOTAL_CHARGE>
0
> <PUBCHEM_HEAVY_ATOM_COUNT>
46
> <PUBCHEM_ATOM_DEF_STEREO_COUNT>
3
> <PUBCHEM_ATOM_UDEF_STEREO_COUNT>
0
> <PUBCHEM_BOND_DEF_STEREO_COUNT>
0
> <PUBCHEM_BOND_UDEF_STEREO_COUNT>
0
> <PUBCHEM_ISOTOPIC_ATOM_COUNT>
0
> <PUBCHEM_COMPONENT_COUNT>
1
> <PUBCHEM_CACTVS_TAUTO_COUNT>
-1
> <PUBCHEM_COORDINATE_TYPE>
1
5
255
> <PUBCHEM_BONDANNOTATIONS>
10  16  5
14  22  5
16  27  8
16  28  8
26  29  8
27  30  8
28  31  8
29  33  8
30  32  8
31  32  8
37  38  8
37  39  8
38  40  8
39  41  8
40  42  8
41  42  8
7  26  8
7  8  8
8  33  8
9  13  6
$$$$
