516284
  -OEChem-10302200282D
 94 98  0     1  0  0  0  0  0999 V2000
   12.9747   -2.7559    0.0000 F   0  0  0  0  0  0  0  0  0  0  0  0
   12.9787    4.7281    0.0000 O   0  0  0  0  0  0  0  0  0  0  0  0
   13.8447    3.2281    0.0000 O   0  0  0  0  0  0  0  0  0  0  0  0
    2.8660   -3.5381    0.0000 O   0  0  0  0  0  0  0  0  0  0  0  0
    4.5981   -4.5381    0.0000 O   0  0  0  0  0  0  0  0  0  0  0  0
   12.1127    2.2281    0.0000 N   0  0  3  0  0  0  0  0  0  0  0  0
   10.0303   -0.0153    0.0000 N   0  0  0  0  0  0  0  0  0  0  0  0
    6.5468    1.1644    0.0000 N   0  0  0  0  0  0  0  0  0  0  0  0
    5.5686    0.9564    0.0000 N   0  0  0  0  0  0  0  0  0  0  0  0
   11.6127    0.6892    0.0000 C   0  0  2  0  0  0  0  0  0  0  0  0
   12.6127    0.6892    0.0000 C   0  0  2  0  0  0  0  0  0  0  0  0
   11.3036    1.6403    0.0000 C   0  0  0  0  0  0  0  0  0  0  0  0
   12.9217    1.6403    0.0000 C   0  0  0  0  0  0  0  0  0  0  0  0
   11.0249   -0.1198    0.0000 C   0  0  0  0  0  0  0  0  0  0  0  0
   12.1127    3.2281    0.0000 C   0  0  2  0  0  0  0  0  0  0  0  0
   11.2466    3.7281    0.0000 C   0  0  0  0  0  0  0  0  0  0  0  0
   13.2004   -0.1198    0.0000 C   0  0  0  0  0  0  0  0  0  0  0  0
    9.6236    0.8983    0.0000 C   0  0  0  0  0  0  0  0  0  0  0  0
    9.4426   -0.8243    0.0000 C   0  0  0  0  0  0  0  0  0  0  0  0
    8.0413    0.1938    0.0000 C   0  0  0  0  0  0  0  0  0  0  0  0
    8.6291    1.0028    0.0000 C   0  0  0  0  0  0  0  0  0  0  0  0
    8.4480   -0.7197    0.0000 C   0  0  0  0  0  0  0  0  0  0  0  0
   12.9787    3.7281    0.0000 C   0  0  0  0  0  0  0  0  0  0  0  0
   10.3806    4.2281    0.0000 C   0  0  0  0  0  0  0  0  0  0  0  0
   11.7466    4.5941    0.0000 C   0  0  0  0  0  0  0  0  0  0  0  0
   10.7466    2.8620    0.0000 C   0  0  0  0  0  0  0  0  0  0  0  0
    7.0468    0.2983    0.0000 C   0  0  0  0  0  0  0  0  0  0  0  0
   12.7937   -1.0333    0.0000 C   0  0  0  0  0  0  0  0  0  0  0  0
   14.1950   -0.0153    0.0000 C   0  0  0  0  0  0  0  0  0  0  0  0
    6.3776   -0.4448    0.0000 C   0  0  0  0  0  0  0  0  0  0  0  0
   13.3815   -1.8423    0.0000 C   0  0  0  0  0  0  0  0  0  0  0  0
   14.7827   -0.8243    0.0000 C   0  0  0  0  0  0  0  0  0  0  0  0
   14.3760   -1.7378    0.0000 C   0  0  0  0  0  0  0  0  0  0  0  0
    5.4641   -0.0381    0.0000 C   0  0  0  0  0  0  0  0  0  0  0  0
    6.9535    2.0779    0.0000 C   0  0  0  0  0  0  0  0  0  0  0  0
    4.5981   -0.5381    0.0000 C   0  0  0  0  0  0  0  0  0  0  0  0
    6.3657    2.8869    0.0000 C   0  0  0  0  0  0  0  0  0  0  0  0
    4.5981   -1.5381    0.0000 C   0  0  0  0  0  0  0  0  0  0  0  0
    3.7320   -2.0381    0.0000 C   0  0  0  0  0  0  0  0  0  0  0  0
    5.4641   -2.0381    0.0000 C   0  0  0  0  0  0  0  0  0  0  0  0
    3.7320   -3.0381    0.0000 C   0  0  0  0  0  0  0  0  0  0  0  0
    5.4641   -3.0381    0.0000 C   0  0  0  0  0  0  0  0  0  0  0  0
    4.5981   -3.5381    0.0000 C   0  0  0  0  0  0  0  0  0  0  0  0
    2.0000   -3.0381    0.0000 C   0  0  0  0  0  0  0  0  0  0  0  0
    5.4641   -5.0381    0.0000 C   0  0  0  0  0  0  0  0  0  0  0  0
   11.8941    0.1368    0.0000 H   0  0  0  0  0  0  0  0  0  0  0  0
   13.2250    0.7862    0.0000 H   0  0  0  0  0  0  0  0  0  0  0  0
   10.9936    2.1772    0.0000 H   0  0  0  0  0  0  0  0  0  0  0  0
   10.7372    1.3881    0.0000 H   0  0  0  0  0  0  0  0  0  0  0  0
   13.4881    1.3881    0.0000 H   0  0  0  0  0  0  0  0  0  0  0  0
   13.2317    2.1772    0.0000 H   0  0  0  0  0  0  0  0  0  0  0  0
   10.8540   -0.7158    0.0000 H   0  0  0  0  0  0  0  0  0  0  0  0
   11.5821   -0.3916    0.0000 H   0  0  0  0  0  0  0  0  0  0  0  0
   12.6496    2.9181    0.0000 H   0  0  0  0  0  0  0  0  0  0  0  0
   10.2252    1.0483    0.0000 H   0  0  0  0  0  0  0  0  0  0  0  0
    9.5804    1.5168    0.0000 H   0  0  0  0  0  0  0  0  0  0  0  0
    9.2717   -1.4202    0.0000 H   0  0  0  0  0  0  0  0  0  0  0  0
    9.9998   -1.0961    0.0000 H   0  0  0  0  0  0  0  0  0  0  0  0
    7.6769   -0.3078    0.0000 H   0  0  0  0  0  0  0  0  0  0  0  0
    8.8000    1.5988    0.0000 H   0  0  0  0  0  0  0  0  0  0  0  0
    8.0718    1.2746    0.0000 H   0  0  0  0  0  0  0  0  0  0  0  0
    7.8464   -0.8697    0.0000 H   0  0  0  0  0  0  0  0  0  0  0  0
    8.4913   -1.3382    0.0000 H   0  0  0  0  0  0  0  0  0  0  0  0
   10.6906    4.7650    0.0000 H   0  0  0  0  0  0  0  0  0  0  0  0
    9.8437    4.5381    0.0000 H   0  0  0  0  0  0  0  0  0  0  0  0
   10.0706    3.6911    0.0000 H   0  0  0  0  0  0  0  0  0  0  0  0
   12.2836    4.2841    0.0000 H   0  0  0  0  0  0  0  0  0  0  0  0
   12.0566    5.1310    0.0000 H   0  0  0  0  0  0  0  0  0  0  0  0
   11.2097    4.9041    0.0000 H   0  0  0  0  0  0  0  0  0  0  0  0
   10.2097    3.1720    0.0000 H   0  0  0  0  0  0  0  0  0  0  0  0
   10.4366    2.3251    0.0000 H   0  0  0  0  0  0  0  0  0  0  0  0
   11.2836    2.5520    0.0000 H   0  0  0  0  0  0  0  0  0  0  0  0
   12.1771   -1.0981    0.0000 H   0  0  0  0  0  0  0  0  0  0  0  0
   14.4471    0.5511    0.0000 H   0  0  0  0  0  0  0  0  0  0  0  0
    6.5066   -1.0513    0.0000 H   0  0  0  0  0  0  0  0  0  0  0  0
   15.3993   -0.7595    0.0000 H   0  0  0  0  0  0  0  0  0  0  0  0
   13.5156    5.0381    0.0000 H   0  0  0  0  0  0  0  0  0  0  0  0
   14.7404   -2.2394    0.0000 H   0  0  0  0  0  0  0  0  0  0  0  0
    7.4675    1.7312    0.0000 H   0  0  0  0  0  0  0  0  0  0  0  0
    7.3842    2.5239    0.0000 H   0  0  0  0  0  0  0  0  0  0  0  0
    4.3860    0.0445    0.0000 H   0  0  0  0  0  0  0  0  0  0  0  0
    3.9875   -0.6457    0.0000 H   0  0  0  0  0  0  0  0  0  0  0  0
    6.8673    3.2514    0.0000 H   0  0  0  0  0  0  0  0  0  0  0  0
    6.0013    3.3885    0.0000 H   0  0  0  0  0  0  0  0  0  0  0  0
    5.8641    2.5225    0.0000 H   0  0  0  0  0  0  0  0  0  0  0  0
    3.1951   -1.7281    0.0000 H   0  0  0  0  0  0  0  0  0  0  0  0
    6.0010   -1.7281    0.0000 H   0  0  0  0  0  0  0  0  0  0  0  0
    6.0010   -3.3481    0.0000 H   0  0  0  0  0  0  0  0  0  0  0  0
    2.3100   -2.5011    0.0000 H   0  0  0  0  0  0  0  0  0  0  0  0
    1.4631   -2.7281    0.0000 H   0  0  0  0  0  0  0  0  0  0  0  0
    1.6900   -3.5750    0.0000 H   0  0  0  0  0  0  0  0  0  0  0  0
    5.1541   -5.5750    0.0000 H   0  0  0  0  0  0  0  0  0  0  0  0
    6.0010   -5.3481    0.0000 H   0  0  0  0  0  0  0  0  0  0  0  0
    5.7741   -4.5011    0.0000 H   0  0  0  0  0  0  0  0  0  0  0  0
  1 31  1  0  0  0  0
  2 23  1  0  0  0  0
  2 77  1  0  0  0  0
  3 23  2  0  0  0  0
  4 41  1  0  0  0  0
  4 44  1  0  0  0  0
  5 43  1  0  0  0  0
  5 45  1  0  0  0  0
  6 12  1  0  0  0  0
  6 13  1  0  0  0  0
  6 15  1  0  0  0  0
  7 14  1  0  0  0  0
  7 18  1  0  0  0  0
  7 19  1  0  0  0  0
  8  9  1  0  0  0  0
  8 27  1  0  0  0  0
  8 35  1  0  0  0  0
  9 34  2  0  0  0  0
 10 11  1  0  0  0  0
 10 12  1  0  0  0  0
 10 14  1  1  0  0  0
 10 46  1  0  0  0  0
 11 13  1  0  0  0  0
 11 17  1  6  0  0  0
 11 47  1  0  0  0  0
 12 48  1  0  0  0  0
 12 49  1  0  0  0  0
 13 50  1  0  0  0  0
 13 51  1  0  0  0  0
 14 52  1  0  0  0  0
 14 53  1  0  0  0  0
 15 16  1  0  0  0  0
 15 23  1  6  0  0  0
 15 54  1  0  0  0  0
 16 24  1  0  0  0  0
 16 25  1  0  0  0  0
 16 26  1  0  0  0  0
 17 28  2  0  0  0  0
 17 29  1  0  0  0  0
 18 21  1  0  0  0  0
 18 55  1  0  0  0  0
 18 56  1  0  0  0  0
 19 22  1  0  0  0  0
 19 57  1  0  0  0  0
 19 58  1  0  0  0  0
 20 21  1  0  0  0  0
 20 22  1  0  0  0  0
 20 27  1  0  0  0  0
 20 59  1  0  0  0  0
 21 60  1  0  0  0  0
 21 61  1  0  0  0  0
 22 62  1  0  0  0  0
 22 63  1  0  0  0  0
 24 64  1  0  0  0  0
 24 65  1  0  0  0  0
 24 66  1  0  0  0  0
 25 67  1  0  0  0  0
 25 68  1  0  0  0  0
 25 69  1  0  0  0  0
 26 70  1  0  0  0  0
 26 71  1  0  0  0  0
 26 72  1  0  0  0  0
 27 30  2  0  0  0  0
 28 31  1  0  0  0  0
 28 73  1  0  0  0  0
 29 32  2  0  0  0  0
 29 74  1  0  0  0  0
 30 34  1  0  0  0  0
 30 75  1  0  0  0  0
 31 33  2  0  0  0  0
 32 33  1  0  0  0  0
 32 76  1  0  0  0  0
 33 78  1  0  0  0  0
 34 36  1  0  0  0  0
 35 37  1  0  0  0  0
 35 79  1  0  0  0  0
 35 80  1  0  0  0  0
 36 38  1  0  0  0  0
 36 81  1  0  0  0  0
 36 82  1  0  0  0  0
 37 83  1  0  0  0  0
 37 84  1  0  0  0  0
 37 85  1  0  0  0  0
 38 39  2  0  0  0  0
 38 40  1  0  0  0  0
 39 41  1  0  0  0  0
 39 86  1  0  0  0  0
 40 42  2  0  0  0  0
 40 87  1  0  0  0  0
 41 43  2  0  0  0  0
 42 43  1  0  0  0  0
 42 88  1  0  0  0  0
 44 89  1  0  0  0  0
 44 90  1  0  0  0  0
 44 91  1  0  0  0  0
 45 92  1  0  0  0  0
 45 93  1  0  0  0  0
 45 94  1  0  0  0  0
M  END
> <PUBCHEM_COMPOUND_CID>
516284
> <PUBCHEM_COMPOUND_CANONICALIZED>
1
> <PUBCHEM_CACTVS_COMPLEXITY>
943
> <PUBCHEM_CACTVS_HBOND_ACCEPTOR>
8
> <PUBCHEM_CACTVS_HBOND_DONOR>
1
> <PUBCHEM_CACTVS_ROTATABLE_BOND>
12
> <PUBCHEM_CACTVS_SUBSKEYS>
AAADcfB/uQAAAAAAAAAAAAAAAAAAAWLAAAA8YIAAAAAAAAAB0AAAHwAICAAADyzBng4yjpMIBgCqAyTyTACSDAAhogAY2CG+7JgPJjLE8fuE9CpkyBHa6AeQ0PEPoAABAAAAQABAAAIAAACAAAAAAAAAAA==
> <PUBCHEM_IUPAC_OPENEYE_NAME>
(2R)-2-[(3S,4S)-3-[[4-[5-[(3,4-dimethoxyphenyl)methyl]-2-ethyl-pyrazol-3-yl]-1-piperidyl]methyl]-4-(3-fluorophenyl)pyrrolidin-1-yl]-3,3-dimethyl-butanoic acid
> <PUBCHEM_IUPAC_CAS_NAME>
(2R)-2-[(3S,4S)-3-[[4-[5-[(3,4-dimethoxyphenyl)methyl]-2-ethyl-3-pyrazolyl]-1-piperidinyl]methyl]-4-(3-fluorophenyl)-1-pyrrolidinyl]-3,3-dimethylbutanoic acid
> <PUBCHEM_IUPAC_NAME_MARKUP>
(2<I>R</I>)-2-[(3<I>S</I>,4<I>S</I>)-3-[[4-[5-[(3,4-dimethoxyphenyl)methyl]-2-ethylpyrazol-3-yl]piperidin-1-yl]methyl]-4-(3-fluorophenyl)pyrrolidin-1-yl]-3,3-dimethylbutanoic acid
> <PUBCHEM_IUPAC_NAME>
(2R)-2-[(3S,4S)-3-[[4-[5-[(3,4-dimethoxyphenyl)methyl]-2-ethylpyrazol-3-yl]piperidin-1-yl]methyl]-4-(3-fluorophenyl)pyrrolidin-1-yl]-3,3-dimethylbutanoic acid
> <PUBCHEM_IUPAC_SYSTEMATIC_NAME>
(2R)-2-[(3S,4S)-3-[[4-[5-[(3,4-dimethoxyphenyl)methyl]-2-ethyl-pyrazol-3-yl]piperidin-1-yl]methyl]-4-(3-fluorophenyl)pyrrolidin-1-yl]-3,3-dimethyl-butanoic acid
> <PUBCHEM_IUPAC_TRADITIONAL_NAME>
(2R)-2-[(3S,4S)-3-[[4-(2-ethyl-5-veratryl-pyrazol-3-yl)piperidino]methyl]-4-(3-fluorophenyl)pyrrolidino]-3,3-dimethyl-butyric acid
> <PUBCHEM_IUPAC_INCHI>
InChI=1S/C36H49FN4O4/c1-7-41-31(20-29(38-41)17-24-11-12-32(44-5)33(18-24)45-6)25-13-15-39(16-14-25)21-27-22-40(34(35(42)43)36(2,3)4)23-30(27)26-9-8-10-28(37)19-26/h8-12,18-20,25,27,30,34H,7,13-17,21-23H2,1-6H3,(H,42,43)/t27-,30+,34-/m0/s1
> <PUBCHEM_IUPAC_INCHIKEY>
RCAXDUZVJIMXJF-UFZHQWOOSA-N
> <PUBCHEM_XLOGP3_AA>
4
> <PUBCHEM_EXACT_MASS>
620.37378422
> <PUBCHEM_MOLECULAR_FORMULA>
C36H49FN4O4
> <PUBCHEM_MOLECULAR_WEIGHT>
620.8
> <PUBCHEM_OPENEYE_CAN_SMILES>
CCN1C(=CC(=N1)CC2=CC(=C(C=C2)OC)OC)C3CCN(CC3)CC4CN(CC4C5=CC(=CC=C5)F)C(C(=O)O)C(C)(C)C
> <PUBCHEM_OPENEYE_ISO_SMILES>
CCN1C(=CC(=N1)CC2=CC(=C(C=C2)OC)OC)C3CCN(CC3)C[C@H]4CN(C[C@@H]4C5=CC(=CC=C5)F)[C@@H](C(=O)O)C(C)(C)C
> <PUBCHEM_CACTVS_TPSA>
80.1
> <PUBCHEM_MONOISOTOPIC_WEIGHT>
620.37378422
> <PUBCHEM_TOTAL_CHARGE>
0
> <PUBCHEM_HEAVY_ATOM_COUNT>
45
> <PUBCHEM_ATOM_DEF_STEREO_COUNT>
3
> <PUBCHEM_ATOM_UDEF_STEREO_COUNT>
0
> <PUBCHEM_BOND_DEF_STEREO_COUNT>
0
> <PUBCHEM_BOND_UDEF_STEREO_COUNT>
0
> <PUBCHEM_ISOTOPIC_ATOM_COUNT>
0
> <PUBCHEM_COMPONENT_COUNT>
1
> <PUBCHEM_CACTVS_TAUTO_COUNT>
-1
> <PUBCHEM_COORDINATE_TYPE>
1
5
255
> <PUBCHEM_BONDANNOTATIONS>
10  14  5
11  17  6
15  23  6
17  28  8
17  29  8
27  30  8
28  31  8
29  32  8
30  34  8
31  33  8
32  33  8
38  39  8
38  40  8
39  41  8
40  42  8
41  43  8
42  43  8
8  27  8
8  9  8
9  34  8
$$$$
