516250
  -OEChem-10302200282D
 90 94  0     1  0  0  0  0  0999 V2000
    7.7132   -8.2046    0.0000 F   0  0  0  0  0  0  0  0  0  0  0  0
    8.2497    8.2046    0.0000 F   0  0  0  0  0  0  0  0  0  0  0  0
    6.8529    7.9833    0.0000 F   0  0  0  0  0  0  0  0  0  0  0  0
    8.4710    6.8078    0.0000 F   0  0  0  0  0  0  0  0  0  0  0  0
    2.7688   -3.1293    0.0000 O   0  0  0  0  0  0  0  0  0  0  0  0
    4.3511   -2.4248    0.0000 O   0  0  0  0  0  0  0  0  0  0  0  0
    7.0742    6.5865    0.0000 O   0  0  0  0  0  0  0  0  0  0  0  0
    5.1646   -4.2519    0.0000 N   0  0  3  0  0  0  0  0  0  0  0  0
    7.6133   -2.4155    0.0000 N   0  0  0  0  0  0  0  0  0  0  0  0
    6.8043    1.1723    0.0000 N   0  0  0  0  0  0  0  0  0  0  0  0
    7.1133    2.1233    0.0000 N   0  0  0  0  0  0  0  0  0  0  0  0
    6.7473   -3.9155    0.0000 C   0  0  2  0  0  0  0  0  0  0  0  0
    6.6428   -4.9100    0.0000 C   0  0  2  0  0  0  0  0  0  0  0  0
    5.8338   -3.5088    0.0000 C   0  0  0  0  0  0  0  0  0  0  0  0
    5.6646   -5.1179    0.0000 C   0  0  0  0  0  0  0  0  0  0  0  0
    7.6133   -3.4155    0.0000 C   0  0  0  0  0  0  0  0  0  0  0  0
    4.1701   -4.1474    0.0000 C   0  0  2  0  0  0  0  0  0  0  0  0
    7.3859   -5.5792    0.0000 C   0  0  0  0  0  0  0  0  0  0  0  0
    6.7473   -1.9155    0.0000 C   0  0  0  0  0  0  0  0  0  0  0  0
    8.4793   -1.9155    0.0000 C   0  0  0  0  0  0  0  0  0  0  0  0
    7.6133   -0.4155    0.0000 C   0  0  0  0  0  0  0  0  0  0  0  0
    3.5823   -4.9564    0.0000 C   0  0  1  0  0  0  0  0  0  0  0  0
    6.7473   -0.9155    0.0000 C   0  0  0  0  0  0  0  0  0  0  0  0
    8.4793   -0.9155    0.0000 C   0  0  0  0  0  0  0  0  0  0  0  0
    7.6133    0.5845    0.0000 C   0  0  0  0  0  0  0  0  0  0  0  0
    3.7634   -3.2338    0.0000 C   0  0  0  0  0  0  0  0  0  0  0  0
    2.5878   -4.8519    0.0000 C   0  0  0  0  0  0  0  0  0  0  0  0
    7.1780   -6.5573    0.0000 C   0  0  0  0  0  0  0  0  0  0  0  0
    8.3370   -5.2701    0.0000 C   0  0  0  0  0  0  0  0  0  0  0  0
    3.9890   -5.8699    0.0000 C   0  0  0  0  0  0  0  0  0  0  0  0
    8.4223    1.1723    0.0000 C   0  0  0  0  0  0  0  0  0  0  0  0
    2.0000   -5.6609    0.0000 C   0  0  0  0  0  0  0  0  0  0  0  0
    7.9211   -7.2264    0.0000 C   0  0  0  0  0  0  0  0  0  0  0  0
    9.0801   -5.9393    0.0000 C   0  0  0  0  0  0  0  0  0  0  0  0
    8.1133    2.1233    0.0000 C   0  0  0  0  0  0  0  0  0  0  0  0
    8.8722   -6.9174    0.0000 C   0  0  0  0  0  0  0  0  0  0  0  0
    5.8532    0.8633    0.0000 C   0  0  0  0  0  0  0  0  0  0  0  0
    8.7011    2.9324    0.0000 C   0  0  0  0  0  0  0  0  0  0  0  0
    5.1101    1.5324    0.0000 C   0  0  0  0  0  0  0  0  0  0  0  0
    8.2944    3.8459    0.0000 C   0  0  0  0  0  0  0  0  0  0  0  0
    7.2998    3.9504    0.0000 C   0  0  0  0  0  0  0  0  0  0  0  0
    8.8822    4.6549    0.0000 C   0  0  0  0  0  0  0  0  0  0  0  0
    6.8931    4.8640    0.0000 C   0  0  0  0  0  0  0  0  0  0  0  0
    8.4754    5.5685    0.0000 C   0  0  0  0  0  0  0  0  0  0  0  0
    7.4809    5.6730    0.0000 C   0  0  0  0  0  0  0  0  0  0  0  0
    7.6619    7.3956    0.0000 C   0  0  0  0  0  0  0  0  0  0  0  0
    7.2673   -4.2532    0.0000 H   0  0  0  0  0  0  0  0  0  0  0  0
    7.2216   -4.6878    0.0000 H   0  0  0  0  0  0  0  0  0  0  0  0
    6.1437   -2.9718    0.0000 H   0  0  0  0  0  0  0  0  0  0  0  0
    5.3322   -3.1443    0.0000 H   0  0  0  0  0  0  0  0  0  0  0  0
    5.0982   -5.3701    0.0000 H   0  0  0  0  0  0  0  0  0  0  0  0
    5.8562   -5.7076    0.0000 H   0  0  0  0  0  0  0  0  0  0  0  0
    7.8254   -3.9981    0.0000 H   0  0  0  0  0  0  0  0  0  0  0  0
    8.2239   -3.3078    0.0000 H   0  0  0  0  0  0  0  0  0  0  0  0
    4.5345   -3.6458    0.0000 H   0  0  0  0  0  0  0  0  0  0  0  0
    6.1367   -1.8078    0.0000 H   0  0  0  0  0  0  0  0  0  0  0  0
    6.5352   -2.4981    0.0000 H   0  0  0  0  0  0  0  0  0  0  0  0
    8.6914   -2.4981    0.0000 H   0  0  0  0  0  0  0  0  0  0  0  0
    9.0899   -1.8078    0.0000 H   0  0  0  0  0  0  0  0  0  0  0  0
    7.0764   -0.1055    0.0000 H   0  0  0  0  0  0  0  0  0  0  0  0
    3.2179   -5.4580    0.0000 H   0  0  0  0  0  0  0  0  0  0  0  0
    6.5352   -0.3329    0.0000 H   0  0  0  0  0  0  0  0  0  0  0  0
    6.1367   -1.0232    0.0000 H   0  0  0  0  0  0  0  0  0  0  0  0
    9.0899   -1.0232    0.0000 H   0  0  0  0  0  0  0  0  0  0  0  0
    8.6914   -0.3329    0.0000 H   0  0  0  0  0  0  0  0  0  0  0  0
    2.7587   -4.2559    0.0000 H   0  0  0  0  0  0  0  0  0  0  0  0
    2.0305   -4.5801    0.0000 H   0  0  0  0  0  0  0  0  0  0  0  0
    6.5883   -6.7489    0.0000 H   0  0  0  0  0  0  0  0  0  0  0  0
    8.4659   -4.6637    0.0000 H   0  0  0  0  0  0  0  0  0  0  0  0
    3.4226   -6.1221    0.0000 H   0  0  0  0  0  0  0  0  0  0  0  0
    4.2412   -6.4363    0.0000 H   0  0  0  0  0  0  0  0  0  0  0  0
    4.5554   -5.6178    0.0000 H   0  0  0  0  0  0  0  0  0  0  0  0
    9.0120    0.9807    0.0000 H   0  0  0  0  0  0  0  0  0  0  0  0
    1.4984   -5.2965    0.0000 H   0  0  0  0  0  0  0  0  0  0  0  0
    1.6356   -6.1625    0.0000 H   0  0  0  0  0  0  0  0  0  0  0  0
    2.5016   -6.0253    0.0000 H   0  0  0  0  0  0  0  0  0  0  0  0
    9.6698   -5.7477    0.0000 H   0  0  0  0  0  0  0  0  0  0  0  0
    9.3330   -7.3323    0.0000 H   0  0  0  0  0  0  0  0  0  0  0  0
    2.5167   -2.5629    0.0000 H   0  0  0  0  0  0  0  0  0  0  0  0
    5.3647    0.4816    0.0000 H   0  0  0  0  0  0  0  0  0  0  0  0
    6.1443    0.3158    0.0000 H   0  0  0  0  0  0  0  0  0  0  0  0
    9.1318    2.4864    0.0000 H   0  0  0  0  0  0  0  0  0  0  0  0
    9.2151    3.2791    0.0000 H   0  0  0  0  0  0  0  0  0  0  0  0
    5.5250    1.9932    0.0000 H   0  0  0  0  0  0  0  0  0  0  0  0
    4.6494    1.9473    0.0000 H   0  0  0  0  0  0  0  0  0  0  0  0
    4.6952    1.0716    0.0000 H   0  0  0  0  0  0  0  0  0  0  0  0
    6.9354    3.4488    0.0000 H   0  0  0  0  0  0  0  0  0  0  0  0
    9.4988    4.5901    0.0000 H   0  0  0  0  0  0  0  0  0  0  0  0
    6.2765    4.9288    0.0000 H   0  0  0  0  0  0  0  0  0  0  0  0
    8.8398    6.0701    0.0000 H   0  0  0  0  0  0  0  0  0  0  0  0
  1 33  1  0  0  0  0
  2 46  1  0  0  0  0
  3 46  1  0  0  0  0
  4 46  1  0  0  0  0
  5 26  1  0  0  0  0
  5 79  1  0  0  0  0
  6 26  2  0  0  0  0
  7 45  1  0  0  0  0
  7 46  1  0  0  0  0
  8 14  1  0  0  0  0
  8 15  1  0  0  0  0
  8 17  1  0  0  0  0
  9 16  1  0  0  0  0
  9 19  1  0  0  0  0
  9 20  1  0  0  0  0
 10 11  1  0  0  0  0
 10 25  1  0  0  0  0
 10 37  1  0  0  0  0
 11 35  2  0  0  0  0
 12 13  1  0  0  0  0
 12 14  1  0  0  0  0
 12 16  1  6  0  0  0
 12 47  1  0  0  0  0
 13 15  1  0  0  0  0
 13 18  1  1  0  0  0
 13 48  1  0  0  0  0
 14 49  1  0  0  0  0
 14 50  1  0  0  0  0
 15 51  1  0  0  0  0
 15 52  1  0  0  0  0
 16 53  1  0  0  0  0
 16 54  1  0  0  0  0
 17 22  1  0  0  0  0
 17 26  1  6  0  0  0
 17 55  1  0  0  0  0
 18 28  2  0  0  0  0
 18 29  1  0  0  0  0
 19 23  1  0  0  0  0
 19 56  1  0  0  0  0
 19 57  1  0  0  0  0
 20 24  1  0  0  0  0
 20 58  1  0  0  0  0
 20 59  1  0  0  0  0
 21 23  1  0  0  0  0
 21 24  1  0  0  0  0
 21 25  1  0  0  0  0
 21 60  1  0  0  0  0
 22 27  1  0  0  0  0
 22 30  1  6  0  0  0
 22 61  1  0  0  0  0
 23 62  1  0  0  0  0
 23 63  1  0  0  0  0
 24 64  1  0  0  0  0
 24 65  1  0  0  0  0
 25 31  2  0  0  0  0
 27 32  1  0  0  0  0
 27 66  1  0  0  0  0
 27 67  1  0  0  0  0
 28 33  1  0  0  0  0
 28 68  1  0  0  0  0
 29 34  2  0  0  0  0
 29 69  1  0  0  0  0
 30 70  1  0  0  0  0
 30 71  1  0  0  0  0
 30 72  1  0  0  0  0
 31 35  1  0  0  0  0
 31 73  1  0  0  0  0
 32 74  1  0  0  0  0
 32 75  1  0  0  0  0
 32 76  1  0  0  0  0
 33 36  2  0  0  0  0
 34 36  1  0  0  0  0
 34 77  1  0  0  0  0
 35 38  1  0  0  0  0
 36 78  1  0  0  0  0
 37 39  1  0  0  0  0
 37 80  1  0  0  0  0
 37 81  1  0  0  0  0
 38 40  1  0  0  0  0
 38 82  1  0  0  0  0
 38 83  1  0  0  0  0
 39 84  1  0  0  0  0
 39 85  1  0  0  0  0
 39 86  1  0  0  0  0
 40 41  2  0  0  0  0
 40 42  1  0  0  0  0
 41 43  1  0  0  0  0
 41 87  1  0  0  0  0
 42 44  2  0  0  0  0
 42 88  1  0  0  0  0
 43 45  2  0  0  0  0
 43 89  1  0  0  0  0
 44 45  1  0  0  0  0
 44 90  1  0  0  0  0
M  END
> <PUBCHEM_COMPOUND_CID>
516250
> <PUBCHEM_COMPOUND_CANONICALIZED>
1
> <PUBCHEM_CACTVS_COMPLEXITY>
959
> <PUBCHEM_CACTVS_HBOND_ACCEPTOR>
10
> <PUBCHEM_CACTVS_HBOND_DONOR>
1
> <PUBCHEM_CACTVS_ROTATABLE_BOND>
12
> <PUBCHEM_CACTVS_SUBSKEYS>
AAADcfB/scAAAAAAAAAAAAAAAAAAAWLAAAA8YIAAAAAAAAAB0AAAHwAICAAADSzBnhwyjpMIBgCqAyTyTACSDAAhogAY2CG+bJgOJjLE8fuE9ChkyBHY6AeYwOAOoAAAAAAAAABAAAAAAAAAAAAAAAAAAA==
> <PUBCHEM_IUPAC_OPENEYE_NAME>
(2R,3R)-2-[(3S,4S)-3-[[4-[2-ethyl-5-[[4-(trifluoromethoxy)phenyl]methyl]pyrazol-3-yl]-1-piperidyl]methyl]-4-(3-fluorophenyl)pyrrolidin-1-yl]-3-methyl-pentanoic acid
> <PUBCHEM_IUPAC_CAS_NAME>
(2R,3R)-2-[(3S,4S)-3-[[4-[2-ethyl-5-[[4-(trifluoromethoxy)phenyl]methyl]-3-pyrazolyl]-1-piperidinyl]methyl]-4-(3-fluorophenyl)-1-pyrrolidinyl]-3-methylpentanoic acid
> <PUBCHEM_IUPAC_NAME_MARKUP>
(2<I>R</I>,3<I>R</I>)-2-[(3<I>S</I>,4<I>S</I>)-3-[[4-[2-ethyl-5-[[4-(trifluoromethoxy)phenyl]methyl]pyrazol-3-yl]piperidin-1-yl]methyl]-4-(3-fluorophenyl)pyrrolidin-1-yl]-3-methylpentanoic acid
> <PUBCHEM_IUPAC_NAME>
(2R,3R)-2-[(3S,4S)-3-[[4-[2-ethyl-5-[[4-(trifluoromethoxy)phenyl]methyl]pyrazol-3-yl]piperidin-1-yl]methyl]-4-(3-fluorophenyl)pyrrolidin-1-yl]-3-methylpentanoic acid
> <PUBCHEM_IUPAC_SYSTEMATIC_NAME>
(2R,3R)-2-[(3S,4S)-3-[[4-[2-ethyl-5-[[4-(trifluoromethyloxy)phenyl]methyl]pyrazol-3-yl]piperidin-1-yl]methyl]-4-(3-fluorophenyl)pyrrolidin-1-yl]-3-methyl-pentanoic acid
> <PUBCHEM_IUPAC_TRADITIONAL_NAME>
(2R,3R)-2-[(3S,4S)-3-[[4-[2-ethyl-5-[4-(trifluoromethoxy)benzyl]pyrazol-3-yl]piperidino]methyl]-4-(3-fluorophenyl)pyrrolidino]-3-methyl-valeric acid
> <PUBCHEM_IUPAC_INCHI>
InChI=1S/C35H44F4N4O3/c1-4-23(3)33(34(44)45)42-21-27(31(22-42)26-7-6-8-28(36)18-26)20-41-15-13-25(14-16-41)32-19-29(40-43(32)5-2)17-24-9-11-30(12-10-24)46-35(37,38)39/h6-12,18-19,23,25,27,31,33H,4-5,13-17,20-22H2,1-3H3,(H,44,45)/t23-,27+,31-,33-/m1/s1
> <PUBCHEM_IUPAC_INCHIKEY>
NYXHSNJGOQCTBS-KLTPPHAJSA-N
> <PUBCHEM_XLOGP3_AA>
5.2
> <PUBCHEM_EXACT_MASS>
644.33495393
> <PUBCHEM_MOLECULAR_FORMULA>
C35H44F4N4O3
> <PUBCHEM_MOLECULAR_WEIGHT>
644.7
> <PUBCHEM_OPENEYE_CAN_SMILES>
CCC(C)C(C(=O)O)N1CC(C(C1)C2=CC(=CC=C2)F)CN3CCC(CC3)C4=CC(=NN4CC)CC5=CC=C(C=C5)OC(F)(F)F
> <PUBCHEM_OPENEYE_ISO_SMILES>
CC[C@@H](C)[C@H](C(=O)O)N1C[C@@H]([C@H](C1)C2=CC(=CC=C2)F)CN3CCC(CC3)C4=CC(=NN4CC)CC5=CC=C(C=C5)OC(F)(F)F
> <PUBCHEM_CACTVS_TPSA>
70.8
> <PUBCHEM_MONOISOTOPIC_WEIGHT>
644.33495393
> <PUBCHEM_TOTAL_CHARGE>
0
> <PUBCHEM_HEAVY_ATOM_COUNT>
46
> <PUBCHEM_ATOM_DEF_STEREO_COUNT>
4
> <PUBCHEM_ATOM_UDEF_STEREO_COUNT>
0
> <PUBCHEM_BOND_DEF_STEREO_COUNT>
0
> <PUBCHEM_BOND_UDEF_STEREO_COUNT>
0
> <PUBCHEM_ISOTOPIC_ATOM_COUNT>
0
> <PUBCHEM_COMPONENT_COUNT>
1
> <PUBCHEM_CACTVS_TAUTO_COUNT>
-1
> <PUBCHEM_COORDINATE_TYPE>
1
5
255
> <PUBCHEM_BONDANNOTATIONS>
10  11  8
10  25  8
11  35  8
12  16  6
13  18  5
17  26  6
18  28  8
18  29  8
22  30  6
25  31  8
28  33  8
29  34  8
31  35  8
33  36  8
34  36  8
40  41  8
40  42  8
41  43  8
42  44  8
43  45  8
44  45  8
$$$$
