516206
  -OEChem-10302200282D
 92 96  0     1  0  0  0  0  0999 V2000
    8.5270   -6.3139    0.0000 F   0  0  0  0  0  0  0  0  0  0  0  0
    2.0000    2.1740    0.0000 F   0  0  0  0  0  0  0  0  0  0  0  0
    2.3660    3.5400    0.0000 F   0  0  0  0  0  0  0  0  0  0  0  0
    3.3660    1.8080    0.0000 F   0  0  0  0  0  0  0  0  0  0  0  0
    4.5981    6.6740    0.0000 F   0  0  0  0  0  0  0  0  0  0  0  0
    5.5981    5.6740    0.0000 F   0  0  0  0  0  0  0  0  0  0  0  0
    3.5981    5.6740    0.0000 F   0  0  0  0  0  0  0  0  0  0  0  0
   12.9323   -0.0219    0.0000 O   0  0  0  0  0  0  0  0  0  0  0  0
   11.2381   -0.3820    0.0000 O   0  0  0  0  0  0  0  0  0  0  0  0
   11.6539   -2.3383    0.0000 N   0  0  3  0  0  0  0  0  0  0  0  0
    8.5935   -2.2919    0.0000 N   0  0  0  0  0  0  0  0  0  0  0  0
    5.8301    0.1351    0.0000 N   0  0  0  0  0  0  0  0  0  0  0  0
    5.5211    1.0862    0.0000 N   0  0  0  0  0  0  0  0  0  0  0  0
   10.1758   -2.9964    0.0000 C   0  0  2  0  0  0  0  0  0  0  0  0
   10.8449   -3.7395    0.0000 C   0  0  2  0  0  0  0  0  0  0  0  0
   10.6758   -2.1304    0.0000 C   0  0  0  0  0  0  0  0  0  0  0  0
   11.7585   -3.3328    0.0000 C   0  0  0  0  0  0  0  0  0  0  0  0
    9.1813   -3.1009    0.0000 C   0  0  0  0  0  0  0  0  0  0  0  0
   12.3971   -1.6692    0.0000 C   0  0  2  0  0  0  0  0  0  0  0  0
   10.6370   -4.7177    0.0000 C   0  0  0  0  0  0  0  0  0  0  0  0
    9.0002   -1.3784    0.0000 C   0  0  0  0  0  0  0  0  0  0  0  0
    7.5990   -2.3964    0.0000 C   0  0  0  0  0  0  0  0  0  0  0  0
    7.4179   -0.6739    0.0000 C   0  0  0  0  0  0  0  0  0  0  0  0
   13.3481   -1.9782    0.0000 C   0  0  2  0  0  0  0  0  0  0  0  0
    8.4124   -0.5693    0.0000 C   0  0  0  0  0  0  0  0  0  0  0  0
    7.0112   -1.5874    0.0000 C   0  0  0  0  0  0  0  0  0  0  0  0
    6.8301    0.1351    0.0000 C   0  0  0  0  0  0  0  0  0  0  0  0
   12.1892   -0.6910    0.0000 C   0  0  0  0  0  0  0  0  0  0  0  0
   14.0913   -1.3090    0.0000 C   0  0  0  0  0  0  0  0  0  0  0  0
    9.6860   -5.0267    0.0000 C   0  0  0  0  0  0  0  0  0  0  0  0
   11.3802   -5.3868    0.0000 C   0  0  0  0  0  0  0  0  0  0  0  0
   13.5561   -2.9563    0.0000 C   0  0  0  0  0  0  0  0  0  0  0  0
    7.1391    1.0862    0.0000 C   0  0  0  0  0  0  0  0  0  0  0  0
   15.0423   -1.6181    0.0000 C   0  0  0  0  0  0  0  0  0  0  0  0
    9.4780   -6.0048    0.0000 C   0  0  0  0  0  0  0  0  0  0  0  0
   11.1722   -6.3650    0.0000 C   0  0  0  0  0  0  0  0  0  0  0  0
    6.3301    1.6740    0.0000 C   0  0  0  0  0  0  0  0  0  0  0  0
   10.2212   -6.6740    0.0000 C   0  0  0  0  0  0  0  0  0  0  0  0
    5.2423   -0.6739    0.0000 C   0  0  0  0  0  0  0  0  0  0  0  0
    6.3301    2.6740    0.0000 C   0  0  0  0  0  0  0  0  0  0  0  0
    4.2478   -0.5693    0.0000 C   0  0  0  0  0  0  0  0  0  0  0  0
    5.4641    3.1740    0.0000 C   0  0  0  0  0  0  0  0  0  0  0  0
    5.4641    4.1740    0.0000 C   0  0  0  0  0  0  0  0  0  0  0  0
    4.5981    2.6740    0.0000 C   0  0  0  0  0  0  0  0  0  0  0  0
    4.5981    4.6740    0.0000 C   0  0  0  0  0  0  0  0  0  0  0  0
    3.7320    3.1740    0.0000 C   0  0  0  0  0  0  0  0  0  0  0  0
    3.7320    4.1740    0.0000 C   0  0  0  0  0  0  0  0  0  0  0  0
    2.8660    2.6740    0.0000 C   0  0  0  0  0  0  0  0  0  0  0  0
    4.5981    5.6740    0.0000 C   0  0  0  0  0  0  0  0  0  0  0  0
    9.8381   -2.4764    0.0000 H   0  0  0  0  0  0  0  0  0  0  0  0
   10.2460   -3.9000    0.0000 H   0  0  0  0  0  0  0  0  0  0  0  0
   10.8674   -1.5407    0.0000 H   0  0  0  0  0  0  0  0  0  0  0  0
   10.1094   -1.8782    0.0000 H   0  0  0  0  0  0  0  0  0  0  0  0
   11.9501   -3.9225    0.0000 H   0  0  0  0  0  0  0  0  0  0  0  0
   12.3649   -3.2039    0.0000 H   0  0  0  0  0  0  0  0  0  0  0  0
    8.6240   -3.3727    0.0000 H   0  0  0  0  0  0  0  0  0  0  0  0
    9.3522   -3.6969    0.0000 H   0  0  0  0  0  0  0  0  0  0  0  0
   11.8074   -1.4776    0.0000 H   0  0  0  0  0  0  0  0  0  0  0  0
    9.5142   -1.7251    0.0000 H   0  0  0  0  0  0  0  0  0  0  0  0
    9.4309   -0.9324    0.0000 H   0  0  0  0  0  0  0  0  0  0  0  0
    7.0417   -2.6682    0.0000 H   0  0  0  0  0  0  0  0  0  0  0  0
    7.7699   -2.9924    0.0000 H   0  0  0  0  0  0  0  0  0  0  0  0
    7.6701   -0.1075    0.0000 H   0  0  0  0  0  0  0  0  0  0  0  0
   13.9378   -2.1698    0.0000 H   0  0  0  0  0  0  0  0  0  0  0  0
    8.9697   -0.2976    0.0000 H   0  0  0  0  0  0  0  0  0  0  0  0
    8.2415    0.0266    0.0000 H   0  0  0  0  0  0  0  0  0  0  0  0
    6.4972   -1.2407    0.0000 H   0  0  0  0  0  0  0  0  0  0  0  0
    6.5805   -2.0334    0.0000 H   0  0  0  0  0  0  0  0  0  0  0  0
   14.3824   -0.7616    0.0000 H   0  0  0  0  0  0  0  0  0  0  0  0
   13.6027   -0.9273    0.0000 H   0  0  0  0  0  0  0  0  0  0  0  0
    9.2252   -4.6118    0.0000 H   0  0  0  0  0  0  0  0  0  0  0  0
   11.9698   -5.1952    0.0000 H   0  0  0  0  0  0  0  0  0  0  0  0
   12.9496   -3.0852    0.0000 H   0  0  0  0  0  0  0  0  0  0  0  0
   13.6850   -3.5628    0.0000 H   0  0  0  0  0  0  0  0  0  0  0  0
   14.1625   -2.8274    0.0000 H   0  0  0  0  0  0  0  0  0  0  0  0
    7.7288    1.2778    0.0000 H   0  0  0  0  0  0  0  0  0  0  0  0
   14.8507   -2.2077    0.0000 H   0  0  0  0  0  0  0  0  0  0  0  0
   15.6320   -1.8096    0.0000 H   0  0  0  0  0  0  0  0  0  0  0  0
   15.2339   -1.0284    0.0000 H   0  0  0  0  0  0  0  0  0  0  0  0
   11.6330   -6.7798    0.0000 H   0  0  0  0  0  0  0  0  0  0  0  0
   10.0923   -7.2804    0.0000 H   0  0  0  0  0  0  0  0  0  0  0  0
   12.8034    0.5846    0.0000 H   0  0  0  0  0  0  0  0  0  0  0  0
    5.0714   -1.2699    0.0000 H   0  0  0  0  0  0  0  0  0  0  0  0
    5.7996   -0.9457    0.0000 H   0  0  0  0  0  0  0  0  0  0  0  0
    6.9407    2.5663    0.0000 H   0  0  0  0  0  0  0  0  0  0  0  0
    6.5422    3.2566    0.0000 H   0  0  0  0  0  0  0  0  0  0  0  0
    4.3126    0.0473    0.0000 H   0  0  0  0  0  0  0  0  0  0  0  0
    3.6312   -0.5045    0.0000 H   0  0  0  0  0  0  0  0  0  0  0  0
    4.1830   -1.1860    0.0000 H   0  0  0  0  0  0  0  0  0  0  0  0
    6.0010    4.4840    0.0000 H   0  0  0  0  0  0  0  0  0  0  0  0
    4.5981    2.0540    0.0000 H   0  0  0  0  0  0  0  0  0  0  0  0
    3.1951    4.4840    0.0000 H   0  0  0  0  0  0  0  0  0  0  0  0
  1 35  1  0  0  0  0
  2 48  1  0  0  0  0
  3 48  1  0  0  0  0
  4 48  1  0  0  0  0
  5 49  1  0  0  0  0
  6 49  1  0  0  0  0
  7 49  1  0  0  0  0
  8 28  1  0  0  0  0
  8 82  1  0  0  0  0
  9 28  2  0  0  0  0
 10 16  1  0  0  0  0
 10 17  1  0  0  0  0
 10 19  1  0  0  0  0
 11 18  1  0  0  0  0
 11 21  1  0  0  0  0
 11 22  1  0  0  0  0
 12 13  1  0  0  0  0
 12 27  1  0  0  0  0
 12 39  1  0  0  0  0
 13 37  2  0  0  0  0
 14 15  1  0  0  0  0
 14 16  1  0  0  0  0
 14 18  1  1  0  0  0
 14 50  1  0  0  0  0
 15 17  1  0  0  0  0
 15 20  1  6  0  0  0
 15 51  1  0  0  0  0
 16 52  1  0  0  0  0
 16 53  1  0  0  0  0
 17 54  1  0  0  0  0
 17 55  1  0  0  0  0
 18 56  1  0  0  0  0
 18 57  1  0  0  0  0
 19 24  1  0  0  0  0
 19 28  1  1  0  0  0
 19 58  1  0  0  0  0
 20 30  2  0  0  0  0
 20 31  1  0  0  0  0
 21 25  1  0  0  0  0
 21 59  1  0  0  0  0
 21 60  1  0  0  0  0
 22 26  1  0  0  0  0
 22 61  1  0  0  0  0
 22 62  1  0  0  0  0
 23 25  1  0  0  0  0
 23 26  1  0  0  0  0
 23 27  1  0  0  0  0
 23 63  1  0  0  0  0
 24 29  1  0  0  0  0
 24 32  1  6  0  0  0
 24 64  1  0  0  0  0
 25 65  1  0  0  0  0
 25 66  1  0  0  0  0
 26 67  1  0  0  0  0
 26 68  1  0  0  0  0
 27 33  2  0  0  0  0
 29 34  1  0  0  0  0
 29 69  1  0  0  0  0
 29 70  1  0  0  0  0
 30 35  1  0  0  0  0
 30 71  1  0  0  0  0
 31 36  2  0  0  0  0
 31 72  1  0  0  0  0
 32 73  1  0  0  0  0
 32 74  1  0  0  0  0
 32 75  1  0  0  0  0
 33 37  1  0  0  0  0
 33 76  1  0  0  0  0
 34 77  1  0  0  0  0
 34 78  1  0  0  0  0
 34 79  1  0  0  0  0
 35 38  2  0  0  0  0
 36 38  1  0  0  0  0
 36 80  1  0  0  0  0
 37 40  1  0  0  0  0
 38 81  1  0  0  0  0
 39 41  1  0  0  0  0
 39 83  1  0  0  0  0
 39 84  1  0  0  0  0
 40 42  1  0  0  0  0
 40 85  1  0  0  0  0
 40 86  1  0  0  0  0
 41 87  1  0  0  0  0
 41 88  1  0  0  0  0
 41 89  1  0  0  0  0
 42 43  2  0  0  0  0
 42 44  1  0  0  0  0
 43 45  1  0  0  0  0
 43 90  1  0  0  0  0
 44 46  2  0  0  0  0
 44 91  1  0  0  0  0
 45 47  2  0  0  0  0
 45 49  1  0  0  0  0
 46 47  1  0  0  0  0
 46 48  1  0  0  0  0
 47 92  1  0  0  0  0
M  END
> <PUBCHEM_COMPOUND_CID>
516206
> <PUBCHEM_COMPOUND_CANONICALIZED>
1
> <PUBCHEM_CACTVS_COMPLEXITY>
1050
> <PUBCHEM_CACTVS_HBOND_ACCEPTOR>
12
> <PUBCHEM_CACTVS_HBOND_DONOR>
1
> <PUBCHEM_CACTVS_ROTATABLE_BOND>
11
> <PUBCHEM_CACTVS_SUBSKEYS>
AAADcfB/scAAAAAAAAAAAAAAAAAAAWLAAAA8YIAAAAAAAAAB0AAAHwAICAAADSjBnhwyiJMIAgCqAyTyTACSBAAhggAY2CG4ZJgKIDLA0fGE5AhkiADYyAeYgMAOgAACAAAAAAAAAAQAAAAAAAAAAAAAAA==
> <PUBCHEM_IUPAC_OPENEYE_NAME>
(2R,3S)-2-[(3S,4S)-3-[[4-[5-[[3,5-bis(trifluoromethyl)phenyl]methyl]-2-ethyl-pyrazol-3-yl]-1-piperidyl]methyl]-4-(3-fluorophenyl)pyrrolidin-1-yl]-3-methyl-pentanoic acid
> <PUBCHEM_IUPAC_CAS_NAME>
(2R,3S)-2-[(3S,4S)-3-[[4-[5-[[3,5-bis(trifluoromethyl)phenyl]methyl]-2-ethyl-3-pyrazolyl]-1-piperidinyl]methyl]-4-(3-fluorophenyl)-1-pyrrolidinyl]-3-methylpentanoic acid
> <PUBCHEM_IUPAC_NAME_MARKUP>
(2<I>R</I>,3<I>S</I>)-2-[(3<I>S</I>,4<I>S</I>)-3-[[4-[5-[[3,5-bis(trifluoromethyl)phenyl]methyl]-2-ethylpyrazol-3-yl]piperidin-1-yl]methyl]-4-(3-fluorophenyl)pyrrolidin-1-yl]-3-methylpentanoic acid
> <PUBCHEM_IUPAC_NAME>
(2R,3S)-2-[(3S,4S)-3-[[4-[5-[[3,5-bis(trifluoromethyl)phenyl]methyl]-2-ethylpyrazol-3-yl]piperidin-1-yl]methyl]-4-(3-fluorophenyl)pyrrolidin-1-yl]-3-methylpentanoic acid
> <PUBCHEM_IUPAC_SYSTEMATIC_NAME>
(2R,3S)-2-[(3S,4S)-3-[[4-[5-[[3,5-bis(trifluoromethyl)phenyl]methyl]-2-ethyl-pyrazol-3-yl]piperidin-1-yl]methyl]-4-(3-fluorophenyl)pyrrolidin-1-yl]-3-methyl-pentanoic acid
> <PUBCHEM_IUPAC_TRADITIONAL_NAME>
(2R,3S)-2-[(3S,4S)-3-[[4-[5-[3,5-bis(trifluoromethyl)benzyl]-2-ethyl-pyrazol-3-yl]piperidino]methyl]-4-(3-fluorophenyl)pyrrolidino]-3-methyl-valeric acid
> <PUBCHEM_IUPAC_INCHI>
InChI=1S/C36H43F7N4O2/c1-4-22(3)33(34(48)49)46-20-26(31(21-46)25-7-6-8-29(37)16-25)19-45-11-9-24(10-12-45)32-18-30(44-47(32)5-2)15-23-13-27(35(38,39)40)17-28(14-23)36(41,42)43/h6-8,13-14,16-18,22,24,26,31,33H,4-5,9-12,15,19-21H2,1-3H3,(H,48,49)/t22-,26-,31+,33+/m0/s1
> <PUBCHEM_IUPAC_INCHIKEY>
WSCADJXHCWOAEO-XSKWXTHNSA-N
> <PUBCHEM_XLOGP3_AA>
5.8
> <PUBCHEM_EXACT_MASS>
696.32742376
> <PUBCHEM_MOLECULAR_FORMULA>
C36H43F7N4O2
> <PUBCHEM_MOLECULAR_WEIGHT>
696.7
> <PUBCHEM_OPENEYE_CAN_SMILES>
CCC(C)C(C(=O)O)N1CC(C(C1)C2=CC(=CC=C2)F)CN3CCC(CC3)C4=CC(=NN4CC)CC5=CC(=CC(=C5)C(F)(F)F)C(F)(F)F
> <PUBCHEM_OPENEYE_ISO_SMILES>
CC[C@H](C)[C@H](C(=O)O)N1C[C@@H]([C@H](C1)C2=CC(=CC=C2)F)CN3CCC(CC3)C4=CC(=NN4CC)CC5=CC(=CC(=C5)C(F)(F)F)C(F)(F)F
> <PUBCHEM_CACTVS_TPSA>
61.6
> <PUBCHEM_MONOISOTOPIC_WEIGHT>
696.32742376
> <PUBCHEM_TOTAL_CHARGE>
0
> <PUBCHEM_HEAVY_ATOM_COUNT>
49
> <PUBCHEM_ATOM_DEF_STEREO_COUNT>
4
> <PUBCHEM_ATOM_UDEF_STEREO_COUNT>
0
> <PUBCHEM_BOND_DEF_STEREO_COUNT>
0
> <PUBCHEM_BOND_UDEF_STEREO_COUNT>
0
> <PUBCHEM_ISOTOPIC_ATOM_COUNT>
0
> <PUBCHEM_COMPONENT_COUNT>
1
> <PUBCHEM_CACTVS_TAUTO_COUNT>
-1
> <PUBCHEM_COORDINATE_TYPE>
1
5
255
> <PUBCHEM_BONDANNOTATIONS>
12  13  8
12  27  8
13  37  8
14  18  5
15  20  6
19  28  5
20  30  8
20  31  8
24  32  6
27  33  8
30  35  8
31  36  8
33  37  8
35  38  8
36  38  8
42  43  8
42  44  8
43  45  8
44  46  8
45  47  8
46  47  8
$$$$
