516293
  -OEChem-10302200282D
 96101  0     1  0  0  0  0  0999 V2000
    9.8078   -6.2238    0.0000 F   0  0  0  0  0  0  0  0  0  0  0  0
    2.3644   -5.4455    0.0000 O   0  0  0  0  0  0  0  0  0  0  0  0
    3.7657   -6.4635    0.0000 O   0  0  0  0  0  0  0  0  0  0  0  0
    4.9413   -4.8455    0.0000 N   0  0  3  0  0  0  0  0  0  0  0  0
    7.3900   -3.0091    0.0000 N   0  0  0  0  0  0  0  0  0  0  0  0
    6.5809    0.5787    0.0000 N   0  0  0  0  0  0  0  0  0  0  0  0
    6.8900    1.5297    0.0000 N   0  0  0  0  0  0  0  0  0  0  0  0
    6.5239   -4.5091    0.0000 C   0  0  2  0  0  0  0  0  0  0  0  0
    6.4194   -5.5036    0.0000 C   0  0  2  0  0  0  0  0  0  0  0  0
    5.6104   -4.1024    0.0000 C   0  0  0  0  0  0  0  0  0  0  0  0
    5.4413   -5.7115    0.0000 C   0  0  0  0  0  0  0  0  0  0  0  0
    7.3900   -4.0091    0.0000 C   0  0  0  0  0  0  0  0  0  0  0  0
    3.9467   -4.7410    0.0000 C   0  0  2  0  0  0  0  0  0  0  0  0
    3.5400   -3.8274    0.0000 C   0  0  0  0  0  0  0  0  0  0  0  0
    7.1626   -6.1728    0.0000 C   0  0  0  0  0  0  0  0  0  0  0  0
    6.5239   -2.5091    0.0000 C   0  0  0  0  0  0  0  0  0  0  0  0
    8.2560   -2.5091    0.0000 C   0  0  0  0  0  0  0  0  0  0  0  0
    7.3900   -1.0091    0.0000 C   0  0  0  0  0  0  0  0  0  0  0  0
    6.5239   -1.5091    0.0000 C   0  0  0  0  0  0  0  0  0  0  0  0
    8.2560   -1.5091    0.0000 C   0  0  0  0  0  0  0  0  0  0  0  0
    3.3590   -5.5500    0.0000 C   0  0  0  0  0  0  0  0  0  0  0  0
    3.1333   -2.9139    0.0000 C   0  0  0  0  0  0  0  0  0  0  0  0
    2.6264   -4.2342    0.0000 C   0  0  0  0  0  0  0  0  0  0  0  0
    4.4535   -3.4207    0.0000 C   0  0  0  0  0  0  0  0  0  0  0  0
    7.3900   -0.0091    0.0000 C   0  0  0  0  0  0  0  0  0  0  0  0
    8.1136   -5.8637    0.0000 C   0  0  0  0  0  0  0  0  0  0  0  0
    6.9546   -7.1509    0.0000 C   0  0  0  0  0  0  0  0  0  0  0  0
    8.1990    0.5787    0.0000 C   0  0  0  0  0  0  0  0  0  0  0  0
    8.8568   -6.5329    0.0000 C   0  0  0  0  0  0  0  0  0  0  0  0
    7.6978   -7.8200    0.0000 C   0  0  0  0  0  0  0  0  0  0  0  0
    8.6488   -7.5110    0.0000 C   0  0  0  0  0  0  0  0  0  0  0  0
    7.8900    1.5297    0.0000 C   0  0  0  0  0  0  0  0  0  0  0  0
    5.6299    0.2697    0.0000 C   0  0  0  0  0  0  0  0  0  0  0  0
    8.4777    2.3388    0.0000 C   0  0  0  0  0  0  0  0  0  0  0  0
    4.8867    0.9388    0.0000 C   0  0  0  0  0  0  0  0  0  0  0  0
    8.0710    3.2523    0.0000 C   0  0  0  0  0  0  0  0  0  0  0  0
    7.0765    3.3568    0.0000 C   0  0  0  0  0  0  0  0  0  0  0  0
    8.6588    4.0613    0.0000 C   0  0  0  0  0  0  0  0  0  0  0  0
    6.6698    4.2704    0.0000 C   0  0  0  0  0  0  0  0  0  0  0  0
    8.2520    4.9749    0.0000 C   0  0  0  0  0  0  0  0  0  0  0  0
    7.2575    5.0794    0.0000 C   0  0  0  0  0  0  0  0  0  0  0  0
    6.8508    5.9929    0.0000 C   0  0  0  0  0  0  0  0  0  0  0  0
    7.4386    6.8020    0.0000 C   0  0  0  0  0  0  0  0  0  0  0  0
    5.8563    6.0975    0.0000 C   0  0  0  0  0  0  0  0  0  0  0  0
    7.0318    7.7155    0.0000 C   0  0  0  0  0  0  0  0  0  0  0  0
    5.4495    7.0110    0.0000 C   0  0  0  0  0  0  0  0  0  0  0  0
    6.0373    7.8200    0.0000 C   0  0  0  0  0  0  0  0  0  0  0  0
    7.0439   -4.8468    0.0000 H   0  0  0  0  0  0  0  0  0  0  0  0
    6.2589   -6.1025    0.0000 H   0  0  0  0  0  0  0  0  0  0  0  0
    5.9204   -3.5654    0.0000 H   0  0  0  0  0  0  0  0  0  0  0  0
    5.1088   -3.7379    0.0000 H   0  0  0  0  0  0  0  0  0  0  0  0
    4.8749   -5.9637    0.0000 H   0  0  0  0  0  0  0  0  0  0  0  0
    5.6328   -6.3012    0.0000 H   0  0  0  0  0  0  0  0  0  0  0  0
    7.6020   -4.5917    0.0000 H   0  0  0  0  0  0  0  0  0  0  0  0
    8.0005   -3.9014    0.0000 H   0  0  0  0  0  0  0  0  0  0  0  0
    4.1989   -5.3074    0.0000 H   0  0  0  0  0  0  0  0  0  0  0  0
    5.9134   -2.4014    0.0000 H   0  0  0  0  0  0  0  0  0  0  0  0
    6.3119   -3.0917    0.0000 H   0  0  0  0  0  0  0  0  0  0  0  0
    8.4680   -3.0917    0.0000 H   0  0  0  0  0  0  0  0  0  0  0  0
    8.8666   -2.4014    0.0000 H   0  0  0  0  0  0  0  0  0  0  0  0
    7.9269   -0.6991    0.0000 H   0  0  0  0  0  0  0  0  0  0  0  0
    6.3119   -0.9265    0.0000 H   0  0  0  0  0  0  0  0  0  0  0  0
    5.9134   -1.6168    0.0000 H   0  0  0  0  0  0  0  0  0  0  0  0
    8.8666   -1.6168    0.0000 H   0  0  0  0  0  0  0  0  0  0  0  0
    8.4680   -0.9265    0.0000 H   0  0  0  0  0  0  0  0  0  0  0  0
    3.6997   -2.6617    0.0000 H   0  0  0  0  0  0  0  0  0  0  0  0
    2.8811   -2.3475    0.0000 H   0  0  0  0  0  0  0  0  0  0  0  0
    2.5669   -3.1661    0.0000 H   0  0  0  0  0  0  0  0  0  0  0  0
    2.3743   -3.6678    0.0000 H   0  0  0  0  0  0  0  0  0  0  0  0
    2.0600   -4.4864    0.0000 H   0  0  0  0  0  0  0  0  0  0  0  0
    2.8786   -4.8006    0.0000 H   0  0  0  0  0  0  0  0  0  0  0  0
    4.7057   -3.9871    0.0000 H   0  0  0  0  0  0  0  0  0  0  0  0
    5.0199   -3.1685    0.0000 H   0  0  0  0  0  0  0  0  0  0  0  0
    4.2014   -2.8543    0.0000 H   0  0  0  0  0  0  0  0  0  0  0  0
    8.2425   -5.2573    0.0000 H   0  0  0  0  0  0  0  0  0  0  0  0
    6.3650   -7.3425    0.0000 H   0  0  0  0  0  0  0  0  0  0  0  0
    8.7886    0.3871    0.0000 H   0  0  0  0  0  0  0  0  0  0  0  0
    7.5689   -8.4265    0.0000 H   0  0  0  0  0  0  0  0  0  0  0  0
    2.0000   -5.9471    0.0000 H   0  0  0  0  0  0  0  0  0  0  0  0
    9.1096   -7.9259    0.0000 H   0  0  0  0  0  0  0  0  0  0  0  0
    5.1413   -0.1120    0.0000 H   0  0  0  0  0  0  0  0  0  0  0  0
    5.9210   -0.2778    0.0000 H   0  0  0  0  0  0  0  0  0  0  0  0
    8.9084    1.8928    0.0000 H   0  0  0  0  0  0  0  0  0  0  0  0
    8.9918    2.6855    0.0000 H   0  0  0  0  0  0  0  0  0  0  0  0
    5.3016    1.3996    0.0000 H   0  0  0  0  0  0  0  0  0  0  0  0
    4.4260    1.3537    0.0000 H   0  0  0  0  0  0  0  0  0  0  0  0
    4.4719    0.4780    0.0000 H   0  0  0  0  0  0  0  0  0  0  0  0
    6.7121    2.8552    0.0000 H   0  0  0  0  0  0  0  0  0  0  0  0
    9.2754    3.9965    0.0000 H   0  0  0  0  0  0  0  0  0  0  0  0
    6.0531    4.3352    0.0000 H   0  0  0  0  0  0  0  0  0  0  0  0
    8.6165    5.4765    0.0000 H   0  0  0  0  0  0  0  0  0  0  0  0
    8.0552    6.7372    0.0000 H   0  0  0  0  0  0  0  0  0  0  0  0
    5.4918    5.5959    0.0000 H   0  0  0  0  0  0  0  0  0  0  0  0
    7.3963    8.2171    0.0000 H   0  0  0  0  0  0  0  0  0  0  0  0
    4.8329    7.0758    0.0000 H   0  0  0  0  0  0  0  0  0  0  0  0
    5.7852    8.3864    0.0000 H   0  0  0  0  0  0  0  0  0  0  0  0
  1 29  1  0  0  0  0
  2 21  1  0  0  0  0
  2 79  1  0  0  0  0
  3 21  2  0  0  0  0
  4 10  1  0  0  0  0
  4 11  1  0  0  0  0
  4 13  1  0  0  0  0
  5 12  1  0  0  0  0
  5 16  1  0  0  0  0
  5 17  1  0  0  0  0
  6  7  1  0  0  0  0
  6 25  1  0  0  0  0
  6 33  1  0  0  0  0
  7 32  2  0  0  0  0
  8  9  1  0  0  0  0
  8 10  1  0  0  0  0
  8 12  1  6  0  0  0
  8 48  1  0  0  0  0
  9 11  1  0  0  0  0
  9 15  1  1  0  0  0
  9 49  1  0  0  0  0
 10 50  1  0  0  0  0
 10 51  1  0  0  0  0
 11 52  1  0  0  0  0
 11 53  1  0  0  0  0
 12 54  1  0  0  0  0
 12 55  1  0  0  0  0
 13 14  1  0  0  0  0
 13 21  1  1  0  0  0
 13 56  1  0  0  0  0
 14 22  1  0  0  0  0
 14 23  1  0  0  0  0
 14 24  1  0  0  0  0
 15 26  2  0  0  0  0
 15 27  1  0  0  0  0
 16 19  1  0  0  0  0
 16 57  1  0  0  0  0
 16 58  1  0  0  0  0
 17 20  1  0  0  0  0
 17 59  1  0  0  0  0
 17 60  1  0  0  0  0
 18 19  1  0  0  0  0
 18 20  1  0  0  0  0
 18 25  1  0  0  0  0
 18 61  1  0  0  0  0
 19 62  1  0  0  0  0
 19 63  1  0  0  0  0
 20 64  1  0  0  0  0
 20 65  1  0  0  0  0
 22 66  1  0  0  0  0
 22 67  1  0  0  0  0
 22 68  1  0  0  0  0
 23 69  1  0  0  0  0
 23 70  1  0  0  0  0
 23 71  1  0  0  0  0
 24 72  1  0  0  0  0
 24 73  1  0  0  0  0
 24 74  1  0  0  0  0
 25 28  2  0  0  0  0
 26 29  1  0  0  0  0
 26 75  1  0  0  0  0
 27 30  2  0  0  0  0
 27 76  1  0  0  0  0
 28 32  1  0  0  0  0
 28 77  1  0  0  0  0
 29 31  2  0  0  0  0
 30 31  1  0  0  0  0
 30 78  1  0  0  0  0
 31 80  1  0  0  0  0
 32 34  1  0  0  0  0
 33 35  1  0  0  0  0
 33 81  1  0  0  0  0
 33 82  1  0  0  0  0
 34 36  1  0  0  0  0
 34 83  1  0  0  0  0
 34 84  1  0  0  0  0
 35 85  1  0  0  0  0
 35 86  1  0  0  0  0
 35 87  1  0  0  0  0
 36 37  2  0  0  0  0
 36 38  1  0  0  0  0
 37 39  1  0  0  0  0
 37 88  1  0  0  0  0
 38 40  2  0  0  0  0
 38 89  1  0  0  0  0
 39 41  2  0  0  0  0
 39 90  1  0  0  0  0
 40 41  1  0  0  0  0
 40 91  1  0  0  0  0
 41 42  1  0  0  0  0
 42 43  2  0  0  0  0
 42 44  1  0  0  0  0
 43 45  1  0  0  0  0
 43 92  1  0  0  0  0
 44 46  2  0  0  0  0
 44 93  1  0  0  0  0
 45 47  2  0  0  0  0
 45 94  1  0  0  0  0
 46 47  1  0  0  0  0
 46 95  1  0  0  0  0
 47 96  1  0  0  0  0
M  END
> <PUBCHEM_COMPOUND_CID>
516293
> <PUBCHEM_COMPOUND_CANONICALIZED>
1
> <PUBCHEM_CACTVS_COMPLEXITY>
983
> <PUBCHEM_CACTVS_HBOND_ACCEPTOR>
6
> <PUBCHEM_CACTVS_HBOND_DONOR>
1
> <PUBCHEM_CACTVS_ROTATABLE_BOND>
11
> <PUBCHEM_CACTVS_SUBSKEYS>
AAADcfB/sQAAAAAAAAAAAAAAAAAAAWLAAAA8YMEAAAAAAAAB1AAAHwAICAAADyjBngwyiJMIAgCqAyTyTACSBAAhggAY2CG4ZJgKIDLA0fGE5AhkiADYyAcQgMAPwAAAAAAAAACAAAAAAAAAAAAAAAAAAA==
> <PUBCHEM_IUPAC_OPENEYE_NAME>
(2R)-2-[(3S,4S)-3-[[4-[2-ethyl-5-[(4-phenylphenyl)methyl]pyrazol-3-yl]-1-piperidyl]methyl]-4-(3-fluorophenyl)pyrrolidin-1-yl]-3,3-dimethyl-butanoic acid
> <PUBCHEM_IUPAC_CAS_NAME>
(2R)-2-[(3S,4S)-3-[[4-[2-ethyl-5-[(4-phenylphenyl)methyl]-3-pyrazolyl]-1-piperidinyl]methyl]-4-(3-fluorophenyl)-1-pyrrolidinyl]-3,3-dimethylbutanoic acid
> <PUBCHEM_IUPAC_NAME_MARKUP>
(2<I>R</I>)-2-[(3<I>S</I>,4<I>S</I>)-3-[[4-[2-ethyl-5-[(4-phenylphenyl)methyl]pyrazol-3-yl]piperidin-1-yl]methyl]-4-(3-fluorophenyl)pyrrolidin-1-yl]-3,3-dimethylbutanoic acid
> <PUBCHEM_IUPAC_NAME>
(2R)-2-[(3S,4S)-3-[[4-[2-ethyl-5-[(4-phenylphenyl)methyl]pyrazol-3-yl]piperidin-1-yl]methyl]-4-(3-fluorophenyl)pyrrolidin-1-yl]-3,3-dimethylbutanoic acid
> <PUBCHEM_IUPAC_SYSTEMATIC_NAME>
(2R)-2-[(3S,4S)-3-[[4-[2-ethyl-5-[(4-phenylphenyl)methyl]pyrazol-3-yl]piperidin-1-yl]methyl]-4-(3-fluorophenyl)pyrrolidin-1-yl]-3,3-dimethyl-butanoic acid
> <PUBCHEM_IUPAC_TRADITIONAL_NAME>
(2R)-2-[(3S,4S)-3-[[4-[2-ethyl-5-(4-phenylbenzyl)pyrazol-3-yl]piperidino]methyl]-4-(3-fluorophenyl)pyrrolidino]-3,3-dimethyl-butyric acid
> <PUBCHEM_IUPAC_INCHI>
InChI=1S/C40H49FN4O2/c1-5-45-37(24-35(42-45)22-28-14-16-30(17-15-28)29-10-7-6-8-11-29)31-18-20-43(21-19-31)25-33-26-44(38(39(46)47)40(2,3)4)27-36(33)32-12-9-13-34(41)23-32/h6-17,23-24,31,33,36,38H,5,18-22,25-27H2,1-4H3,(H,46,47)/t33-,36+,38-/m0/s1
> <PUBCHEM_IUPAC_INCHIKEY>
IZOGIEBLWOHFCN-QYGIXFTLSA-N
> <PUBCHEM_XLOGP3_AA>
5.7
> <PUBCHEM_EXACT_MASS>
636.38395498
> <PUBCHEM_MOLECULAR_FORMULA>
C40H49FN4O2
> <PUBCHEM_MOLECULAR_WEIGHT>
636.8
> <PUBCHEM_OPENEYE_CAN_SMILES>
CCN1C(=CC(=N1)CC2=CC=C(C=C2)C3=CC=CC=C3)C4CCN(CC4)CC5CN(CC5C6=CC(=CC=C6)F)C(C(=O)O)C(C)(C)C
> <PUBCHEM_OPENEYE_ISO_SMILES>
CCN1C(=CC(=N1)CC2=CC=C(C=C2)C3=CC=CC=C3)C4CCN(CC4)C[C@H]5CN(C[C@@H]5C6=CC(=CC=C6)F)[C@@H](C(=O)O)C(C)(C)C
> <PUBCHEM_CACTVS_TPSA>
61.6
> <PUBCHEM_MONOISOTOPIC_WEIGHT>
636.38395498
> <PUBCHEM_TOTAL_CHARGE>
0
> <PUBCHEM_HEAVY_ATOM_COUNT>
47
> <PUBCHEM_ATOM_DEF_STEREO_COUNT>
3
> <PUBCHEM_ATOM_UDEF_STEREO_COUNT>
0
> <PUBCHEM_BOND_DEF_STEREO_COUNT>
0
> <PUBCHEM_BOND_UDEF_STEREO_COUNT>
0
> <PUBCHEM_ISOTOPIC_ATOM_COUNT>
0
> <PUBCHEM_COMPONENT_COUNT>
1
> <PUBCHEM_CACTVS_TAUTO_COUNT>
-1
> <PUBCHEM_COORDINATE_TYPE>
1
5
255
> <PUBCHEM_BONDANNOTATIONS>
13  21  5
15  26  8
15  27  8
25  28  8
26  29  8
27  30  8
28  32  8
29  31  8
30  31  8
36  37  8
36  38  8
37  39  8
38  40  8
39  41  8
40  41  8
42  43  8
42  44  8
43  45  8
44  46  8
45  47  8
46  47  8
6  25  8
6  7  8
7  32  8
8  12  6
9  15  5
$$$$
