516338
  -OEChem-10302200282D
 90 95  0     1  0  0  0  0  0999 V2000
    2.3644   -2.8285    0.0000 O   0  0  0  0  0  0  0  0  0  0  0  0
    3.7657   -3.8466    0.0000 O   0  0  0  0  0  0  0  0  0  0  0  0
    4.9413   -2.2285    0.0000 N   0  0  3  0  0  0  0  0  0  0  0  0
    7.3900   -0.3921    0.0000 N   0  0  0  0  0  0  0  0  0  0  0  0
    8.1990    3.1957    0.0000 N   0  0  0  0  0  0  0  0  0  0  0  0
    7.8900    4.1467    0.0000 N   0  0  0  0  0  0  0  0  0  0  0  0
    6.5239   -1.8921    0.0000 C   0  0  2  0  0  0  0  0  0  0  0  0
    6.4194   -2.8866    0.0000 C   0  0  2  0  0  0  0  0  0  0  0  0
    5.6104   -1.4854    0.0000 C   0  0  0  0  0  0  0  0  0  0  0  0
    5.4413   -3.0946    0.0000 C   0  0  0  0  0  0  0  0  0  0  0  0
    3.9467   -2.1240    0.0000 C   0  0  2  0  0  0  0  0  0  0  0  0
    3.5400   -1.2105    0.0000 C   0  0  0  0  0  0  0  0  0  0  0  0
    7.3900   -1.3921    0.0000 C   0  0  0  0  0  0  0  0  0  0  0  0
    2.5455   -1.1059    0.0000 C   0  0  0  0  0  0  0  0  0  0  0  0
    4.1278   -0.4014    0.0000 C   0  0  0  0  0  0  0  0  0  0  0  0
    7.1626   -3.5558    0.0000 C   0  0  0  0  0  0  0  0  0  0  0  0
    2.1387   -0.1924    0.0000 C   0  0  0  0  0  0  0  0  0  0  0  0
    3.7210    0.5121    0.0000 C   0  0  0  0  0  0  0  0  0  0  0  0
    6.5239    0.1079    0.0000 C   0  0  0  0  0  0  0  0  0  0  0  0
    8.2560    0.1079    0.0000 C   0  0  0  0  0  0  0  0  0  0  0  0
    7.3900    1.6079    0.0000 C   0  0  0  0  0  0  0  0  0  0  0  0
    2.7265    0.6166    0.0000 C   0  0  0  0  0  0  0  0  0  0  0  0
    6.5239    1.1079    0.0000 C   0  0  0  0  0  0  0  0  0  0  0  0
    8.2560    1.1079    0.0000 C   0  0  0  0  0  0  0  0  0  0  0  0
    3.3590   -2.9330    0.0000 C   0  0  0  0  0  0  0  0  0  0  0  0
    6.9546   -4.5339    0.0000 C   0  0  0  0  0  0  0  0  0  0  0  0
    8.1136   -3.2468    0.0000 C   0  0  0  0  0  0  0  0  0  0  0  0
    7.3900    2.6079    0.0000 C   0  0  0  0  0  0  0  0  0  0  0  0
    6.5809    3.1957    0.0000 C   0  0  0  0  0  0  0  0  0  0  0  0
    7.6978   -5.2030    0.0000 C   0  0  0  0  0  0  0  0  0  0  0  0
    8.8568   -3.9159    0.0000 C   0  0  0  0  0  0  0  0  0  0  0  0
    8.6488   -4.8940    0.0000 C   0  0  0  0  0  0  0  0  0  0  0  0
    6.8900    4.1467    0.0000 C   0  0  0  0  0  0  0  0  0  0  0  0
    5.6299    2.8866    0.0000 C   0  0  0  0  0  0  0  0  0  0  0  0
    8.4777    4.9557    0.0000 C   0  0  0  0  0  0  0  0  0  0  0  0
    4.8867    3.5558    0.0000 C   0  0  0  0  0  0  0  0  0  0  0  0
    9.4723    4.8512    0.0000 C   0  0  0  0  0  0  0  0  0  0  0  0
    3.9357    3.2468    0.0000 C   0  0  0  0  0  0  0  0  0  0  0  0
    5.0946    4.5339    0.0000 C   0  0  0  0  0  0  0  0  0  0  0  0
    3.1925    3.9159    0.0000 C   0  0  0  0  0  0  0  0  0  0  0  0
    4.3515    5.2030    0.0000 C   0  0  0  0  0  0  0  0  0  0  0  0
    3.4004    4.8940    0.0000 C   0  0  0  0  0  0  0  0  0  0  0  0
    6.4915   -1.2730    0.0000 H   0  0  0  0  0  0  0  0  0  0  0  0
    6.2589   -3.4855    0.0000 H   0  0  0  0  0  0  0  0  0  0  0  0
    5.9204   -0.9485    0.0000 H   0  0  0  0  0  0  0  0  0  0  0  0
    5.1088   -1.1210    0.0000 H   0  0  0  0  0  0  0  0  0  0  0  0
    4.8749   -3.3467    0.0000 H   0  0  0  0  0  0  0  0  0  0  0  0
    5.6328   -3.6842    0.0000 H   0  0  0  0  0  0  0  0  0  0  0  0
    4.1989   -2.6904    0.0000 H   0  0  0  0  0  0  0  0  0  0  0  0
    3.1756   -1.7120    0.0000 H   0  0  0  0  0  0  0  0  0  0  0  0
    7.6020   -1.9747    0.0000 H   0  0  0  0  0  0  0  0  0  0  0  0
    8.0005   -1.2845    0.0000 H   0  0  0  0  0  0  0  0  0  0  0  0
    1.9439   -1.2559    0.0000 H   0  0  0  0  0  0  0  0  0  0  0  0
    2.5887   -1.7244    0.0000 H   0  0  0  0  0  0  0  0  0  0  0  0
    4.5585   -0.8474    0.0000 H   0  0  0  0  0  0  0  0  0  0  0  0
    4.6418   -0.0547    0.0000 H   0  0  0  0  0  0  0  0  0  0  0  0
    1.7080    0.2536    0.0000 H   0  0  0  0  0  0  0  0  0  0  0  0
    1.6247   -0.5391    0.0000 H   0  0  0  0  0  0  0  0  0  0  0  0
    4.3226    0.6621    0.0000 H   0  0  0  0  0  0  0  0  0  0  0  0
    3.6778    1.1306    0.0000 H   0  0  0  0  0  0  0  0  0  0  0  0
    5.9134    0.2155    0.0000 H   0  0  0  0  0  0  0  0  0  0  0  0
    6.3119   -0.4747    0.0000 H   0  0  0  0  0  0  0  0  0  0  0  0
    8.4680   -0.4747    0.0000 H   0  0  0  0  0  0  0  0  0  0  0  0
    8.8666    0.2155    0.0000 H   0  0  0  0  0  0  0  0  0  0  0  0
    7.9269    1.9179    0.0000 H   0  0  0  0  0  0  0  0  0  0  0  0
    2.8974    1.2126    0.0000 H   0  0  0  0  0  0  0  0  0  0  0  0
    2.1693    0.8884    0.0000 H   0  0  0  0  0  0  0  0  0  0  0  0
    6.3119    1.6905    0.0000 H   0  0  0  0  0  0  0  0  0  0  0  0
    5.9134    1.0002    0.0000 H   0  0  0  0  0  0  0  0  0  0  0  0
    8.8666    1.0002    0.0000 H   0  0  0  0  0  0  0  0  0  0  0  0
    8.4680    1.6905    0.0000 H   0  0  0  0  0  0  0  0  0  0  0  0
    6.3650   -4.7255    0.0000 H   0  0  0  0  0  0  0  0  0  0  0  0
    8.2425   -2.6403    0.0000 H   0  0  0  0  0  0  0  0  0  0  0  0
    7.5689   -5.8095    0.0000 H   0  0  0  0  0  0  0  0  0  0  0  0
    9.4464   -3.7243    0.0000 H   0  0  0  0  0  0  0  0  0  0  0  0
    2.0000   -3.3301    0.0000 H   0  0  0  0  0  0  0  0  0  0  0  0
    9.1096   -5.3089    0.0000 H   0  0  0  0  0  0  0  0  0  0  0  0
    6.5255    4.6483    0.0000 H   0  0  0  0  0  0  0  0  0  0  0  0
    5.1413    2.5049    0.0000 H   0  0  0  0  0  0  0  0  0  0  0  0
    5.9210    2.3392    0.0000 H   0  0  0  0  0  0  0  0  0  0  0  0
    8.6486    5.5517    0.0000 H   0  0  0  0  0  0  0  0  0  0  0  0
    7.9205    5.2275    0.0000 H   0  0  0  0  0  0  0  0  0  0  0  0
    9.4075    4.2346    0.0000 H   0  0  0  0  0  0  0  0  0  0  0  0
   10.0889    4.7864    0.0000 H   0  0  0  0  0  0  0  0  0  0  0  0
    9.5371    5.4678    0.0000 H   0  0  0  0  0  0  0  0  0  0  0  0
    3.8068    2.6403    0.0000 H   0  0  0  0  0  0  0  0  0  0  0  0
    5.6843    4.7255    0.0000 H   0  0  0  0  0  0  0  0  0  0  0  0
    2.6029    3.7243    0.0000 H   0  0  0  0  0  0  0  0  0  0  0  0
    4.4804    5.8095    0.0000 H   0  0  0  0  0  0  0  0  0  0  0  0
    2.9397    5.3089    0.0000 H   0  0  0  0  0  0  0  0  0  0  0  0
  1 25  1  0  0  0  0
  1 76  1  0  0  0  0
  2 25  2  0  0  0  0
  3  9  1  0  0  0  0
  3 10  1  0  0  0  0
  3 11  1  0  0  0  0
  4 13  1  0  0  0  0
  4 19  1  0  0  0  0
  4 20  1  0  0  0  0
  5  6  1  0  0  0  0
  5 28  2  0  0  0  0
  6 33  1  0  0  0  0
  6 35  1  0  0  0  0
  7  8  1  0  0  0  0
  7  9  1  0  0  0  0
  7 13  1  6  0  0  0
  7 43  1  0  0  0  0
  8 10  1  0  0  0  0
  8 16  1  1  0  0  0
  8 44  1  0  0  0  0
  9 45  1  0  0  0  0
  9 46  1  0  0  0  0
 10 47  1  0  0  0  0
 10 48  1  0  0  0  0
 11 12  1  0  0  0  0
 11 25  1  1  0  0  0
 11 49  1  0  0  0  0
 12 14  1  0  0  0  0
 12 15  1  0  0  0  0
 12 50  1  0  0  0  0
 13 51  1  0  0  0  0
 13 52  1  0  0  0  0
 14 17  1  0  0  0  0
 14 53  1  0  0  0  0
 14 54  1  0  0  0  0
 15 18  1  0  0  0  0
 15 55  1  0  0  0  0
 15 56  1  0  0  0  0
 16 26  2  0  0  0  0
 16 27  1  0  0  0  0
 17 22  1  0  0  0  0
 17 57  1  0  0  0  0
 17 58  1  0  0  0  0
 18 22  1  0  0  0  0
 18 59  1  0  0  0  0
 18 60  1  0  0  0  0
 19 23  1  0  0  0  0
 19 61  1  0  0  0  0
 19 62  1  0  0  0  0
 20 24  1  0  0  0  0
 20 63  1  0  0  0  0
 20 64  1  0  0  0  0
 21 23  1  0  0  0  0
 21 24  1  0  0  0  0
 21 28  1  0  0  0  0
 21 65  1  0  0  0  0
 22 66  1  0  0  0  0
 22 67  1  0  0  0  0
 23 68  1  0  0  0  0
 23 69  1  0  0  0  0
 24 70  1  0  0  0  0
 24 71  1  0  0  0  0
 26 30  1  0  0  0  0
 26 72  1  0  0  0  0
 27 31  2  0  0  0  0
 27 73  1  0  0  0  0
 28 29  1  0  0  0  0
 29 33  2  0  0  0  0
 29 34  1  0  0  0  0
 30 32  2  0  0  0  0
 30 74  1  0  0  0  0
 31 32  1  0  0  0  0
 31 75  1  0  0  0  0
 32 77  1  0  0  0  0
 33 78  1  0  0  0  0
 34 36  1  0  0  0  0
 34 79  1  0  0  0  0
 34 80  1  0  0  0  0
 35 37  1  0  0  0  0
 35 81  1  0  0  0  0
 35 82  1  0  0  0  0
 36 38  2  0  0  0  0
 36 39  1  0  0  0  0
 37 83  1  0  0  0  0
 37 84  1  0  0  0  0
 37 85  1  0  0  0  0
 38 40  1  0  0  0  0
 38 86  1  0  0  0  0
 39 41  2  0  0  0  0
 39 87  1  0  0  0  0
 40 42  2  0  0  0  0
 40 88  1  0  0  0  0
 41 42  1  0  0  0  0
 41 89  1  0  0  0  0
 42 90  1  0  0  0  0
M  END
> <PUBCHEM_COMPOUND_CID>
516338
> <PUBCHEM_COMPOUND_CANONICALIZED>
1
> <PUBCHEM_CACTVS_COMPLEXITY>
828
> <PUBCHEM_CACTVS_HBOND_ACCEPTOR>
5
> <PUBCHEM_CACTVS_HBOND_DONOR>
1
> <PUBCHEM_CACTVS_ROTATABLE_BOND>
10
> <PUBCHEM_CACTVS_SUBSKEYS>
AAADcfB/sAAAAAAAAAAAAAAAAAAAAWLAAAA8YMEAAAAAAAAB0AAAHgAICAAADSjBngQ+iJMIAgCqAzT3TACSBAAxgAAY2CG4RJgKILLA0fGE5AhkiADYyAeYyOCOgAAAAAAAAAAAAAAAAAAAAAAAAAAAAA==
> <PUBCHEM_IUPAC_OPENEYE_NAME>
(2R)-2-[(3S,4S)-3-[[4-(4-benzyl-1-ethyl-pyrazol-3-yl)-1-piperidyl]methyl]-4-phenyl-pyrrolidin-1-yl]-2-cyclohexyl-acetic acid
> <PUBCHEM_IUPAC_CAS_NAME>
(2R)-2-cyclohexyl-2-[(3S,4S)-3-[[4-[1-ethyl-4-(phenylmethyl)-3-pyrazolyl]-1-piperidinyl]methyl]-4-phenyl-1-pyrrolidinyl]acetic acid
> <PUBCHEM_IUPAC_NAME_MARKUP>
(2<I>R</I>)-2-[(3<I>S</I>,4<I>S</I>)-3-[[4-(4-benzyl-1-ethylpyrazol-3-yl)piperidin-1-yl]methyl]-4-phenylpyrrolidin-1-yl]-2-cyclohexylacetic acid
> <PUBCHEM_IUPAC_NAME>
(2R)-2-[(3S,4S)-3-[[4-(4-benzyl-1-ethylpyrazol-3-yl)piperidin-1-yl]methyl]-4-phenylpyrrolidin-1-yl]-2-cyclohexylacetic acid
> <PUBCHEM_IUPAC_SYSTEMATIC_NAME>
(2R)-2-cyclohexyl-2-[(3S,4S)-3-[[4-[1-ethyl-4-(phenylmethyl)pyrazol-3-yl]piperidin-1-yl]methyl]-4-phenyl-pyrrolidin-1-yl]ethanoic acid
> <PUBCHEM_IUPAC_TRADITIONAL_NAME>
(2R)-2-[(3S,4S)-3-[[4-(4-benzyl-1-ethyl-pyrazol-3-yl)piperidino]methyl]-4-phenyl-pyrrolidino]-2-cyclohexyl-acetic acid
> <PUBCHEM_IUPAC_INCHI>
InChI=1S/C36H48N4O2/c1-2-40-25-31(22-27-12-6-3-7-13-27)34(37-40)29-18-20-38(21-19-29)23-32-24-39(26-33(32)28-14-8-4-9-15-28)35(36(41)42)30-16-10-5-11-17-30/h3-4,6-9,12-15,25,29-30,32-33,35H,2,5,10-11,16-24,26H2,1H3,(H,41,42)/t32-,33+,35+/m0/s1
> <PUBCHEM_IUPAC_INCHIKEY>
WXGYWZXOTMEBIY-VUHKNJSWSA-N
> <PUBCHEM_XLOGP3_AA>
4.6
> <PUBCHEM_EXACT_MASS>
568.37772679
> <PUBCHEM_MOLECULAR_FORMULA>
C36H48N4O2
> <PUBCHEM_MOLECULAR_WEIGHT>
568.8
> <PUBCHEM_OPENEYE_CAN_SMILES>
CCN1C=C(C(=N1)C2CCN(CC2)CC3CN(CC3C4=CC=CC=C4)C(C5CCCCC5)C(=O)O)CC6=CC=CC=C6
> <PUBCHEM_OPENEYE_ISO_SMILES>
CCN1C=C(C(=N1)C2CCN(CC2)C[C@H]3CN(C[C@@H]3C4=CC=CC=C4)[C@H](C5CCCCC5)C(=O)O)CC6=CC=CC=C6
> <PUBCHEM_CACTVS_TPSA>
61.6
> <PUBCHEM_MONOISOTOPIC_WEIGHT>
568.37772679
> <PUBCHEM_TOTAL_CHARGE>
0
> <PUBCHEM_HEAVY_ATOM_COUNT>
42
> <PUBCHEM_ATOM_DEF_STEREO_COUNT>
3
> <PUBCHEM_ATOM_UDEF_STEREO_COUNT>
0
> <PUBCHEM_BOND_DEF_STEREO_COUNT>
0
> <PUBCHEM_BOND_UDEF_STEREO_COUNT>
0
> <PUBCHEM_ISOTOPIC_ATOM_COUNT>
0
> <PUBCHEM_COMPONENT_COUNT>
1
> <PUBCHEM_CACTVS_TAUTO_COUNT>
-1
> <PUBCHEM_COORDINATE_TYPE>
1
5
255
> <PUBCHEM_BONDANNOTATIONS>
11  25  5
16  26  8
16  27  8
26  30  8
27  31  8
28  29  8
29  33  8
30  32  8
31  32  8
36  38  8
36  39  8
38  40  8
39  41  8
40  42  8
41  42  8
5  28  8
5  6  8
6  33  8
7  13  6
8  16  5
$$$$
