516340
  -OEChem-10302200282D
 90 95  0     1  0  0  0  0  0999 V2000
    2.3644   -2.7048    0.0000 O   0  0  0  0  0  0  0  0  0  0  0  0
    3.7657   -3.7229    0.0000 O   0  0  0  0  0  0  0  0  0  0  0  0
    4.9413   -2.1049    0.0000 N   0  0  3  0  0  0  0  0  0  0  0  0
    7.3900   -0.2685    0.0000 N   0  0  0  0  0  0  0  0  0  0  0  0
    8.1990    3.3193    0.0000 N   0  0  0  0  0  0  0  0  0  0  0  0
    7.8900    4.2704    0.0000 N   0  0  0  0  0  0  0  0  0  0  0  0
    6.5239   -1.7685    0.0000 C   0  0  2  0  0  0  0  0  0  0  0  0
    6.4194   -2.7630    0.0000 C   0  0  2  0  0  0  0  0  0  0  0  0
    5.6104   -1.3617    0.0000 C   0  0  0  0  0  0  0  0  0  0  0  0
    5.4413   -2.9709    0.0000 C   0  0  0  0  0  0  0  0  0  0  0  0
    3.9467   -2.0003    0.0000 C   0  0  2  0  0  0  0  0  0  0  0  0
    3.5400   -1.0868    0.0000 C   0  0  0  0  0  0  0  0  0  0  0  0
    7.3900   -1.2685    0.0000 C   0  0  0  0  0  0  0  0  0  0  0  0
    2.5455   -0.9823    0.0000 C   0  0  0  0  0  0  0  0  0  0  0  0
    4.1278   -0.2778    0.0000 C   0  0  0  0  0  0  0  0  0  0  0  0
    7.1626   -3.4321    0.0000 C   0  0  0  0  0  0  0  0  0  0  0  0
    2.1387   -0.0687    0.0000 C   0  0  0  0  0  0  0  0  0  0  0  0
    3.7210    0.6358    0.0000 C   0  0  0  0  0  0  0  0  0  0  0  0
    6.5239    0.2315    0.0000 C   0  0  0  0  0  0  0  0  0  0  0  0
    8.2560    0.2315    0.0000 C   0  0  0  0  0  0  0  0  0  0  0  0
    7.3900    1.7315    0.0000 C   0  0  0  0  0  0  0  0  0  0  0  0
    2.7265    0.7403    0.0000 C   0  0  0  0  0  0  0  0  0  0  0  0
    6.5239    1.2315    0.0000 C   0  0  0  0  0  0  0  0  0  0  0  0
    8.2560    1.2315    0.0000 C   0  0  0  0  0  0  0  0  0  0  0  0
    3.3590   -2.8094    0.0000 C   0  0  0  0  0  0  0  0  0  0  0  0
    6.9546   -4.4103    0.0000 C   0  0  0  0  0  0  0  0  0  0  0  0
    8.1136   -3.1231    0.0000 C   0  0  0  0  0  0  0  0  0  0  0  0
    7.3900    2.7315    0.0000 C   0  0  0  0  0  0  0  0  0  0  0  0
    6.5809    3.3193    0.0000 C   0  0  0  0  0  0  0  0  0  0  0  0
    7.6978   -5.0794    0.0000 C   0  0  0  0  0  0  0  0  0  0  0  0
    8.8568   -3.7922    0.0000 C   0  0  0  0  0  0  0  0  0  0  0  0
    8.6488   -4.7704    0.0000 C   0  0  0  0  0  0  0  0  0  0  0  0
    5.6299    3.0103    0.0000 C   0  0  0  0  0  0  0  0  0  0  0  0
    6.8900    4.2704    0.0000 C   0  0  0  0  0  0  0  0  0  0  0  0
    4.8867    3.6794    0.0000 C   0  0  0  0  0  0  0  0  0  0  0  0
    8.4777    5.0794    0.0000 C   0  0  0  0  0  0  0  0  0  0  0  0
    3.9357    3.3704    0.0000 C   0  0  0  0  0  0  0  0  0  0  0  0
    3.7278    2.3923    0.0000 C   0  0  0  0  0  0  0  0  0  0  0  0
    3.1925    4.0396    0.0000 C   0  0  0  0  0  0  0  0  0  0  0  0
    2.7767    2.0832    0.0000 C   0  0  0  0  0  0  0  0  0  0  0  0
    2.2415    3.7305    0.0000 C   0  0  0  0  0  0  0  0  0  0  0  0
    2.0336    2.7524    0.0000 C   0  0  0  0  0  0  0  0  0  0  0  0
    6.4915   -1.1493    0.0000 H   0  0  0  0  0  0  0  0  0  0  0  0
    6.2589   -3.3619    0.0000 H   0  0  0  0  0  0  0  0  0  0  0  0
    5.9204   -0.8248    0.0000 H   0  0  0  0  0  0  0  0  0  0  0  0
    5.1088   -0.9973    0.0000 H   0  0  0  0  0  0  0  0  0  0  0  0
    4.8749   -3.2231    0.0000 H   0  0  0  0  0  0  0  0  0  0  0  0
    5.6328   -3.5606    0.0000 H   0  0  0  0  0  0  0  0  0  0  0  0
    4.1989   -2.5667    0.0000 H   0  0  0  0  0  0  0  0  0  0  0  0
    3.1756   -1.5884    0.0000 H   0  0  0  0  0  0  0  0  0  0  0  0
    7.6020   -1.8511    0.0000 H   0  0  0  0  0  0  0  0  0  0  0  0
    8.0005   -1.1608    0.0000 H   0  0  0  0  0  0  0  0  0  0  0  0
    1.9439   -1.1323    0.0000 H   0  0  0  0  0  0  0  0  0  0  0  0
    2.5887   -1.6008    0.0000 H   0  0  0  0  0  0  0  0  0  0  0  0
    4.5585   -0.7238    0.0000 H   0  0  0  0  0  0  0  0  0  0  0  0
    4.6418    0.0689    0.0000 H   0  0  0  0  0  0  0  0  0  0  0  0
    1.7080    0.3773    0.0000 H   0  0  0  0  0  0  0  0  0  0  0  0
    1.6247   -0.4154    0.0000 H   0  0  0  0  0  0  0  0  0  0  0  0
    4.3226    0.7858    0.0000 H   0  0  0  0  0  0  0  0  0  0  0  0
    3.6778    1.2542    0.0000 H   0  0  0  0  0  0  0  0  0  0  0  0
    5.9134    0.3392    0.0000 H   0  0  0  0  0  0  0  0  0  0  0  0
    6.3119   -0.3511    0.0000 H   0  0  0  0  0  0  0  0  0  0  0  0
    8.4680   -0.3511    0.0000 H   0  0  0  0  0  0  0  0  0  0  0  0
    8.8666    0.3392    0.0000 H   0  0  0  0  0  0  0  0  0  0  0  0
    7.9269    2.0415    0.0000 H   0  0  0  0  0  0  0  0  0  0  0  0
    2.8974    1.3363    0.0000 H   0  0  0  0  0  0  0  0  0  0  0  0
    2.1693    1.0121    0.0000 H   0  0  0  0  0  0  0  0  0  0  0  0
    6.3119    1.8142    0.0000 H   0  0  0  0  0  0  0  0  0  0  0  0
    5.9134    1.1239    0.0000 H   0  0  0  0  0  0  0  0  0  0  0  0
    8.8666    1.1239    0.0000 H   0  0  0  0  0  0  0  0  0  0  0  0
    8.4680    1.8142    0.0000 H   0  0  0  0  0  0  0  0  0  0  0  0
    6.3650   -4.6018    0.0000 H   0  0  0  0  0  0  0  0  0  0  0  0
    8.2425   -2.5166    0.0000 H   0  0  0  0  0  0  0  0  0  0  0  0
    7.5689   -5.6858    0.0000 H   0  0  0  0  0  0  0  0  0  0  0  0
    9.4464   -3.6006    0.0000 H   0  0  0  0  0  0  0  0  0  0  0  0
    2.0000   -3.2064    0.0000 H   0  0  0  0  0  0  0  0  0  0  0  0
    9.1096   -5.1852    0.0000 H   0  0  0  0  0  0  0  0  0  0  0  0
    5.1413    2.6286    0.0000 H   0  0  0  0  0  0  0  0  0  0  0  0
    5.9210    2.4629    0.0000 H   0  0  0  0  0  0  0  0  0  0  0  0
    6.5255    4.7720    0.0000 H   0  0  0  0  0  0  0  0  0  0  0  0
    5.3753    4.0611    0.0000 H   0  0  0  0  0  0  0  0  0  0  0  0
    4.5957    4.2269    0.0000 H   0  0  0  0  0  0  0  0  0  0  0  0
    8.9793    4.7150    0.0000 H   0  0  0  0  0  0  0  0  0  0  0  0
    8.8422    5.5810    0.0000 H   0  0  0  0  0  0  0  0  0  0  0  0
    7.9762    5.4438    0.0000 H   0  0  0  0  0  0  0  0  0  0  0  0
    4.1885    1.9774    0.0000 H   0  0  0  0  0  0  0  0  0  0  0  0
    3.3214    4.6460    0.0000 H   0  0  0  0  0  0  0  0  0  0  0  0
    2.6478    1.4768    0.0000 H   0  0  0  0  0  0  0  0  0  0  0  0
    1.7807    4.1454    0.0000 H   0  0  0  0  0  0  0  0  0  0  0  0
    1.4439    2.5608    0.0000 H   0  0  0  0  0  0  0  0  0  0  0  0
  1 25  1  0  0  0  0
  1 76  1  0  0  0  0
  2 25  2  0  0  0  0
  3  9  1  0  0  0  0
  3 10  1  0  0  0  0
  3 11  1  0  0  0  0
  4 13  1  0  0  0  0
  4 19  1  0  0  0  0
  4 20  1  0  0  0  0
  5  6  1  0  0  0  0
  5 28  2  0  0  0  0
  6 34  1  0  0  0  0
  6 36  1  0  0  0  0
  7  8  1  0  0  0  0
  7  9  1  0  0  0  0
  7 13  1  6  0  0  0
  7 43  1  0  0  0  0
  8 10  1  0  0  0  0
  8 16  1  1  0  0  0
  8 44  1  0  0  0  0
  9 45  1  0  0  0  0
  9 46  1  0  0  0  0
 10 47  1  0  0  0  0
 10 48  1  0  0  0  0
 11 12  1  0  0  0  0
 11 25  1  1  0  0  0
 11 49  1  0  0  0  0
 12 14  1  0  0  0  0
 12 15  1  0  0  0  0
 12 50  1  0  0  0  0
 13 51  1  0  0  0  0
 13 52  1  0  0  0  0
 14 17  1  0  0  0  0
 14 53  1  0  0  0  0
 14 54  1  0  0  0  0
 15 18  1  0  0  0  0
 15 55  1  0  0  0  0
 15 56  1  0  0  0  0
 16 26  2  0  0  0  0
 16 27  1  0  0  0  0
 17 22  1  0  0  0  0
 17 57  1  0  0  0  0
 17 58  1  0  0  0  0
 18 22  1  0  0  0  0
 18 59  1  0  0  0  0
 18 60  1  0  0  0  0
 19 23  1  0  0  0  0
 19 61  1  0  0  0  0
 19 62  1  0  0  0  0
 20 24  1  0  0  0  0
 20 63  1  0  0  0  0
 20 64  1  0  0  0  0
 21 23  1  0  0  0  0
 21 24  1  0  0  0  0
 21 28  1  0  0  0  0
 21 65  1  0  0  0  0
 22 66  1  0  0  0  0
 22 67  1  0  0  0  0
 23 68  1  0  0  0  0
 23 69  1  0  0  0  0
 24 70  1  0  0  0  0
 24 71  1  0  0  0  0
 26 30  1  0  0  0  0
 26 72  1  0  0  0  0
 27 31  2  0  0  0  0
 27 73  1  0  0  0  0
 28 29  1  0  0  0  0
 29 33  1  0  0  0  0
 29 34  2  0  0  0  0
 30 32  2  0  0  0  0
 30 74  1  0  0  0  0
 31 32  1  0  0  0  0
 31 75  1  0  0  0  0
 32 77  1  0  0  0  0
 33 35  1  0  0  0  0
 33 78  1  0  0  0  0
 33 79  1  0  0  0  0
 34 80  1  0  0  0  0
 35 37  1  0  0  0  0
 35 81  1  0  0  0  0
 35 82  1  0  0  0  0
 36 83  1  0  0  0  0
 36 84  1  0  0  0  0
 36 85  1  0  0  0  0
 37 38  2  0  0  0  0
 37 39  1  0  0  0  0
 38 40  1  0  0  0  0
 38 86  1  0  0  0  0
 39 41  2  0  0  0  0
 39 87  1  0  0  0  0
 40 42  2  0  0  0  0
 40 88  1  0  0  0  0
 41 42  1  0  0  0  0
 41 89  1  0  0  0  0
 42 90  1  0  0  0  0
M  END
> <PUBCHEM_COMPOUND_CID>
516340
> <PUBCHEM_COMPOUND_CANONICALIZED>
1
> <PUBCHEM_CACTVS_COMPLEXITY>
828
> <PUBCHEM_CACTVS_HBOND_ACCEPTOR>
5
> <PUBCHEM_CACTVS_HBOND_DONOR>
1
> <PUBCHEM_CACTVS_ROTATABLE_BOND>
10
> <PUBCHEM_CACTVS_SUBSKEYS>
AAADcfB/sAAAAAAAAAAAAAAAAAAAAWLAAAA8YMEAAAAAAAAB0AAAHgAICAAADSjBngQ+iJMIAgCqAzT3TACSBAAxgAAY2CG4RJgKILLA0fGE5AhkiADYyAeYyOCOgAAAAAAAAAAAAAAAAAAAAAAAAAAAAA==
> <PUBCHEM_IUPAC_OPENEYE_NAME>
(2R)-2-cyclohexyl-2-[(3S,4S)-3-[[4-[1-methyl-4-(2-phenylethyl)pyrazol-3-yl]-1-piperidyl]methyl]-4-phenyl-pyrrolidin-1-yl]acetic acid
> <PUBCHEM_IUPAC_CAS_NAME>
(2R)-2-cyclohexyl-2-[(3S,4S)-3-[[4-[1-methyl-4-(2-phenylethyl)-3-pyrazolyl]-1-piperidinyl]methyl]-4-phenyl-1-pyrrolidinyl]acetic acid
> <PUBCHEM_IUPAC_NAME_MARKUP>
(2<I>R</I>)-2-cyclohexyl-2-[(3<I>S</I>,4<I>S</I>)-3-[[4-[1-methyl-4-(2-phenylethyl)pyrazol-3-yl]piperidin-1-yl]methyl]-4-phenylpyrrolidin-1-yl]acetic acid
> <PUBCHEM_IUPAC_NAME>
(2R)-2-cyclohexyl-2-[(3S,4S)-3-[[4-[1-methyl-4-(2-phenylethyl)pyrazol-3-yl]piperidin-1-yl]methyl]-4-phenylpyrrolidin-1-yl]acetic acid
> <PUBCHEM_IUPAC_SYSTEMATIC_NAME>
(2R)-2-cyclohexyl-2-[(3S,4S)-3-[[4-[1-methyl-4-(2-phenylethyl)pyrazol-3-yl]piperidin-1-yl]methyl]-4-phenyl-pyrrolidin-1-yl]ethanoic acid
> <PUBCHEM_IUPAC_TRADITIONAL_NAME>
(2R)-2-cyclohexyl-2-[(3S,4S)-3-[[4-(1-methyl-4-phenethyl-pyrazol-3-yl)piperidino]methyl]-4-phenyl-pyrrolidino]acetic acid
> <PUBCHEM_IUPAC_INCHI>
InChI=1S/C36H48N4O2/c1-38-23-31(18-17-27-11-5-2-6-12-27)34(37-38)29-19-21-39(22-20-29)24-32-25-40(26-33(32)28-13-7-3-8-14-28)35(36(41)42)30-15-9-4-10-16-30/h2-3,5-8,11-14,23,29-30,32-33,35H,4,9-10,15-22,24-26H2,1H3,(H,41,42)/t32-,33+,35+/m0/s1
> <PUBCHEM_IUPAC_INCHIKEY>
CDQNFYDAQGBSAS-VUHKNJSWSA-N
> <PUBCHEM_XLOGP3_AA>
4.6
> <PUBCHEM_EXACT_MASS>
568.37772679
> <PUBCHEM_MOLECULAR_FORMULA>
C36H48N4O2
> <PUBCHEM_MOLECULAR_WEIGHT>
568.8
> <PUBCHEM_OPENEYE_CAN_SMILES>
CN1C=C(C(=N1)C2CCN(CC2)CC3CN(CC3C4=CC=CC=C4)C(C5CCCCC5)C(=O)O)CCC6=CC=CC=C6
> <PUBCHEM_OPENEYE_ISO_SMILES>
CN1C=C(C(=N1)C2CCN(CC2)C[C@H]3CN(C[C@@H]3C4=CC=CC=C4)[C@H](C5CCCCC5)C(=O)O)CCC6=CC=CC=C6
> <PUBCHEM_CACTVS_TPSA>
61.6
> <PUBCHEM_MONOISOTOPIC_WEIGHT>
568.37772679
> <PUBCHEM_TOTAL_CHARGE>
0
> <PUBCHEM_HEAVY_ATOM_COUNT>
42
> <PUBCHEM_ATOM_DEF_STEREO_COUNT>
3
> <PUBCHEM_ATOM_UDEF_STEREO_COUNT>
0
> <PUBCHEM_BOND_DEF_STEREO_COUNT>
0
> <PUBCHEM_BOND_UDEF_STEREO_COUNT>
0
> <PUBCHEM_ISOTOPIC_ATOM_COUNT>
0
> <PUBCHEM_COMPONENT_COUNT>
1
> <PUBCHEM_CACTVS_TAUTO_COUNT>
-1
> <PUBCHEM_COORDINATE_TYPE>
1
5
255
> <PUBCHEM_BONDANNOTATIONS>
11  25  5
16  26  8
16  27  8
26  30  8
27  31  8
28  29  8
29  34  8
30  32  8
31  32  8
37  38  8
37  39  8
38  40  8
39  41  8
40  42  8
41  42  8
5  28  8
5  6  8
6  34  8
7  13  6
8  16  5
$$$$
