516304
  -OEChem-10302200282D
103109  0     1  0  0  0  0  0999 V2000
   13.1792    3.3831    0.0000 S   0  0  0  0  0  0  0  0  0  0  0  0
    2.0000   -0.4353    0.0000 F   0  0  0  0  0  0  0  0  0  0  0  0
    4.7986   -5.8831    0.0000 O   0  0  0  0  0  0  0  0  0  0  0  0
    3.9326   -4.3831    0.0000 O   0  0  0  0  0  0  0  0  0  0  0  0
   14.1792    3.3831    0.0000 O   0  0  0  0  0  0  0  0  0  0  0  0
   12.1792    3.3831    0.0000 O   0  0  0  0  0  0  0  0  0  0  0  0
    5.6646   -3.3831    0.0000 N   0  0  3  0  0  0  0  0  0  0  0  0
    7.7469   -1.1398    0.0000 N   0  0  0  0  0  0  0  0  0  0  0  0
   11.2305   -2.3194    0.0000 N   0  0  0  0  0  0  0  0  0  0  0  0
   12.2086   -2.1114    0.0000 N   0  0  0  0  0  0  0  0  0  0  0  0
    6.1646   -1.8442    0.0000 C   0  0  2  0  0  0  0  0  0  0  0  0
    5.1646   -1.8442    0.0000 C   0  0  2  0  0  0  0  0  0  0  0  0
    6.4736   -2.7953    0.0000 C   0  0  0  0  0  0  0  0  0  0  0  0
    4.8556   -2.7953    0.0000 C   0  0  0  0  0  0  0  0  0  0  0  0
    5.6646   -4.3831    0.0000 C   0  0  2  0  0  0  0  0  0  0  0  0
    6.5306   -4.8831    0.0000 C   0  0  0  0  0  0  0  0  0  0  0  0
    6.7524   -1.0352    0.0000 C   0  0  0  0  0  0  0  0  0  0  0  0
    7.3967   -4.3831    0.0000 C   0  0  0  0  0  0  0  0  0  0  0  0
    6.5306   -5.8831    0.0000 C   0  0  0  0  0  0  0  0  0  0  0  0
    4.5768   -1.0352    0.0000 C   0  0  0  0  0  0  0  0  0  0  0  0
    8.2627   -4.8831    0.0000 C   0  0  0  0  0  0  0  0  0  0  0  0
    7.3967   -6.3831    0.0000 C   0  0  0  0  0  0  0  0  0  0  0  0
    8.1537   -2.0533    0.0000 C   0  0  0  0  0  0  0  0  0  0  0  0
    8.3347   -0.3307    0.0000 C   0  0  0  0  0  0  0  0  0  0  0  0
    9.7360   -1.3488    0.0000 C   0  0  0  0  0  0  0  0  0  0  0  0
    8.2627   -5.8831    0.0000 C   0  0  0  0  0  0  0  0  0  0  0  0
    9.1482   -2.1578    0.0000 C   0  0  0  0  0  0  0  0  0  0  0  0
    9.3292   -0.4353    0.0000 C   0  0  0  0  0  0  0  0  0  0  0  0
    4.7986   -4.8831    0.0000 C   0  0  0  0  0  0  0  0  0  0  0  0
    3.5823   -1.1398    0.0000 C   0  0  0  0  0  0  0  0  0  0  0  0
    4.9836   -0.1217    0.0000 C   0  0  0  0  0  0  0  0  0  0  0  0
   10.7305   -1.4533    0.0000 C   0  0  0  0  0  0  0  0  0  0  0  0
    2.9945   -0.3307    0.0000 C   0  0  0  0  0  0  0  0  0  0  0  0
    4.3958    0.6873    0.0000 C   0  0  0  0  0  0  0  0  0  0  0  0
   11.3996   -0.7102    0.0000 C   0  0  0  0  0  0  0  0  0  0  0  0
    3.4013    0.5828    0.0000 C   0  0  0  0  0  0  0  0  0  0  0  0
   12.3132   -1.1169    0.0000 C   0  0  0  0  0  0  0  0  0  0  0  0
   10.8238   -3.2329    0.0000 C   0  0  0  0  0  0  0  0  0  0  0  0
   13.1792   -0.6169    0.0000 C   0  0  0  0  0  0  0  0  0  0  0  0
   11.4115   -4.0419    0.0000 C   0  0  0  0  0  0  0  0  0  0  0  0
   13.1792    0.3831    0.0000 C   0  0  0  0  0  0  0  0  0  0  0  0
   12.3132    0.8831    0.0000 C   0  0  0  0  0  0  0  0  0  0  0  0
   14.0452    0.8831    0.0000 C   0  0  0  0  0  0  0  0  0  0  0  0
   12.3132    1.8831    0.0000 C   0  0  0  0  0  0  0  0  0  0  0  0
   14.0452    1.8831    0.0000 C   0  0  0  0  0  0  0  0  0  0  0  0
   13.1792    2.3831    0.0000 C   0  0  0  0  0  0  0  0  0  0  0  0
   13.1792    4.3831    0.0000 C   0  0  0  0  0  0  0  0  0  0  0  0
   12.3132    4.8831    0.0000 C   0  0  0  0  0  0  0  0  0  0  0  0
   14.0452    4.8831    0.0000 C   0  0  0  0  0  0  0  0  0  0  0  0
   12.3132    5.8831    0.0000 C   0  0  0  0  0  0  0  0  0  0  0  0
   14.0452    5.8831    0.0000 C   0  0  0  0  0  0  0  0  0  0  0  0
   13.1792    6.3831    0.0000 C   0  0  0  0  0  0  0  0  0  0  0  0
    5.8831   -1.2918    0.0000 H   0  0  0  0  0  0  0  0  0  0  0  0
    4.5522   -1.9412    0.0000 H   0  0  0  0  0  0  0  0  0  0  0  0
    6.7836   -3.3322    0.0000 H   0  0  0  0  0  0  0  0  0  0  0  0
    7.0400   -2.5431    0.0000 H   0  0  0  0  0  0  0  0  0  0  0  0
    4.2892   -2.5431    0.0000 H   0  0  0  0  0  0  0  0  0  0  0  0
    4.5456   -3.3322    0.0000 H   0  0  0  0  0  0  0  0  0  0  0  0
    5.1277   -4.0731    0.0000 H   0  0  0  0  0  0  0  0  0  0  0  0
    6.5306   -4.2631    0.0000 H   0  0  0  0  0  0  0  0  0  0  0  0
    6.9233   -0.4392    0.0000 H   0  0  0  0  0  0  0  0  0  0  0  0
    6.1952   -0.7634    0.0000 H   0  0  0  0  0  0  0  0  0  0  0  0
    7.7952   -3.9081    0.0000 H   0  0  0  0  0  0  0  0  0  0  0  0
    6.9981   -3.9081    0.0000 H   0  0  0  0  0  0  0  0  0  0  0  0
    5.9201   -5.7754    0.0000 H   0  0  0  0  0  0  0  0  0  0  0  0
    6.3186   -6.4657    0.0000 H   0  0  0  0  0  0  0  0  0  0  0  0
    8.8733   -4.9907    0.0000 H   0  0  0  0  0  0  0  0  0  0  0  0
    8.4747   -4.3005    0.0000 H   0  0  0  0  0  0  0  0  0  0  0  0
    6.9981   -6.8580    0.0000 H   0  0  0  0  0  0  0  0  0  0  0  0
    7.7952   -6.8580    0.0000 H   0  0  0  0  0  0  0  0  0  0  0  0
    7.5521   -2.2033    0.0000 H   0  0  0  0  0  0  0  0  0  0  0  0
    8.1969   -2.6718    0.0000 H   0  0  0  0  0  0  0  0  0  0  0  0
    8.5056    0.2653    0.0000 H   0  0  0  0  0  0  0  0  0  0  0  0
    7.7774   -0.0589    0.0000 H   0  0  0  0  0  0  0  0  0  0  0  0
   10.1004   -0.8472    0.0000 H   0  0  0  0  0  0  0  0  0  0  0  0
    8.4747   -6.4657    0.0000 H   0  0  0  0  0  0  0  0  0  0  0  0
    8.8733   -5.7754    0.0000 H   0  0  0  0  0  0  0  0  0  0  0  0
    8.9773   -2.7538    0.0000 H   0  0  0  0  0  0  0  0  0  0  0  0
    9.7054   -2.4296    0.0000 H   0  0  0  0  0  0  0  0  0  0  0  0
    9.9308   -0.2853    0.0000 H   0  0  0  0  0  0  0  0  0  0  0  0
    9.2860    0.1832    0.0000 H   0  0  0  0  0  0  0  0  0  0  0  0
    3.3301   -1.7061    0.0000 H   0  0  0  0  0  0  0  0  0  0  0  0
    5.6002   -0.0569    0.0000 H   0  0  0  0  0  0  0  0  0  0  0  0
    4.6480    1.2537    0.0000 H   0  0  0  0  0  0  0  0  0  0  0  0
    4.2617   -6.1931    0.0000 H   0  0  0  0  0  0  0  0  0  0  0  0
   11.2707   -0.1037    0.0000 H   0  0  0  0  0  0  0  0  0  0  0  0
    3.0368    1.0844    0.0000 H   0  0  0  0  0  0  0  0  0  0  0  0
   10.3097   -2.8862    0.0000 H   0  0  0  0  0  0  0  0  0  0  0  0
   10.3931   -3.6789    0.0000 H   0  0  0  0  0  0  0  0  0  0  0  0
   13.3912   -1.1995    0.0000 H   0  0  0  0  0  0  0  0  0  0  0  0
   13.7898   -0.5093    0.0000 H   0  0  0  0  0  0  0  0  0  0  0  0
   10.9099   -4.4064    0.0000 H   0  0  0  0  0  0  0  0  0  0  0  0
   11.7760   -4.5435    0.0000 H   0  0  0  0  0  0  0  0  0  0  0  0
   11.9131   -3.6775    0.0000 H   0  0  0  0  0  0  0  0  0  0  0  0
   11.7762    0.5731    0.0000 H   0  0  0  0  0  0  0  0  0  0  0  0
   14.5821    0.5731    0.0000 H   0  0  0  0  0  0  0  0  0  0  0  0
   11.7762    2.1931    0.0000 H   0  0  0  0  0  0  0  0  0  0  0  0
   14.5821    2.1931    0.0000 H   0  0  0  0  0  0  0  0  0  0  0  0
   11.7762    4.5731    0.0000 H   0  0  0  0  0  0  0  0  0  0  0  0
   14.5821    4.5731    0.0000 H   0  0  0  0  0  0  0  0  0  0  0  0
   11.7762    6.1931    0.0000 H   0  0  0  0  0  0  0  0  0  0  0  0
   14.5821    6.1931    0.0000 H   0  0  0  0  0  0  0  0  0  0  0  0
   13.1792    7.0031    0.0000 H   0  0  0  0  0  0  0  0  0  0  0  0
  1  5  2  0  0  0  0
  1  6  2  0  0  0  0
  1 46  1  0  0  0  0
  1 47  1  0  0  0  0
  2 33  1  0  0  0  0
  3 29  1  0  0  0  0
  3 85  1  0  0  0  0
  4 29  2  0  0  0  0
  7 13  1  0  0  0  0
  7 14  1  0  0  0  0
  7 15  1  0  0  0  0
  8 17  1  0  0  0  0
  8 23  1  0  0  0  0
  8 24  1  0  0  0  0
  9 10  1  0  0  0  0
  9 32  1  0  0  0  0
  9 38  1  0  0  0  0
 10 37  2  0  0  0  0
 11 12  1  0  0  0  0
 11 13  1  0  0  0  0
 11 17  1  1  0  0  0
 11 53  1  0  0  0  0
 12 14  1  0  0  0  0
 12 20  1  6  0  0  0
 12 54  1  0  0  0  0
 13 55  1  0  0  0  0
 13 56  1  0  0  0  0
 14 57  1  0  0  0  0
 14 58  1  0  0  0  0
 15 16  1  0  0  0  0
 15 29  1  6  0  0  0
 15 59  1  0  0  0  0
 16 18  1  0  0  0  0
 16 19  1  0  0  0  0
 16 60  1  0  0  0  0
 17 61  1  0  0  0  0
 17 62  1  0  0  0  0
 18 21  1  0  0  0  0
 18 63  1  0  0  0  0
 18 64  1  0  0  0  0
 19 22  1  0  0  0  0
 19 65  1  0  0  0  0
 19 66  1  0  0  0  0
 20 30  2  0  0  0  0
 20 31  1  0  0  0  0
 21 26  1  0  0  0  0
 21 67  1  0  0  0  0
 21 68  1  0  0  0  0
 22 26  1  0  0  0  0
 22 69  1  0  0  0  0
 22 70  1  0  0  0  0
 23 27  1  0  0  0  0
 23 71  1  0  0  0  0
 23 72  1  0  0  0  0
 24 28  1  0  0  0  0
 24 73  1  0  0  0  0
 24 74  1  0  0  0  0
 25 27  1  0  0  0  0
 25 28  1  0  0  0  0
 25 32  1  0  0  0  0
 25 75  1  0  0  0  0
 26 76  1  0  0  0  0
 26 77  1  0  0  0  0
 27 78  1  0  0  0  0
 27 79  1  0  0  0  0
 28 80  1  0  0  0  0
 28 81  1  0  0  0  0
 30 33  1  0  0  0  0
 30 82  1  0  0  0  0
 31 34  2  0  0  0  0
 31 83  1  0  0  0  0
 32 35  2  0  0  0  0
 33 36  2  0  0  0  0
 34 36  1  0  0  0  0
 34 84  1  0  0  0  0
 35 37  1  0  0  0  0
 35 86  1  0  0  0  0
 36 87  1  0  0  0  0
 37 39  1  0  0  0  0
 38 40  1  0  0  0  0
 38 88  1  0  0  0  0
 38 89  1  0  0  0  0
 39 41  1  0  0  0  0
 39 90  1  0  0  0  0
 39 91  1  0  0  0  0
 40 92  1  0  0  0  0
 40 93  1  0  0  0  0
 40 94  1  0  0  0  0
 41 42  2  0  0  0  0
 41 43  1  0  0  0  0
 42 44  1  0  0  0  0
 42 95  1  0  0  0  0
 43 45  2  0  0  0  0
 43 96  1  0  0  0  0
 44 46  2  0  0  0  0
 44 97  1  0  0  0  0
 45 46  1  0  0  0  0
 45 98  1  0  0  0  0
 47 48  2  0  0  0  0
 47 49  1  0  0  0  0
 48 50  1  0  0  0  0
 48 99  1  0  0  0  0
 49 51  2  0  0  0  0
 49100  1  0  0  0  0
 50 52  2  0  0  0  0
 50101  1  0  0  0  0
 51 52  1  0  0  0  0
 51102  1  0  0  0  0
 52103  1  0  0  0  0
M  END
> <PUBCHEM_COMPOUND_CID>
516304
> <PUBCHEM_COMPOUND_CANONICALIZED>
1
> <PUBCHEM_CACTVS_COMPLEXITY>
1240
> <PUBCHEM_CACTVS_HBOND_ACCEPTOR>
8
> <PUBCHEM_CACTVS_HBOND_DONOR>
1
> <PUBCHEM_CACTVS_ROTATABLE_BOND>
12
> <PUBCHEM_CACTVS_SUBSKEYS>
AAADcfB/uQBAAAAAAAAAAAAAAAAAAWLAAAA8YMGCAAAAAAAB1AAAHwQICAAADSjB3gwyiZMIAgqqAyTyTHDSBAAhihAY2Dm4ZJgKIDLg0fGE5AhkiAD4yAeYyOCOkAAAAAAAAAAgAAAAAAAAAAAAAAAAAA==
> <PUBCHEM_IUPAC_OPENEYE_NAME>
(2R)-2-[(3S,4S)-3-[[4-[5-[[4-(benzenesulfonyl)phenyl]methyl]-2-ethyl-pyrazol-3-yl]-1-piperidyl]methyl]-4-(3-fluorophenyl)pyrrolidin-1-yl]-2-cyclohexyl-acetic acid
> <PUBCHEM_IUPAC_CAS_NAME>
(2R)-2-[(3S,4S)-3-[[4-[5-[[4-(benzenesulfonyl)phenyl]methyl]-2-ethyl-3-pyrazolyl]-1-piperidinyl]methyl]-4-(3-fluorophenyl)-1-pyrrolidinyl]-2-cyclohexylacetic acid
> <PUBCHEM_IUPAC_NAME_MARKUP>
(2<I>R</I>)-2-[(3<I>S</I>,4<I>S</I>)-3-[[4-[5-[[4-(benzenesulfonyl)phenyl]methyl]-2-ethylpyrazol-3-yl]piperidin-1-yl]methyl]-4-(3-fluorophenyl)pyrrolidin-1-yl]-2-cyclohexylacetic acid
> <PUBCHEM_IUPAC_NAME>
(2R)-2-[(3S,4S)-3-[[4-[5-[[4-(benzenesulfonyl)phenyl]methyl]-2-ethylpyrazol-3-yl]piperidin-1-yl]methyl]-4-(3-fluorophenyl)pyrrolidin-1-yl]-2-cyclohexylacetic acid
> <PUBCHEM_IUPAC_SYSTEMATIC_NAME>
(2R)-2-cyclohexyl-2-[(3S,4S)-3-[[4-[2-ethyl-5-[[4-(phenylsulfonyl)phenyl]methyl]pyrazol-3-yl]piperidin-1-yl]methyl]-4-(3-fluorophenyl)pyrrolidin-1-yl]ethanoic acid
> <PUBCHEM_IUPAC_TRADITIONAL_NAME>
(2R)-2-[(3S,4S)-3-[[4-[5-(4-besylbenzyl)-2-ethyl-pyrazol-3-yl]piperidino]methyl]-4-(3-fluorophenyl)pyrrolidino]-2-cyclohexyl-acetic acid
> <PUBCHEM_IUPAC_INCHI>
InChI=1S/C42H51FN4O4S/c1-2-47-40(26-36(44-47)24-30-16-18-38(19-17-30)52(50,51)37-14-7-4-8-15-37)31-20-22-45(23-21-31)27-34-28-46(29-39(34)33-12-9-13-35(43)25-33)41(42(48)49)32-10-5-3-6-11-32/h4,7-9,12-19,25-26,31-32,34,39,41H,2-3,5-6,10-11,20-24,27-29H2,1H3,(H,48,49)/t34-,39+,41+/m0/s1
> <PUBCHEM_IUPAC_INCHIKEY>
RYJRZGRSMBZHTK-NXLXXTAESA-N
> <PUBCHEM_XLOGP3_AA>
5.5
> <PUBCHEM_EXACT_MASS>
726.36150546
> <PUBCHEM_MOLECULAR_FORMULA>
C42H51FN4O4S
> <PUBCHEM_MOLECULAR_WEIGHT>
726.9
> <PUBCHEM_OPENEYE_CAN_SMILES>
CCN1C(=CC(=N1)CC2=CC=C(C=C2)S(=O)(=O)C3=CC=CC=C3)C4CCN(CC4)CC5CN(CC5C6=CC(=CC=C6)F)C(C7CCCCC7)C(=O)O
> <PUBCHEM_OPENEYE_ISO_SMILES>
CCN1C(=CC(=N1)CC2=CC=C(C=C2)S(=O)(=O)C3=CC=CC=C3)C4CCN(CC4)C[C@H]5CN(C[C@@H]5C6=CC(=CC=C6)F)[C@H](C7CCCCC7)C(=O)O
> <PUBCHEM_CACTVS_TPSA>
104
> <PUBCHEM_MONOISOTOPIC_WEIGHT>
726.36150546
> <PUBCHEM_TOTAL_CHARGE>
0
> <PUBCHEM_HEAVY_ATOM_COUNT>
52
> <PUBCHEM_ATOM_DEF_STEREO_COUNT>
3
> <PUBCHEM_ATOM_UDEF_STEREO_COUNT>
0
> <PUBCHEM_BOND_DEF_STEREO_COUNT>
0
> <PUBCHEM_BOND_UDEF_STEREO_COUNT>
0
> <PUBCHEM_ISOTOPIC_ATOM_COUNT>
0
> <PUBCHEM_COMPONENT_COUNT>
1
> <PUBCHEM_CACTVS_TAUTO_COUNT>
-1
> <PUBCHEM_COORDINATE_TYPE>
1
5
255
> <PUBCHEM_BONDANNOTATIONS>
10  37  8
11  17  5
12  20  6
15  29  6
20  30  8
20  31  8
30  33  8
31  34  8
32  35  8
33  36  8
34  36  8
35  37  8
41  42  8
41  43  8
42  44  8
43  45  8
44  46  8
45  46  8
47  48  8
47  49  8
48  50  8
49  51  8
50  52  8
51  52  8
9  10  8
9  32  8
$$$$
