516396
  -OEChem-10302200282D
 45 47  0     1  0  0  0  0  0999 V2000
    2.3038   -2.5710    0.0000 O   0  0  0  0  0  0  0  0  0  0  0  0
    3.8137   -3.4196    0.0000 O   0  0  0  0  0  0  0  0  0  0  0  0
    6.4318    2.9163    0.0000 O   0  0  0  0  0  0  0  0  0  0  0  0
    4.6876   -1.1530    0.0000 C   0  0  2  0  0  0  0  0  0  0  0  0
    4.6876   -0.1530    0.0000 C   0  0  2  0  0  0  0  0  0  0  0  0
    3.7937   -1.6877    0.0000 C   0  0  3  0  0  0  0  0  0  0  0  0
    3.7937    0.3817    0.0000 C   0  0  0  0  0  0  0  0  0  0  0  0
    5.5536   -1.6530    0.0000 C   0  0  0  0  0  0  0  0  0  0  0  0
    2.8876   -1.1738    0.0000 C   0  0  0  0  0  0  0  0  0  0  0  0
    2.8876   -0.1322    0.0000 C   0  0  0  0  0  0  0  0  0  0  0  0
    5.5536    0.3470    0.0000 C   0  0  0  0  0  0  0  0  0  0  0  0
    4.6876    0.8470    0.0000 C   0  0  0  0  0  0  0  0  0  0  0  0
    6.4196   -1.1530    0.0000 C   0  0  0  0  0  0  0  0  0  0  0  0
    6.4196   -0.1530    0.0000 C   0  0  0  0  0  0  0  0  0  0  0  0
    4.3036   -2.5478    0.0000 C   0  0  0  0  0  0  0  0  0  0  0  0
    3.3037   -2.5594    0.0000 C   0  0  0  0  0  0  0  0  0  0  0  0
    5.5376    1.3885    0.0000 C   0  0  0  0  0  0  0  0  0  0  0  0
    7.3296    0.3538    0.0000 C   0  0  0  0  0  0  0  0  0  0  0  0
    6.4356    1.9163    0.0000 C   0  0  0  0  0  0  0  0  0  0  0  0
    7.3377    1.3954    0.0000 C   0  0  0  0  0  0  0  0  0  0  0  0
    7.2958    3.4196    0.0000 C   0  0  0  0  0  0  0  0  0  0  0  0
    4.6941   -2.0030    0.0000 H   0  0  0  0  0  0  0  0  0  0  0  0
    4.1982    0.8515    0.0000 H   0  0  0  0  0  0  0  0  0  0  0  0
    3.4000    0.8607    0.0000 H   0  0  0  0  0  0  0  0  0  0  0  0
    5.1551   -2.1279    0.0000 H   0  0  0  0  0  0  0  0  0  0  0  0
    5.9521   -2.1279    0.0000 H   0  0  0  0  0  0  0  0  0  0  0  0
    2.2767   -1.0677    0.0000 H   0  0  0  0  0  0  0  0  0  0  0  0
    2.6785   -1.7575    0.0000 H   0  0  0  0  0  0  0  0  0  0  0  0
    2.6785    0.4515    0.0000 H   0  0  0  0  0  0  0  0  0  0  0  0
    2.2767   -0.2383    0.0000 H   0  0  0  0  0  0  0  0  0  0  0  0
    5.3076    0.8470    0.0000 H   0  0  0  0  0  0  0  0  0  0  0  0
    4.6876    1.4670    0.0000 H   0  0  0  0  0  0  0  0  0  0  0  0
    4.0676    0.8470    0.0000 H   0  0  0  0  0  0  0  0  0  0  0  0
    6.6317   -1.7356    0.0000 H   0  0  0  0  0  0  0  0  0  0  0  0
    7.0302   -1.0453    0.0000 H   0  0  0  0  0  0  0  0  0  0  0  0
    3.7703   -2.8640    0.0000 H   0  0  0  0  0  0  0  0  0  0  0  0
    4.6198   -3.0812    0.0000 H   0  0  0  0  0  0  0  0  0  0  0  0
    4.8370   -2.2316    0.0000 H   0  0  0  0  0  0  0  0  0  0  0  0
    4.9971    1.6923    0.0000 H   0  0  0  0  0  0  0  0  0  0  0  0
    7.8630    0.0377    0.0000 H   0  0  0  0  0  0  0  0  0  0  0  0
    7.8758    1.7034    0.0000 H   0  0  0  0  0  0  0  0  0  0  0  0
    2.0000   -3.1114    0.0000 H   0  0  0  0  0  0  0  0  0  0  0  0
    7.6079    2.8839    0.0000 H   0  0  0  0  0  0  0  0  0  0  0  0
    7.8316    3.7317    0.0000 H   0  0  0  0  0  0  0  0  0  0  0  0
    6.9838    3.9553    0.0000 H   0  0  0  0  0  0  0  0  0  0  0  0
  1 16  1  0  0  0  0
  1 42  1  0  0  0  0
  2 16  2  0  0  0  0
  3 19  1  0  0  0  0
  3 21  1  0  0  0  0
  4  5  1  0  0  0  0
  4  6  1  0  0  0  0
  4  8  1  0  0  0  0
  4 22  1  6  0  0  0
  5  7  1  0  0  0  0
  5 11  1  0  0  0  0
  5 12  1  1  0  0  0
  6  9  1  0  0  0  0
  6 15  1  0  0  0  0
  6 16  1  0  0  0  0
  7 10  1  0  0  0  0
  7 23  1  0  0  0  0
  7 24  1  0  0  0  0
  8 13  1  0  0  0  0
  8 25  1  0  0  0  0
  8 26  1  0  0  0  0
  9 10  1  0  0  0  0
  9 27  1  0  0  0  0
  9 28  1  0  0  0  0
 10 29  1  0  0  0  0
 10 30  1  0  0  0  0
 11 14  2  0  0  0  0
 11 17  1  0  0  0  0
 12 31  1  0  0  0  0
 12 32  1  0  0  0  0
 12 33  1  0  0  0  0
 13 14  1  0  0  0  0
 13 34  1  0  0  0  0
 13 35  1  0  0  0  0
 14 18  1  0  0  0  0
 15 36  1  0  0  0  0
 15 37  1  0  0  0  0
 15 38  1  0  0  0  0
 17 19  2  0  0  0  0
 17 39  1  0  0  0  0
 18 20  2  0  0  0  0
 18 40  1  0  0  0  0
 19 20  1  0  0  0  0
 20 41  1  0  0  0  0
 21 43  1  0  0  0  0
 21 44  1  0  0  0  0
 21 45  1  0  0  0  0
M  END
> <PUBCHEM_COMPOUND_CID>
516396
> <PUBCHEM_COMPOUND_CANONICALIZED>
1
> <PUBCHEM_CACTVS_COMPLEXITY>
421
> <PUBCHEM_CACTVS_HBOND_ACCEPTOR>
3
> <PUBCHEM_CACTVS_HBOND_DONOR>
1
> <PUBCHEM_CACTVS_ROTATABLE_BOND>
2
> <PUBCHEM_CACTVS_SUBSKEYS>
AAADceB4MAAAAAAAAAAAAAAAAAAAAAAAAAAwYMAAAAAAAADBAAAAGgAACAAADwSAmAIyDoAABgCIAiDSCAACCAAgIAAIiAEGCIgMJjKEMRqAcCAkwBEIqAeIyPCPoAABAAAQAADAAAYAACAAAAAAAAAAAA==
> <PUBCHEM_IUPAC_OPENEYE_NAME>
(4aS,10aR)-6-methoxy-1,4a-dimethyl-2,3,4,9,10,10a-hexahydrophenanthrene-1-carboxylic acid
> <PUBCHEM_IUPAC_CAS_NAME>
(4aS,10aR)-6-methoxy-1,4a-dimethyl-2,3,4,9,10,10a-hexahydrophenanthrene-1-carboxylic acid
> <PUBCHEM_IUPAC_NAME_MARKUP>
(4<I>a</I><I>S</I>,10<I>a</I><I>R</I>)-6-methoxy-1,4<I>a</I>-dimethyl-2,3,4,9,10,10<I>a</I>-hexahydrophenanthrene-1-carboxylic acid
> <PUBCHEM_IUPAC_NAME>
(4aS,10aR)-6-methoxy-1,4a-dimethyl-2,3,4,9,10,10a-hexahydrophenanthrene-1-carboxylic acid
> <PUBCHEM_IUPAC_SYSTEMATIC_NAME>
(4aS,10aR)-6-methoxy-1,4a-dimethyl-2,3,4,9,10,10a-hexahydrophenanthrene-1-carboxylic acid
> <PUBCHEM_IUPAC_TRADITIONAL_NAME>
(4aS,10aR)-6-methoxy-1,4a-dimethyl-2,3,4,9,10,10a-hexahydrophenanthrene-1-carboxylic acid
> <PUBCHEM_IUPAC_INCHI>
InChI=1S/C18H24O3/c1-17-9-4-10-18(2,16(19)20)15(17)8-6-12-5-7-13(21-3)11-14(12)17/h5,7,11,15H,4,6,8-10H2,1-3H3,(H,19,20)/t15-,17-,18?/m1/s1
> <PUBCHEM_IUPAC_INCHIKEY>
WEGOBZDECLEAOK-KOFGWKMWSA-N
> <PUBCHEM_XLOGP3_AA>
4.4
> <PUBCHEM_EXACT_MASS>
288.17254462
> <PUBCHEM_MOLECULAR_FORMULA>
C18H24O3
> <PUBCHEM_MOLECULAR_WEIGHT>
288.4
> <PUBCHEM_OPENEYE_CAN_SMILES>
CC12CCCC(C1CCC3=C2C=C(C=C3)OC)(C)C(=O)O
> <PUBCHEM_OPENEYE_ISO_SMILES>
C[C@]12CCCC([C@@H]1CCC3=C2C=C(C=C3)OC)(C)C(=O)O
> <PUBCHEM_CACTVS_TPSA>
46.5
> <PUBCHEM_MONOISOTOPIC_WEIGHT>
288.17254462
> <PUBCHEM_TOTAL_CHARGE>
0
> <PUBCHEM_HEAVY_ATOM_COUNT>
21
> <PUBCHEM_ATOM_DEF_STEREO_COUNT>
2
> <PUBCHEM_ATOM_UDEF_STEREO_COUNT>
1
> <PUBCHEM_BOND_DEF_STEREO_COUNT>
0
> <PUBCHEM_BOND_UDEF_STEREO_COUNT>
0
> <PUBCHEM_ISOTOPIC_ATOM_COUNT>
0
> <PUBCHEM_COMPONENT_COUNT>
1
> <PUBCHEM_CACTVS_TAUTO_COUNT>
-1
> <PUBCHEM_COORDINATE_TYPE>
1
5
255
> <PUBCHEM_BONDANNOTATIONS>
11  14  8
11  17  8
14  18  8
17  19  8
18  20  8
19  20  8
4  22  6
5  12  5
6  15  3
$$$$
