516333
  -OEChem-10302200282D
 93 98  0     1  0  0  0  0  0999 V2000
    2.3644   -2.3003    0.0000 O   0  0  0  0  0  0  0  0  0  0  0  0
    3.7657   -3.3184    0.0000 O   0  0  0  0  0  0  0  0  0  0  0  0
    4.9413   -1.7004    0.0000 N   0  0  3  0  0  0  0  0  0  0  0  0
    7.3900    0.1360    0.0000 N   0  0  0  0  0  0  0  0  0  0  0  0
    6.5809    3.7238    0.0000 N   0  0  0  0  0  0  0  0  0  0  0  0
    6.8900    4.6749    0.0000 N   0  0  0  0  0  0  0  0  0  0  0  0
    6.5239   -1.3640    0.0000 C   0  0  2  0  0  0  0  0  0  0  0  0
    6.4194   -2.3585    0.0000 C   0  0  2  0  0  0  0  0  0  0  0  0
    5.6104   -0.9572    0.0000 C   0  0  0  0  0  0  0  0  0  0  0  0
    5.4413   -2.5664    0.0000 C   0  0  0  0  0  0  0  0  0  0  0  0
    3.9467   -1.5958    0.0000 C   0  0  2  0  0  0  0  0  0  0  0  0
    3.5400   -0.6823    0.0000 C   0  0  0  0  0  0  0  0  0  0  0  0
    7.3900   -0.8640    0.0000 C   0  0  0  0  0  0  0  0  0  0  0  0
    2.5455   -0.5778    0.0000 C   0  0  0  0  0  0  0  0  0  0  0  0
    4.1278    0.1267    0.0000 C   0  0  0  0  0  0  0  0  0  0  0  0
    7.1626   -3.0276    0.0000 C   0  0  0  0  0  0  0  0  0  0  0  0
    6.5239    0.6360    0.0000 C   0  0  0  0  0  0  0  0  0  0  0  0
    8.2560    0.6360    0.0000 C   0  0  0  0  0  0  0  0  0  0  0  0
    7.3900    2.1360    0.0000 C   0  0  0  0  0  0  0  0  0  0  0  0
    2.1387    0.3358    0.0000 C   0  0  0  0  0  0  0  0  0  0  0  0
    3.7210    1.0403    0.0000 C   0  0  0  0  0  0  0  0  0  0  0  0
    6.5239    1.6360    0.0000 C   0  0  0  0  0  0  0  0  0  0  0  0
    8.2560    1.6360    0.0000 C   0  0  0  0  0  0  0  0  0  0  0  0
    2.7265    1.1448    0.0000 C   0  0  0  0  0  0  0  0  0  0  0  0
    3.3590   -2.4048    0.0000 C   0  0  0  0  0  0  0  0  0  0  0  0
    7.3900    3.1360    0.0000 C   0  0  0  0  0  0  0  0  0  0  0  0
    6.9546   -4.0058    0.0000 C   0  0  0  0  0  0  0  0  0  0  0  0
    8.1136   -2.7186    0.0000 C   0  0  0  0  0  0  0  0  0  0  0  0
    8.1990    3.7238    0.0000 C   0  0  0  0  0  0  0  0  0  0  0  0
    7.6978   -4.6749    0.0000 C   0  0  0  0  0  0  0  0  0  0  0  0
    8.8568   -3.3877    0.0000 C   0  0  0  0  0  0  0  0  0  0  0  0
    8.6488   -4.3659    0.0000 C   0  0  0  0  0  0  0  0  0  0  0  0
    9.1500    3.4148    0.0000 C   0  0  0  0  0  0  0  0  0  0  0  0
    7.8900    4.6749    0.0000 C   0  0  0  0  0  0  0  0  0  0  0  0
    5.6299    3.4148    0.0000 C   0  0  0  0  0  0  0  0  0  0  0  0
    9.8932    4.0839    0.0000 C   0  0  0  0  0  0  0  0  0  0  0  0
    4.8867    4.0839    0.0000 C   0  0  0  0  0  0  0  0  0  0  0  0
   10.8442    3.7749    0.0000 C   0  0  0  0  0  0  0  0  0  0  0  0
   11.0521    2.7968    0.0000 C   0  0  0  0  0  0  0  0  0  0  0  0
   11.5874    4.4441    0.0000 C   0  0  0  0  0  0  0  0  0  0  0  0
   12.0032    2.4878    0.0000 C   0  0  0  0  0  0  0  0  0  0  0  0
   12.5384    4.1350    0.0000 C   0  0  0  0  0  0  0  0  0  0  0  0
   12.7463    3.1569    0.0000 C   0  0  0  0  0  0  0  0  0  0  0  0
    6.4915   -0.7448    0.0000 H   0  0  0  0  0  0  0  0  0  0  0  0
    6.2589   -2.9574    0.0000 H   0  0  0  0  0  0  0  0  0  0  0  0
    5.9204   -0.4203    0.0000 H   0  0  0  0  0  0  0  0  0  0  0  0
    5.1088   -0.5928    0.0000 H   0  0  0  0  0  0  0  0  0  0  0  0
    4.8749   -2.8186    0.0000 H   0  0  0  0  0  0  0  0  0  0  0  0
    5.6328   -3.1560    0.0000 H   0  0  0  0  0  0  0  0  0  0  0  0
    4.1989   -2.1622    0.0000 H   0  0  0  0  0  0  0  0  0  0  0  0
    3.1756   -1.1839    0.0000 H   0  0  0  0  0  0  0  0  0  0  0  0
    7.6020   -1.4466    0.0000 H   0  0  0  0  0  0  0  0  0  0  0  0
    8.0005   -0.7563    0.0000 H   0  0  0  0  0  0  0  0  0  0  0  0
    1.9439   -0.7278    0.0000 H   0  0  0  0  0  0  0  0  0  0  0  0
    2.5887   -1.1962    0.0000 H   0  0  0  0  0  0  0  0  0  0  0  0
    4.5585   -0.3193    0.0000 H   0  0  0  0  0  0  0  0  0  0  0  0
    4.6418    0.4734    0.0000 H   0  0  0  0  0  0  0  0  0  0  0  0
    5.9134    0.7437    0.0000 H   0  0  0  0  0  0  0  0  0  0  0  0
    6.3119    0.0534    0.0000 H   0  0  0  0  0  0  0  0  0  0  0  0
    8.4680    0.0534    0.0000 H   0  0  0  0  0  0  0  0  0  0  0  0
    8.8666    0.7437    0.0000 H   0  0  0  0  0  0  0  0  0  0  0  0
    7.9269    2.4460    0.0000 H   0  0  0  0  0  0  0  0  0  0  0  0
    1.7080    0.7818    0.0000 H   0  0  0  0  0  0  0  0  0  0  0  0
    1.6247   -0.0109    0.0000 H   0  0  0  0  0  0  0  0  0  0  0  0
    4.3226    1.1903    0.0000 H   0  0  0  0  0  0  0  0  0  0  0  0
    3.6778    1.6588    0.0000 H   0  0  0  0  0  0  0  0  0  0  0  0
    6.3119    2.2186    0.0000 H   0  0  0  0  0  0  0  0  0  0  0  0
    5.9134    1.5284    0.0000 H   0  0  0  0  0  0  0  0  0  0  0  0
    8.8666    1.5284    0.0000 H   0  0  0  0  0  0  0  0  0  0  0  0
    8.4680    2.2186    0.0000 H   0  0  0  0  0  0  0  0  0  0  0  0
    2.8974    1.7408    0.0000 H   0  0  0  0  0  0  0  0  0  0  0  0
    2.1693    1.4166    0.0000 H   0  0  0  0  0  0  0  0  0  0  0  0
    6.3650   -4.1974    0.0000 H   0  0  0  0  0  0  0  0  0  0  0  0
    8.2425   -2.1121    0.0000 H   0  0  0  0  0  0  0  0  0  0  0  0
    7.5689   -5.2813    0.0000 H   0  0  0  0  0  0  0  0  0  0  0  0
    9.4464   -3.1961    0.0000 H   0  0  0  0  0  0  0  0  0  0  0  0
    2.0000   -2.8019    0.0000 H   0  0  0  0  0  0  0  0  0  0  0  0
    9.1096   -4.7807    0.0000 H   0  0  0  0  0  0  0  0  0  0  0  0
    8.8590    2.8674    0.0000 H   0  0  0  0  0  0  0  0  0  0  0  0
    9.6386    3.0331    0.0000 H   0  0  0  0  0  0  0  0  0  0  0  0
    8.2544    5.1765    0.0000 H   0  0  0  0  0  0  0  0  0  0  0  0
    5.1413    3.0331    0.0000 H   0  0  0  0  0  0  0  0  0  0  0  0
    5.9210    2.8674    0.0000 H   0  0  0  0  0  0  0  0  0  0  0  0
   10.1842    4.6314    0.0000 H   0  0  0  0  0  0  0  0  0  0  0  0
    9.4046    4.4656    0.0000 H   0  0  0  0  0  0  0  0  0  0  0  0
    5.3016    4.5447    0.0000 H   0  0  0  0  0  0  0  0  0  0  0  0
    4.4260    4.4988    0.0000 H   0  0  0  0  0  0  0  0  0  0  0  0
    4.4719    3.6232    0.0000 H   0  0  0  0  0  0  0  0  0  0  0  0
   10.5914    2.3819    0.0000 H   0  0  0  0  0  0  0  0  0  0  0  0
   11.4585    5.0505    0.0000 H   0  0  0  0  0  0  0  0  0  0  0  0
   12.1321    1.8813    0.0000 H   0  0  0  0  0  0  0  0  0  0  0  0
   12.9992    4.5499    0.0000 H   0  0  0  0  0  0  0  0  0  0  0  0
   13.3360    2.9653    0.0000 H   0  0  0  0  0  0  0  0  0  0  0  0
  1 25  1  0  0  0  0
  1 77  1  0  0  0  0
  2 25  2  0  0  0  0
  3  9  1  0  0  0  0
  3 10  1  0  0  0  0
  3 11  1  0  0  0  0
  4 13  1  0  0  0  0
  4 17  1  0  0  0  0
  4 18  1  0  0  0  0
  5  6  1  0  0  0  0
  5 26  1  0  0  0  0
  5 35  1  0  0  0  0
  6 34  2  0  0  0  0
  7  8  1  0  0  0  0
  7  9  1  0  0  0  0
  7 13  1  6  0  0  0
  7 44  1  0  0  0  0
  8 10  1  0  0  0  0
  8 16  1  1  0  0  0
  8 45  1  0  0  0  0
  9 46  1  0  0  0  0
  9 47  1  0  0  0  0
 10 48  1  0  0  0  0
 10 49  1  0  0  0  0
 11 12  1  0  0  0  0
 11 25  1  1  0  0  0
 11 50  1  0  0  0  0
 12 14  1  0  0  0  0
 12 15  1  0  0  0  0
 12 51  1  0  0  0  0
 13 52  1  0  0  0  0
 13 53  1  0  0  0  0
 14 20  1  0  0  0  0
 14 54  1  0  0  0  0
 14 55  1  0  0  0  0
 15 21  1  0  0  0  0
 15 56  1  0  0  0  0
 15 57  1  0  0  0  0
 16 27  2  0  0  0  0
 16 28  1  0  0  0  0
 17 22  1  0  0  0  0
 17 58  1  0  0  0  0
 17 59  1  0  0  0  0
 18 23  1  0  0  0  0
 18 60  1  0  0  0  0
 18 61  1  0  0  0  0
 19 22  1  0  0  0  0
 19 23  1  0  0  0  0
 19 26  1  0  0  0  0
 19 62  1  0  0  0  0
 20 24  1  0  0  0  0
 20 63  1  0  0  0  0
 20 64  1  0  0  0  0
 21 24  1  0  0  0  0
 21 65  1  0  0  0  0
 21 66  1  0  0  0  0
 22 67  1  0  0  0  0
 22 68  1  0  0  0  0
 23 69  1  0  0  0  0
 23 70  1  0  0  0  0
 24 71  1  0  0  0  0
 24 72  1  0  0  0  0
 26 29  2  0  0  0  0
 27 30  1  0  0  0  0
 27 73  1  0  0  0  0
 28 31  2  0  0  0  0
 28 74  1  0  0  0  0
 29 33  1  0  0  0  0
 29 34  1  0  0  0  0
 30 32  2  0  0  0  0
 30 75  1  0  0  0  0
 31 32  1  0  0  0  0
 31 76  1  0  0  0  0
 32 78  1  0  0  0  0
 33 36  1  0  0  0  0
 33 79  1  0  0  0  0
 33 80  1  0  0  0  0
 34 81  1  0  0  0  0
 35 37  1  0  0  0  0
 35 82  1  0  0  0  0
 35 83  1  0  0  0  0
 36 38  1  0  0  0  0
 36 84  1  0  0  0  0
 36 85  1  0  0  0  0
 37 86  1  0  0  0  0
 37 87  1  0  0  0  0
 37 88  1  0  0  0  0
 38 39  2  0  0  0  0
 38 40  1  0  0  0  0
 39 41  1  0  0  0  0
 39 89  1  0  0  0  0
 40 42  2  0  0  0  0
 40 90  1  0  0  0  0
 41 43  2  0  0  0  0
 41 91  1  0  0  0  0
 42 43  1  0  0  0  0
 42 92  1  0  0  0  0
 43 93  1  0  0  0  0
M  END
> <PUBCHEM_COMPOUND_CID>
516333
> <PUBCHEM_COMPOUND_CANONICALIZED>
1
> <PUBCHEM_CACTVS_COMPLEXITY>
844
> <PUBCHEM_CACTVS_HBOND_ACCEPTOR>
5
> <PUBCHEM_CACTVS_HBOND_DONOR>
1
> <PUBCHEM_CACTVS_ROTATABLE_BOND>
11
> <PUBCHEM_CACTVS_SUBSKEYS>
AAADcfB/sAAAAAAAAAAAAAAAAAAAAWLAAAA8YMEAAAAAAAAB0AAAHgAICAAADSjBngQ+iJMIAgCqAzT3TACSBAAhgAAY2CG4RJgKILLA0fGE5AhkiADYyAeYyOCOgAAAAAAAAAAAAAAAAAAAAAAAAAAAAA==
> <PUBCHEM_IUPAC_OPENEYE_NAME>
(2R)-2-cyclohexyl-2-[(3S,4S)-3-[[4-[2-ethyl-4-(2-phenylethyl)pyrazol-3-yl]-1-piperidyl]methyl]-4-phenyl-pyrrolidin-1-yl]acetic acid
> <PUBCHEM_IUPAC_CAS_NAME>
(2R)-2-cyclohexyl-2-[(3S,4S)-3-[[4-[2-ethyl-4-(2-phenylethyl)-3-pyrazolyl]-1-piperidinyl]methyl]-4-phenyl-1-pyrrolidinyl]acetic acid
> <PUBCHEM_IUPAC_NAME_MARKUP>
(2<I>R</I>)-2-cyclohexyl-2-[(3<I>S</I>,4<I>S</I>)-3-[[4-[2-ethyl-4-(2-phenylethyl)pyrazol-3-yl]piperidin-1-yl]methyl]-4-phenylpyrrolidin-1-yl]acetic acid
> <PUBCHEM_IUPAC_NAME>
(2R)-2-cyclohexyl-2-[(3S,4S)-3-[[4-[2-ethyl-4-(2-phenylethyl)pyrazol-3-yl]piperidin-1-yl]methyl]-4-phenylpyrrolidin-1-yl]acetic acid
> <PUBCHEM_IUPAC_SYSTEMATIC_NAME>
(2R)-2-cyclohexyl-2-[(3S,4S)-3-[[4-[2-ethyl-4-(2-phenylethyl)pyrazol-3-yl]piperidin-1-yl]methyl]-4-phenyl-pyrrolidin-1-yl]ethanoic acid
> <PUBCHEM_IUPAC_TRADITIONAL_NAME>
(2R)-2-cyclohexyl-2-[(3S,4S)-3-[[4-(2-ethyl-4-phenethyl-pyrazol-3-yl)piperidino]methyl]-4-phenyl-pyrrolidino]acetic acid
> <PUBCHEM_IUPAC_INCHI>
InChI=1S/C37H50N4O2/c1-2-41-35(32(24-38-41)19-18-28-12-6-3-7-13-28)31-20-22-39(23-21-31)25-33-26-40(27-34(33)29-14-8-4-9-15-29)36(37(42)43)30-16-10-5-11-17-30/h3-4,6-9,12-15,24,30-31,33-34,36H,2,5,10-11,16-23,25-27H2,1H3,(H,42,43)/t33-,34+,36+/m0/s1
> <PUBCHEM_IUPAC_INCHIKEY>
LOUCFMTWTFVRPW-GABYNLOESA-N
> <PUBCHEM_XLOGP3_AA>
4.9
> <PUBCHEM_EXACT_MASS>
582.39337685
> <PUBCHEM_MOLECULAR_FORMULA>
C37H50N4O2
> <PUBCHEM_MOLECULAR_WEIGHT>
582.8
> <PUBCHEM_OPENEYE_CAN_SMILES>
CCN1C(=C(C=N1)CCC2=CC=CC=C2)C3CCN(CC3)CC4CN(CC4C5=CC=CC=C5)C(C6CCCCC6)C(=O)O
> <PUBCHEM_OPENEYE_ISO_SMILES>
CCN1C(=C(C=N1)CCC2=CC=CC=C2)C3CCN(CC3)C[C@H]4CN(C[C@@H]4C5=CC=CC=C5)[C@H](C6CCCCC6)C(=O)O
> <PUBCHEM_CACTVS_TPSA>
61.6
> <PUBCHEM_MONOISOTOPIC_WEIGHT>
582.39337685
> <PUBCHEM_TOTAL_CHARGE>
0
> <PUBCHEM_HEAVY_ATOM_COUNT>
43
> <PUBCHEM_ATOM_DEF_STEREO_COUNT>
3
> <PUBCHEM_ATOM_UDEF_STEREO_COUNT>
0
> <PUBCHEM_BOND_DEF_STEREO_COUNT>
0
> <PUBCHEM_BOND_UDEF_STEREO_COUNT>
0
> <PUBCHEM_ISOTOPIC_ATOM_COUNT>
0
> <PUBCHEM_COMPONENT_COUNT>
1
> <PUBCHEM_CACTVS_TAUTO_COUNT>
-1
> <PUBCHEM_COORDINATE_TYPE>
1
5
255
> <PUBCHEM_BONDANNOTATIONS>
11  25  5
16  27  8
16  28  8
26  29  8
27  30  8
28  31  8
29  34  8
30  32  8
31  32  8
38  39  8
38  40  8
39  41  8
40  42  8
41  43  8
42  43  8
5  26  8
5  6  8
6  34  8
7  13  6
8  16  5
$$$$
