516311
  -OEChem-10302200282D
103108  0     1  0  0  0  0  0999 V2000
    7.7132   -8.2046    0.0000 F   0  0  0  0  0  0  0  0  0  0  0  0
    2.7688   -3.1293    0.0000 O   0  0  0  0  0  0  0  0  0  0  0  0
    4.3511   -2.4248    0.0000 O   0  0  0  0  0  0  0  0  0  0  0  0
    7.0742    6.5865    0.0000 O   0  0  0  0  0  0  0  0  0  0  0  0
    5.1646   -4.2519    0.0000 N   0  0  3  0  0  0  0  0  0  0  0  0
    7.6133   -2.4155    0.0000 N   0  0  0  0  0  0  0  0  0  0  0  0
    6.8043    1.1723    0.0000 N   0  0  0  0  0  0  0  0  0  0  0  0
    7.1133    2.1233    0.0000 N   0  0  0  0  0  0  0  0  0  0  0  0
    6.7473   -3.9155    0.0000 C   0  0  2  0  0  0  0  0  0  0  0  0
    6.6428   -4.9100    0.0000 C   0  0  2  0  0  0  0  0  0  0  0  0
    5.8338   -3.5088    0.0000 C   0  0  0  0  0  0  0  0  0  0  0  0
    5.6646   -5.1179    0.0000 C   0  0  0  0  0  0  0  0  0  0  0  0
    4.1701   -4.1474    0.0000 C   0  0  2  0  0  0  0  0  0  0  0  0
    3.5823   -4.9564    0.0000 C   0  0  0  0  0  0  0  0  0  0  0  0
    7.6133   -3.4155    0.0000 C   0  0  0  0  0  0  0  0  0  0  0  0
    2.5878   -4.8519    0.0000 C   0  0  0  0  0  0  0  0  0  0  0  0
    3.9890   -5.8699    0.0000 C   0  0  0  0  0  0  0  0  0  0  0  0
    7.3859   -5.5792    0.0000 C   0  0  0  0  0  0  0  0  0  0  0  0
    2.0000   -5.6609    0.0000 C   0  0  0  0  0  0  0  0  0  0  0  0
    3.4013   -6.6790    0.0000 C   0  0  0  0  0  0  0  0  0  0  0  0
    6.7473   -1.9155    0.0000 C   0  0  0  0  0  0  0  0  0  0  0  0
    8.4793   -1.9155    0.0000 C   0  0  0  0  0  0  0  0  0  0  0  0
    7.6133   -0.4155    0.0000 C   0  0  0  0  0  0  0  0  0  0  0  0
    2.4067   -6.5744    0.0000 C   0  0  0  0  0  0  0  0  0  0  0  0
    6.7473   -0.9155    0.0000 C   0  0  0  0  0  0  0  0  0  0  0  0
    8.4793   -0.9155    0.0000 C   0  0  0  0  0  0  0  0  0  0  0  0
    3.7634   -3.2338    0.0000 C   0  0  0  0  0  0  0  0  0  0  0  0
    7.1780   -6.5573    0.0000 C   0  0  0  0  0  0  0  0  0  0  0  0
    8.3370   -5.2701    0.0000 C   0  0  0  0  0  0  0  0  0  0  0  0
    7.6133    0.5845    0.0000 C   0  0  0  0  0  0  0  0  0  0  0  0
    7.9211   -7.2264    0.0000 C   0  0  0  0  0  0  0  0  0  0  0  0
    9.0801   -5.9393    0.0000 C   0  0  0  0  0  0  0  0  0  0  0  0
    8.4223    1.1723    0.0000 C   0  0  0  0  0  0  0  0  0  0  0  0
    8.8722   -6.9174    0.0000 C   0  0  0  0  0  0  0  0  0  0  0  0
    8.1133    2.1233    0.0000 C   0  0  0  0  0  0  0  0  0  0  0  0
    5.8532    0.8633    0.0000 C   0  0  0  0  0  0  0  0  0  0  0  0
    8.7011    2.9324    0.0000 C   0  0  0  0  0  0  0  0  0  0  0  0
    5.1101    1.5324    0.0000 C   0  0  0  0  0  0  0  0  0  0  0  0
    8.2944    3.8459    0.0000 C   0  0  0  0  0  0  0  0  0  0  0  0
    7.2998    3.9504    0.0000 C   0  0  0  0  0  0  0  0  0  0  0  0
    8.8822    4.6549    0.0000 C   0  0  0  0  0  0  0  0  0  0  0  0
    6.8931    4.8640    0.0000 C   0  0  0  0  0  0  0  0  0  0  0  0
    8.4754    5.5685    0.0000 C   0  0  0  0  0  0  0  0  0  0  0  0
    7.4809    5.6730    0.0000 C   0  0  0  0  0  0  0  0  0  0  0  0
    7.6619    7.3956    0.0000 C   0  0  0  0  0  0  0  0  0  0  0  0
    8.2497    8.2046    0.0000 C   0  0  0  0  0  0  0  0  0  0  0  0
    6.8529    7.9833    0.0000 C   0  0  0  0  0  0  0  0  0  0  0  0
    8.4710    6.8078    0.0000 C   0  0  0  0  0  0  0  0  0  0  0  0
    7.2673   -4.2532    0.0000 H   0  0  0  0  0  0  0  0  0  0  0  0
    7.2216   -4.6878    0.0000 H   0  0  0  0  0  0  0  0  0  0  0  0
    6.1437   -2.9718    0.0000 H   0  0  0  0  0  0  0  0  0  0  0  0
    5.3322   -3.1443    0.0000 H   0  0  0  0  0  0  0  0  0  0  0  0
    5.0982   -5.3701    0.0000 H   0  0  0  0  0  0  0  0  0  0  0  0
    5.8562   -5.7076    0.0000 H   0  0  0  0  0  0  0  0  0  0  0  0
    4.5345   -3.6458    0.0000 H   0  0  0  0  0  0  0  0  0  0  0  0
    3.3301   -4.3900    0.0000 H   0  0  0  0  0  0  0  0  0  0  0  0
    7.8254   -3.9981    0.0000 H   0  0  0  0  0  0  0  0  0  0  0  0
    8.2239   -3.3078    0.0000 H   0  0  0  0  0  0  0  0  0  0  0  0
    2.7587   -4.2559    0.0000 H   0  0  0  0  0  0  0  0  0  0  0  0
    2.0305   -4.5801    0.0000 H   0  0  0  0  0  0  0  0  0  0  0  0
    4.4197   -6.3159    0.0000 H   0  0  0  0  0  0  0  0  0  0  0  0
    4.5030   -5.5232    0.0000 H   0  0  0  0  0  0  0  0  0  0  0  0
    1.5693   -5.2149    0.0000 H   0  0  0  0  0  0  0  0  0  0  0  0
    1.4860   -6.0076    0.0000 H   0  0  0  0  0  0  0  0  0  0  0  0
    3.2304   -7.2749    0.0000 H   0  0  0  0  0  0  0  0  0  0  0  0
    3.9585   -6.9508    0.0000 H   0  0  0  0  0  0  0  0  0  0  0  0
    6.1367   -1.8078    0.0000 H   0  0  0  0  0  0  0  0  0  0  0  0
    6.5352   -2.4981    0.0000 H   0  0  0  0  0  0  0  0  0  0  0  0
    8.6914   -2.4981    0.0000 H   0  0  0  0  0  0  0  0  0  0  0  0
    9.0899   -1.8078    0.0000 H   0  0  0  0  0  0  0  0  0  0  0  0
    7.0764   -0.1055    0.0000 H   0  0  0  0  0  0  0  0  0  0  0  0
    1.8052   -6.7244    0.0000 H   0  0  0  0  0  0  0  0  0  0  0  0
    2.4500   -7.1929    0.0000 H   0  0  0  0  0  0  0  0  0  0  0  0
    6.5352   -0.3329    0.0000 H   0  0  0  0  0  0  0  0  0  0  0  0
    6.1367   -1.0232    0.0000 H   0  0  0  0  0  0  0  0  0  0  0  0
    9.0899   -1.0232    0.0000 H   0  0  0  0  0  0  0  0  0  0  0  0
    8.6914   -0.3329    0.0000 H   0  0  0  0  0  0  0  0  0  0  0  0
    6.5883   -6.7489    0.0000 H   0  0  0  0  0  0  0  0  0  0  0  0
    8.4659   -4.6637    0.0000 H   0  0  0  0  0  0  0  0  0  0  0  0
    9.6698   -5.7477    0.0000 H   0  0  0  0  0  0  0  0  0  0  0  0
    2.5167   -2.5629    0.0000 H   0  0  0  0  0  0  0  0  0  0  0  0
    9.0120    0.9807    0.0000 H   0  0  0  0  0  0  0  0  0  0  0  0
    9.3330   -7.3323    0.0000 H   0  0  0  0  0  0  0  0  0  0  0  0
    5.3647    0.4816    0.0000 H   0  0  0  0  0  0  0  0  0  0  0  0
    6.1443    0.3158    0.0000 H   0  0  0  0  0  0  0  0  0  0  0  0
    9.1318    2.4864    0.0000 H   0  0  0  0  0  0  0  0  0  0  0  0
    9.2151    3.2791    0.0000 H   0  0  0  0  0  0  0  0  0  0  0  0
    5.5250    1.9932    0.0000 H   0  0  0  0  0  0  0  0  0  0  0  0
    4.6494    1.9473    0.0000 H   0  0  0  0  0  0  0  0  0  0  0  0
    4.6952    1.0716    0.0000 H   0  0  0  0  0  0  0  0  0  0  0  0
    6.9354    3.4488    0.0000 H   0  0  0  0  0  0  0  0  0  0  0  0
    9.4988    4.5901    0.0000 H   0  0  0  0  0  0  0  0  0  0  0  0
    6.2765    4.9288    0.0000 H   0  0  0  0  0  0  0  0  0  0  0  0
    8.8398    6.0701    0.0000 H   0  0  0  0  0  0  0  0  0  0  0  0
    8.7513    7.8402    0.0000 H   0  0  0  0  0  0  0  0  0  0  0  0
    8.6142    8.7062    0.0000 H   0  0  0  0  0  0  0  0  0  0  0  0
    7.7481    8.5690    0.0000 H   0  0  0  0  0  0  0  0  0  0  0  0
    7.2174    8.4849    0.0000 H   0  0  0  0  0  0  0  0  0  0  0  0
    6.3513    8.3478    0.0000 H   0  0  0  0  0  0  0  0  0  0  0  0
    6.4885    7.4818    0.0000 H   0  0  0  0  0  0  0  0  0  0  0  0
    8.1065    6.3062    0.0000 H   0  0  0  0  0  0  0  0  0  0  0  0
    8.9726    6.4434    0.0000 H   0  0  0  0  0  0  0  0  0  0  0  0
    8.8354    7.3094    0.0000 H   0  0  0  0  0  0  0  0  0  0  0  0
  1 31  1  0  0  0  0
  2 27  1  0  0  0  0
  2 81  1  0  0  0  0
  3 27  2  0  0  0  0
  4 44  1  0  0  0  0
  4 45  1  0  0  0  0
  5 11  1  0  0  0  0
  5 12  1  0  0  0  0
  5 13  1  0  0  0  0
  6 15  1  0  0  0  0
  6 21  1  0  0  0  0
  6 22  1  0  0  0  0
  7  8  1  0  0  0  0
  7 30  1  0  0  0  0
  7 36  1  0  0  0  0
  8 35  2  0  0  0  0
  9 10  1  0  0  0  0
  9 11  1  0  0  0  0
  9 15  1  6  0  0  0
  9 49  1  0  0  0  0
 10 12  1  0  0  0  0
 10 18  1  1  0  0  0
 10 50  1  0  0  0  0
 11 51  1  0  0  0  0
 11 52  1  0  0  0  0
 12 53  1  0  0  0  0
 12 54  1  0  0  0  0
 13 14  1  0  0  0  0
 13 27  1  6  0  0  0
 13 55  1  0  0  0  0
 14 16  1  0  0  0  0
 14 17  1  0  0  0  0
 14 56  1  0  0  0  0
 15 57  1  0  0  0  0
 15 58  1  0  0  0  0
 16 19  1  0  0  0  0
 16 59  1  0  0  0  0
 16 60  1  0  0  0  0
 17 20  1  0  0  0  0
 17 61  1  0  0  0  0
 17 62  1  0  0  0  0
 18 28  2  0  0  0  0
 18 29  1  0  0  0  0
 19 24  1  0  0  0  0
 19 63  1  0  0  0  0
 19 64  1  0  0  0  0
 20 24  1  0  0  0  0
 20 65  1  0  0  0  0
 20 66  1  0  0  0  0
 21 25  1  0  0  0  0
 21 67  1  0  0  0  0
 21 68  1  0  0  0  0
 22 26  1  0  0  0  0
 22 69  1  0  0  0  0
 22 70  1  0  0  0  0
 23 25  1  0  0  0  0
 23 26  1  0  0  0  0
 23 30  1  0  0  0  0
 23 71  1  0  0  0  0
 24 72  1  0  0  0  0
 24 73  1  0  0  0  0
 25 74  1  0  0  0  0
 25 75  1  0  0  0  0
 26 76  1  0  0  0  0
 26 77  1  0  0  0  0
 28 31  1  0  0  0  0
 28 78  1  0  0  0  0
 29 32  2  0  0  0  0
 29 79  1  0  0  0  0
 30 33  2  0  0  0  0
 31 34  2  0  0  0  0
 32 34  1  0  0  0  0
 32 80  1  0  0  0  0
 33 35  1  0  0  0  0
 33 82  1  0  0  0  0
 34 83  1  0  0  0  0
 35 37  1  0  0  0  0
 36 38  1  0  0  0  0
 36 84  1  0  0  0  0
 36 85  1  0  0  0  0
 37 39  1  0  0  0  0
 37 86  1  0  0  0  0
 37 87  1  0  0  0  0
 38 88  1  0  0  0  0
 38 89  1  0  0  0  0
 38 90  1  0  0  0  0
 39 40  2  0  0  0  0
 39 41  1  0  0  0  0
 40 42  1  0  0  0  0
 40 91  1  0  0  0  0
 41 43  2  0  0  0  0
 41 92  1  0  0  0  0
 42 44  2  0  0  0  0
 42 93  1  0  0  0  0
 43 44  1  0  0  0  0
 43 94  1  0  0  0  0
 45 46  1  0  0  0  0
 45 47  1  0  0  0  0
 45 48  1  0  0  0  0
 46 95  1  0  0  0  0
 46 96  1  0  0  0  0
 46 97  1  0  0  0  0
 47 98  1  0  0  0  0
 47 99  1  0  0  0  0
 47100  1  0  0  0  0
 48101  1  0  0  0  0
 48102  1  0  0  0  0
 48103  1  0  0  0  0
M  END
> <PUBCHEM_COMPOUND_CID>
516311
> <PUBCHEM_COMPOUND_CANONICALIZED>
1
> <PUBCHEM_CACTVS_COMPLEXITY>
1000
> <PUBCHEM_CACTVS_HBOND_ACCEPTOR>
7
> <PUBCHEM_CACTVS_HBOND_DONOR>
1
> <PUBCHEM_CACTVS_ROTATABLE_BOND>
12
> <PUBCHEM_CACTVS_SUBSKEYS>
AAADcfB/sQAAAAAAAAAAAAAAAAAAAWLAAAA8YMEAAAAAAAAB0AAAHwAICAAADWzBngwyjpMIBgCqAyTyTACSDAAhogAY2CG+bJgOJjLE8fuG/CjkyBHY6AeYyOCOoAAAAAAAAABAAAAAAAAAAAAAAAAAAA==
> <PUBCHEM_IUPAC_OPENEYE_NAME>
(2R)-2-[(3S,4S)-3-[[4-[5-[(4-tert-butoxyphenyl)methyl]-2-ethyl-pyrazol-3-yl]-1-piperidyl]methyl]-4-(3-fluorophenyl)pyrrolidin-1-yl]-2-cyclohexyl-acetic acid
> <PUBCHEM_IUPAC_CAS_NAME>
(2R)-2-cyclohexyl-2-[(3S,4S)-3-[[4-[2-ethyl-5-[[4-[(2-methylpropan-2-yl)oxy]phenyl]methyl]-3-pyrazolyl]-1-piperidinyl]methyl]-4-(3-fluorophenyl)-1-pyrrolidinyl]acetic acid
> <PUBCHEM_IUPAC_NAME_MARKUP>
(2<I>R</I>)-2-cyclohexyl-2-[(3<I>S</I>,4<I>S</I>)-3-[[4-[2-ethyl-5-[[4-[(2-methylpropan-2-yl)oxy]phenyl]methyl]pyrazol-3-yl]piperidin-1-yl]methyl]-4-(3-fluorophenyl)pyrrolidin-1-yl]acetic acid
> <PUBCHEM_IUPAC_NAME>
(2R)-2-cyclohexyl-2-[(3S,4S)-3-[[4-[2-ethyl-5-[[4-[(2-methylpropan-2-yl)oxy]phenyl]methyl]pyrazol-3-yl]piperidin-1-yl]methyl]-4-(3-fluorophenyl)pyrrolidin-1-yl]acetic acid
> <PUBCHEM_IUPAC_SYSTEMATIC_NAME>
(2R)-2-cyclohexyl-2-[(3S,4S)-3-[[4-[2-ethyl-5-[[4-[(2-methylpropan-2-yl)oxy]phenyl]methyl]pyrazol-3-yl]piperidin-1-yl]methyl]-4-(3-fluorophenyl)pyrrolidin-1-yl]ethanoic acid
> <PUBCHEM_IUPAC_TRADITIONAL_NAME>
(2R)-2-[(3S,4S)-3-[[4-[5-(4-tert-butoxybenzyl)-2-ethyl-pyrazol-3-yl]piperidino]methyl]-4-(3-fluorophenyl)pyrrolidino]-2-cyclohexyl-acetic acid
> <PUBCHEM_IUPAC_INCHI>
InChI=1S/C40H55FN4O3/c1-5-45-37(24-34(42-45)22-28-14-16-35(17-15-28)48-40(2,3)4)29-18-20-43(21-19-29)25-32-26-44(27-36(32)31-12-9-13-33(41)23-31)38(39(46)47)30-10-7-6-8-11-30/h9,12-17,23-24,29-30,32,36,38H,5-8,10-11,18-22,25-27H2,1-4H3,(H,46,47)/t32-,36+,38+/m0/s1
> <PUBCHEM_IUPAC_INCHIKEY>
JAZDXLMRRUTSBU-GFJCEQABSA-N
> <PUBCHEM_XLOGP3_AA>
5.7
> <PUBCHEM_EXACT_MASS>
658.42581979
> <PUBCHEM_MOLECULAR_FORMULA>
C40H55FN4O3
> <PUBCHEM_MOLECULAR_WEIGHT>
658.9
> <PUBCHEM_OPENEYE_CAN_SMILES>
CCN1C(=CC(=N1)CC2=CC=C(C=C2)OC(C)(C)C)C3CCN(CC3)CC4CN(CC4C5=CC(=CC=C5)F)C(C6CCCCC6)C(=O)O
> <PUBCHEM_OPENEYE_ISO_SMILES>
CCN1C(=CC(=N1)CC2=CC=C(C=C2)OC(C)(C)C)C3CCN(CC3)C[C@H]4CN(C[C@@H]4C5=CC(=CC=C5)F)[C@H](C6CCCCC6)C(=O)O
> <PUBCHEM_CACTVS_TPSA>
70.8
> <PUBCHEM_MONOISOTOPIC_WEIGHT>
658.42581979
> <PUBCHEM_TOTAL_CHARGE>
0
> <PUBCHEM_HEAVY_ATOM_COUNT>
48
> <PUBCHEM_ATOM_DEF_STEREO_COUNT>
3
> <PUBCHEM_ATOM_UDEF_STEREO_COUNT>
0
> <PUBCHEM_BOND_DEF_STEREO_COUNT>
0
> <PUBCHEM_BOND_UDEF_STEREO_COUNT>
0
> <PUBCHEM_ISOTOPIC_ATOM_COUNT>
0
> <PUBCHEM_COMPONENT_COUNT>
1
> <PUBCHEM_CACTVS_TAUTO_COUNT>
-1
> <PUBCHEM_COORDINATE_TYPE>
1
5
255
> <PUBCHEM_BONDANNOTATIONS>
10  18  5
13  27  6
18  28  8
18  29  8
28  31  8
29  32  8
30  33  8
31  34  8
32  34  8
33  35  8
39  40  8
39  41  8
40  42  8
41  43  8
42  44  8
43  44  8
7  30  8
7  8  8
8  35  8
9  15  6
$$$$
