516350
  -OEChem-10302200282D
 81 86  0     1  0  0  0  0  0999 V2000
    6.1959   -4.1954    0.0000 Cl  0  0  0  0  0  0  0  0  0  0  0  0
    7.9280   -7.1954    0.0000 Cl  0  0  0  0  0  0  0  0  0  0  0  0
    2.1810    5.3952    0.0000 F   0  0  0  0  0  0  0  0  0  0  0  0
    9.1643    4.1954    0.0000 O   0  0  0  0  0  0  0  0  0  0  0  0
    8.2983    2.6954    0.0000 O   0  0  0  0  0  0  0  0  0  0  0  0
    6.5662    3.6954    0.0000 N   0  0  3  0  0  0  0  0  0  0  0  0
    5.6646    0.7704    0.0000 N   0  0  0  0  0  0  0  0  0  0  0  0
    8.4280   -1.6566    0.0000 N   0  0  0  0  0  0  0  0  0  0  0  0
    8.7370   -2.6077    0.0000 N   0  0  0  0  0  0  0  0  0  0  0  0
    5.4836    2.4930    0.0000 C   0  0  2  0  0  0  0  0  0  0  0  0
    4.9836    3.3590    0.0000 C   0  0  2  0  0  0  0  0  0  0  0  0
    6.4617    2.7009    0.0000 C   0  0  0  0  0  0  0  0  0  0  0  0
    5.6527    4.1022    0.0000 C   0  0  0  0  0  0  0  0  0  0  0  0
    7.4323    4.1954    0.0000 C   0  0  2  0  0  0  0  0  0  0  0  0
    7.4323    5.1954    0.0000 C   0  0  0  0  0  0  0  0  0  0  0  0
    5.0768    1.5795    0.0000 C   0  0  0  0  0  0  0  0  0  0  0  0
    8.2983    5.6954    0.0000 C   0  0  0  0  0  0  0  0  0  0  0  0
    6.5662    5.6954    0.0000 C   0  0  0  0  0  0  0  0  0  0  0  0
    3.9890    3.4636    0.0000 C   0  0  0  0  0  0  0  0  0  0  0  0
    8.2983    6.6954    0.0000 C   0  0  0  0  0  0  0  0  0  0  0  0
    6.5662    6.6954    0.0000 C   0  0  0  0  0  0  0  0  0  0  0  0
    5.2579   -0.1431    0.0000 C   0  0  0  0  0  0  0  0  0  0  0  0
    6.6591    0.8750    0.0000 C   0  0  0  0  0  0  0  0  0  0  0  0
    7.4323    7.1954    0.0000 C   0  0  0  0  0  0  0  0  0  0  0  0
    6.8402   -0.8476    0.0000 C   0  0  0  0  0  0  0  0  0  0  0  0
    5.8457   -0.9521    0.0000 C   0  0  0  0  0  0  0  0  0  0  0  0
    7.2469    0.0660    0.0000 C   0  0  0  0  0  0  0  0  0  0  0  0
    8.2983    3.6954    0.0000 C   0  0  0  0  0  0  0  0  0  0  0  0
    3.5823    4.3771    0.0000 C   0  0  0  0  0  0  0  0  0  0  0  0
    3.4013    2.6546    0.0000 C   0  0  0  0  0  0  0  0  0  0  0  0
    7.4280   -1.6566    0.0000 C   0  0  0  0  0  0  0  0  0  0  0  0
    2.5878    4.4816    0.0000 C   0  0  0  0  0  0  0  0  0  0  0  0
    2.4067    2.7591    0.0000 C   0  0  0  0  0  0  0  0  0  0  0  0
    7.1190   -2.6077    0.0000 C   0  0  0  0  0  0  0  0  0  0  0  0
    2.0000    3.6726    0.0000 C   0  0  0  0  0  0  0  0  0  0  0  0
    7.9280   -3.1954    0.0000 C   0  0  0  0  0  0  0  0  0  0  0  0
    7.9280   -4.1954    0.0000 C   0  0  0  0  0  0  0  0  0  0  0  0
    7.0619   -4.6954    0.0000 C   0  0  0  0  0  0  0  0  0  0  0  0
    8.7940   -4.6954    0.0000 C   0  0  0  0  0  0  0  0  0  0  0  0
    7.0619   -5.6954    0.0000 C   0  0  0  0  0  0  0  0  0  0  0  0
    8.7940   -5.6954    0.0000 C   0  0  0  0  0  0  0  0  0  0  0  0
    7.9280   -6.1954    0.0000 C   0  0  0  0  0  0  0  0  0  0  0  0
    5.8737    2.0112    0.0000 H   0  0  0  0  0  0  0  0  0  0  0  0
    4.6459    2.8391    0.0000 H   0  0  0  0  0  0  0  0  0  0  0  0
    6.5265    2.0843    0.0000 H   0  0  0  0  0  0  0  0  0  0  0  0
    7.0817    2.7009    0.0000 H   0  0  0  0  0  0  0  0  0  0  0  0
    5.9627    4.6391    0.0000 H   0  0  0  0  0  0  0  0  0  0  0  0
    5.1511    4.4666    0.0000 H   0  0  0  0  0  0  0  0  0  0  0  0
    7.4323    3.5754    0.0000 H   0  0  0  0  0  0  0  0  0  0  0  0
    7.9692    4.8854    0.0000 H   0  0  0  0  0  0  0  0  0  0  0  0
    4.5628    1.9262    0.0000 H   0  0  0  0  0  0  0  0  0  0  0  0
    4.6461    1.1335    0.0000 H   0  0  0  0  0  0  0  0  0  0  0  0
    8.5103    5.1128    0.0000 H   0  0  0  0  0  0  0  0  0  0  0  0
    8.9089    5.8031    0.0000 H   0  0  0  0  0  0  0  0  0  0  0  0
    5.9557    5.8031    0.0000 H   0  0  0  0  0  0  0  0  0  0  0  0
    6.3542    5.1128    0.0000 H   0  0  0  0  0  0  0  0  0  0  0  0
    8.9089    6.5878    0.0000 H   0  0  0  0  0  0  0  0  0  0  0  0
    8.5103    7.2780    0.0000 H   0  0  0  0  0  0  0  0  0  0  0  0
    6.3542    7.2780    0.0000 H   0  0  0  0  0  0  0  0  0  0  0  0
    5.9557    6.5878    0.0000 H   0  0  0  0  0  0  0  0  0  0  0  0
    4.7439    0.2036    0.0000 H   0  0  0  0  0  0  0  0  0  0  0  0
    4.8272   -0.5891    0.0000 H   0  0  0  0  0  0  0  0  0  0  0  0
    7.2164    1.1468    0.0000 H   0  0  0  0  0  0  0  0  0  0  0  0
    6.4882    1.4710    0.0000 H   0  0  0  0  0  0  0  0  0  0  0  0
    7.8308    7.6704    0.0000 H   0  0  0  0  0  0  0  0  0  0  0  0
    7.0337    7.6704    0.0000 H   0  0  0  0  0  0  0  0  0  0  0  0
    6.5880   -1.4140    0.0000 H   0  0  0  0  0  0  0  0  0  0  0  0
    5.2884   -1.2239    0.0000 H   0  0  0  0  0  0  0  0  0  0  0  0
    6.0166   -1.5481    0.0000 H   0  0  0  0  0  0  0  0  0  0  0  0
    7.7609   -0.2807    0.0000 H   0  0  0  0  0  0  0  0  0  0  0  0
    7.6776    0.5120    0.0000 H   0  0  0  0  0  0  0  0  0  0  0  0
    3.9467    4.8787    0.0000 H   0  0  0  0  0  0  0  0  0  0  0  0
    3.6534    2.0882    0.0000 H   0  0  0  0  0  0  0  0  0  0  0  0
    2.0423    2.2575    0.0000 H   0  0  0  0  0  0  0  0  0  0  0  0
    9.7012    3.8854    0.0000 H   0  0  0  0  0  0  0  0  0  0  0  0
    6.5293   -2.7992    0.0000 H   0  0  0  0  0  0  0  0  0  0  0  0
    1.3834    3.7374    0.0000 H   0  0  0  0  0  0  0  0  0  0  0  0
    8.7924   -1.1550    0.0000 H   0  0  0  0  0  0  0  0  0  0  0  0
    9.3309   -4.3854    0.0000 H   0  0  0  0  0  0  0  0  0  0  0  0
    6.5250   -6.0054    0.0000 H   0  0  0  0  0  0  0  0  0  0  0  0
    9.3309   -6.0054    0.0000 H   0  0  0  0  0  0  0  0  0  0  0  0
  1 38  1  0  0  0  0
  2 42  1  0  0  0  0
  3 32  1  0  0  0  0
  4 28  1  0  0  0  0
  4 75  1  0  0  0  0
  5 28  2  0  0  0  0
  6 12  1  0  0  0  0
  6 13  1  0  0  0  0
  6 14  1  0  0  0  0
  7 16  1  0  0  0  0
  7 22  1  0  0  0  0
  7 23  1  0  0  0  0
  8  9  1  0  0  0  0
  8 31  1  0  0  0  0
  8 78  1  0  0  0  0
  9 36  2  0  0  0  0
 10 11  1  0  0  0  0
 10 12  1  0  0  0  0
 10 16  1  6  0  0  0
 10 43  1  0  0  0  0
 11 13  1  0  0  0  0
 11 19  1  1  0  0  0
 11 44  1  0  0  0  0
 12 45  1  0  0  0  0
 12 46  1  0  0  0  0
 13 47  1  0  0  0  0
 13 48  1  0  0  0  0
 14 15  1  0  0  0  0
 14 28  1  6  0  0  0
 14 49  1  0  0  0  0
 15 17  1  0  0  0  0
 15 18  1  0  0  0  0
 15 50  1  0  0  0  0
 16 51  1  0  0  0  0
 16 52  1  0  0  0  0
 17 20  1  0  0  0  0
 17 53  1  0  0  0  0
 17 54  1  0  0  0  0
 18 21  1  0  0  0  0
 18 55  1  0  0  0  0
 18 56  1  0  0  0  0
 19 29  2  0  0  0  0
 19 30  1  0  0  0  0
 20 24  1  0  0  0  0
 20 57  1  0  0  0  0
 20 58  1  0  0  0  0
 21 24  1  0  0  0  0
 21 59  1  0  0  0  0
 21 60  1  0  0  0  0
 22 26  1  0  0  0  0
 22 61  1  0  0  0  0
 22 62  1  0  0  0  0
 23 27  1  0  0  0  0
 23 63  1  0  0  0  0
 23 64  1  0  0  0  0
 24 65  1  0  0  0  0
 24 66  1  0  0  0  0
 25 26  1  0  0  0  0
 25 27  1  0  0  0  0
 25 31  1  0  0  0  0
 25 67  1  0  0  0  0
 26 68  1  0  0  0  0
 26 69  1  0  0  0  0
 27 70  1  0  0  0  0
 27 71  1  0  0  0  0
 29 32  1  0  0  0  0
 29 72  1  0  0  0  0
 30 33  2  0  0  0  0
 30 73  1  0  0  0  0
 31 34  2  0  0  0  0
 32 35  2  0  0  0  0
 33 35  1  0  0  0  0
 33 74  1  0  0  0  0
 34 36  1  0  0  0  0
 34 76  1  0  0  0  0
 35 77  1  0  0  0  0
 36 37  1  0  0  0  0
 37 38  2  0  0  0  0
 37 39  1  0  0  0  0
 38 40  1  0  0  0  0
 39 41  2  0  0  0  0
 39 79  1  0  0  0  0
 40 42  2  0  0  0  0
 40 80  1  0  0  0  0
 41 42  1  0  0  0  0
 41 81  1  0  0  0  0
M  END
> <PUBCHEM_COMPOUND_CID>
516350
> <PUBCHEM_COMPOUND_CANONICALIZED>
1
> <PUBCHEM_CACTVS_COMPLEXITY>
888
> <PUBCHEM_CACTVS_HBOND_ACCEPTOR>
6
> <PUBCHEM_CACTVS_HBOND_DONOR>
2
> <PUBCHEM_CACTVS_ROTATABLE_BOND>
8
> <PUBCHEM_CACTVS_SUBSKEYS>
AAADcfB/sQAGAAAAAAAAAAAAAAAAAWLAAAA8YMEAAAAAAAAB0AAAHwIYCAAADSrBniwwiJNjAgCqAyTySACSBAAgBwAYuSG4ZpgKILKB0/GE5ABkmACYyAeYyOCOhAAAAACBAAAIAAAAAQIAAAAAAAAAAA==
> <PUBCHEM_IUPAC_OPENEYE_NAME>
(2R)-2-cyclohexyl-2-[(3S,4S)-3-[[4-[3-(2,4-dichlorophenyl)-1H-pyrazol-5-yl]-1-piperidyl]methyl]-4-(3-fluorophenyl)pyrrolidin-1-yl]acetic acid
> <PUBCHEM_IUPAC_CAS_NAME>
(2R)-2-cyclohexyl-2-[(3S,4S)-3-[[4-[3-(2,4-dichlorophenyl)-1H-pyrazol-5-yl]-1-piperidinyl]methyl]-4-(3-fluorophenyl)-1-pyrrolidinyl]acetic acid
> <PUBCHEM_IUPAC_NAME_MARKUP>
(2<I>R</I>)-2-cyclohexyl-2-[(3<I>S</I>,4<I>S</I>)-3-[[4-[3-(2,4-dichlorophenyl)-1<I>H</I>-pyrazol-5-yl]piperidin-1-yl]methyl]-4-(3-fluorophenyl)pyrrolidin-1-yl]acetic acid
> <PUBCHEM_IUPAC_NAME>
(2R)-2-cyclohexyl-2-[(3S,4S)-3-[[4-[3-(2,4-dichlorophenyl)-1H-pyrazol-5-yl]piperidin-1-yl]methyl]-4-(3-fluorophenyl)pyrrolidin-1-yl]acetic acid
> <PUBCHEM_IUPAC_SYSTEMATIC_NAME>
(2R)-2-cyclohexyl-2-[(3S,4S)-3-[[4-[3-(2,4-dichlorophenyl)-1H-pyrazol-5-yl]piperidin-1-yl]methyl]-4-(3-fluorophenyl)pyrrolidin-1-yl]ethanoic acid
> <PUBCHEM_IUPAC_TRADITIONAL_NAME>
(2R)-2-cyclohexyl-2-[(3S,4S)-3-[[4-[3-(2,4-dichlorophenyl)-1H-pyrazol-5-yl]piperidino]methyl]-4-(3-fluorophenyl)pyrrolidino]acetic acid
> <PUBCHEM_IUPAC_INCHI>
InChI=1S/C33H39Cl2FN4O2/c34-25-9-10-27(29(35)16-25)31-17-30(37-38-31)21-11-13-39(14-12-21)18-24-19-40(20-28(24)23-7-4-8-26(36)15-23)32(33(41)42)22-5-2-1-3-6-22/h4,7-10,15-17,21-22,24,28,32H,1-3,5-6,11-14,18-20H2,(H,37,38)(H,41,42)/t24-,28+,32+/m0/s1
> <PUBCHEM_IUPAC_INCHIKEY>
AXEFQHJHLHVSPB-RZBJZMOUSA-N
> <PUBCHEM_XLOGP3_AA>
5.4
> <PUBCHEM_EXACT_MASS>
612.2434100
> <PUBCHEM_MOLECULAR_FORMULA>
C33H39Cl2FN4O2
> <PUBCHEM_MOLECULAR_WEIGHT>
613.6
> <PUBCHEM_OPENEYE_CAN_SMILES>
C1CCC(CC1)C(C(=O)O)N2CC(C(C2)C3=CC(=CC=C3)F)CN4CCC(CC4)C5=CC(=NN5)C6=C(C=C(C=C6)Cl)Cl
> <PUBCHEM_OPENEYE_ISO_SMILES>
C1CCC(CC1)[C@H](C(=O)O)N2C[C@@H]([C@H](C2)C3=CC(=CC=C3)F)CN4CCC(CC4)C5=CC(=NN5)C6=C(C=C(C=C6)Cl)Cl
> <PUBCHEM_CACTVS_TPSA>
72.5
> <PUBCHEM_MONOISOTOPIC_WEIGHT>
612.2434100
> <PUBCHEM_TOTAL_CHARGE>
0
> <PUBCHEM_HEAVY_ATOM_COUNT>
42
> <PUBCHEM_ATOM_DEF_STEREO_COUNT>
3
> <PUBCHEM_ATOM_UDEF_STEREO_COUNT>
0
> <PUBCHEM_BOND_DEF_STEREO_COUNT>
0
> <PUBCHEM_BOND_UDEF_STEREO_COUNT>
0
> <PUBCHEM_ISOTOPIC_ATOM_COUNT>
0
> <PUBCHEM_COMPONENT_COUNT>
1
> <PUBCHEM_CACTVS_TAUTO_COUNT>
-1
> <PUBCHEM_COORDINATE_TYPE>
1
5
255
> <PUBCHEM_BONDANNOTATIONS>
10  16  6
11  19  5
14  28  6
19  29  8
19  30  8
29  32  8
30  33  8
31  34  8
32  35  8
33  35  8
34  36  8
37  38  8
37  39  8
38  40  8
39  41  8
40  42  8
41  42  8
8  31  8
8  9  8
9  36  8
$$$$
