516354
  -OEChem-10302200282D
 84 89  0     1  0  0  0  0  0999 V2000
    9.5101    3.2258    0.0000 F   0  0  0  0  0  0  0  0  0  0  0  0
    7.8921    4.4014    0.0000 F   0  0  0  0  0  0  0  0  0  0  0  0
    2.7688   -2.2481    0.0000 O   0  0  0  0  0  0  0  0  0  0  0  0
    4.3511   -1.5436    0.0000 O   0  0  0  0  0  0  0  0  0  0  0  0
    5.1646   -3.3707    0.0000 N   0  0  3  0  0  0  0  0  0  0  0  0
    7.6133   -1.5342    0.0000 N   0  0  0  0  0  0  0  0  0  0  0  0
    6.8043    2.0535    0.0000 N   0  0  0  0  0  0  0  0  0  0  0  0
    7.1133    3.0046    0.0000 N   0  0  0  0  0  0  0  0  0  0  0  0
    6.7473   -3.0342    0.0000 C   0  0  2  0  0  0  0  0  0  0  0  0
    6.6428   -4.0288    0.0000 C   0  0  2  0  0  0  0  0  0  0  0  0
    5.8338   -2.6275    0.0000 C   0  0  0  0  0  0  0  0  0  0  0  0
    5.6646   -4.2367    0.0000 C   0  0  0  0  0  0  0  0  0  0  0  0
    4.1701   -3.2661    0.0000 C   0  0  2  0  0  0  0  0  0  0  0  0
    3.5823   -4.0752    0.0000 C   0  0  0  0  0  0  0  0  0  0  0  0
    7.6133   -2.5342    0.0000 C   0  0  0  0  0  0  0  0  0  0  0  0
    2.5878   -3.9706    0.0000 C   0  0  0  0  0  0  0  0  0  0  0  0
    3.9890   -4.9887    0.0000 C   0  0  0  0  0  0  0  0  0  0  0  0
    7.3859   -4.6979    0.0000 C   0  0  0  0  0  0  0  0  0  0  0  0
    2.0000   -4.7796    0.0000 C   0  0  0  0  0  0  0  0  0  0  0  0
    3.4013   -5.7977    0.0000 C   0  0  0  0  0  0  0  0  0  0  0  0
    8.4793   -1.0342    0.0000 C   0  0  0  0  0  0  0  0  0  0  0  0
    6.7473   -1.0342    0.0000 C   0  0  0  0  0  0  0  0  0  0  0  0
    2.4067   -5.6932    0.0000 C   0  0  0  0  0  0  0  0  0  0  0  0
    7.6133    0.4657    0.0000 C   0  0  0  0  0  0  0  0  0  0  0  0
    8.4793   -0.0343    0.0000 C   0  0  0  0  0  0  0  0  0  0  0  0
    6.7473   -0.0343    0.0000 C   0  0  0  0  0  0  0  0  0  0  0  0
    3.7634   -2.3526    0.0000 C   0  0  0  0  0  0  0  0  0  0  0  0
    8.3370   -4.3889    0.0000 C   0  0  0  0  0  0  0  0  0  0  0  0
    7.1780   -5.6760    0.0000 C   0  0  0  0  0  0  0  0  0  0  0  0
    7.6133    1.4658    0.0000 C   0  0  0  0  0  0  0  0  0  0  0  0
    9.0801   -5.0580    0.0000 C   0  0  0  0  0  0  0  0  0  0  0  0
    7.9211   -6.3452    0.0000 C   0  0  0  0  0  0  0  0  0  0  0  0
    8.4223    2.0535    0.0000 C   0  0  0  0  0  0  0  0  0  0  0  0
    8.8722   -6.0362    0.0000 C   0  0  0  0  0  0  0  0  0  0  0  0
    8.1133    3.0046    0.0000 C   0  0  0  0  0  0  0  0  0  0  0  0
    8.7011    3.8136    0.0000 C   0  0  0  0  0  0  0  0  0  0  0  0
    9.2889    4.6226    0.0000 C   0  0  0  0  0  0  0  0  0  0  0  0
    8.8822    5.5362    0.0000 C   0  0  0  0  0  0  0  0  0  0  0  0
   10.2834    4.5181    0.0000 C   0  0  0  0  0  0  0  0  0  0  0  0
    9.4699    6.3452    0.0000 C   0  0  0  0  0  0  0  0  0  0  0  0
   10.8712    5.3271    0.0000 C   0  0  0  0  0  0  0  0  0  0  0  0
   10.4645    6.2407    0.0000 C   0  0  0  0  0  0  0  0  0  0  0  0
    7.2673   -3.3719    0.0000 H   0  0  0  0  0  0  0  0  0  0  0  0
    6.4823   -4.6276    0.0000 H   0  0  0  0  0  0  0  0  0  0  0  0
    6.1437   -2.0906    0.0000 H   0  0  0  0  0  0  0  0  0  0  0  0
    5.3322   -2.2631    0.0000 H   0  0  0  0  0  0  0  0  0  0  0  0
    5.0982   -4.4889    0.0000 H   0  0  0  0  0  0  0  0  0  0  0  0
    5.8562   -4.8263    0.0000 H   0  0  0  0  0  0  0  0  0  0  0  0
    4.5345   -2.7645    0.0000 H   0  0  0  0  0  0  0  0  0  0  0  0
    3.3301   -3.5088    0.0000 H   0  0  0  0  0  0  0  0  0  0  0  0
    7.8254   -3.1169    0.0000 H   0  0  0  0  0  0  0  0  0  0  0  0
    8.2239   -2.4266    0.0000 H   0  0  0  0  0  0  0  0  0  0  0  0
    2.7587   -3.3746    0.0000 H   0  0  0  0  0  0  0  0  0  0  0  0
    2.0305   -3.6988    0.0000 H   0  0  0  0  0  0  0  0  0  0  0  0
    4.4197   -5.4347    0.0000 H   0  0  0  0  0  0  0  0  0  0  0  0
    4.5030   -4.6420    0.0000 H   0  0  0  0  0  0  0  0  0  0  0  0
    1.5693   -4.3336    0.0000 H   0  0  0  0  0  0  0  0  0  0  0  0
    1.4860   -5.1263    0.0000 H   0  0  0  0  0  0  0  0  0  0  0  0
    3.2304   -6.3937    0.0000 H   0  0  0  0  0  0  0  0  0  0  0  0
    3.9585   -6.0695    0.0000 H   0  0  0  0  0  0  0  0  0  0  0  0
    8.6914   -1.6169    0.0000 H   0  0  0  0  0  0  0  0  0  0  0  0
    9.0899   -0.9266    0.0000 H   0  0  0  0  0  0  0  0  0  0  0  0
    6.1367   -0.9266    0.0000 H   0  0  0  0  0  0  0  0  0  0  0  0
    6.5352   -1.6169    0.0000 H   0  0  0  0  0  0  0  0  0  0  0  0
    1.8052   -5.8432    0.0000 H   0  0  0  0  0  0  0  0  0  0  0  0
    2.4500   -6.3117    0.0000 H   0  0  0  0  0  0  0  0  0  0  0  0
    7.0764    0.7757    0.0000 H   0  0  0  0  0  0  0  0  0  0  0  0
    9.0899   -0.1419    0.0000 H   0  0  0  0  0  0  0  0  0  0  0  0
    8.6914    0.5484    0.0000 H   0  0  0  0  0  0  0  0  0  0  0  0
    6.5352    0.5484    0.0000 H   0  0  0  0  0  0  0  0  0  0  0  0
    6.1367   -0.1419    0.0000 H   0  0  0  0  0  0  0  0  0  0  0  0
    8.4659   -3.7824    0.0000 H   0  0  0  0  0  0  0  0  0  0  0  0
    6.5883   -5.8676    0.0000 H   0  0  0  0  0  0  0  0  0  0  0  0
    9.6698   -4.8664    0.0000 H   0  0  0  0  0  0  0  0  0  0  0  0
    7.7922   -6.9516    0.0000 H   0  0  0  0  0  0  0  0  0  0  0  0
    2.5167   -1.6817    0.0000 H   0  0  0  0  0  0  0  0  0  0  0  0
    9.0120    1.8619    0.0000 H   0  0  0  0  0  0  0  0  0  0  0  0
    6.2146    1.8619    0.0000 H   0  0  0  0  0  0  0  0  0  0  0  0
    9.3330   -6.4510    0.0000 H   0  0  0  0  0  0  0  0  0  0  0  0
    8.2656    5.6010    0.0000 H   0  0  0  0  0  0  0  0  0  0  0  0
   10.5356    3.9517    0.0000 H   0  0  0  0  0  0  0  0  0  0  0  0
    9.2178    6.9116    0.0000 H   0  0  0  0  0  0  0  0  0  0  0  0
   11.4878    5.2623    0.0000 H   0  0  0  0  0  0  0  0  0  0  0  0
   10.8289    6.7422    0.0000 H   0  0  0  0  0  0  0  0  0  0  0  0
  1 36  1  0  0  0  0
  2 36  1  0  0  0  0
  3 27  1  0  0  0  0
  3 76  1  0  0  0  0
  4 27  2  0  0  0  0
  5 11  1  0  0  0  0
  5 12  1  0  0  0  0
  5 13  1  0  0  0  0
  6 15  1  0  0  0  0
  6 21  1  0  0  0  0
  6 22  1  0  0  0  0
  7  8  1  0  0  0  0
  7 30  1  0  0  0  0
  7 78  1  0  0  0  0
  8 35  2  0  0  0  0
  9 10  1  0  0  0  0
  9 11  1  0  0  0  0
  9 15  1  6  0  0  0
  9 43  1  0  0  0  0
 10 12  1  0  0  0  0
 10 18  1  1  0  0  0
 10 44  1  0  0  0  0
 11 45  1  0  0  0  0
 11 46  1  0  0  0  0
 12 47  1  0  0  0  0
 12 48  1  0  0  0  0
 13 14  1  0  0  0  0
 13 27  1  6  0  0  0
 13 49  1  0  0  0  0
 14 16  1  0  0  0  0
 14 17  1  0  0  0  0
 14 50  1  0  0  0  0
 15 51  1  0  0  0  0
 15 52  1  0  0  0  0
 16 19  1  0  0  0  0
 16 53  1  0  0  0  0
 16 54  1  0  0  0  0
 17 20  1  0  0  0  0
 17 55  1  0  0  0  0
 17 56  1  0  0  0  0
 18 28  2  0  0  0  0
 18 29  1  0  0  0  0
 19 23  1  0  0  0  0
 19 57  1  0  0  0  0
 19 58  1  0  0  0  0
 20 23  1  0  0  0  0
 20 59  1  0  0  0  0
 20 60  1  0  0  0  0
 21 25  1  0  0  0  0
 21 61  1  0  0  0  0
 21 62  1  0  0  0  0
 22 26  1  0  0  0  0
 22 63  1  0  0  0  0
 22 64  1  0  0  0  0
 23 65  1  0  0  0  0
 23 66  1  0  0  0  0
 24 25  1  0  0  0  0
 24 26  1  0  0  0  0
 24 30  1  0  0  0  0
 24 67  1  0  0  0  0
 25 68  1  0  0  0  0
 25 69  1  0  0  0  0
 26 70  1  0  0  0  0
 26 71  1  0  0  0  0
 28 31  1  0  0  0  0
 28 72  1  0  0  0  0
 29 32  2  0  0  0  0
 29 73  1  0  0  0  0
 30 33  2  0  0  0  0
 31 34  2  0  0  0  0
 31 74  1  0  0  0  0
 32 34  1  0  0  0  0
 32 75  1  0  0  0  0
 33 35  1  0  0  0  0
 33 77  1  0  0  0  0
 34 79  1  0  0  0  0
 35 36  1  0  0  0  0
 36 37  1  0  0  0  0
 37 38  2  0  0  0  0
 37 39  1  0  0  0  0
 38 40  1  0  0  0  0
 38 80  1  0  0  0  0
 39 41  2  0  0  0  0
 39 81  1  0  0  0  0
 40 42  2  0  0  0  0
 40 82  1  0  0  0  0
 41 42  1  0  0  0  0
 41 83  1  0  0  0  0
 42 84  1  0  0  0  0
M  END
> <PUBCHEM_COMPOUND_CID>
516354
> <PUBCHEM_COMPOUND_CANONICALIZED>
1
> <PUBCHEM_CACTVS_COMPLEXITY>
866
> <PUBCHEM_CACTVS_HBOND_ACCEPTOR>
7
> <PUBCHEM_CACTVS_HBOND_DONOR>
2
> <PUBCHEM_CACTVS_ROTATABLE_BOND>
9
> <PUBCHEM_CACTVS_SUBSKEYS>
AAADcfB/sYAAAAAAAAAAAAAAAAAAAWLAAAA8YMEAAAAAAAAB0AAAHwAYCAAADSjBnhQwiJNjAgCqAyTySACSBAAgAgAYuSG4ZJgKIDKA0fGE5ABkmACYyAeYyOCOgAAAAAAAAAAAAAAAAAAAAAAAAAAAAA==
> <PUBCHEM_IUPAC_OPENEYE_NAME>
(2R)-2-cyclohexyl-2-[(3S,4S)-3-[[4-[3-[difluoro(phenyl)methyl]-1H-pyrazol-5-yl]-1-piperidyl]methyl]-4-phenyl-pyrrolidin-1-yl]acetic acid
> <PUBCHEM_IUPAC_CAS_NAME>
(2R)-2-cyclohexyl-2-[(3S,4S)-3-[[4-[3-[difluoro(phenyl)methyl]-1H-pyrazol-5-yl]-1-piperidinyl]methyl]-4-phenyl-1-pyrrolidinyl]acetic acid
> <PUBCHEM_IUPAC_NAME_MARKUP>
(2<I>R</I>)-2-cyclohexyl-2-[(3<I>S</I>,4<I>S</I>)-3-[[4-[3-[difluoro(phenyl)methyl]-1<I>H</I>-pyrazol-5-yl]piperidin-1-yl]methyl]-4-phenylpyrrolidin-1-yl]acetic acid
> <PUBCHEM_IUPAC_NAME>
(2R)-2-cyclohexyl-2-[(3S,4S)-3-[[4-[3-[difluoro(phenyl)methyl]-1H-pyrazol-5-yl]piperidin-1-yl]methyl]-4-phenylpyrrolidin-1-yl]acetic acid
> <PUBCHEM_IUPAC_SYSTEMATIC_NAME>
(2R)-2-[(3S,4S)-3-[[4-[3-[bis(fluoranyl)-phenyl-methyl]-1H-pyrazol-5-yl]piperidin-1-yl]methyl]-4-phenyl-pyrrolidin-1-yl]-2-cyclohexyl-ethanoic acid
> <PUBCHEM_IUPAC_TRADITIONAL_NAME>
(2R)-2-cyclohexyl-2-[(3S,4S)-3-[[4-[3-[difluoro(phenyl)methyl]-1H-pyrazol-5-yl]piperidino]methyl]-4-phenyl-pyrrolidino]acetic acid
> <PUBCHEM_IUPAC_INCHI>
InChI=1S/C34H42F2N4O2/c35-34(36,28-14-8-3-9-15-28)31-20-30(37-38-31)25-16-18-39(19-17-25)21-27-22-40(23-29(27)24-10-4-1-5-11-24)32(33(41)42)26-12-6-2-7-13-26/h1,3-5,8-11,14-15,20,25-27,29,32H,2,6-7,12-13,16-19,21-23H2,(H,37,38)(H,41,42)/t27-,29+,32+/m0/s1
> <PUBCHEM_IUPAC_INCHIKEY>
MPGXVOKLEKYKQS-RTKAOUNRSA-N
> <PUBCHEM_XLOGP3_AA>
4.5
> <PUBCHEM_EXACT_MASS>
576.32758292
> <PUBCHEM_MOLECULAR_FORMULA>
C34H42F2N4O2
> <PUBCHEM_MOLECULAR_WEIGHT>
576.7
> <PUBCHEM_OPENEYE_CAN_SMILES>
C1CCC(CC1)C(C(=O)O)N2CC(C(C2)C3=CC=CC=C3)CN4CCC(CC4)C5=CC(=NN5)C(C6=CC=CC=C6)(F)F
> <PUBCHEM_OPENEYE_ISO_SMILES>
C1CCC(CC1)[C@H](C(=O)O)N2C[C@@H]([C@H](C2)C3=CC=CC=C3)CN4CCC(CC4)C5=CC(=NN5)C(C6=CC=CC=C6)(F)F
> <PUBCHEM_CACTVS_TPSA>
72.5
> <PUBCHEM_MONOISOTOPIC_WEIGHT>
576.32758292
> <PUBCHEM_TOTAL_CHARGE>
0
> <PUBCHEM_HEAVY_ATOM_COUNT>
42
> <PUBCHEM_ATOM_DEF_STEREO_COUNT>
3
> <PUBCHEM_ATOM_UDEF_STEREO_COUNT>
0
> <PUBCHEM_BOND_DEF_STEREO_COUNT>
0
> <PUBCHEM_BOND_UDEF_STEREO_COUNT>
0
> <PUBCHEM_ISOTOPIC_ATOM_COUNT>
0
> <PUBCHEM_COMPONENT_COUNT>
1
> <PUBCHEM_CACTVS_TAUTO_COUNT>
-1
> <PUBCHEM_COORDINATE_TYPE>
1
5
255
> <PUBCHEM_BONDANNOTATIONS>
10  18  5
13  27  6
18  28  8
18  29  8
28  31  8
29  32  8
30  33  8
31  34  8
32  34  8
33  35  8
37  38  8
37  39  8
38  40  8
39  41  8
40  42  8
41  42  8
7  30  8
7  8  8
8  35  8
9  15  6
$$$$
