516316
  -OEChem-10302200282D
 84 89  0     1  0  0  0  0  0999 V2000
   10.6877   -2.7048    0.0000 O   0  0  0  0  0  0  0  0  0  0  0  0
    9.2865   -3.7229    0.0000 O   0  0  0  0  0  0  0  0  0  0  0  0
    8.1109   -2.1049    0.0000 N   0  0  3  0  0  0  0  0  0  0  0  0
    5.6622   -0.2685    0.0000 N   0  0  0  0  0  0  0  0  0  0  0  0
    5.6622    2.7315    0.0000 N   0  0  0  0  0  0  0  0  0  0  0  0
    6.4712    3.3193    0.0000 N   0  0  0  0  0  0  0  0  0  0  0  0
    6.5282   -1.7685    0.0000 C   0  0  2  0  0  0  0  0  0  0  0  0
    6.6327   -2.7630    0.0000 C   0  0  2  0  0  0  0  0  0  0  0  0
    7.4418   -1.3617    0.0000 C   0  0  0  0  0  0  0  0  0  0  0  0
    7.6109   -2.9709    0.0000 C   0  0  0  0  0  0  0  0  0  0  0  0
    9.1054   -2.0003    0.0000 C   0  0  2  0  0  0  0  0  0  0  0  0
    9.5122   -1.0868    0.0000 C   0  0  0  0  0  0  0  0  0  0  0  0
    5.6622   -1.2685    0.0000 C   0  0  0  0  0  0  0  0  0  0  0  0
    8.9244   -0.2778    0.0000 C   0  0  0  0  0  0  0  0  0  0  0  0
   10.5067   -0.9823    0.0000 C   0  0  0  0  0  0  0  0  0  0  0  0
    5.8896   -3.4321    0.0000 C   0  0  0  0  0  0  0  0  0  0  0  0
    9.3311    0.6358    0.0000 C   0  0  0  0  0  0  0  0  0  0  0  0
   10.9134   -0.0687    0.0000 C   0  0  0  0  0  0  0  0  0  0  0  0
    4.7962    0.2315    0.0000 C   0  0  0  0  0  0  0  0  0  0  0  0
    6.5282    0.2315    0.0000 C   0  0  0  0  0  0  0  0  0  0  0  0
   10.3256    0.7403    0.0000 C   0  0  0  0  0  0  0  0  0  0  0  0
    5.6622    1.7315    0.0000 C   0  0  0  0  0  0  0  0  0  0  0  0
    4.7962    1.2315    0.0000 C   0  0  0  0  0  0  0  0  0  0  0  0
    6.5282    1.2315    0.0000 C   0  0  0  0  0  0  0  0  0  0  0  0
    9.6932   -2.8094    0.0000 C   0  0  0  0  0  0  0  0  0  0  0  0
    6.0975   -4.4103    0.0000 C   0  0  0  0  0  0  0  0  0  0  0  0
    4.9385   -3.1231    0.0000 C   0  0  0  0  0  0  0  0  0  0  0  0
    5.3544   -5.0794    0.0000 C   0  0  0  0  0  0  0  0  0  0  0  0
    4.1954   -3.7922    0.0000 C   0  0  0  0  0  0  0  0  0  0  0  0
    4.8532    3.3193    0.0000 C   0  0  0  0  0  0  0  0  0  0  0  0
    4.4033   -4.7704    0.0000 C   0  0  0  0  0  0  0  0  0  0  0  0
    5.1622    4.2704    0.0000 C   0  0  0  0  0  0  0  0  0  0  0  0
    6.1622    4.2704    0.0000 C   0  0  0  0  0  0  0  0  0  0  0  0
    3.9021    3.0103    0.0000 C   0  0  0  0  0  0  0  0  0  0  0  0
    6.7500    5.0794    0.0000 C   0  0  0  0  0  0  0  0  0  0  0  0
    3.6942    2.0322    0.0000 C   0  0  0  0  0  0  0  0  0  0  0  0
    3.1590    3.6794    0.0000 C   0  0  0  0  0  0  0  0  0  0  0  0
    2.7431    1.7231    0.0000 C   0  0  0  0  0  0  0  0  0  0  0  0
    2.2079    3.3704    0.0000 C   0  0  0  0  0  0  0  0  0  0  0  0
    2.0000    2.3923    0.0000 C   0  0  0  0  0  0  0  0  0  0  0  0
    6.0082   -2.1061    0.0000 H   0  0  0  0  0  0  0  0  0  0  0  0
    6.7932   -3.3619    0.0000 H   0  0  0  0  0  0  0  0  0  0  0  0
    7.9434   -0.9973    0.0000 H   0  0  0  0  0  0  0  0  0  0  0  0
    7.1318   -0.8248    0.0000 H   0  0  0  0  0  0  0  0  0  0  0  0
    7.4193   -3.5606    0.0000 H   0  0  0  0  0  0  0  0  0  0  0  0
    8.1773   -3.2231    0.0000 H   0  0  0  0  0  0  0  0  0  0  0  0
    8.8532   -2.5667    0.0000 H   0  0  0  0  0  0  0  0  0  0  0  0
    9.8766   -1.5884    0.0000 H   0  0  0  0  0  0  0  0  0  0  0  0
    5.0516   -1.1608    0.0000 H   0  0  0  0  0  0  0  0  0  0  0  0
    5.4501   -1.8511    0.0000 H   0  0  0  0  0  0  0  0  0  0  0  0
    8.4104    0.0689    0.0000 H   0  0  0  0  0  0  0  0  0  0  0  0
    8.4937   -0.7238    0.0000 H   0  0  0  0  0  0  0  0  0  0  0  0
   10.4634   -1.6008    0.0000 H   0  0  0  0  0  0  0  0  0  0  0  0
   11.1083   -1.1323    0.0000 H   0  0  0  0  0  0  0  0  0  0  0  0
    9.3744    1.2542    0.0000 H   0  0  0  0  0  0  0  0  0  0  0  0
    8.7295    0.7858    0.0000 H   0  0  0  0  0  0  0  0  0  0  0  0
   11.4274   -0.4154    0.0000 H   0  0  0  0  0  0  0  0  0  0  0  0
   11.3441    0.3773    0.0000 H   0  0  0  0  0  0  0  0  0  0  0  0
    4.1856    0.3392    0.0000 H   0  0  0  0  0  0  0  0  0  0  0  0
    4.5841   -0.3511    0.0000 H   0  0  0  0  0  0  0  0  0  0  0  0
    6.7403   -0.3511    0.0000 H   0  0  0  0  0  0  0  0  0  0  0  0
    7.1388    0.3392    0.0000 H   0  0  0  0  0  0  0  0  0  0  0  0
   10.8829    1.0121    0.0000 H   0  0  0  0  0  0  0  0  0  0  0  0
   10.1547    1.3363    0.0000 H   0  0  0  0  0  0  0  0  0  0  0  0
    6.1991    2.0415    0.0000 H   0  0  0  0  0  0  0  0  0  0  0  0
    4.5841    1.8142    0.0000 H   0  0  0  0  0  0  0  0  0  0  0  0
    4.1856    1.1239    0.0000 H   0  0  0  0  0  0  0  0  0  0  0  0
    7.1388    1.1239    0.0000 H   0  0  0  0  0  0  0  0  0  0  0  0
    6.7403    1.8142    0.0000 H   0  0  0  0  0  0  0  0  0  0  0  0
    6.6872   -4.6018    0.0000 H   0  0  0  0  0  0  0  0  0  0  0  0
    4.8096   -2.5166    0.0000 H   0  0  0  0  0  0  0  0  0  0  0  0
    5.4833   -5.6858    0.0000 H   0  0  0  0  0  0  0  0  0  0  0  0
    3.6057   -3.6006    0.0000 H   0  0  0  0  0  0  0  0  0  0  0  0
   11.0521   -3.2064    0.0000 H   0  0  0  0  0  0  0  0  0  0  0  0
    3.9426   -5.1852    0.0000 H   0  0  0  0  0  0  0  0  0  0  0  0
    4.7978    4.7720    0.0000 H   0  0  0  0  0  0  0  0  0  0  0  0
    7.2516    4.7150    0.0000 H   0  0  0  0  0  0  0  0  0  0  0  0
    7.1144    5.5810    0.0000 H   0  0  0  0  0  0  0  0  0  0  0  0
    6.2484    5.4438    0.0000 H   0  0  0  0  0  0  0  0  0  0  0  0
    4.1550    1.6173    0.0000 H   0  0  0  0  0  0  0  0  0  0  0  0
    3.2879    4.2859    0.0000 H   0  0  0  0  0  0  0  0  0  0  0  0
    2.6142    1.1167    0.0000 H   0  0  0  0  0  0  0  0  0  0  0  0
    1.7472    3.7853    0.0000 H   0  0  0  0  0  0  0  0  0  0  0  0
    1.4103    2.2007    0.0000 H   0  0  0  0  0  0  0  0  0  0  0  0
  1 25  1  0  0  0  0
  1 74  1  0  0  0  0
  2 25  2  0  0  0  0
  3  9  1  0  0  0  0
  3 10  1  0  0  0  0
  3 11  1  0  0  0  0
  4 13  1  0  0  0  0
  4 19  1  0  0  0  0
  4 20  1  0  0  0  0
  5  6  1  0  0  0  0
  5 22  1  0  0  0  0
  5 30  1  0  0  0  0
  6 33  2  0  0  0  0
  7  8  1  0  0  0  0
  7  9  1  0  0  0  0
  7 13  1  1  0  0  0
  7 41  1  0  0  0  0
  8 10  1  0  0  0  0
  8 16  1  6  0  0  0
  8 42  1  0  0  0  0
  9 43  1  0  0  0  0
  9 44  1  0  0  0  0
 10 45  1  0  0  0  0
 10 46  1  0  0  0  0
 11 12  1  0  0  0  0
 11 25  1  6  0  0  0
 11 47  1  0  0  0  0
 12 14  1  0  0  0  0
 12 15  1  0  0  0  0
 12 48  1  0  0  0  0
 13 49  1  0  0  0  0
 13 50  1  0  0  0  0
 14 17  1  0  0  0  0
 14 51  1  0  0  0  0
 14 52  1  0  0  0  0
 15 18  1  0  0  0  0
 15 53  1  0  0  0  0
 15 54  1  0  0  0  0
 16 26  2  0  0  0  0
 16 27  1  0  0  0  0
 17 21  1  0  0  0  0
 17 55  1  0  0  0  0
 17 56  1  0  0  0  0
 18 21  1  0  0  0  0
 18 57  1  0  0  0  0
 18 58  1  0  0  0  0
 19 23  1  0  0  0  0
 19 59  1  0  0  0  0
 19 60  1  0  0  0  0
 20 24  1  0  0  0  0
 20 61  1  0  0  0  0
 20 62  1  0  0  0  0
 21 63  1  0  0  0  0
 21 64  1  0  0  0  0
 22 23  1  0  0  0  0
 22 24  1  0  0  0  0
 22 65  1  0  0  0  0
 23 66  1  0  0  0  0
 23 67  1  0  0  0  0
 24 68  1  0  0  0  0
 24 69  1  0  0  0  0
 26 28  1  0  0  0  0
 26 70  1  0  0  0  0
 27 29  2  0  0  0  0
 27 71  1  0  0  0  0
 28 31  2  0  0  0  0
 28 72  1  0  0  0  0
 29 31  1  0  0  0  0
 29 73  1  0  0  0  0
 30 32  2  0  0  0  0
 30 34  1  0  0  0  0
 31 75  1  0  0  0  0
 32 33  1  0  0  0  0
 32 76  1  0  0  0  0
 33 35  1  0  0  0  0
 34 36  2  0  0  0  0
 34 37  1  0  0  0  0
 35 77  1  0  0  0  0
 35 78  1  0  0  0  0
 35 79  1  0  0  0  0
 36 38  1  0  0  0  0
 36 80  1  0  0  0  0
 37 39  2  0  0  0  0
 37 81  1  0  0  0  0
 38 40  2  0  0  0  0
 38 82  1  0  0  0  0
 39 40  1  0  0  0  0
 39 83  1  0  0  0  0
 40 84  1  0  0  0  0
M  END
> <PUBCHEM_COMPOUND_CID>
516316
> <PUBCHEM_COMPOUND_CANONICALIZED>
1
> <PUBCHEM_CACTVS_COMPLEXITY>
798
> <PUBCHEM_CACTVS_HBOND_ACCEPTOR>
5
> <PUBCHEM_CACTVS_HBOND_DONOR>
1
> <PUBCHEM_CACTVS_ROTATABLE_BOND>
8
> <PUBCHEM_CACTVS_SUBSKEYS>
AAADcfB/sAAAAAAAAAAAAAAAAAAAAWLAAAA8YMEAAAAAAAAB0AAAHgAICAAADSjBngQyiJMIAgCqAyTyTACSBAAhggAY2CG4ZJgKILLA0fGE5AhkiADYyAeYyOCOgAAAAAAAAAAAAAAAAAAAAAAAAAAAAA==
> <PUBCHEM_IUPAC_OPENEYE_NAME>
(2R)-2-cyclohexyl-2-[(3S,4S)-3-[[4-(3-methyl-5-phenyl-pyrazol-1-yl)-1-piperidyl]methyl]-4-phenyl-pyrrolidin-1-yl]acetic acid
> <PUBCHEM_IUPAC_CAS_NAME>
(2R)-2-cyclohexyl-2-[(3S,4S)-3-[[4-(3-methyl-5-phenyl-1-pyrazolyl)-1-piperidinyl]methyl]-4-phenyl-1-pyrrolidinyl]acetic acid
> <PUBCHEM_IUPAC_NAME_MARKUP>
(2<I>R</I>)-2-cyclohexyl-2-[(3<I>S</I>,4<I>S</I>)-3-[[4-(3-methyl-5-phenylpyrazol-1-yl)piperidin-1-yl]methyl]-4-phenylpyrrolidin-1-yl]acetic acid
> <PUBCHEM_IUPAC_NAME>
(2R)-2-cyclohexyl-2-[(3S,4S)-3-[[4-(3-methyl-5-phenylpyrazol-1-yl)piperidin-1-yl]methyl]-4-phenylpyrrolidin-1-yl]acetic acid
> <PUBCHEM_IUPAC_SYSTEMATIC_NAME>
(2R)-2-cyclohexyl-2-[(3S,4S)-3-[[4-(3-methyl-5-phenyl-pyrazol-1-yl)piperidin-1-yl]methyl]-4-phenyl-pyrrolidin-1-yl]ethanoic acid
> <PUBCHEM_IUPAC_TRADITIONAL_NAME>
(2R)-2-cyclohexyl-2-[(3S,4S)-3-[[4-(3-methyl-5-phenyl-pyrazol-1-yl)piperidino]methyl]-4-phenyl-pyrrolidino]acetic acid
> <PUBCHEM_IUPAC_INCHI>
InChI=1S/C34H44N4O2/c1-25-21-32(27-13-7-3-8-14-27)38(35-25)30-17-19-36(20-18-30)22-29-23-37(24-31(29)26-11-5-2-6-12-26)33(34(39)40)28-15-9-4-10-16-28/h2-3,5-8,11-14,21,28-31,33H,4,9-10,15-20,22-24H2,1H3,(H,39,40)/t29-,31+,33+/m0/s1
> <PUBCHEM_IUPAC_INCHIKEY>
FNNDUXYZPVJOBO-KCTCJIHVSA-N
> <PUBCHEM_XLOGP3_AA>
4.3
> <PUBCHEM_EXACT_MASS>
540.34642666
> <PUBCHEM_MOLECULAR_FORMULA>
C34H44N4O2
> <PUBCHEM_MOLECULAR_WEIGHT>
540.7
> <PUBCHEM_OPENEYE_CAN_SMILES>
CC1=NN(C(=C1)C2=CC=CC=C2)C3CCN(CC3)CC4CN(CC4C5=CC=CC=C5)C(C6CCCCC6)C(=O)O
> <PUBCHEM_OPENEYE_ISO_SMILES>
CC1=NN(C(=C1)C2=CC=CC=C2)C3CCN(CC3)C[C@H]4CN(C[C@@H]4C5=CC=CC=C5)[C@H](C6CCCCC6)C(=O)O
> <PUBCHEM_CACTVS_TPSA>
61.6
> <PUBCHEM_MONOISOTOPIC_WEIGHT>
540.34642666
> <PUBCHEM_TOTAL_CHARGE>
0
> <PUBCHEM_HEAVY_ATOM_COUNT>
40
> <PUBCHEM_ATOM_DEF_STEREO_COUNT>
3
> <PUBCHEM_ATOM_UDEF_STEREO_COUNT>
0
> <PUBCHEM_BOND_DEF_STEREO_COUNT>
0
> <PUBCHEM_BOND_UDEF_STEREO_COUNT>
0
> <PUBCHEM_ISOTOPIC_ATOM_COUNT>
0
> <PUBCHEM_COMPONENT_COUNT>
1
> <PUBCHEM_CACTVS_TAUTO_COUNT>
-1
> <PUBCHEM_COORDINATE_TYPE>
1
5
255
> <PUBCHEM_BONDANNOTATIONS>
11  25  6
16  26  8
16  27  8
26  28  8
27  29  8
28  31  8
29  31  8
30  32  8
32  33  8
34  36  8
34  37  8
36  38  8
37  39  8
38  40  8
39  40  8
5  30  8
5  6  8
6  33  8
7  13  5
8  16  6
$$$$
