516322
  -OEChem-10302200282D
186196  0     1  0  0  0  0  0999 V2000
   12.1535    4.2468    0.0000 O   0  0  0  0  0  0  0  0  0  0  0  0
    0.7397    2.9810    0.0000 O   0  0  0  0  0  0  0  0  0  0  0  0
   13.5547    3.2287    0.0000 O   0  0  0  0  0  0  0  0  0  0  0  0
    2.1410    1.9629    0.0000 O   0  0  0  0  0  0  0  0  0  0  0  0
   14.7303    4.8468    0.0000 N   0  0  3  0  0  0  0  0  0  0  0  0
    3.3165    3.5810    0.0000 N   0  0  3  0  0  0  0  0  0  0  0  0
   17.1790    6.6832    0.0000 N   0  0  0  0  0  0  0  0  0  0  0  0
    5.7652    5.4174    0.0000 N   0  0  0  0  0  0  0  0  0  0  0  0
   17.1790    9.6832    0.0000 N   0  0  0  0  0  0  0  0  0  0  0  0
    5.7652    8.4174    0.0000 N   0  0  0  0  0  0  0  0  0  0  0  0
   17.9880   10.2710    0.0000 N   0  0  0  0  0  0  0  0  0  0  0  0
    6.5742    9.0052    0.0000 N   0  0  0  0  0  0  0  0  0  0  0  0
   16.3130    5.1832    0.0000 C   0  0  2  0  0  0  0  0  0  0  0  0
    4.8992    3.9174    0.0000 C   0  0  2  0  0  0  0  0  0  0  0  0
   16.2085    4.1886    0.0000 C   0  0  2  0  0  0  0  0  0  0  0  0
    4.7947    2.9229    0.0000 C   0  0  2  0  0  0  0  0  0  0  0  0
   15.3994    5.5899    0.0000 C   0  0  0  0  0  0  0  0  0  0  0  0
    3.9856    4.3241    0.0000 C   0  0  0  0  0  0  0  0  0  0  0  0
   15.2303    3.9807    0.0000 C   0  0  0  0  0  0  0  0  0  0  0  0
    3.8165    2.7150    0.0000 C   0  0  0  0  0  0  0  0  0  0  0  0
   13.7358    4.9513    0.0000 C   0  0  2  0  0  0  0  0  0  0  0  0
    2.3220    3.6855    0.0000 C   0  0  2  0  0  0  0  0  0  0  0  0
   13.3291    5.8648    0.0000 C   0  0  0  0  0  0  0  0  0  0  0  0
    1.9153    4.5990    0.0000 C   0  0  0  0  0  0  0  0  0  0  0  0
   17.1790    5.6832    0.0000 C   0  0  0  0  0  0  0  0  0  0  0  0
    5.7652    4.4174    0.0000 C   0  0  0  0  0  0  0  0  0  0  0  0
   12.3345    5.9694    0.0000 C   0  0  0  0  0  0  0  0  0  0  0  0
   13.9168    6.6738    0.0000 C   0  0  0  0  0  0  0  0  0  0  0  0
    0.9207    4.7036    0.0000 C   0  0  0  0  0  0  0  0  0  0  0  0
    2.5030    5.4081    0.0000 C   0  0  0  0  0  0  0  0  0  0  0  0
   16.9516    3.5195    0.0000 C   0  0  0  0  0  0  0  0  0  0  0  0
    5.5378    2.2537    0.0000 C   0  0  0  0  0  0  0  0  0  0  0  0
   11.9278    6.8829    0.0000 C   0  0  0  0  0  0  0  0  0  0  0  0
   13.5101    7.5874    0.0000 C   0  0  0  0  0  0  0  0  0  0  0  0
    0.5140    5.6171    0.0000 C   0  0  0  0  0  0  0  0  0  0  0  0
    2.0963    6.3216    0.0000 C   0  0  0  0  0  0  0  0  0  0  0  0
   16.3130    7.1832    0.0000 C   0  0  0  0  0  0  0  0  0  0  0  0
   18.0450    7.1832    0.0000 C   0  0  0  0  0  0  0  0  0  0  0  0
    4.8992    5.9174    0.0000 C   0  0  0  0  0  0  0  0  0  0  0  0
    6.6312    5.9174    0.0000 C   0  0  0  0  0  0  0  0  0  0  0  0
   12.5156    7.6919    0.0000 C   0  0  0  0  0  0  0  0  0  0  0  0
    1.1018    6.4261    0.0000 C   0  0  0  0  0  0  0  0  0  0  0  0
   17.1790    8.6832    0.0000 C   0  0  0  0  0  0  0  0  0  0  0  0
    5.7652    7.4174    0.0000 C   0  0  0  0  0  0  0  0  0  0  0  0
   13.1480    4.1423    0.0000 C   0  0  0  0  0  0  0  0  0  0  0  0
    1.7342    2.8765    0.0000 C   0  0  0  0  0  0  0  0  0  0  0  0
   16.3130    8.1832    0.0000 C   0  0  0  0  0  0  0  0  0  0  0  0
   18.0450    8.1832    0.0000 C   0  0  0  0  0  0  0  0  0  0  0  0
    4.8992    6.9174    0.0000 C   0  0  0  0  0  0  0  0  0  0  0  0
    6.6312    6.9174    0.0000 C   0  0  0  0  0  0  0  0  0  0  0  0
   16.7437    2.5414    0.0000 C   0  0  0  0  0  0  0  0  0  0  0  0
   17.9027    3.8285    0.0000 C   0  0  0  0  0  0  0  0  0  0  0  0
    5.3299    1.2756    0.0000 C   0  0  0  0  0  0  0  0  0  0  0  0
    6.4889    2.5628    0.0000 C   0  0  0  0  0  0  0  0  0  0  0  0
   17.4868    1.8722    0.0000 C   0  0  0  0  0  0  0  0  0  0  0  0
   18.6458    3.1594    0.0000 C   0  0  0  0  0  0  0  0  0  0  0  0
    6.0730    0.6065    0.0000 C   0  0  0  0  0  0  0  0  0  0  0  0
    7.2320    1.8936    0.0000 C   0  0  0  0  0  0  0  0  0  0  0  0
   16.3700   10.2710    0.0000 C   0  0  0  0  0  0  0  0  0  0  0  0
    4.9562    9.0052    0.0000 C   0  0  0  0  0  0  0  0  0  0  0  0
   18.4379    2.1813    0.0000 C   0  0  0  0  0  0  0  0  0  0  0  0
    7.0241    0.9155    0.0000 C   0  0  0  0  0  0  0  0  0  0  0  0
   16.6790   11.2220    0.0000 C   0  0  0  0  0  0  0  0  0  0  0  0
   15.4189    9.9619    0.0000 C   0  0  0  0  0  0  0  0  0  0  0  0
    5.2652    9.9562    0.0000 C   0  0  0  0  0  0  0  0  0  0  0  0
    6.2652    9.9562    0.0000 C   0  0  0  0  0  0  0  0  0  0  0  0
   17.6790   11.2220    0.0000 C   0  0  0  0  0  0  0  0  0  0  0  0
    4.0052    8.6962    0.0000 C   0  0  0  0  0  0  0  0  0  0  0  0
    6.8530   10.7652    0.0000 C   0  0  0  0  0  0  0  0  0  0  0  0
   14.6758   10.6311    0.0000 C   0  0  0  0  0  0  0  0  0  0  0  0
   18.2668   12.0310    0.0000 C   0  0  0  0  0  0  0  0  0  0  0  0
    3.2620    9.3653    0.0000 C   0  0  0  0  0  0  0  0  0  0  0  0
    6.4463   11.6788    0.0000 C   0  0  0  0  0  0  0  0  0  0  0  0
   13.7247   10.3221    0.0000 C   0  0  0  0  0  0  0  0  0  0  0  0
   17.8601   12.9446    0.0000 C   0  0  0  0  0  0  0  0  0  0  0  0
    7.0341   12.4878    0.0000 C   0  0  0  0  0  0  0  0  0  0  0  0
   13.5168    9.3439    0.0000 C   0  0  0  0  0  0  0  0  0  0  0  0
   12.9816   10.9912    0.0000 C   0  0  0  0  0  0  0  0  0  0  0  0
    6.6273   13.4013    0.0000 C   0  0  0  0  0  0  0  0  0  0  0  0
    8.0286   12.3833    0.0000 C   0  0  0  0  0  0  0  0  0  0  0  0
   12.5658    9.0349    0.0000 C   0  0  0  0  0  0  0  0  0  0  0  0
   12.0305   10.6822    0.0000 C   0  0  0  0  0  0  0  0  0  0  0  0
   11.8226    9.7040    0.0000 C   0  0  0  0  0  0  0  0  0  0  0  0
    7.2151   14.2104    0.0000 C   0  0  0  0  0  0  0  0  0  0  0  0
    8.6164   13.1923    0.0000 C   0  0  0  0  0  0  0  0  0  0  0  0
    8.2096   14.1058    0.0000 C   0  0  0  0  0  0  0  0  0  0  0  0
   16.2805    5.8023    0.0000 H   0  0  0  0  0  0  0  0  0  0  0  0
    4.8668    4.5365    0.0000 H   0  0  0  0  0  0  0  0  0  0  0  0
   16.0480    3.5898    0.0000 H   0  0  0  0  0  0  0  0  0  0  0  0
    4.6342    2.3240    0.0000 H   0  0  0  0  0  0  0  0  0  0  0  0
   15.7094    6.1268    0.0000 H   0  0  0  0  0  0  0  0  0  0  0  0
   14.8978    5.9543    0.0000 H   0  0  0  0  0  0  0  0  0  0  0  0
    4.2956    4.8610    0.0000 H   0  0  0  0  0  0  0  0  0  0  0  0
    3.4841    4.6886    0.0000 H   0  0  0  0  0  0  0  0  0  0  0  0
   14.6639    3.7286    0.0000 H   0  0  0  0  0  0  0  0  0  0  0  0
   15.4219    3.3911    0.0000 H   0  0  0  0  0  0  0  0  0  0  0  0
    3.2501    2.4628    0.0000 H   0  0  0  0  0  0  0  0  0  0  0  0
    4.0081    2.1253    0.0000 H   0  0  0  0  0  0  0  0  0  0  0  0
   13.9880    4.3849    0.0000 H   0  0  0  0  0  0  0  0  0  0  0  0
    2.5742    3.1191    0.0000 H   0  0  0  0  0  0  0  0  0  0  0  0
   12.9646    5.3632    0.0000 H   0  0  0  0  0  0  0  0  0  0  0  0
    1.5508    4.0975    0.0000 H   0  0  0  0  0  0  0  0  0  0  0  0
   17.3911    5.1006    0.0000 H   0  0  0  0  0  0  0  0  0  0  0  0
   17.7896    5.7908    0.0000 H   0  0  0  0  0  0  0  0  0  0  0  0
    5.9773    3.8348    0.0000 H   0  0  0  0  0  0  0  0  0  0  0  0
    6.3758    4.5250    0.0000 H   0  0  0  0  0  0  0  0  0  0  0  0
   11.7329    5.8194    0.0000 H   0  0  0  0  0  0  0  0  0  0  0  0
   12.3778    5.3509    0.0000 H   0  0  0  0  0  0  0  0  0  0  0  0
   14.3475    6.2279    0.0000 H   0  0  0  0  0  0  0  0  0  0  0  0
   14.4308    7.0206    0.0000 H   0  0  0  0  0  0  0  0  0  0  0  0
    0.3192    4.5536    0.0000 H   0  0  0  0  0  0  0  0  0  0  0  0
    0.9640    4.0851    0.0000 H   0  0  0  0  0  0  0  0  0  0  0  0
    2.9337    4.9621    0.0000 H   0  0  0  0  0  0  0  0  0  0  0  0
    3.0170    5.7548    0.0000 H   0  0  0  0  0  0  0  0  0  0  0  0
   11.4971    7.3289    0.0000 H   0  0  0  0  0  0  0  0  0  0  0  0
   11.4138    6.5362    0.0000 H   0  0  0  0  0  0  0  0  0  0  0  0
   14.1117    7.7374    0.0000 H   0  0  0  0  0  0  0  0  0  0  0  0
   13.4669    8.2059    0.0000 H   0  0  0  0  0  0  0  0  0  0  0  0
    0.0833    6.0631    0.0000 H   0  0  0  0  0  0  0  0  0  0  0  0
    0.0000    5.2704    0.0000 H   0  0  0  0  0  0  0  0  0  0  0  0
    2.6979    6.4716    0.0000 H   0  0  0  0  0  0  0  0  0  0  0  0
    2.0531    6.9401    0.0000 H   0  0  0  0  0  0  0  0  0  0  0  0
   15.7024    7.2908    0.0000 H   0  0  0  0  0  0  0  0  0  0  0  0
   16.1009    6.6006    0.0000 H   0  0  0  0  0  0  0  0  0  0  0  0
   18.2571    6.6006    0.0000 H   0  0  0  0  0  0  0  0  0  0  0  0
   18.6556    7.2908    0.0000 H   0  0  0  0  0  0  0  0  0  0  0  0
    4.2886    6.0250    0.0000 H   0  0  0  0  0  0  0  0  0  0  0  0
    4.6871    5.3348    0.0000 H   0  0  0  0  0  0  0  0  0  0  0  0
    6.8433    5.3348    0.0000 H   0  0  0  0  0  0  0  0  0  0  0  0
    7.2418    6.0250    0.0000 H   0  0  0  0  0  0  0  0  0  0  0  0
   12.6865    8.2879    0.0000 H   0  0  0  0  0  0  0  0  0  0  0  0
   11.9583    7.9637    0.0000 H   0  0  0  0  0  0  0  0  0  0  0  0
    1.2727    7.0221    0.0000 H   0  0  0  0  0  0  0  0  0  0  0  0
    0.5445    6.6979    0.0000 H   0  0  0  0  0  0  0  0  0  0  0  0
   17.7159    8.9932    0.0000 H   0  0  0  0  0  0  0  0  0  0  0  0
    6.3022    7.7274    0.0000 H   0  0  0  0  0  0  0  0  0  0  0  0
   16.1009    8.7658    0.0000 H   0  0  0  0  0  0  0  0  0  0  0  0
   15.7024    8.0755    0.0000 H   0  0  0  0  0  0  0  0  0  0  0  0
   18.6556    8.0755    0.0000 H   0  0  0  0  0  0  0  0  0  0  0  0
   18.2571    8.7658    0.0000 H   0  0  0  0  0  0  0  0  0  0  0  0
    4.6871    7.5000    0.0000 H   0  0  0  0  0  0  0  0  0  0  0  0
    4.2886    6.8097    0.0000 H   0  0  0  0  0  0  0  0  0  0  0  0
    7.2418    6.8097    0.0000 H   0  0  0  0  0  0  0  0  0  0  0  0
    6.8433    7.5000    0.0000 H   0  0  0  0  0  0  0  0  0  0  0  0
   16.1540    2.3498    0.0000 H   0  0  0  0  0  0  0  0  0  0  0  0
   18.0316    4.4350    0.0000 H   0  0  0  0  0  0  0  0  0  0  0  0
    4.7402    1.0840    0.0000 H   0  0  0  0  0  0  0  0  0  0  0  0
    6.6178    3.1692    0.0000 H   0  0  0  0  0  0  0  0  0  0  0  0
   17.3579    1.2658    0.0000 H   0  0  0  0  0  0  0  0  0  0  0  0
   19.2355    3.3510    0.0000 H   0  0  0  0  0  0  0  0  0  0  0  0
    5.9441    0.0000    0.0000 H   0  0  0  0  0  0  0  0  0  0  0  0
    7.8217    2.0852    0.0000 H   0  0  0  0  0  0  0  0  0  0  0  0
   11.7891    3.7452    0.0000 H   0  0  0  0  0  0  0  0  0  0  0  0
    0.3753    2.4794    0.0000 H   0  0  0  0  0  0  0  0  0  0  0  0
   18.8986    1.7664    0.0000 H   0  0  0  0  0  0  0  0  0  0  0  0
    7.4848    0.5006    0.0000 H   0  0  0  0  0  0  0  0  0  0  0  0
   16.3146   11.7236    0.0000 H   0  0  0  0  0  0  0  0  0  0  0  0
   14.9304    9.5802    0.0000 H   0  0  0  0  0  0  0  0  0  0  0  0
   15.7100    9.4145    0.0000 H   0  0  0  0  0  0  0  0  0  0  0  0
    4.9008   10.4578    0.0000 H   0  0  0  0  0  0  0  0  0  0  0  0
    3.5166    8.3144    0.0000 H   0  0  0  0  0  0  0  0  0  0  0  0
    4.2962    8.1487    0.0000 H   0  0  0  0  0  0  0  0  0  0  0  0
    7.2837   10.3193    0.0000 H   0  0  0  0  0  0  0  0  0  0  0  0
    7.3670   11.1119    0.0000 H   0  0  0  0  0  0  0  0  0  0  0  0
   15.1644   11.0128    0.0000 H   0  0  0  0  0  0  0  0  0  0  0  0
   14.3847   11.1785    0.0000 H   0  0  0  0  0  0  0  0  0  0  0  0
   18.6975   11.5850    0.0000 H   0  0  0  0  0  0  0  0  0  0  0  0
   18.7808   12.3777    0.0000 H   0  0  0  0  0  0  0  0  0  0  0  0
    3.6769    9.8260    0.0000 H   0  0  0  0  0  0  0  0  0  0  0  0
    2.8012    9.7801    0.0000 H   0  0  0  0  0  0  0  0  0  0  0  0
    2.8471    8.9045    0.0000 H   0  0  0  0  0  0  0  0  0  0  0  0
    6.0156   12.1248    0.0000 H   0  0  0  0  0  0  0  0  0  0  0  0
    5.9323   11.3321    0.0000 H   0  0  0  0  0  0  0  0  0  0  0  0
   18.4265   13.1968    0.0000 H   0  0  0  0  0  0  0  0  0  0  0  0
   17.6079   13.5110    0.0000 H   0  0  0  0  0  0  0  0  0  0  0  0
   17.2937   12.6924    0.0000 H   0  0  0  0  0  0  0  0  0  0  0  0
   13.9776    8.9290    0.0000 H   0  0  0  0  0  0  0  0  0  0  0  0
   13.1105   11.5976    0.0000 H   0  0  0  0  0  0  0  0  0  0  0  0
    6.0107   13.4662    0.0000 H   0  0  0  0  0  0  0  0  0  0  0  0
    8.2808   11.8169    0.0000 H   0  0  0  0  0  0  0  0  0  0  0  0
   12.4369    8.4284    0.0000 H   0  0  0  0  0  0  0  0  0  0  0  0
   11.5698   11.0970    0.0000 H   0  0  0  0  0  0  0  0  0  0  0  0
   11.2330    9.5124    0.0000 H   0  0  0  0  0  0  0  0  0  0  0  0
    6.9629   14.7768    0.0000 H   0  0  0  0  0  0  0  0  0  0  0  0
    9.2330   13.1275    0.0000 H   0  0  0  0  0  0  0  0  0  0  0  0
    8.5740   14.6074    0.0000 H   0  0  0  0  0  0  0  0  0  0  0  0
  1 45  1  0  0  0  0
  1153  1  0  0  0  0
  2 46  1  0  0  0  0
  2154  1  0  0  0  0
  3 45  2  0  0  0  0
  4 46  2  0  0  0  0
  5 17  1  0  0  0  0
  5 19  1  0  0  0  0
  5 21  1  0  0  0  0
  6 18  1  0  0  0  0
  6 20  1  0  0  0  0
  6 22  1  0  0  0  0
  7 25  1  0  0  0  0
  7 37  1  0  0  0  0
  7 38  1  0  0  0  0
  8 26  1  0  0  0  0
  8 39  1  0  0  0  0
  8 40  1  0  0  0  0
  9 11  1  0  0  0  0
  9 43  1  0  0  0  0
  9 59  1  0  0  0  0
 10 12  1  0  0  0  0
 10 44  1  0  0  0  0
 10 60  1  0  0  0  0
 11 67  2  0  0  0  0
 12 66  2  0  0  0  0
 13 15  1  0  0  0  0
 13 17  1  0  0  0  0
 13 25  1  6  0  0  0
 13 87  1  0  0  0  0
 14 16  1  0  0  0  0
 14 18  1  0  0  0  0
 14 26  1  6  0  0  0
 14 88  1  0  0  0  0
 15 19  1  0  0  0  0
 15 31  1  1  0  0  0
 15 89  1  0  0  0  0
 16 20  1  0  0  0  0
 16 32  1  1  0  0  0
 16 90  1  0  0  0  0
 17 91  1  0  0  0  0
 17 92  1  0  0  0  0
 18 93  1  0  0  0  0
 18 94  1  0  0  0  0
 19 95  1  0  0  0  0
 19 96  1  0  0  0  0
 20 97  1  0  0  0  0
 20 98  1  0  0  0  0
 21 23  1  0  0  0  0
 21 45  1  1  0  0  0
 21 99  1  0  0  0  0
 22 24  1  0  0  0  0
 22 46  1  1  0  0  0
 22100  1  0  0  0  0
 23 27  1  0  0  0  0
 23 28  1  0  0  0  0
 23101  1  0  0  0  0
 24 29  1  0  0  0  0
 24 30  1  0  0  0  0
 24102  1  0  0  0  0
 25103  1  0  0  0  0
 25104  1  0  0  0  0
 26105  1  0  0  0  0
 26106  1  0  0  0  0
 27 33  1  0  0  0  0
 27107  1  0  0  0  0
 27108  1  0  0  0  0
 28 34  1  0  0  0  0
 28109  1  0  0  0  0
 28110  1  0  0  0  0
 29 35  1  0  0  0  0
 29111  1  0  0  0  0
 29112  1  0  0  0  0
 30 36  1  0  0  0  0
 30113  1  0  0  0  0
 30114  1  0  0  0  0
 31 51  2  0  0  0  0
 31 52  1  0  0  0  0
 32 53  2  0  0  0  0
 32 54  1  0  0  0  0
 33 41  1  0  0  0  0
 33115  1  0  0  0  0
 33116  1  0  0  0  0
 34 41  1  0  0  0  0
 34117  1  0  0  0  0
 34118  1  0  0  0  0
 35 42  1  0  0  0  0
 35119  1  0  0  0  0
 35120  1  0  0  0  0
 36 42  1  0  0  0  0
 36121  1  0  0  0  0
 36122  1  0  0  0  0
 37 47  1  0  0  0  0
 37123  1  0  0  0  0
 37124  1  0  0  0  0
 38 48  1  0  0  0  0
 38125  1  0  0  0  0
 38126  1  0  0  0  0
 39 49  1  0  0  0  0
 39127  1  0  0  0  0
 39128  1  0  0  0  0
 40 50  1  0  0  0  0
 40129  1  0  0  0  0
 40130  1  0  0  0  0
 41131  1  0  0  0  0
 41132  1  0  0  0  0
 42133  1  0  0  0  0
 42134  1  0  0  0  0
 43 47  1  0  0  0  0
 43 48  1  0  0  0  0
 43135  1  0  0  0  0
 44 49  1  0  0  0  0
 44 50  1  0  0  0  0
 44136  1  0  0  0  0
 47137  1  0  0  0  0
 47138  1  0  0  0  0
 48139  1  0  0  0  0
 48140  1  0  0  0  0
 49141  1  0  0  0  0
 49142  1  0  0  0  0
 50143  1  0  0  0  0
 50144  1  0  0  0  0
 51 55  1  0  0  0  0
 51145  1  0  0  0  0
 52 56  2  0  0  0  0
 52146  1  0  0  0  0
 53 57  1  0  0  0  0
 53147  1  0  0  0  0
 54 58  2  0  0  0  0
 54148  1  0  0  0  0
 55 61  2  0  0  0  0
 55149  1  0  0  0  0
 56 61  1  0  0  0  0
 56150  1  0  0  0  0
 57 62  2  0  0  0  0
 57151  1  0  0  0  0
 58 62  1  0  0  0  0
 58152  1  0  0  0  0
 59 63  2  0  0  0  0
 59 64  1  0  0  0  0
 60 65  2  0  0  0  0
 60 68  1  0  0  0  0
 61155  1  0  0  0  0
 62156  1  0  0  0  0
 63 67  1  0  0  0  0
 63157  1  0  0  0  0
 64 70  1  0  0  0  0
 64158  1  0  0  0  0
 64159  1  0  0  0  0
 65 66  1  0  0  0  0
 65160  1  0  0  0  0
 66 69  1  0  0  0  0
 67 71  1  0  0  0  0
 68 72  1  0  0  0  0
 68161  1  0  0  0  0
 68162  1  0  0  0  0
 69 73  1  0  0  0  0
 69163  1  0  0  0  0
 69164  1  0  0  0  0
 70 74  1  0  0  0  0
 70165  1  0  0  0  0
 70166  1  0  0  0  0
 71 75  1  0  0  0  0
 71167  1  0  0  0  0
 71168  1  0  0  0  0
 72169  1  0  0  0  0
 72170  1  0  0  0  0
 72171  1  0  0  0  0
 73 76  1  0  0  0  0
 73172  1  0  0  0  0
 73173  1  0  0  0  0
 74 77  2  0  0  0  0
 74 78  1  0  0  0  0
 75174  1  0  0  0  0
 75175  1  0  0  0  0
 75176  1  0  0  0  0
 76 79  2  0  0  0  0
 76 80  1  0  0  0  0
 77 81  1  0  0  0  0
 77177  1  0  0  0  0
 78 82  2  0  0  0  0
 78178  1  0  0  0  0
 79 84  1  0  0  0  0
 79179  1  0  0  0  0
 80 85  2  0  0  0  0
 80180  1  0  0  0  0
 81 83  2  0  0  0  0
 81181  1  0  0  0  0
 82 83  1  0  0  0  0
 82182  1  0  0  0  0
 83183  1  0  0  0  0
 84 86  2  0  0  0  0
 84184  1  0  0  0  0
 85 86  1  0  0  0  0
 85185  1  0  0  0  0
 86186  1  0  0  0  0
M  END
> <PUBCHEM_COMPOUND_CID>
516322
> <PUBCHEM_COMPOUND_CANONICALIZED>
1
> <PUBCHEM_CACTVS_COMPLEXITY>
1690
> <PUBCHEM_CACTVS_HBOND_ACCEPTOR>
10
> <PUBCHEM_CACTVS_HBOND_DONOR>
2
> <PUBCHEM_CACTVS_ROTATABLE_BOND>
22
> <PUBCHEM_CACTVS_SUBSKEYS>
AAADcfB/+AAAAAAAAAAAAAAAAAAAAWLFiwA8eMGDAAAAAAAB9AAAHgAICAAADSjBngQyiJMIAgCqAyTyTACSBAAhggAY2CG4ZJgKIDLA0fGE5AhkiADYyAeYyOCOgAAAAAAAAAAAAAAAAAAAAAAAAAAAAA==
> <PUBCHEM_IUPAC_OPENEYE_NAME>
(2R)-2-cyclohexyl-2-[(3S,4S)-3-[[4-[3-ethyl-5-(2-phenylethyl)pyrazol-1-yl]-1-piperidyl]methyl]-4-phenyl-pyrrolidin-1-yl]acetic acid;(2R)-2-cyclohexyl-2-[(3S,4S)-3-[[4-[5-ethyl-3-(2-phenylethyl)pyrazol-1-yl]-1-piperidyl]methyl]-4-phenyl-pyrrolidin-1-yl]acetic acid
> <PUBCHEM_IUPAC_CAS_NAME>
(2R)-2-cyclohexyl-2-[(3S,4S)-3-[[4-[3-ethyl-5-(2-phenylethyl)-1-pyrazolyl]-1-piperidinyl]methyl]-4-phenyl-1-pyrrolidinyl]acetic acid;(2R)-2-cyclohexyl-2-[(3S,4S)-3-[[4-[5-ethyl-3-(2-phenylethyl)-1-pyrazolyl]-1-piperidinyl]methyl]-4-phenyl-1-pyrrolidinyl]acetic acid
> <PUBCHEM_IUPAC_NAME_MARKUP>
(2<I>R</I>)-2-cyclohexyl-2-[(3<I>S</I>,4<I>S</I>)-3-[[4-[3-ethyl-5-(2-phenylethyl)pyrazol-1-yl]piperidin-1-yl]methyl]-4-phenylpyrrolidin-1-yl]acetic acid;(2<I>R</I>)-2-cyclohexyl-2-[(3<I>S</I>,4<I>S</I>)-3-[[4-[5-ethyl-3-(2-phenylethyl)pyrazol-1-yl]piperidin-1-yl]methyl]-4-phenylpyrrolidin-1-yl]acetic acid
> <PUBCHEM_IUPAC_NAME>
(2R)-2-cyclohexyl-2-[(3S,4S)-3-[[4-[3-ethyl-5-(2-phenylethyl)pyrazol-1-yl]piperidin-1-yl]methyl]-4-phenylpyrrolidin-1-yl]acetic acid;(2R)-2-cyclohexyl-2-[(3S,4S)-3-[[4-[5-ethyl-3-(2-phenylethyl)pyrazol-1-yl]piperidin-1-yl]methyl]-4-phenylpyrrolidin-1-yl]acetic acid
> <PUBCHEM_IUPAC_SYSTEMATIC_NAME>
(2R)-2-cyclohexyl-2-[(3S,4S)-3-[[4-[3-ethyl-5-(2-phenylethyl)pyrazol-1-yl]piperidin-1-yl]methyl]-4-phenyl-pyrrolidin-1-yl]ethanoic acid;(2R)-2-cyclohexyl-2-[(3S,4S)-3-[[4-[5-ethyl-3-(2-phenylethyl)pyrazol-1-yl]piperidin-1-yl]methyl]-4-phenyl-pyrrolidin-1-yl]ethanoic acid
> <PUBCHEM_IUPAC_TRADITIONAL_NAME>
(2R)-2-cyclohexyl-2-[(3S,4S)-3-[[4-(3-ethyl-5-phenethyl-pyrazol-1-yl)piperidino]methyl]-4-phenyl-pyrrolidino]acetic acid;(2R)-2-cyclohexyl-2-[(3S,4S)-3-[[4-(5-ethyl-3-phenethyl-pyrazol-1-yl)piperidino]methyl]-4-phenyl-pyrrolidino]acetic acid
> <PUBCHEM_IUPAC_INCHI>
InChI=1S/2C37H50N4O2/c1-2-33-24-32(19-18-28-12-6-3-7-13-28)38-41(33)34-20-22-39(23-21-34)25-31-26-40(27-35(31)29-14-8-4-9-15-29)36(37(42)43)30-16-10-5-11-17-30;1-2-32-24-34(19-18-28-12-6-3-7-13-28)41(38-32)33-20-22-39(23-21-33)25-31-26-40(27-35(31)29-14-8-4-9-15-29)36(37(42)43)30-16-10-5-11-17-30/h3-4,6-9,12-15,24,30-31,34-36H,2,5,10-11,16-23,25-27H2,1H3,(H,42,43);3-4,6-9,12-15,24,30-31,33,35-36H,2,5,10-11,16-23,25-27H2,1H3,(H,42,43)/t2*31-,35+,36+/m00/s1
> <PUBCHEM_IUPAC_INCHIKEY>
ZMIBHKUKCCQFCM-CVWOWUKLSA-N
> <PUBCHEM_EXACT_MASS>
1164.78675370
> <PUBCHEM_MOLECULAR_FORMULA>
C74H100N8O4
> <PUBCHEM_MOLECULAR_WEIGHT>
1165.6
> <PUBCHEM_OPENEYE_CAN_SMILES>
CCC1=CC(=NN1C2CCN(CC2)CC3CN(CC3C4=CC=CC=C4)C(C5CCCCC5)C(=O)O)CCC6=CC=CC=C6.CCC1=NN(C(=C1)CCC2=CC=CC=C2)C3CCN(CC3)CC4CN(CC4C5=CC=CC=C5)C(C6CCCCC6)C(=O)O
> <PUBCHEM_OPENEYE_ISO_SMILES>
CCC1=CC(=NN1C2CCN(CC2)C[C@H]3CN(C[C@@H]3C4=CC=CC=C4)[C@H](C5CCCCC5)C(=O)O)CCC6=CC=CC=C6.CCC1=NN(C(=C1)CCC2=CC=CC=C2)C3CCN(CC3)C[C@H]4CN(C[C@@H]4C5=CC=CC=C5)[C@H](C6CCCCC6)C(=O)O
> <PUBCHEM_CACTVS_TPSA>
123
> <PUBCHEM_MONOISOTOPIC_WEIGHT>
1164.78675370
> <PUBCHEM_TOTAL_CHARGE>
0
> <PUBCHEM_HEAVY_ATOM_COUNT>
86
> <PUBCHEM_ATOM_DEF_STEREO_COUNT>
6
> <PUBCHEM_ATOM_UDEF_STEREO_COUNT>
0
> <PUBCHEM_BOND_DEF_STEREO_COUNT>
0
> <PUBCHEM_BOND_UDEF_STEREO_COUNT>
0
> <PUBCHEM_ISOTOPIC_ATOM_COUNT>
0
> <PUBCHEM_COMPONENT_COUNT>
2
> <PUBCHEM_CACTVS_TAUTO_COUNT>
-1
> <PUBCHEM_COORDINATE_TYPE>
1
5
255
> <PUBCHEM_BONDANNOTATIONS>
10  12  8
10  60  8
11  67  8
12  66  8
13  25  6
14  26  6
15  31  5
16  32  5
21  45  5
22  46  5
31  51  8
31  52  8
32  53  8
32  54  8
51  55  8
52  56  8
53  57  8
54  58  8
55  61  8
56  61  8
57  62  8
58  62  8
59  63  8
60  65  8
63  67  8
65  66  8
74  77  8
74  78  8
76  79  8
76  80  8
77  81  8
78  82  8
79  84  8
80  85  8
81  83  8
82  83  8
84  86  8
85  86  8
9  11  8
9  59  8
$$$$
