516359
  -OEChem-10302200282D
 88 94  0     1  0  0  0  0  0999 V2000
    9.0269   -4.0752    0.0000 O   0  0  0  0  0  0  0  0  0  0  0  0
    7.6256   -5.0932    0.0000 O   0  0  0  0  0  0  0  0  0  0  0  0
    6.4500   -3.4752    0.0000 N   0  0  3  0  0  0  0  0  0  0  0  0
    4.0013   -1.6388    0.0000 N   0  0  0  0  0  0  0  0  0  0  0  0
    4.5013    2.9001    0.0000 N   0  0  0  0  0  0  0  0  0  0  0  0
    4.8104    1.9490    0.0000 N   0  0  0  0  0  0  0  0  0  0  0  0
    4.8674   -3.1388    0.0000 C   0  0  2  0  0  0  0  0  0  0  0  0
    4.9719   -4.1333    0.0000 C   0  0  2  0  0  0  0  0  0  0  0  0
    2.9136    3.7091    0.0000 C   0  0  0  0  0  0  0  0  0  0  0  0
    5.7809   -2.7320    0.0000 C   0  0  0  0  0  0  0  0  0  0  0  0
    5.9500   -4.3412    0.0000 C   0  0  0  0  0  0  0  0  0  0  0  0
    7.4446   -3.3707    0.0000 C   0  0  2  0  0  0  0  0  0  0  0  0
    2.0000    4.1158    0.0000 C   0  0  0  0  0  0  0  0  0  0  0  0
    2.1045    3.1213    0.0000 C   0  0  0  0  0  0  0  0  0  0  0  0
    4.0013   -2.6388    0.0000 C   0  0  0  0  0  0  0  0  0  0  0  0
    7.8513   -2.4571    0.0000 C   0  0  0  0  0  0  0  0  0  0  0  0
    4.0013    0.3612    0.0000 C   0  0  0  0  0  0  0  0  0  0  0  0
    3.5013    2.9001    0.0000 C   0  0  0  0  0  0  0  0  0  0  0  0
    7.2635   -1.6481    0.0000 C   0  0  0  0  0  0  0  0  0  0  0  0
    8.8458   -2.3526    0.0000 C   0  0  0  0  0  0  0  0  0  0  0  0
    3.1353   -1.1388    0.0000 C   0  0  0  0  0  0  0  0  0  0  0  0
    4.8674   -1.1388    0.0000 C   0  0  0  0  0  0  0  0  0  0  0  0
    3.1353   -0.1388    0.0000 C   0  0  0  0  0  0  0  0  0  0  0  0
    4.8674   -0.1388    0.0000 C   0  0  0  0  0  0  0  0  0  0  0  0
    4.2287   -4.8024    0.0000 C   0  0  0  0  0  0  0  0  0  0  0  0
    3.3203    4.6226    0.0000 C   0  0  0  0  0  0  0  0  0  0  0  0
    4.0013    1.3612    0.0000 C   0  0  0  0  0  0  0  0  0  0  0  0
    7.6702   -0.7346    0.0000 C   0  0  0  0  0  0  0  0  0  0  0  0
    9.2526   -1.4390    0.0000 C   0  0  0  0  0  0  0  0  0  0  0  0
    8.6648   -0.6300    0.0000 C   0  0  0  0  0  0  0  0  0  0  0  0
    3.1923    1.9490    0.0000 C   0  0  0  0  0  0  0  0  0  0  0  0
    8.0323   -4.1797    0.0000 C   0  0  0  0  0  0  0  0  0  0  0  0
    3.2777   -4.4934    0.0000 C   0  0  0  0  0  0  0  0  0  0  0  0
    4.4366   -5.7806    0.0000 C   0  0  0  0  0  0  0  0  0  0  0  0
    2.7325    5.4316    0.0000 C   0  0  0  0  0  0  0  0  0  0  0  0
    4.3148    4.7272    0.0000 C   0  0  0  0  0  0  0  0  0  0  0  0
    2.5345   -5.1626    0.0000 C   0  0  0  0  0  0  0  0  0  0  0  0
    3.6935   -6.4497    0.0000 C   0  0  0  0  0  0  0  0  0  0  0  0
    3.1392    6.3452    0.0000 C   0  0  0  0  0  0  0  0  0  0  0  0
    4.7215    5.6407    0.0000 C   0  0  0  0  0  0  0  0  0  0  0  0
    2.7424   -6.1407    0.0000 C   0  0  0  0  0  0  0  0  0  0  0  0
    4.1338    6.4497    0.0000 C   0  0  0  0  0  0  0  0  0  0  0  0
    4.3474   -3.4765    0.0000 H   0  0  0  0  0  0  0  0  0  0  0  0
    5.1324   -4.7322    0.0000 H   0  0  0  0  0  0  0  0  0  0  0  0
    6.2825   -2.3676    0.0000 H   0  0  0  0  0  0  0  0  0  0  0  0
    5.4709   -2.1951    0.0000 H   0  0  0  0  0  0  0  0  0  0  0  0
    5.7584   -4.9309    0.0000 H   0  0  0  0  0  0  0  0  0  0  0  0
    6.5164   -4.5934    0.0000 H   0  0  0  0  0  0  0  0  0  0  0  0
    7.1924   -3.9371    0.0000 H   0  0  0  0  0  0  0  0  0  0  0  0
    2.1500    4.7174    0.0000 H   0  0  0  0  0  0  0  0  0  0  0  0
    1.3815    4.1591    0.0000 H   0  0  0  0  0  0  0  0  0  0  0  0
    1.5086    2.9504    0.0000 H   0  0  0  0  0  0  0  0  0  0  0  0
    2.3763    2.5640    0.0000 H   0  0  0  0  0  0  0  0  0  0  0  0
    3.3908   -2.5311    0.0000 H   0  0  0  0  0  0  0  0  0  0  0  0
    3.7893   -3.2214    0.0000 H   0  0  0  0  0  0  0  0  0  0  0  0
    8.2157   -2.9587    0.0000 H   0  0  0  0  0  0  0  0  0  0  0  0
    4.5383    0.6712    0.0000 H   0  0  0  0  0  0  0  0  0  0  0  0
    6.7495   -1.3014    0.0000 H   0  0  0  0  0  0  0  0  0  0  0  0
    6.8328   -2.0941    0.0000 H   0  0  0  0  0  0  0  0  0  0  0  0
    8.8026   -2.9711    0.0000 H   0  0  0  0  0  0  0  0  0  0  0  0
    9.4474   -2.5026    0.0000 H   0  0  0  0  0  0  0  0  0  0  0  0
    2.5247   -1.0311    0.0000 H   0  0  0  0  0  0  0  0  0  0  0  0
    2.9232   -1.7214    0.0000 H   0  0  0  0  0  0  0  0  0  0  0  0
    5.0794   -1.7214    0.0000 H   0  0  0  0  0  0  0  0  0  0  0  0
    5.4779   -1.0311    0.0000 H   0  0  0  0  0  0  0  0  0  0  0  0
    2.9232    0.4438    0.0000 H   0  0  0  0  0  0  0  0  0  0  0  0
    2.5247   -0.2464    0.0000 H   0  0  0  0  0  0  0  0  0  0  0  0
    5.4779   -0.2464    0.0000 H   0  0  0  0  0  0  0  0  0  0  0  0
    5.0794    0.4438    0.0000 H   0  0  0  0  0  0  0  0  0  0  0  0
    7.7135   -0.1161    0.0000 H   0  0  0  0  0  0  0  0  0  0  0  0
    7.0687   -0.5846    0.0000 H   0  0  0  0  0  0  0  0  0  0  0  0
    9.7666   -1.7857    0.0000 H   0  0  0  0  0  0  0  0  0  0  0  0
    9.6832   -0.9931    0.0000 H   0  0  0  0  0  0  0  0  0  0  0  0
    9.2220   -0.3582    0.0000 H   0  0  0  0  0  0  0  0  0  0  0  0
    8.4939   -0.0340    0.0000 H   0  0  0  0  0  0  0  0  0  0  0  0
    2.6027    1.7574    0.0000 H   0  0  0  0  0  0  0  0  0  0  0  0
    5.4000    1.7574    0.0000 H   0  0  0  0  0  0  0  0  0  0  0  0
    3.1488   -3.8870    0.0000 H   0  0  0  0  0  0  0  0  0  0  0  0
    5.0263   -5.9722    0.0000 H   0  0  0  0  0  0  0  0  0  0  0  0
    2.1159    5.3668    0.0000 H   0  0  0  0  0  0  0  0  0  0  0  0
    4.6792    4.2256    0.0000 H   0  0  0  0  0  0  0  0  0  0  0  0
    1.9449   -4.9710    0.0000 H   0  0  0  0  0  0  0  0  0  0  0  0
    3.8224   -7.0562    0.0000 H   0  0  0  0  0  0  0  0  0  0  0  0
    2.7748    6.8468    0.0000 H   0  0  0  0  0  0  0  0  0  0  0  0
    5.3381    5.7055    0.0000 H   0  0  0  0  0  0  0  0  0  0  0  0
    9.3913   -4.5767    0.0000 H   0  0  0  0  0  0  0  0  0  0  0  0
    2.2817   -6.5556    0.0000 H   0  0  0  0  0  0  0  0  0  0  0  0
    4.3859    7.0161    0.0000 H   0  0  0  0  0  0  0  0  0  0  0  0
  1 32  1  0  0  0  0
  1 86  1  0  0  0  0
  2 32  2  0  0  0  0
  3 10  1  0  0  0  0
  3 11  1  0  0  0  0
  3 12  1  0  0  0  0
  4 15  1  0  0  0  0
  4 21  1  0  0  0  0
  4 22  1  0  0  0  0
  5  6  1  0  0  0  0
  5 18  2  0  0  0  0
  6 27  1  0  0  0  0
  6 77  1  0  0  0  0
  7  8  1  0  0  0  0
  7 10  1  0  0  0  0
  7 15  1  1  0  0  0
  7 43  1  0  0  0  0
  8 11  1  0  0  0  0
  8 25  1  6  0  0  0
  8 44  1  0  0  0  0
  9 13  1  0  0  0  0
  9 14  1  0  0  0  0
  9 18  1  0  0  0  0
  9 26  1  0  0  0  0
 10 45  1  0  0  0  0
 10 46  1  0  0  0  0
 11 47  1  0  0  0  0
 11 48  1  0  0  0  0
 12 16  1  0  0  0  0
 12 32  1  6  0  0  0
 12 49  1  0  0  0  0
 13 14  1  0  0  0  0
 13 50  1  0  0  0  0
 13 51  1  0  0  0  0
 14 52  1  0  0  0  0
 14 53  1  0  0  0  0
 15 54  1  0  0  0  0
 15 55  1  0  0  0  0
 16 19  1  0  0  0  0
 16 20  1  0  0  0  0
 16 56  1  0  0  0  0
 17 23  1  0  0  0  0
 17 24  1  0  0  0  0
 17 27  1  0  0  0  0
 17 57  1  0  0  0  0
 18 31  1  0  0  0  0
 19 28  1  0  0  0  0
 19 58  1  0  0  0  0
 19 59  1  0  0  0  0
 20 29  1  0  0  0  0
 20 60  1  0  0  0  0
 20 61  1  0  0  0  0
 21 23  1  0  0  0  0
 21 62  1  0  0  0  0
 21 63  1  0  0  0  0
 22 24  1  0  0  0  0
 22 64  1  0  0  0  0
 22 65  1  0  0  0  0
 23 66  1  0  0  0  0
 23 67  1  0  0  0  0
 24 68  1  0  0  0  0
 24 69  1  0  0  0  0
 25 33  2  0  0  0  0
 25 34  1  0  0  0  0
 26 35  2  0  0  0  0
 26 36  1  0  0  0  0
 27 31  2  0  0  0  0
 28 30  1  0  0  0  0
 28 70  1  0  0  0  0
 28 71  1  0  0  0  0
 29 30  1  0  0  0  0
 29 72  1  0  0  0  0
 29 73  1  0  0  0  0
 30 74  1  0  0  0  0
 30 75  1  0  0  0  0
 31 76  1  0  0  0  0
 33 37  1  0  0  0  0
 33 78  1  0  0  0  0
 34 38  2  0  0  0  0
 34 79  1  0  0  0  0
 35 39  1  0  0  0  0
 35 80  1  0  0  0  0
 36 40  2  0  0  0  0
 36 81  1  0  0  0  0
 37 41  2  0  0  0  0
 37 82  1  0  0  0  0
 38 41  1  0  0  0  0
 38 83  1  0  0  0  0
 39 42  2  0  0  0  0
 39 84  1  0  0  0  0
 40 42  1  0  0  0  0
 40 85  1  0  0  0  0
 41 87  1  0  0  0  0
 42 88  1  0  0  0  0
M  END
> <PUBCHEM_COMPOUND_CID>
516359
> <PUBCHEM_COMPOUND_CANONICALIZED>
1
> <PUBCHEM_CACTVS_COMPLEXITY>
883
> <PUBCHEM_CACTVS_HBOND_ACCEPTOR>
5
> <PUBCHEM_CACTVS_HBOND_DONOR>
2
> <PUBCHEM_CACTVS_ROTATABLE_BOND>
9
> <PUBCHEM_CACTVS_SUBSKEYS>
AAADcfB/sAAAAAAAAAAAAAAAGAAAAWLAAAA8YMEAAAAAAAAB0AAAHgAYCAAADyjBngQwiJNjAgCqAyTySACSBAAgAgAYuSG4ZJgKIDKA0fGE5ABkmACYyAeYyOCPgAAAAAAAAAAAAAAAAAAAAAAAAAAAAA==
> <PUBCHEM_IUPAC_OPENEYE_NAME>
(2R)-2-cyclohexyl-2-[(3S,4S)-3-phenyl-4-[[4-[3-(1-phenylcyclopropyl)-1H-pyrazol-5-yl]-1-piperidyl]methyl]pyrrolidin-1-yl]acetic acid
> <PUBCHEM_IUPAC_CAS_NAME>
(2R)-2-cyclohexyl-2-[(3S,4S)-3-phenyl-4-[[4-[3-(1-phenylcyclopropyl)-1H-pyrazol-5-yl]-1-piperidinyl]methyl]-1-pyrrolidinyl]acetic acid
> <PUBCHEM_IUPAC_NAME_MARKUP>
(2<I>R</I>)-2-cyclohexyl-2-[(3<I>S</I>,4<I>S</I>)-3-phenyl-4-[[4-[3-(1-phenylcyclopropyl)-1<I>H</I>-pyrazol-5-yl]piperidin-1-yl]methyl]pyrrolidin-1-yl]acetic acid
> <PUBCHEM_IUPAC_NAME>
(2R)-2-cyclohexyl-2-[(3S,4S)-3-phenyl-4-[[4-[3-(1-phenylcyclopropyl)-1H-pyrazol-5-yl]piperidin-1-yl]methyl]pyrrolidin-1-yl]acetic acid
> <PUBCHEM_IUPAC_SYSTEMATIC_NAME>
(2R)-2-cyclohexyl-2-[(3S,4S)-3-phenyl-4-[[4-[3-(1-phenylcyclopropyl)-1H-pyrazol-5-yl]piperidin-1-yl]methyl]pyrrolidin-1-yl]ethanoic acid
> <PUBCHEM_IUPAC_TRADITIONAL_NAME>
(2R)-2-cyclohexyl-2-[(3S,4S)-3-phenyl-4-[[4-[3-(1-phenylcyclopropyl)-1H-pyrazol-5-yl]piperidino]methyl]pyrrolidino]acetic acid
> <PUBCHEM_IUPAC_INCHI>
InChI=1S/C36H46N4O2/c41-35(42)34(28-12-6-2-7-13-28)40-24-29(31(25-40)26-10-4-1-5-11-26)23-39-20-16-27(17-21-39)32-22-33(38-37-32)36(18-19-36)30-14-8-3-9-15-30/h1,3-5,8-11,14-15,22,27-29,31,34H,2,6-7,12-13,16-21,23-25H2,(H,37,38)(H,41,42)/t29-,31+,34+/m0/s1
> <PUBCHEM_IUPAC_INCHIKEY>
GIURYSNHZFROEW-JUERCWOXSA-N
> <PUBCHEM_XLOGP3_AA>
4.6
> <PUBCHEM_EXACT_MASS>
566.36207672
> <PUBCHEM_MOLECULAR_FORMULA>
C36H46N4O2
> <PUBCHEM_MOLECULAR_WEIGHT>
566.8
> <PUBCHEM_OPENEYE_CAN_SMILES>
C1CCC(CC1)C(C(=O)O)N2CC(C(C2)C3=CC=CC=C3)CN4CCC(CC4)C5=CC(=NN5)C6(CC6)C7=CC=CC=C7
> <PUBCHEM_OPENEYE_ISO_SMILES>
C1CCC(CC1)[C@H](C(=O)O)N2C[C@@H]([C@H](C2)C3=CC=CC=C3)CN4CCC(CC4)C5=CC(=NN5)C6(CC6)C7=CC=CC=C7
> <PUBCHEM_CACTVS_TPSA>
72.5
> <PUBCHEM_MONOISOTOPIC_WEIGHT>
566.36207672
> <PUBCHEM_TOTAL_CHARGE>
0
> <PUBCHEM_HEAVY_ATOM_COUNT>
42
> <PUBCHEM_ATOM_DEF_STEREO_COUNT>
3
> <PUBCHEM_ATOM_UDEF_STEREO_COUNT>
0
> <PUBCHEM_BOND_DEF_STEREO_COUNT>
0
> <PUBCHEM_BOND_UDEF_STEREO_COUNT>
0
> <PUBCHEM_ISOTOPIC_ATOM_COUNT>
0
> <PUBCHEM_COMPONENT_COUNT>
1
> <PUBCHEM_CACTVS_TAUTO_COUNT>
-1
> <PUBCHEM_COORDINATE_TYPE>
1
5
255
> <PUBCHEM_BONDANNOTATIONS>
12  32  6
18  31  8
25  33  8
25  34  8
26  35  8
26  36  8
27  31  8
33  37  8
34  38  8
35  39  8
36  40  8
37  41  8
38  41  8
39  42  8
40  42  8
5  18  8
5  6  8
6  27  8
7  15  5
8  25  6
$$$$
