516393
  -OEChem-10302200282D
 52 54  0     1  0  0  0  0  0999 V2000
    2.4900   -2.5561    0.0000 O   0  0  0  0  0  0  0  0  0  0  0  0
    3.9999   -3.4047    0.0000 O   0  0  0  0  0  0  0  0  0  0  0  0
    6.6179    2.9312    0.0000 O   0  0  0  0  0  0  0  0  0  0  0  0
    9.2559    1.4037    0.0000 O   0  0  0  0  0  0  0  0  0  0  0  0
    4.8738   -1.1381    0.0000 C   0  0  2  0  0  0  0  0  0  0  0  0
    4.8738   -0.1381    0.0000 C   0  0  2  0  0  0  0  0  0  0  0  0
    3.9798   -1.6728    0.0000 C   0  0  3  0  0  0  0  0  0  0  0  0
    3.9798    0.3966    0.0000 C   0  0  0  0  0  0  0  0  0  0  0  0
    5.7398   -1.6381    0.0000 C   0  0  0  0  0  0  0  0  0  0  0  0
    3.0738   -1.1589    0.0000 C   0  0  0  0  0  0  0  0  0  0  0  0
    3.0738   -0.1173    0.0000 C   0  0  0  0  0  0  0  0  0  0  0  0
    5.7398    0.3619    0.0000 C   0  0  0  0  0  0  0  0  0  0  0  0
    6.6058   -1.1381    0.0000 C   0  0  0  0  0  0  0  0  0  0  0  0
    4.8738    0.8619    0.0000 C   0  0  0  0  0  0  0  0  0  0  0  0
    6.6058   -0.1381    0.0000 C   0  0  0  0  0  0  0  0  0  0  0  0
    4.4898   -2.5329    0.0000 C   0  0  0  0  0  0  0  0  0  0  0  0
    3.4899   -2.5445    0.0000 C   0  0  0  0  0  0  0  0  0  0  0  0
    5.7238    1.4034    0.0000 C   0  0  0  0  0  0  0  0  0  0  0  0
    7.5158    0.3688    0.0000 C   0  0  0  0  0  0  0  0  0  0  0  0
    6.6218    1.9312    0.0000 C   0  0  0  0  0  0  0  0  0  0  0  0
    7.5239    1.4104    0.0000 C   0  0  0  0  0  0  0  0  0  0  0  0
    8.3918    1.9070    0.0000 C   0  0  0  0  0  0  0  0  0  0  0  0
    2.0000   -3.4278    0.0000 C   0  0  0  0  0  0  0  0  0  0  0  0
    5.7500    3.4278    0.0000 C   0  0  0  0  0  0  0  0  0  0  0  0
    4.8803   -1.9881    0.0000 H   0  0  0  0  0  0  0  0  0  0  0  0
    4.3844    0.8664    0.0000 H   0  0  0  0  0  0  0  0  0  0  0  0
    3.5862    0.8756    0.0000 H   0  0  0  0  0  0  0  0  0  0  0  0
    5.3413   -2.1130    0.0000 H   0  0  0  0  0  0  0  0  0  0  0  0
    6.1383   -2.1130    0.0000 H   0  0  0  0  0  0  0  0  0  0  0  0
    2.4629   -1.0528    0.0000 H   0  0  0  0  0  0  0  0  0  0  0  0
    2.8647   -1.7426    0.0000 H   0  0  0  0  0  0  0  0  0  0  0  0
    2.8647    0.4664    0.0000 H   0  0  0  0  0  0  0  0  0  0  0  0
    2.4629   -0.2234    0.0000 H   0  0  0  0  0  0  0  0  0  0  0  0
    6.8179   -1.7207    0.0000 H   0  0  0  0  0  0  0  0  0  0  0  0
    7.2164   -1.0304    0.0000 H   0  0  0  0  0  0  0  0  0  0  0  0
    5.4938    0.8619    0.0000 H   0  0  0  0  0  0  0  0  0  0  0  0
    4.8738    1.4819    0.0000 H   0  0  0  0  0  0  0  0  0  0  0  0
    4.2538    0.8619    0.0000 H   0  0  0  0  0  0  0  0  0  0  0  0
    3.9565   -2.8491    0.0000 H   0  0  0  0  0  0  0  0  0  0  0  0
    4.8060   -3.0663    0.0000 H   0  0  0  0  0  0  0  0  0  0  0  0
    5.0231   -2.2168    0.0000 H   0  0  0  0  0  0  0  0  0  0  0  0
    5.1833    1.7072    0.0000 H   0  0  0  0  0  0  0  0  0  0  0  0
    8.0491    0.0526    0.0000 H   0  0  0  0  0  0  0  0  0  0  0  0
    8.7922    2.3804    0.0000 H   0  0  0  0  0  0  0  0  0  0  0  0
    7.9951    2.3835    0.0000 H   0  0  0  0  0  0  0  0  0  0  0  0
    1.4595   -3.1240    0.0000 H   0  0  0  0  0  0  0  0  0  0  0  0
    1.6962   -3.9683    0.0000 H   0  0  0  0  0  0  0  0  0  0  0  0
    2.5405   -3.7316    0.0000 H   0  0  0  0  0  0  0  0  0  0  0  0
    6.0579    3.9659    0.0000 H   0  0  0  0  0  0  0  0  0  0  0  0
    5.2119    3.7358    0.0000 H   0  0  0  0  0  0  0  0  0  0  0  0
    5.4420    2.8897    0.0000 H   0  0  0  0  0  0  0  0  0  0  0  0
    9.7940    1.7116    0.0000 H   0  0  0  0  0  0  0  0  0  0  0  0
  1 17  1  0  0  0  0
  1 23  1  0  0  0  0
  2 17  2  0  0  0  0
  3 20  1  0  0  0  0
  3 24  1  0  0  0  0
  4 22  1  0  0  0  0
  4 52  1  0  0  0  0
  5  6  1  0  0  0  0
  5  7  1  0  0  0  0
  5  9  1  0  0  0  0
  5 25  1  6  0  0  0
  6  8  1  0  0  0  0
  6 12  1  0  0  0  0
  6 14  1  1  0  0  0
  7 10  1  0  0  0  0
  7 16  1  0  0  0  0
  7 17  1  0  0  0  0
  8 11  1  0  0  0  0
  8 26  1  0  0  0  0
  8 27  1  0  0  0  0
  9 13  1  0  0  0  0
  9 28  1  0  0  0  0
  9 29  1  0  0  0  0
 10 11  1  0  0  0  0
 10 30  1  0  0  0  0
 10 31  1  0  0  0  0
 11 32  1  0  0  0  0
 11 33  1  0  0  0  0
 12 15  1  0  0  0  0
 12 18  2  0  0  0  0
 13 15  1  0  0  0  0
 13 34  1  0  0  0  0
 13 35  1  0  0  0  0
 14 36  1  0  0  0  0
 14 37  1  0  0  0  0
 14 38  1  0  0  0  0
 15 19  2  0  0  0  0
 16 39  1  0  0  0  0
 16 40  1  0  0  0  0
 16 41  1  0  0  0  0
 18 20  1  0  0  0  0
 18 42  1  0  0  0  0
 19 21  1  0  0  0  0
 19 43  1  0  0  0  0
 20 21  2  0  0  0  0
 21 22  1  0  0  0  0
 22 44  1  0  0  0  0
 22 45  1  0  0  0  0
 23 46  1  0  0  0  0
 23 47  1  0  0  0  0
 23 48  1  0  0  0  0
 24 49  1  0  0  0  0
 24 50  1  0  0  0  0
 24 51  1  0  0  0  0
M  END
> <PUBCHEM_COMPOUND_CID>
516393
> <PUBCHEM_COMPOUND_CANONICALIZED>
1
> <PUBCHEM_CACTVS_COMPLEXITY>
478
> <PUBCHEM_CACTVS_HBOND_ACCEPTOR>
4
> <PUBCHEM_CACTVS_HBOND_DONOR>
1
> <PUBCHEM_CACTVS_ROTATABLE_BOND>
4
> <PUBCHEM_CACTVS_SUBSKEYS>
AAADceB4OAAAAAAAAAAAAAAAAAAAAAAAAAAwYMAAAAAAAADBAAAAGgAACAAADwSgmAIyDoAABgCIAiDSCAACCAAgIAAAiAEGCIgMNzKEMRqAcCAlwBEIuAeIyPCP4AADAAAYAADAAAYAADAAAAAAAAAAAA==
> <PUBCHEM_IUPAC_OPENEYE_NAME>
methyl (4aS,10aR)-7-(hydroxymethyl)-6-methoxy-1,4a-dimethyl-2,3,4,9,10,10a-hexahydrophenanthrene-1-carboxylate
> <PUBCHEM_IUPAC_CAS_NAME>
(4aS,10aR)-7-(hydroxymethyl)-6-methoxy-1,4a-dimethyl-2,3,4,9,10,10a-hexahydrophenanthrene-1-carboxylic acid methyl ester
> <PUBCHEM_IUPAC_NAME_MARKUP>
methyl (4<I>a</I><I>S</I>,10<I>a</I><I>R</I>)-7-(hydroxymethyl)-6-methoxy-1,4<I>a</I>-dimethyl-2,3,4,9,10,10<I>a</I>-hexahydrophenanthrene-1-carboxylate
> <PUBCHEM_IUPAC_NAME>
methyl (4aS,10aR)-7-(hydroxymethyl)-6-methoxy-1,4a-dimethyl-2,3,4,9,10,10a-hexahydrophenanthrene-1-carboxylate
> <PUBCHEM_IUPAC_SYSTEMATIC_NAME>
methyl (4aS,10aR)-7-(hydroxymethyl)-6-methoxy-1,4a-dimethyl-2,3,4,9,10,10a-hexahydrophenanthrene-1-carboxylate
> <PUBCHEM_IUPAC_TRADITIONAL_NAME>
(4aS,10aR)-6-methoxy-1,4a-dimethyl-7-methylol-2,3,4,9,10,10a-hexahydrophenanthrene-1-carboxylic acid methyl ester
> <PUBCHEM_IUPAC_INCHI>
InChI=1S/C20H28O4/c1-19-8-5-9-20(2,18(22)24-4)17(19)7-6-13-10-14(12-21)16(23-3)11-15(13)19/h10-11,17,21H,5-9,12H2,1-4H3/t17-,19-,20?/m1/s1
> <PUBCHEM_IUPAC_INCHIKEY>
NJGVQZYMPBBZCL-RIBPFEIKSA-N
> <PUBCHEM_XLOGP3_AA>
3.9
> <PUBCHEM_EXACT_MASS>
332.19875937
> <PUBCHEM_MOLECULAR_FORMULA>
C20H28O4
> <PUBCHEM_MOLECULAR_WEIGHT>
332.4
> <PUBCHEM_OPENEYE_CAN_SMILES>
CC12CCCC(C1CCC3=CC(=C(C=C23)OC)CO)(C)C(=O)OC
> <PUBCHEM_OPENEYE_ISO_SMILES>
C[C@]12CCCC([C@@H]1CCC3=CC(=C(C=C23)OC)CO)(C)C(=O)OC
> <PUBCHEM_CACTVS_TPSA>
55.8
> <PUBCHEM_MONOISOTOPIC_WEIGHT>
332.19875937
> <PUBCHEM_TOTAL_CHARGE>
0
> <PUBCHEM_HEAVY_ATOM_COUNT>
24
> <PUBCHEM_ATOM_DEF_STEREO_COUNT>
2
> <PUBCHEM_ATOM_UDEF_STEREO_COUNT>
1
> <PUBCHEM_BOND_DEF_STEREO_COUNT>
0
> <PUBCHEM_BOND_UDEF_STEREO_COUNT>
0
> <PUBCHEM_ISOTOPIC_ATOM_COUNT>
0
> <PUBCHEM_COMPONENT_COUNT>
1
> <PUBCHEM_CACTVS_TAUTO_COUNT>
-1
> <PUBCHEM_COORDINATE_TYPE>
1
5
255
> <PUBCHEM_BONDANNOTATIONS>
12  15  8
12  18  8
15  19  8
18  20  8
19  21  8
20  21  8
5  25  6
6  14  5
7  16  3
$$$$
