516324
  -OEChem-10302200282D
 93 98  0     1  0  0  0  0  0999 V2000
    2.3644   -4.4274    0.0000 O   0  0  0  0  0  0  0  0  0  0  0  0
    3.7657   -5.4455    0.0000 O   0  0  0  0  0  0  0  0  0  0  0  0
    4.9413   -3.8274    0.0000 N   0  0  3  0  0  0  0  0  0  0  0  0
    7.3900   -1.9910    0.0000 N   0  0  0  0  0  0  0  0  0  0  0  0
    7.3900    1.0090    0.0000 N   0  0  0  0  0  0  0  0  0  0  0  0
    8.1990    1.5968    0.0000 N   0  0  0  0  0  0  0  0  0  0  0  0
    6.5239   -3.4910    0.0000 C   0  0  2  0  0  0  0  0  0  0  0  0
    6.4194   -4.4856    0.0000 C   0  0  3  0  0  0  0  0  0  0  0  0
    5.6104   -3.0843    0.0000 C   0  0  0  0  0  0  0  0  0  0  0  0
    5.4413   -4.6935    0.0000 C   0  0  0  0  0  0  0  0  0  0  0  0
    3.9467   -3.7229    0.0000 C   0  0  2  0  0  0  0  0  0  0  0  0
    3.5400   -2.8094    0.0000 C   0  0  0  0  0  0  0  0  0  0  0  0
    7.3900   -2.9910    0.0000 C   0  0  0  0  0  0  0  0  0  0  0  0
    2.5455   -2.7048    0.0000 C   0  0  0  0  0  0  0  0  0  0  0  0
    4.1278   -2.0003    0.0000 C   0  0  0  0  0  0  0  0  0  0  0  0
    7.1626   -5.1547    0.0000 C   0  0  0  0  0  0  0  0  0  0  0  0
    2.1387   -1.7913    0.0000 C   0  0  0  0  0  0  0  0  0  0  0  0
    3.7210   -1.0868    0.0000 C   0  0  0  0  0  0  0  0  0  0  0  0
    6.5239   -1.4910    0.0000 C   0  0  0  0  0  0  0  0  0  0  0  0
    8.2560   -1.4910    0.0000 C   0  0  0  0  0  0  0  0  0  0  0  0
    7.3900    0.0090    0.0000 C   0  0  0  0  0  0  0  0  0  0  0  0
    2.7265   -0.9823    0.0000 C   0  0  0  0  0  0  0  0  0  0  0  0
    6.5239   -0.4910    0.0000 C   0  0  0  0  0  0  0  0  0  0  0  0
    8.2560   -0.4910    0.0000 C   0  0  0  0  0  0  0  0  0  0  0  0
    3.3590   -4.5319    0.0000 C   0  0  0  0  0  0  0  0  0  0  0  0
    8.1136   -4.8457    0.0000 C   0  0  0  0  0  0  0  0  0  0  0  0
    6.9546   -6.1328    0.0000 C   0  0  0  0  0  0  0  0  0  0  0  0
    6.5809    1.5968    0.0000 C   0  0  0  0  0  0  0  0  0  0  0  0
    8.8568   -5.5148    0.0000 C   0  0  0  0  0  0  0  0  0  0  0  0
    7.6978   -6.8020    0.0000 C   0  0  0  0  0  0  0  0  0  0  0  0
    8.6488   -6.4929    0.0000 C   0  0  0  0  0  0  0  0  0  0  0  0
    6.8900    2.5478    0.0000 C   0  0  0  0  0  0  0  0  0  0  0  0
    7.8900    2.5478    0.0000 C   0  0  0  0  0  0  0  0  0  0  0  0
    5.6299    1.2877    0.0000 C   0  0  0  0  0  0  0  0  0  0  0  0
    8.4777    3.3568    0.0000 C   0  0  0  0  0  0  0  0  0  0  0  0
    4.8867    1.9569    0.0000 C   0  0  0  0  0  0  0  0  0  0  0  0
    8.0710    4.2704    0.0000 C   0  0  0  0  0  0  0  0  0  0  0  0
    8.6588    5.0794    0.0000 C   0  0  0  0  0  0  0  0  0  0  0  0
    8.2520    5.9929    0.0000 C   0  0  0  0  0  0  0  0  0  0  0  0
    9.6533    4.9749    0.0000 C   0  0  0  0  0  0  0  0  0  0  0  0
    8.8398    6.8020    0.0000 C   0  0  0  0  0  0  0  0  0  0  0  0
   10.2411    5.7839    0.0000 C   0  0  0  0  0  0  0  0  0  0  0  0
    9.8344    6.6974    0.0000 C   0  0  0  0  0  0  0  0  0  0  0  0
    6.4915   -2.8719    0.0000 H   0  0  0  0  0  0  0  0  0  0  0  0
    6.2589   -5.0844    0.0000 H   0  0  0  0  0  0  0  0  0  0  0  0
    5.9204   -2.5473    0.0000 H   0  0  0  0  0  0  0  0  0  0  0  0
    5.1088   -2.7199    0.0000 H   0  0  0  0  0  0  0  0  0  0  0  0
    4.8749   -4.9456    0.0000 H   0  0  0  0  0  0  0  0  0  0  0  0
    5.6328   -5.2831    0.0000 H   0  0  0  0  0  0  0  0  0  0  0  0
    4.1989   -4.2893    0.0000 H   0  0  0  0  0  0  0  0  0  0  0  0
    3.1756   -3.3110    0.0000 H   0  0  0  0  0  0  0  0  0  0  0  0
    7.6020   -3.5736    0.0000 H   0  0  0  0  0  0  0  0  0  0  0  0
    8.0005   -2.8834    0.0000 H   0  0  0  0  0  0  0  0  0  0  0  0
    1.9439   -2.8548    0.0000 H   0  0  0  0  0  0  0  0  0  0  0  0
    2.5887   -3.3233    0.0000 H   0  0  0  0  0  0  0  0  0  0  0  0
    4.5585   -2.4463    0.0000 H   0  0  0  0  0  0  0  0  0  0  0  0
    4.6418   -1.6536    0.0000 H   0  0  0  0  0  0  0  0  0  0  0  0
    1.7080   -1.3453    0.0000 H   0  0  0  0  0  0  0  0  0  0  0  0
    1.6247   -2.1380    0.0000 H   0  0  0  0  0  0  0  0  0  0  0  0
    4.3226   -0.9368    0.0000 H   0  0  0  0  0  0  0  0  0  0  0  0
    3.6778   -0.4683    0.0000 H   0  0  0  0  0  0  0  0  0  0  0  0
    5.9134   -1.3834    0.0000 H   0  0  0  0  0  0  0  0  0  0  0  0
    6.3119   -2.0736    0.0000 H   0  0  0  0  0  0  0  0  0  0  0  0
    8.4680   -2.0736    0.0000 H   0  0  0  0  0  0  0  0  0  0  0  0
    8.8666   -1.3834    0.0000 H   0  0  0  0  0  0  0  0  0  0  0  0
    7.9269    0.3190    0.0000 H   0  0  0  0  0  0  0  0  0  0  0  0
    2.8974   -0.3863    0.0000 H   0  0  0  0  0  0  0  0  0  0  0  0
    2.1693   -0.7105    0.0000 H   0  0  0  0  0  0  0  0  0  0  0  0
    6.3119    0.0916    0.0000 H   0  0  0  0  0  0  0  0  0  0  0  0
    5.9134   -0.5987    0.0000 H   0  0  0  0  0  0  0  0  0  0  0  0
    8.8666   -0.5987    0.0000 H   0  0  0  0  0  0  0  0  0  0  0  0
    8.4680    0.0916    0.0000 H   0  0  0  0  0  0  0  0  0  0  0  0
    8.2425   -4.2392    0.0000 H   0  0  0  0  0  0  0  0  0  0  0  0
    6.3650   -6.3244    0.0000 H   0  0  0  0  0  0  0  0  0  0  0  0
    9.4464   -5.3232    0.0000 H   0  0  0  0  0  0  0  0  0  0  0  0
    7.5689   -7.4084    0.0000 H   0  0  0  0  0  0  0  0  0  0  0  0
    2.0000   -4.9290    0.0000 H   0  0  0  0  0  0  0  0  0  0  0  0
    9.1096   -6.9078    0.0000 H   0  0  0  0  0  0  0  0  0  0  0  0
    6.5255    3.0494    0.0000 H   0  0  0  0  0  0  0  0  0  0  0  0
    5.1413    0.9060    0.0000 H   0  0  0  0  0  0  0  0  0  0  0  0
    5.9210    0.7403    0.0000 H   0  0  0  0  0  0  0  0  0  0  0  0
    8.9084    2.9108    0.0000 H   0  0  0  0  0  0  0  0  0  0  0  0
    8.9918    3.7035    0.0000 H   0  0  0  0  0  0  0  0  0  0  0  0
    5.3016    2.4176    0.0000 H   0  0  0  0  0  0  0  0  0  0  0  0
    4.4260    2.3717    0.0000 H   0  0  0  0  0  0  0  0  0  0  0  0
    4.4719    1.4961    0.0000 H   0  0  0  0  0  0  0  0  0  0  0  0
    7.6403    4.7164    0.0000 H   0  0  0  0  0  0  0  0  0  0  0  0
    7.5570    3.9237    0.0000 H   0  0  0  0  0  0  0  0  0  0  0  0
    7.6354    6.0578    0.0000 H   0  0  0  0  0  0  0  0  0  0  0  0
    9.9055    4.4085    0.0000 H   0  0  0  0  0  0  0  0  0  0  0  0
    8.5877    7.3684    0.0000 H   0  0  0  0  0  0  0  0  0  0  0  0
   10.8577    5.7191    0.0000 H   0  0  0  0  0  0  0  0  0  0  0  0
   10.1988    7.1990    0.0000 H   0  0  0  0  0  0  0  0  0  0  0  0
  1 25  1  0  0  0  0
  1 77  1  0  0  0  0
  2 25  2  0  0  0  0
  3  9  1  0  0  0  0
  3 10  1  0  0  0  0
  3 11  1  0  0  0  0
  4 13  1  0  0  0  0
  4 19  1  0  0  0  0
  4 20  1  0  0  0  0
  5  6  1  0  0  0  0
  5 21  1  0  0  0  0
  5 28  1  0  0  0  0
  6 33  2  0  0  0  0
  7  8  1  0  0  0  0
  7  9  1  0  0  0  0
  7 13  1  6  0  0  0
  7 44  1  0  0  0  0
  8 10  1  0  0  0  0
  8 16  1  0  0  0  0
  8 45  1  0  0  0  0
  9 46  1  0  0  0  0
  9 47  1  0  0  0  0
 10 48  1  0  0  0  0
 10 49  1  0  0  0  0
 11 12  1  0  0  0  0
 11 25  1  1  0  0  0
 11 50  1  0  0  0  0
 12 14  1  0  0  0  0
 12 15  1  0  0  0  0
 12 51  1  0  0  0  0
 13 52  1  0  0  0  0
 13 53  1  0  0  0  0
 14 17  1  0  0  0  0
 14 54  1  0  0  0  0
 14 55  1  0  0  0  0
 15 18  1  0  0  0  0
 15 56  1  0  0  0  0
 15 57  1  0  0  0  0
 16 26  2  0  0  0  0
 16 27  1  0  0  0  0
 17 22  1  0  0  0  0
 17 58  1  0  0  0  0
 17 59  1  0  0  0  0
 18 22  1  0  0  0  0
 18 60  1  0  0  0  0
 18 61  1  0  0  0  0
 19 23  1  0  0  0  0
 19 62  1  0  0  0  0
 19 63  1  0  0  0  0
 20 24  1  0  0  0  0
 20 64  1  0  0  0  0
 20 65  1  0  0  0  0
 21 23  1  0  0  0  0
 21 24  1  0  0  0  0
 21 66  1  0  0  0  0
 22 67  1  0  0  0  0
 22 68  1  0  0  0  0
 23 69  1  0  0  0  0
 23 70  1  0  0  0  0
 24 71  1  0  0  0  0
 24 72  1  0  0  0  0
 26 29  1  0  0  0  0
 26 73  1  0  0  0  0
 27 30  2  0  0  0  0
 27 74  1  0  0  0  0
 28 32  2  0  0  0  0
 28 34  1  0  0  0  0
 29 31  2  0  0  0  0
 29 75  1  0  0  0  0
 30 31  1  0  0  0  0
 30 76  1  0  0  0  0
 31 78  1  0  0  0  0
 32 33  1  0  0  0  0
 32 79  1  0  0  0  0
 33 35  1  0  0  0  0
 34 36  1  0  0  0  0
 34 80  1  0  0  0  0
 34 81  1  0  0  0  0
 35 37  1  0  0  0  0
 35 82  1  0  0  0  0
 35 83  1  0  0  0  0
 36 84  1  0  0  0  0
 36 85  1  0  0  0  0
 36 86  1  0  0  0  0
 37 38  1  0  0  0  0
 37 87  1  0  0  0  0
 37 88  1  0  0  0  0
 38 39  2  0  0  0  0
 38 40  1  0  0  0  0
 39 41  1  0  0  0  0
 39 89  1  0  0  0  0
 40 42  2  0  0  0  0
 40 90  1  0  0  0  0
 41 43  2  0  0  0  0
 41 91  1  0  0  0  0
 42 43  1  0  0  0  0
 42 92  1  0  0  0  0
 43 93  1  0  0  0  0
M  END
> <PUBCHEM_COMPOUND_CID>
516324
> <PUBCHEM_COMPOUND_CANONICALIZED>
1
> <PUBCHEM_CACTVS_COMPLEXITY>
844
> <PUBCHEM_CACTVS_HBOND_ACCEPTOR>
5
> <PUBCHEM_CACTVS_HBOND_DONOR>
1
> <PUBCHEM_CACTVS_ROTATABLE_BOND>
11
> <PUBCHEM_CACTVS_SUBSKEYS>
AAADcfB/sAAAAAAAAAAAAAAAAAAAAWLAAAA8YMEAAAAAAAAB0AAAHgAICAAADSjBngQyiJMIAgCqAyTyTACSBAAhggAY2CG4ZJgKIDLA0fGE5AhkiADYyAeYyOCOgAAAAAAAAAAAAAAAAAAAAAAAAAAAAA==
> <PUBCHEM_IUPAC_OPENEYE_NAME>
(2R)-2-cyclohexyl-2-[(3S)-3-[[4-[5-ethyl-3-(2-phenylethyl)pyrazol-1-yl]-1-piperidyl]methyl]-4-phenyl-pyrrolidin-1-yl]acetic acid
> <PUBCHEM_IUPAC_CAS_NAME>
(2R)-2-cyclohexyl-2-[(3S)-3-[[4-[5-ethyl-3-(2-phenylethyl)-1-pyrazolyl]-1-piperidinyl]methyl]-4-phenyl-1-pyrrolidinyl]acetic acid
> <PUBCHEM_IUPAC_NAME_MARKUP>
(2<I>R</I>)-2-cyclohexyl-2-[(3<I>S</I>)-3-[[4-[5-ethyl-3-(2-phenylethyl)pyrazol-1-yl]piperidin-1-yl]methyl]-4-phenylpyrrolidin-1-yl]acetic acid
> <PUBCHEM_IUPAC_NAME>
(2R)-2-cyclohexyl-2-[(3S)-3-[[4-[5-ethyl-3-(2-phenylethyl)pyrazol-1-yl]piperidin-1-yl]methyl]-4-phenylpyrrolidin-1-yl]acetic acid
> <PUBCHEM_IUPAC_SYSTEMATIC_NAME>
(2R)-2-cyclohexyl-2-[(3S)-3-[[4-[5-ethyl-3-(2-phenylethyl)pyrazol-1-yl]piperidin-1-yl]methyl]-4-phenyl-pyrrolidin-1-yl]ethanoic acid
> <PUBCHEM_IUPAC_TRADITIONAL_NAME>
(2R)-2-cyclohexyl-2-[(3S)-3-[[4-(5-ethyl-3-phenethyl-pyrazol-1-yl)piperidino]methyl]-4-phenyl-pyrrolidino]acetic acid
> <PUBCHEM_IUPAC_INCHI>
InChI=1S/C37H50N4O2/c1-2-33-24-32(19-18-28-12-6-3-7-13-28)38-41(33)34-20-22-39(23-21-34)25-31-26-40(27-35(31)29-14-8-4-9-15-29)36(37(42)43)30-16-10-5-11-17-30/h3-4,6-9,12-15,24,30-31,34-36H,2,5,10-11,16-23,25-27H2,1H3,(H,42,43)/t31-,35?,36+/m0/s1
> <PUBCHEM_IUPAC_INCHIKEY>
CZTSJVHNDALIPA-DOKIROKCSA-N
> <PUBCHEM_XLOGP3_AA>
5.3
> <PUBCHEM_EXACT_MASS>
582.39337685
> <PUBCHEM_MOLECULAR_FORMULA>
C37H50N4O2
> <PUBCHEM_MOLECULAR_WEIGHT>
582.8
> <PUBCHEM_OPENEYE_CAN_SMILES>
CCC1=CC(=NN1C2CCN(CC2)CC3CN(CC3C4=CC=CC=C4)C(C5CCCCC5)C(=O)O)CCC6=CC=CC=C6
> <PUBCHEM_OPENEYE_ISO_SMILES>
CCC1=CC(=NN1C2CCN(CC2)C[C@H]3CN(CC3C4=CC=CC=C4)[C@H](C5CCCCC5)C(=O)O)CCC6=CC=CC=C6
> <PUBCHEM_CACTVS_TPSA>
61.6
> <PUBCHEM_MONOISOTOPIC_WEIGHT>
582.39337685
> <PUBCHEM_TOTAL_CHARGE>
0
> <PUBCHEM_HEAVY_ATOM_COUNT>
43
> <PUBCHEM_ATOM_DEF_STEREO_COUNT>
2
> <PUBCHEM_ATOM_UDEF_STEREO_COUNT>
1
> <PUBCHEM_BOND_DEF_STEREO_COUNT>
0
> <PUBCHEM_BOND_UDEF_STEREO_COUNT>
0
> <PUBCHEM_ISOTOPIC_ATOM_COUNT>
0
> <PUBCHEM_COMPONENT_COUNT>
1
> <PUBCHEM_CACTVS_TAUTO_COUNT>
-1
> <PUBCHEM_COORDINATE_TYPE>
1
5
255
> <PUBCHEM_BONDANNOTATIONS>
11  25  5
16  26  8
16  27  8
26  29  8
27  30  8
28  32  8
29  31  8
30  31  8
32  33  8
38  39  8
38  40  8
39  41  8
40  42  8
41  43  8
42  43  8
5  28  8
5  6  8
6  33  8
7  13  6
8  16  3
$$$$
