516478
  -OEChem-10302200282D
192194  0     1  0  0  0  0  0999 V2000
    6.1350    8.2209    0.0000 S   0  0  0  0  0  0  0  0  0  0  0  0
    3.4030   13.7209    0.0000 S   0  0  0  0  0  0  0  0  0  0  0  0
   12.9965    2.2208    0.0000 O   0  0  0  0  0  0  0  0  0  0  0  0
   12.8542    0.8662    0.0000 O   0  0  0  0  0  0  0  0  0  0  0  0
   13.8626    2.7208    0.0000 O   0  0  0  0  0  0  0  0  0  0  0  0
   11.2794   -2.3772    0.0000 O   0  0  0  0  0  0  0  0  0  0  0  0
   16.0632   12.7209    0.0000 O   0  0  0  0  0  0  0  0  0  0  0  0
   11.0715   -3.3554    0.0000 O   0  0  0  0  0  0  0  0  0  0  0  0
   14.3312    9.7209    0.0000 O   0  0  0  0  0  0  0  0  0  0  0  0
   11.1909   -6.9590    0.0000 O   0  0  0  0  0  0  0  0  0  0  0  0
   14.4599   -4.0756    0.0000 O   0  0  0  0  0  0  0  0  0  0  0  0
   14.3714   -8.6573    0.0000 O   0  0  0  0  0  0  0  0  0  0  0  0
   11.5991   12.2209    0.0000 O   0  0  0  0  0  0  0  0  0  0  0  0
   10.1204   -3.6644    0.0000 O   0  0  0  0  0  0  0  0  0  0  0  0
   10.7331    7.7209    0.0000 O   0  0  0  0  0  0  0  0  0  0  0  0
   12.4651    7.7209    0.0000 O   0  0  0  0  0  0  0  0  0  0  0  0
    8.8671    9.7209    0.0000 O   0  0  0  0  0  0  0  0  0  0  0  0
    6.1350   12.2209    0.0000 O   0  0  0  0  0  0  0  0  0  0  0  0
    2.5369   11.2209    0.0000 O   0  0  0  0  0  0  0  0  0  0  0  0
    3.4030    9.7209    0.0000 O   0  0  0  0  0  0  0  0  0  0  0  0
   11.1600    1.2263    0.0000 N   0  0  0  0  0  0  0  0  0  0  0  0
   12.1305    3.7208    0.0000 N   0  0  0  0  0  0  0  0  0  0  0  0
   12.4383   -1.0901    0.0000 N   0  0  0  0  0  0  0  0  0  0  0  0
   16.0632   10.7209    0.0000 N   0  0  0  0  0  0  0  0  0  0  0  0
   14.9374    6.9188    0.0000 N   0  0  0  0  0  0  0  0  0  0  0  0
   12.7657   -3.7155    0.0000 N   0  0  0  0  0  0  0  0  0  0  0  0
   12.3498   -5.6718    0.0000 N   0  0  0  0  0  0  0  0  0  0  0  0
   13.3312   11.2209    0.0000 N   0  0  0  0  0  0  0  0  0  0  0  0
   12.6772   -8.2972    0.0000 N   0  0  0  0  0  0  0  0  0  0  0  0
   15.6188   -2.7884    0.0000 N   0  0  0  0  0  0  0  0  0  0  0  0
   10.5991   10.7209    0.0000 N   0  0  0  0  0  0  0  0  0  0  0  0
   13.9555  -10.6136    0.0000 N   0  0  0  0  0  0  0  0  0  0  0  0
    8.9614   -4.9516    0.0000 N   0  0  0  0  0  0  0  0  0  0  0  0
    7.8671   11.2209    0.0000 N   0  0  0  0  0  0  0  0  0  0  0  0
   10.8945  -12.5188    0.0000 N   0  0  0  0  0  0  0  0  0  0  0  0
    5.1350   10.7209    0.0000 N   0  0  0  0  0  0  0  0  0  0  0  0
    9.7355  -13.8060    0.0000 N   0  0  0  0  0  0  0  0  0  0  0  0
    9.2003  -12.1587    0.0000 N   0  0  0  0  0  0  0  0  0  0  0  0
   11.2645    2.2208    0.0000 C   0  0  1  0  0  0  0  0  0  0  0  0
   10.3509    2.6276    0.0000 C   0  0  0  0  0  0  0  0  0  0  0  0
    9.6818    1.8844    0.0000 C   0  0  0  0  0  0  0  0  0  0  0  0
   10.1818    1.0184    0.0000 C   0  0  0  0  0  0  0  0  0  0  0  0
   12.1305    2.7208    0.0000 C   0  0  0  0  0  0  0  0  0  0  0  0
   11.9031    0.5572    0.0000 C   0  0  0  0  0  0  0  0  0  0  0  0
   11.6952   -0.4209    0.0000 C   0  0  2  0  0  0  0  0  0  0  0  0
   12.9965    4.2209    0.0000 C   0  0  1  0  0  0  0  0  0  0  0  0
   12.9965    5.2209    0.0000 C   0  0  0  0  0  0  0  0  0  0  0  0
   10.7441   -0.7300    0.0000 C   0  0  0  0  0  0  0  0  0  0  0  0
   13.8626    3.7208    0.0000 C   0  0  0  0  0  0  0  0  0  0  0  0
   13.8626    5.7209    0.0000 C   0  0  0  0  0  0  0  0  0  0  0  0
   12.2304   -2.0682    0.0000 C   0  0  0  0  0  0  0  0  0  0  0  0
   12.9736   -2.7374    0.0000 C   0  0  2  0  0  0  0  0  0  0  0  0
   14.7704    5.3157    0.0000 C   0  0  0  0  0  0  0  0  0  0  0  0
   13.9656    6.7096    0.0000 C   0  0  0  0  0  0  0  0  0  0  0  0
   15.1972   11.2209    0.0000 C   0  0  1  0  0  0  0  0  0  0  0  0
   15.4382    6.0600    0.0000 C   0  0  0  0  0  0  0  0  0  0  0  0
   13.9246   -2.4283    0.0000 C   0  0  0  0  0  0  0  0  0  0  0  0
   15.0810    4.3652    0.0000 C   0  0  0  0  0  0  0  0  0  0  0  0
   13.8361   -7.0101    0.0000 C   0  0  2  0  0  0  0  0  0  0  0  0
   12.8851   -7.3191    0.0000 C   0  0  1  0  0  0  0  0  0  0  0  0
   11.6067   -5.0027    0.0000 C   0  0  2  0  0  0  0  0  0  0  0  0
   15.1972   12.2209    0.0000 C   0  0  0  0  0  0  0  0  0  0  0  0
   11.8146   -4.0245    0.0000 C   0  0  0  0  0  0  0  0  0  0  0  0
   16.4167    5.8538    0.0000 C   0  0  0  0  0  0  0  0  0  0  0  0
   14.3312   10.7209    0.0000 C   0  0  0  0  0  0  0  0  0  0  0  0
   16.0595    4.1590    0.0000 C   0  0  0  0  0  0  0  0  0  0  0  0
   14.5793   -7.6792    0.0000 C   0  0  0  0  0  0  0  0  0  0  0  0
   12.1419   -6.6499    0.0000 C   0  0  0  0  0  0  0  0  0  0  0  0
   14.6678   -3.0975    0.0000 C   0  0  0  0  0  0  0  0  0  0  0  0
   16.7274    4.9033    0.0000 C   0  0  0  0  0  0  0  0  0  0  0  0
   10.6556   -5.3117    0.0000 C   0  0  0  0  0  0  0  0  0  0  0  0
   14.0440   -6.0319    0.0000 C   0  0  0  0  0  0  0  0  0  0  0  0
   12.4651   10.7209    0.0000 C   0  0  1  0  0  0  0  0  0  0  0  0
   15.5303   -7.3702    0.0000 C   0  0  0  0  0  0  0  0  0  0  0  0
   13.4203   -8.9664    0.0000 C   0  0  0  0  0  0  0  0  0  0  0  0
   13.2124   -9.9445    0.0000 C   0  0  2  0  0  0  0  0  0  0  0  0
   12.4651    9.7209    0.0000 C   0  0  0  0  0  0  0  0  0  0  0  0
   12.2613  -10.2535    0.0000 C   0  0  0  0  0  0  0  0  0  0  0  0
   11.5991   11.2209    0.0000 C   0  0  0  0  0  0  0  0  0  0  0  0
    9.9125   -4.6426    0.0000 C   0  0  0  0  0  0  0  0  0  0  0  0
   11.5991    9.2209    0.0000 C   0  0  0  0  0  0  0  0  0  0  0  0
   12.0534  -11.2317    0.0000 C   0  0  0  0  0  0  0  0  0  0  0  0
    9.7331   11.2209    0.0000 C   0  0  2  0  0  0  0  0  0  0  0  0
   11.1024  -11.5407    0.0000 C   0  0  0  0  0  0  0  0  0  0  0  0
   11.5991    8.2209    0.0000 C   0  0  0  0  0  0  0  0  0  0  0  0
    8.8671   10.7209    0.0000 C   0  0  0  0  0  0  0  0  0  0  0  0
    9.7331   12.2209    0.0000 C   0  0  0  0  0  0  0  0  0  0  0  0
    7.0010   10.7209    0.0000 C   0  0  1  0  0  0  0  0  0  0  0  0
    7.0010    9.7209    0.0000 C   0  0  0  0  0  0  0  0  0  0  0  0
    6.1350   11.2209    0.0000 C   0  0  0  0  0  0  0  0  0  0  0  0
    6.1350    9.2209    0.0000 C   0  0  0  0  0  0  0  0  0  0  0  0
    4.2690   11.2209    0.0000 C   0  0  1  0  0  0  0  0  0  0  0  0
    4.2690   12.2209    0.0000 C   0  0  0  0  0  0  0  0  0  0  0  0
    9.9434  -12.8278    0.0000 C   0  0  0  0  0  0  0  0  0  0  0  0
    3.4030   12.7209    0.0000 C   0  0  0  0  0  0  0  0  0  0  0  0
    3.4030   10.7209    0.0000 C   0  0  0  0  0  0  0  0  0  0  0  0
    5.2690    7.7209    0.0000 C   0  0  0  0  0  0  0  0  0  0  0  0
    2.5369   14.2209    0.0000 C   0  0  0  0  0  0  0  0  0  0  0  0
   11.7845    1.8832    0.0000 H   0  0  0  0  0  0  0  0  0  0  0  0
   10.6609    3.1645    0.0000 H   0  0  0  0  0  0  0  0  0  0  0  0
    9.8494    2.9920    0.0000 H   0  0  0  0  0  0  0  0  0  0  0  0
    9.2670    2.3452    0.0000 H   0  0  0  0  0  0  0  0  0  0  0  0
    9.1802    1.5200    0.0000 H   0  0  0  0  0  0  0  0  0  0  0  0
    9.6154    0.7662    0.0000 H   0  0  0  0  0  0  0  0  0  0  0  0
   10.3734    0.4288    0.0000 H   0  0  0  0  0  0  0  0  0  0  0  0
   11.5663   -1.0274    0.0000 H   0  0  0  0  0  0  0  0  0  0  0  0
   12.6675    4.0308    0.0000 H   0  0  0  0  0  0  0  0  0  0  0  0
   12.4596    4.5308    0.0000 H   0  0  0  0  0  0  0  0  0  0  0  0
   12.7845    5.8035    0.0000 H   0  0  0  0  0  0  0  0  0  0  0  0
   12.3860    5.1132    0.0000 H   0  0  0  0  0  0  0  0  0  0  0  0
   10.5526   -0.1403    0.0000 H   0  0  0  0  0  0  0  0  0  0  0  0
   10.1545   -0.9216    0.0000 H   0  0  0  0  0  0  0  0  0  0  0  0
   10.9357   -1.3196    0.0000 H   0  0  0  0  0  0  0  0  0  0  0  0
   13.0280   -0.8985    0.0000 H   0  0  0  0  0  0  0  0  0  0  0  0
   12.3839   -2.9290    0.0000 H   0  0  0  0  0  0  0  0  0  0  0  0
   16.6001   10.4109    0.0000 H   0  0  0  0  0  0  0  0  0  0  0  0
   13.5042    7.1236    0.0000 H   0  0  0  0  0  0  0  0  0  0  0  0
   15.1972   10.6009    0.0000 H   0  0  0  0  0  0  0  0  0  0  0  0
   14.4132   -2.0466    0.0000 H   0  0  0  0  0  0  0  0  0  0  0  0
   13.6336   -1.8809    0.0000 H   0  0  0  0  0  0  0  0  0  0  0  0
   15.1877    7.4860    0.0000 H   0  0  0  0  0  0  0  0  0  0  0  0
   13.2264   -4.1304    0.0000 H   0  0  0  0  0  0  0  0  0  0  0  0
   14.6670    3.9038    0.0000 H   0  0  0  0  0  0  0  0  0  0  0  0
   13.3754   -6.5952    0.0000 H   0  0  0  0  0  0  0  0  0  0  0  0
   12.2954   -7.5107    0.0000 H   0  0  0  0  0  0  0  0  0  0  0  0
   11.4778   -5.6091    0.0000 H   0  0  0  0  0  0  0  0  0  0  0  0
   14.9851   12.8035    0.0000 H   0  0  0  0  0  0  0  0  0  0  0  0
   14.5866   12.1132    0.0000 H   0  0  0  0  0  0  0  0  0  0  0  0
   16.8308    6.3153    0.0000 H   0  0  0  0  0  0  0  0  0  0  0  0
   14.0907   -8.0609    0.0000 H   0  0  0  0  0  0  0  0  0  0  0  0
   14.8703   -8.2266    0.0000 H   0  0  0  0  0  0  0  0  0  0  0  0
   16.2521    3.5697    0.0000 H   0  0  0  0  0  0  0  0  0  0  0  0
   12.9395   -5.4802    0.0000 H   0  0  0  0  0  0  0  0  0  0  0  0
   17.3340    4.7754    0.0000 H   0  0  0  0  0  0  0  0  0  0  0  0
   10.1671   -5.6934    0.0000 H   0  0  0  0  0  0  0  0  0  0  0  0
   10.9467   -5.8591    0.0000 H   0  0  0  0  0  0  0  0  0  0  0  0
   14.6505   -6.1608    0.0000 H   0  0  0  0  0  0  0  0  0  0  0  0
   14.1729   -5.4255    0.0000 H   0  0  0  0  0  0  0  0  0  0  0  0
   13.4376   -5.9030    0.0000 H   0  0  0  0  0  0  0  0  0  0  0  0
   12.0875   -8.4888    0.0000 H   0  0  0  0  0  0  0  0  0  0  0  0
   13.8681   11.5309    0.0000 H   0  0  0  0  0  0  0  0  0  0  0  0
   13.0021   10.4109    0.0000 H   0  0  0  0  0  0  0  0  0  0  0  0
   15.7219   -7.9598    0.0000 H   0  0  0  0  0  0  0  0  0  0  0  0
   16.1200   -7.1786    0.0000 H   0  0  0  0  0  0  0  0  0  0  0  0
   15.3387   -6.7805    0.0000 H   0  0  0  0  0  0  0  0  0  0  0  0
   13.8021   -9.7529    0.0000 H   0  0  0  0  0  0  0  0  0  0  0  0
   12.6772    9.1382    0.0000 H   0  0  0  0  0  0  0  0  0  0  0  0
   13.0757    9.8285    0.0000 H   0  0  0  0  0  0  0  0  0  0  0  0
   16.0632   13.3409    0.0000 H   0  0  0  0  0  0  0  0  0  0  0  0
   12.1751   -9.6396    0.0000 H   0  0  0  0  0  0  0  0  0  0  0  0
   11.6417  -10.2319    0.0000 H   0  0  0  0  0  0  0  0  0  0  0  0
   16.0796   -3.2033    0.0000 H   0  0  0  0  0  0  0  0  0  0  0  0
   15.7477   -2.1820    0.0000 H   0  0  0  0  0  0  0  0  0  0  0  0
   11.3871    9.8035    0.0000 H   0  0  0  0  0  0  0  0  0  0  0  0
   10.9885    9.1132    0.0000 H   0  0  0  0  0  0  0  0  0  0  0  0
   12.1397  -11.8456    0.0000 H   0  0  0  0  0  0  0  0  0  0  0  0
   12.6730  -11.2533    0.0000 H   0  0  0  0  0  0  0  0  0  0  0  0
   11.1360   10.4109    0.0000 H   0  0  0  0  0  0  0  0  0  0  0  0
   13.8266  -11.2201    0.0000 H   0  0  0  0  0  0  0  0  0  0  0  0
   14.5452  -10.4220    0.0000 H   0  0  0  0  0  0  0  0  0  0  0  0
   10.2700   11.5309    0.0000 H   0  0  0  0  0  0  0  0  0  0  0  0
   11.0161  -10.9267    0.0000 H   0  0  0  0  0  0  0  0  0  0  0  0
   10.4827  -11.5190    0.0000 H   0  0  0  0  0  0  0  0  0  0  0  0
    8.5007   -4.5367    0.0000 H   0  0  0  0  0  0  0  0  0  0  0  0
    8.8325   -5.5580    0.0000 H   0  0  0  0  0  0  0  0  0  0  0  0
   10.3531   12.2209    0.0000 H   0  0  0  0  0  0  0  0  0  0  0  0
    9.7331   12.8409    0.0000 H   0  0  0  0  0  0  0  0  0  0  0  0
    9.1131   12.2209    0.0000 H   0  0  0  0  0  0  0  0  0  0  0  0
    7.5380   10.4109    0.0000 H   0  0  0  0  0  0  0  0  0  0  0  0
    8.4040   11.5309    0.0000 H   0  0  0  0  0  0  0  0  0  0  0  0
    7.2131    9.1382    0.0000 H   0  0  0  0  0  0  0  0  0  0  0  0
    7.6116    9.8285    0.0000 H   0  0  0  0  0  0  0  0  0  0  0  0
    5.9230    9.8035    0.0000 H   0  0  0  0  0  0  0  0  0  0  0  0
    5.5244    9.1132    0.0000 H   0  0  0  0  0  0  0  0  0  0  0  0
    4.8059   11.5309    0.0000 H   0  0  0  0  0  0  0  0  0  0  0  0
    5.6720   10.4109    0.0000 H   0  0  0  0  0  0  0  0  0  0  0  0
   10.7331    7.1009    0.0000 H   0  0  0  0  0  0  0  0  0  0  0  0
    4.8796   12.1132    0.0000 H   0  0  0  0  0  0  0  0  0  0  0  0
    4.4810   12.8035    0.0000 H   0  0  0  0  0  0  0  0  0  0  0  0
    2.7924   12.8285    0.0000 H   0  0  0  0  0  0  0  0  0  0  0  0
    3.1909   12.1382    0.0000 H   0  0  0  0  0  0  0  0  0  0  0  0
    9.1458  -13.9976    0.0000 H   0  0  0  0  0  0  0  0  0  0  0  0
   10.1962  -14.2209    0.0000 H   0  0  0  0  0  0  0  0  0  0  0  0
    8.6106  -12.3503    0.0000 H   0  0  0  0  0  0  0  0  0  0  0  0
    9.3292  -11.5523    0.0000 H   0  0  0  0  0  0  0  0  0  0  0  0
    4.9590    8.2578    0.0000 H   0  0  0  0  0  0  0  0  0  0  0  0
    4.7320    7.4109    0.0000 H   0  0  0  0  0  0  0  0  0  0  0  0
    5.5790    7.1839    0.0000 H   0  0  0  0  0  0  0  0  0  0  0  0
    2.0000   10.9109    0.0000 H   0  0  0  0  0  0  0  0  0  0  0  0
    2.8469   14.7578    0.0000 H   0  0  0  0  0  0  0  0  0  0  0  0
    2.0000   14.5309    0.0000 H   0  0  0  0  0  0  0  0  0  0  0  0
    2.2269   13.6839    0.0000 H   0  0  0  0  0  0  0  0  0  0  0  0
  1 91  1  0  0  0  0
  1 97  1  0  0  0  0
  2 95  1  0  0  0  0
  2 98  1  0  0  0  0
  3 43  2  0  0  0  0
  4 44  2  0  0  0  0
  5 49  2  0  0  0  0
  6 51  2  0  0  0  0
  7 62  1  0  0  0  0
  7149  1  0  0  0  0
  8 63  2  0  0  0  0
  9 65  2  0  0  0  0
 10 68  2  0  0  0  0
 11 69  2  0  0  0  0
 12 75  2  0  0  0  0
 13 79  2  0  0  0  0
 14 80  2  0  0  0  0
 15 85  1  0  0  0  0
 15177  1  0  0  0  0
 16 85  2  0  0  0  0
 17 86  2  0  0  0  0
 18 90  2  0  0  0  0
 19 96  1  0  0  0  0
 19189  1  0  0  0  0
 20 96  2  0  0  0  0
 21 39  1  0  0  0  0
 21 42  1  0  0  0  0
 21 44  1  0  0  0  0
 22 43  1  0  0  0  0
 46 22  1  1  0  0  0
 22107  1  0  0  0  0
 45 23  1  1  0  0  0
 23 51  1  0  0  0  0
 23114  1  0  0  0  0
 24 49  1  0  0  0  0
 55 24  1  6  0  0  0
 24116  1  0  0  0  0
 25 54  1  0  0  0  0
 25 56  1  0  0  0  0
 25121  1  0  0  0  0
 52 26  1  6  0  0  0
 26 63  1  0  0  0  0
 26122  1  0  0  0  0
 61 27  1  1  0  0  0
 27 68  1  0  0  0  0
 27133  1  0  0  0  0
 28 65  1  0  0  0  0
 73 28  1  1  0  0  0
 28141  1  0  0  0  0
 60 29  1  6  0  0  0
 29 75  1  0  0  0  0
 29140  1  0  0  0  0
 30 69  1  0  0  0  0
 30152  1  0  0  0  0
 30153  1  0  0  0  0
 31 79  1  0  0  0  0
 83 31  1  6  0  0  0
 31158  1  0  0  0  0
 76 32  1  1  0  0  0
 32159  1  0  0  0  0
 32160  1  0  0  0  0
 33 80  1  0  0  0  0
 33164  1  0  0  0  0
 33165  1  0  0  0  0
 34 86  1  0  0  0  0
 88 34  1  1  0  0  0
 34170  1  0  0  0  0
 35 84  1  0  0  0  0
 35 94  2  0  0  0  0
 36 90  1  0  0  0  0
 92 36  1  6  0  0  0
 36176  1  0  0  0  0
 37 94  1  0  0  0  0
 37182  1  0  0  0  0
 37183  1  0  0  0  0
 38 94  1  0  0  0  0
 38184  1  0  0  0  0
 38185  1  0  0  0  0
 39 40  1  0  0  0  0
 39 43  1  1  0  0  0
 39 99  1  0  0  0  0
 40 41  1  0  0  0  0
 40100  1  0  0  0  0
 40101  1  0  0  0  0
 41 42  1  0  0  0  0
 41102  1  0  0  0  0
 41103  1  0  0  0  0
 42104  1  0  0  0  0
 42105  1  0  0  0  0
 44 45  1  0  0  0  0
 45 48  1  0  0  0  0
 45106  1  0  0  0  0
 46 47  1  0  0  0  0
 46 49  1  0  0  0  0
 46108  1  0  0  0  0
 47 50  1  0  0  0  0
 47109  1  0  0  0  0
 47110  1  0  0  0  0
 48111  1  0  0  0  0
 48112  1  0  0  0  0
 48113  1  0  0  0  0
 50 53  1  0  0  0  0
 50 54  2  0  0  0  0
 51 52  1  0  0  0  0
 52 57  1  0  0  0  0
 52115  1  0  0  0  0
 53 56  1  0  0  0  0
 53 58  2  0  0  0  0
 54117  1  0  0  0  0
 55 62  1  0  0  0  0
 55 65  1  0  0  0  0
 55118  1  0  0  0  0
 56 64  2  0  0  0  0
 57 69  1  0  0  0  0
 57119  1  0  0  0  0
 57120  1  0  0  0  0
 58 66  1  0  0  0  0
 58123  1  0  0  0  0
 59 60  1  0  0  0  0
 59 67  1  0  0  0  0
 59 72  1  1  0  0  0
 59124  1  0  0  0  0
 60 68  1  0  0  0  0
 60125  1  0  0  0  0
 61 63  1  0  0  0  0
 61 71  1  0  0  0  0
 61126  1  0  0  0  0
 62127  1  0  0  0  0
 62128  1  0  0  0  0
 64 70  1  0  0  0  0
 64129  1  0  0  0  0
 66 70  2  0  0  0  0
 66132  1  0  0  0  0
 67 74  1  0  0  0  0
 67130  1  0  0  0  0
 67131  1  0  0  0  0
 70134  1  0  0  0  0
 71 80  1  0  0  0  0
 71135  1  0  0  0  0
 71136  1  0  0  0  0
 72137  1  0  0  0  0
 72138  1  0  0  0  0
 72139  1  0  0  0  0
 73 77  1  0  0  0  0
 73 79  1  0  0  0  0
 73142  1  0  0  0  0
 74143  1  0  0  0  0
 74144  1  0  0  0  0
 74145  1  0  0  0  0
 75 76  1  0  0  0  0
 76 78  1  0  0  0  0
 76146  1  0  0  0  0
 77 81  1  0  0  0  0
 77147  1  0  0  0  0
 77148  1  0  0  0  0
 78 82  1  0  0  0  0
 78150  1  0  0  0  0
 78151  1  0  0  0  0
 81 85  1  0  0  0  0
 81154  1  0  0  0  0
 81155  1  0  0  0  0
 82 84  1  0  0  0  0
 82156  1  0  0  0  0
 82157  1  0  0  0  0
 83 86  1  0  0  0  0
 83 87  1  0  0  0  0
 83161  1  0  0  0  0
 84162  1  0  0  0  0
 84163  1  0  0  0  0
 87166  1  0  0  0  0
 87167  1  0  0  0  0
 87168  1  0  0  0  0
 88 89  1  0  0  0  0
 88 90  1  0  0  0  0
 88169  1  0  0  0  0
 89 91  1  0  0  0  0
 89171  1  0  0  0  0
 89172  1  0  0  0  0
 91173  1  0  0  0  0
 91174  1  0  0  0  0
 92 93  1  0  0  0  0
 92 96  1  0  0  0  0
 92175  1  0  0  0  0
 93 95  1  0  0  0  0
 93178  1  0  0  0  0
 93179  1  0  0  0  0
 95180  1  0  0  0  0
 95181  1  0  0  0  0
 97186  1  0  0  0  0
 97187  1  0  0  0  0
 97188  1  0  0  0  0
 98190  1  0  0  0  0
 98191  1  0  0  0  0
 98192  1  0  0  0  0
M  END
> <PUBCHEM_COMPOUND_CID>
516478
> <PUBCHEM_COMPOUND_CANONICALIZED>
1
> <PUBCHEM_CACTVS_COMPLEXITY>
2840
> <PUBCHEM_CACTVS_HBOND_ACCEPTOR>
22
> <PUBCHEM_CACTVS_HBOND_DONOR>
19
> <PUBCHEM_CACTVS_ROTATABLE_BOND>
44
> <PUBCHEM_CACTVS_SUBSKEYS>
AAADcfB//gBgAAAAAAAAAAAAAAAAAWLAAAAwAAAAAAAAAFgB8AAAHgQQCAAADSjl3ga/yPPJkgioAzX3fACCgCExAjAI2aG4ZJgKcP7g0bGUYAhmtgDYyAe9n8KOgAAAAAACAAAAAAAAAAQAAAAAAAAAAA==
> <PUBCHEM_IUPAC_OPENEYE_NAME>
(4S)-4-[[(2S)-2-[[(2S)-2-[[(2S)-1-[(2S)-2-[[(2S)-4-amino-2-[[(2S)-4-amino-2-[[(2S,3S)-2-[[(2S)-2-amino-5-guanidino-pentanoyl]amino]-3-methyl-pentanoyl]amino]-4-oxo-butanoyl]amino]-4-oxo-butanoyl]amino]propanoyl]pyrrolidine-2-carbonyl]amino]-3-(1H-indol-3-yl)propanoyl]amino]-3-hydroxy-propanoyl]amino]-5-[[(1S)-2-[[(1S)-1-[[(1S)-1-carboxy-3-methylsulfanyl-propyl]carbamoyl]-3-methylsulfanyl-propyl]amino]-1-methyl-2-oxo-ethyl]amino]-5-oxo-pentanoic acid
> <PUBCHEM_IUPAC_CAS_NAME>
(4S)-4-[[(2S)-2-[[(2S)-2-[[[(2S)-1-[(2S)-2-[[(2S)-4-amino-2-[[(2S)-4-amino-2-[[(2S,3S)-2-[[(2S)-2-amino-5-(diaminomethylideneamino)-1-oxopentyl]amino]-3-methyl-1-oxopentyl]amino]-1,4-dioxobutyl]amino]-1,4-dioxobutyl]amino]-1-oxopropyl]-2-pyrrolidinyl]-oxomethyl]amino]-3-(1H-indol-3-yl)-1-oxopropyl]amino]-3-hydroxy-1-oxopropyl]amino]-5-[[(2S)-1-[[(2S)-1-[[(1S)-1-carboxy-3-(methylthio)propyl]amino]-4-(methylthio)-1-oxobutan-2-yl]amino]-1-oxopropan-2-yl]amino]-5-oxopentanoic acid
> <PUBCHEM_IUPAC_NAME_MARKUP>
(4<I>S</I>)-4-[[(2<I>S</I>)-2-[[(2<I>S</I>)-2-[[(2<I>S</I>)-1-[(2<I>S</I>)-2-[[(2<I>S</I>)-4-amino-2-[[(2<I>S</I>)-4-amino-2-[[(2<I>S</I>,3<I>S</I>)-2-[[(2<I>S</I>)-2-amino-5-(diaminomethylideneamino)pentanoyl]amino]-3-methylpentanoyl]amino]-4-oxobutanoyl]amino]-4-oxobutanoyl]amino]propanoyl]pyrrolidine-2-carbonyl]amino]-3-(1<I>H</I>-indol-3-yl)propanoyl]amino]-3-hydroxypropanoyl]amino]-5-[[(2<I>S</I>)-1-[[(2<I>S</I>)-1-[[(1<I>S</I>)-1-carboxy-3-methylsulfanylpropyl]amino]-4-methylsulfanyl-1-oxobutan-2-yl]amino]-1-oxopropan-2-yl]amino]-5-oxopentanoic acid
> <PUBCHEM_IUPAC_NAME>
(4S)-4-[[(2S)-2-[[(2S)-2-[[(2S)-1-[(2S)-2-[[(2S)-4-amino-2-[[(2S)-4-amino-2-[[(2S,3S)-2-[[(2S)-2-amino-5-(diaminomethylideneamino)pentanoyl]amino]-3-methylpentanoyl]amino]-4-oxobutanoyl]amino]-4-oxobutanoyl]amino]propanoyl]pyrrolidine-2-carbonyl]amino]-3-(1H-indol-3-yl)propanoyl]amino]-3-hydroxypropanoyl]amino]-5-[[(2S)-1-[[(2S)-1-[[(1S)-1-carboxy-3-methylsulfanylpropyl]amino]-4-methylsulfanyl-1-oxobutan-2-yl]amino]-1-oxopropan-2-yl]amino]-5-oxopentanoic acid
> <PUBCHEM_IUPAC_SYSTEMATIC_NAME>
(4S)-4-[[(2S)-2-[[(2S)-2-[[(2S)-1-[(2S)-2-[[(2S)-4-azanyl-2-[[(2S)-4-azanyl-2-[[(2S,3S)-2-[[(2S)-2-azanyl-5-[bis(azanyl)methylideneamino]pentanoyl]amino]-3-methyl-pentanoyl]amino]-4-oxidanylidene-butanoyl]amino]-4-oxidanylidene-butanoyl]amino]propanoyl]pyrrolidin-2-yl]carbonylamino]-3-(1H-indol-3-yl)propanoyl]amino]-3-oxidanyl-propanoyl]amino]-5-[[(2S)-1-[[(2S)-4-methylsulfanyl-1-[[(2S)-4-methylsulfanyl-1-oxidanyl-1-oxidanylidene-butan-2-yl]amino]-1-oxidanylidene-butan-2-yl]amino]-1-oxidanylidene-propan-2-yl]amino]-5-oxidanylidene-pentanoic acid
> <PUBCHEM_IUPAC_TRADITIONAL_NAME>
(4S)-4-[[(2S)-2-[[(2S)-2-[[(2S)-1-[(2S)-2-[[(2S)-4-amino-2-[[(2S)-4-amino-2-[[(2S,3S)-2-[[(2S)-2-amino-5-guanidino-pentanoyl]amino]-3-methyl-pentanoyl]amino]-4-keto-butanoyl]amino]-4-keto-butanoyl]amino]propanoyl]prolyl]amino]-3-(1H-indol-3-yl)propanoyl]amino]-3-hydroxy-propanoyl]amino]-5-[[(1S)-2-[[(1S)-1-[[(1S)-1-carboxy-3-(methylthio)propyl]carbamoyl]-3-(methylthio)propyl]amino]-2-keto-1-methyl-ethyl]amino]-5-keto-valeric acid
> <PUBCHEM_IUPAC_INCHI>
InChI=1S/C60H94N18O18S2/c1-7-29(2)47(77-49(85)34(61)13-10-20-66-60(64)65)57(93)75-41(26-45(63)81)54(90)73-40(25-44(62)80)52(88)69-31(4)58(94)78-21-11-15-43(78)56(92)74-39(24-32-27-67-35-14-9-8-12-33(32)35)53(89)76-42(28-79)55(91)71-36(16-17-46(82)83)50(86)68-30(3)48(84)70-37(18-22-97-5)51(87)72-38(59(95)96)19-23-98-6/h8-9,12,14,27,29-31,34,36-43,47,67,79H,7,10-11,13,15-26,28,61H2,1-6H3,(H2,62,80)(H2,63,81)(H,68,86)(H,69,88)(H,70,84)(H,71,91)(H,72,87)(H,73,90)(H,74,92)(H,75,93)(H,76,89)(H,77,85)(H,82,83)(H,95,96)(H4,64,65,66)/t29-,30-,31-,34-,36-,37-,38-,39-,40-,41-,42-,43-,47-/m0/s1
> <PUBCHEM_IUPAC_INCHIKEY>
MVLSQOLTMFIUCJ-XTGFFWJTSA-N
> <PUBCHEM_XLOGP3_AA>
-7
> <PUBCHEM_EXACT_MASS>
1418.64349057
> <PUBCHEM_MOLECULAR_FORMULA>
C60H94N18O18S2
> <PUBCHEM_MOLECULAR_WEIGHT>
1419.6
> <PUBCHEM_OPENEYE_CAN_SMILES>
CCC(C)C(C(=O)NC(CC(=O)N)C(=O)NC(CC(=O)N)C(=O)NC(C)C(=O)N1CCCC1C(=O)NC(CC2=CNC3=CC=CC=C32)C(=O)NC(CO)C(=O)NC(CCC(=O)O)C(=O)NC(C)C(=O)NC(CCSC)C(=O)NC(CCSC)C(=O)O)NC(=O)C(CCCN=C(N)N)N
> <PUBCHEM_OPENEYE_ISO_SMILES>
CC[C@H](C)[C@@H](C(=O)N[C@@H](CC(=O)N)C(=O)N[C@@H](CC(=O)N)C(=O)N[C@@H](C)C(=O)N1CCC[C@H]1C(=O)N[C@@H](CC2=CNC3=CC=CC=C32)C(=O)N[C@@H](CO)C(=O)N[C@@H](CCC(=O)O)C(=O)N[C@@H](C)C(=O)N[C@@H](CCSC)C(=O)N[C@@H](CCSC)C(=O)O)NC(=O)[C@H](CCCN=C(N)N)N
> <PUBCHEM_CACTVS_TPSA>
649
> <PUBCHEM_MONOISOTOPIC_WEIGHT>
1418.64349057
> <PUBCHEM_TOTAL_CHARGE>
0
> <PUBCHEM_HEAVY_ATOM_COUNT>
98
> <PUBCHEM_ATOM_DEF_STEREO_COUNT>
13
> <PUBCHEM_ATOM_UDEF_STEREO_COUNT>
0
> <PUBCHEM_BOND_DEF_STEREO_COUNT>
0
> <PUBCHEM_BOND_UDEF_STEREO_COUNT>
0
> <PUBCHEM_ISOTOPIC_ATOM_COUNT>
0
> <PUBCHEM_COMPONENT_COUNT>
1
> <PUBCHEM_CACTVS_TAUTO_COUNT>
-1
> <PUBCHEM_COORDINATE_TYPE>
1
5
255
> <PUBCHEM_BONDANNOTATIONS>
46  22  5
45  23  5
55  24  6
25  54  8
25  56  8
52  26  6
61  27  5
73  28  5
60  29  6
83  31  6
76  32  5
88  34  5
92  36  6
39  43  5
50  53  8
50  54  8
53  56  8
53  58  8
56  64  8
58  66  8
59  72  5
64  70  8
66  70  8
$$$$
