516466
  -OEChem-10302200282D
 35 36  0     1  0  0  0  0  0999 V2000
    6.8100   -1.2153    0.0000 O   0  0  0  0  0  0  0  0  0  0  0  0
    4.9132   -2.9754    0.0000 O   0  0  0  0  0  0  0  0  0  0  0  0
    8.0833   -2.8709    0.0000 O   0  0  0  0  0  0  0  0  0  0  0  0
    7.7331    0.3725    0.0000 O   0  0  0  0  0  0  0  0  0  0  0  0
    6.0010    3.3725    0.0000 O   0  0  0  0  0  0  0  0  0  0  0  0
    3.4030    0.8725    0.0000 O   0  0  0  0  0  0  0  0  0  0  0  0
    6.0010    0.3725    0.0000 N   0  0  0  0  0  0  0  0  0  0  0  0
    6.8671    1.8725    0.0000 N   0  0  0  0  0  0  0  0  0  0  0  0
    2.5369    2.3725    0.0000 N   0  0  0  0  0  0  0  0  0  0  0  0
    6.0010   -0.6275    0.0000 C   0  0  1  0  0  0  0  0  0  0  0  0
    5.5010   -2.1664    0.0000 C   0  0  1  0  0  0  0  0  0  0  0  0
    5.1920   -1.2153    0.0000 C   0  0  0  0  0  0  0  0  0  0  0  0
    6.5010   -2.1664    0.0000 C   0  0  1  0  0  0  0  0  0  0  0  0
    7.0888   -2.9754    0.0000 C   0  0  0  0  0  0  0  0  0  0  0  0
    5.1350    0.8725    0.0000 C   0  0  0  0  0  0  0  0  0  0  0  0
    6.8671    0.8725    0.0000 C   0  0  0  0  0  0  0  0  0  0  0  0
    5.1350    1.8725    0.0000 C   0  0  0  0  0  0  0  0  0  0  0  0
    6.0010    2.3725    0.0000 C   0  0  0  0  0  0  0  0  0  0  0  0
    4.2690    2.3725    0.0000 C   0  0  0  0  0  0  0  0  0  0  0  0
    3.4030    1.8725    0.0000 C   0  0  0  0  0  0  0  0  0  0  0  0
    6.5535   -0.3461    0.0000 H   0  0  0  0  0  0  0  0  0  0  0  0
    5.7825   -2.7188    0.0000 H   0  0  0  0  0  0  0  0  0  0  0  0
    4.8820   -0.6784    0.0000 H   0  0  0  0  0  0  0  0  0  0  0  0
    4.6256   -1.4675    0.0000 H   0  0  0  0  0  0  0  0  0  0  0  0
    7.1134   -2.0694    0.0000 H   0  0  0  0  0  0  0  0  0  0  0  0
    6.5316   -3.2472    0.0000 H   0  0  0  0  0  0  0  0  0  0  0  0
    7.2597   -3.5714    0.0000 H   0  0  0  0  0  0  0  0  0  0  0  0
    4.5981    0.5625    0.0000 H   0  0  0  0  0  0  0  0  0  0  0  0
    4.2966   -2.9106    0.0000 H   0  0  0  0  0  0  0  0  0  0  0  0
    7.4040    2.1825    0.0000 H   0  0  0  0  0  0  0  0  0  0  0  0
    4.6675    2.8474    0.0000 H   0  0  0  0  0  0  0  0  0  0  0  0
    3.8705    2.8474    0.0000 H   0  0  0  0  0  0  0  0  0  0  0  0
    8.4478   -3.3725    0.0000 H   0  0  0  0  0  0  0  0  0  0  0  0
    2.0000    2.0625    0.0000 H   0  0  0  0  0  0  0  0  0  0  0  0
    2.5369    2.9925    0.0000 H   0  0  0  0  0  0  0  0  0  0  0  0
  1 10  1  0  0  0  0
  1 13  1  0  0  0  0
 11  2  1  1  0  0  0
  2 29  1  0  0  0  0
  3 14  1  0  0  0  0
  3 33  1  0  0  0  0
  4 16  2  0  0  0  0
  5 18  2  0  0  0  0
  6 20  2  0  0  0  0
 10  7  1  6  0  0  0
  7 15  1  0  0  0  0
  7 16  1  0  0  0  0
  8 16  1  0  0  0  0
  8 18  1  0  0  0  0
  8 30  1  0  0  0  0
  9 20  1  0  0  0  0
  9 34  1  0  0  0  0
  9 35  1  0  0  0  0
 10 12  1  0  0  0  0
 10 21  1  0  0  0  0
 11 12  1  0  0  0  0
 11 13  1  0  0  0  0
 11 22  1  0  0  0  0
 12 23  1  0  0  0  0
 12 24  1  0  0  0  0
 13 14  1  6  0  0  0
 13 25  1  0  0  0  0
 14 26  1  0  0  0  0
 14 27  1  0  0  0  0
 15 17  2  0  0  0  0
 15 28  1  0  0  0  0
 17 18  1  0  0  0  0
 17 19  1  0  0  0  0
 19 20  1  0  0  0  0
 19 31  1  0  0  0  0
 19 32  1  0  0  0  0
M  END
> <PUBCHEM_COMPOUND_CID>
516466
> <PUBCHEM_COMPOUND_CANONICALIZED>
1
> <PUBCHEM_CACTVS_COMPLEXITY>
477
> <PUBCHEM_CACTVS_HBOND_ACCEPTOR>
6
> <PUBCHEM_CACTVS_HBOND_DONOR>
4
> <PUBCHEM_CACTVS_ROTATABLE_BOND>
4
> <PUBCHEM_CACTVS_SUBSKEYS>
AAADccBzOAAAAAAAAAAAAAAAAAAAASAAAAAgAAAAAAAAAAAAAAAAHgAQCAAADBThgAYBAAPABgCIAgFWUACAAAAgAAAAAAEIAEiBEBIAgQAOQAAPFyIDAMC1MAIAAAAAAAAAAAAAAAAAAAAAAAAAAAAAAA==
> <PUBCHEM_IUPAC_OPENEYE_NAME>
2-[1-[(2R,4S,5R)-4-hydroxy-5-(hydroxymethyl)tetrahydrofuran-2-yl]-2,4-dioxo-pyrimidin-5-yl]acetamide
> <PUBCHEM_IUPAC_CAS_NAME>
2-[1-[(2R,4S,5R)-4-hydroxy-5-(hydroxymethyl)-2-oxolanyl]-2,4-dioxo-5-pyrimidinyl]acetamide
> <PUBCHEM_IUPAC_NAME_MARKUP>
2-[1-[(2<I>R</I>,4<I>S</I>,5<I>R</I>)-4-hydroxy-5-(hydroxymethyl)oxolan-2-yl]-2,4-dioxopyrimidin-5-yl]acetamide
> <PUBCHEM_IUPAC_NAME>
2-[1-[(2R,4S,5R)-4-hydroxy-5-(hydroxymethyl)oxolan-2-yl]-2,4-dioxopyrimidin-5-yl]acetamide
> <PUBCHEM_IUPAC_SYSTEMATIC_NAME>
2-[1-[(2R,4S,5R)-5-(hydroxymethyl)-4-oxidanyl-oxolan-2-yl]-2,4-bis(oxidanylidene)pyrimidin-5-yl]ethanamide
> <PUBCHEM_IUPAC_TRADITIONAL_NAME>
2-[1-[(2R,4S,5R)-4-hydroxy-5-methylol-tetrahydrofuran-2-yl]-2,4-diketo-pyrimidin-5-yl]acetamide
> <PUBCHEM_IUPAC_INCHI>
InChI=1S/C11H15N3O6/c12-8(17)1-5-3-14(11(19)13-10(5)18)9-2-6(16)7(4-15)20-9/h3,6-7,9,15-16H,1-2,4H2,(H2,12,17)(H,13,18,19)/t6-,7+,9+/m0/s1
> <PUBCHEM_IUPAC_INCHIKEY>
GIQFLXDZMWPARW-LKEWCRSYSA-N
> <PUBCHEM_XLOGP3>
-2.7
> <PUBCHEM_EXACT_MASS>
285.09608521
> <PUBCHEM_MOLECULAR_FORMULA>
C11H15N3O6
> <PUBCHEM_MOLECULAR_WEIGHT>
285.25
> <PUBCHEM_OPENEYE_CAN_SMILES>
C1C(C(OC1N2C=C(C(=O)NC2=O)CC(=O)N)CO)O
> <PUBCHEM_OPENEYE_ISO_SMILES>
C1[C@@H]([C@H](O[C@H]1N2C=C(C(=O)NC2=O)CC(=O)N)CO)O
> <PUBCHEM_CACTVS_TPSA>
142
> <PUBCHEM_MONOISOTOPIC_WEIGHT>
285.09608521
> <PUBCHEM_TOTAL_CHARGE>
0
> <PUBCHEM_HEAVY_ATOM_COUNT>
20
> <PUBCHEM_ATOM_DEF_STEREO_COUNT>
3
> <PUBCHEM_ATOM_UDEF_STEREO_COUNT>
0
> <PUBCHEM_BOND_DEF_STEREO_COUNT>
0
> <PUBCHEM_BOND_UDEF_STEREO_COUNT>
0
> <PUBCHEM_ISOTOPIC_ATOM_COUNT>
0
> <PUBCHEM_COMPONENT_COUNT>
1
> <PUBCHEM_CACTVS_TAUTO_COUNT>
-1
> <PUBCHEM_COORDINATE_TYPE>
1
5
255
> <PUBCHEM_BONDANNOTATIONS>
13  14  6
15  17  8
17  18  8
11  2  5
10  7  6
7  15  8
7  16  8
8  16  8
8  18  8
$$$$
