516492
  -OEChem-10302200282D
 69 76  0     1  0  0  0  0  0999 V2000
    4.1671    2.0653    0.0000 N   0  0  0  0  0  0  0  0  0  0  0  0
   14.5405   -2.0653    0.0000 N   0  0  0  0  0  0  0  0  0  0  0  0
    4.9718    3.4592    0.0000 N   0  0  0  0  0  0  0  0  0  0  0  0
   13.7358   -3.4592    0.0000 N   0  0  0  0  0  0  0  0  0  0  0  0
    8.6192    2.2752    0.0000 N   0  0  0  0  0  0  0  0  0  0  0  0
   11.6915    0.5014    0.0000 N   0  0  0  0  0  0  0  0  0  0  0  0
    8.6192    0.6657    0.0000 N   0  0  0  0  0  0  0  0  0  0  0  0
   10.2977   -0.3034    0.0000 N   0  0  0  0  0  0  0  0  0  0  0  0
    3.5000    2.8024    0.0000 C   0  0  1  0  0  0  0  0  0  0  0  0
   15.2076   -2.8024    0.0000 C   0  0  2  0  0  0  0  0  0  0  0  0
    4.0000    3.6684    0.0000 C   0  0  2  0  0  0  0  0  0  0  0  0
   14.7076   -3.6684    0.0000 C   0  0  1  0  0  0  0  0  0  0  0  0
    2.5000    2.8024    0.0000 C   0  0  0  0  0  0  0  0  0  0  0  0
   16.2076   -2.8024    0.0000 C   0  0  0  0  0  0  0  0  0  0  0  0
    3.5000    4.5344    0.0000 C   0  0  0  0  0  0  0  0  0  0  0  0
   15.2076   -4.5344    0.0000 C   0  0  0  0  0  0  0  0  0  0  0  0
    2.0000    3.6684    0.0000 C   0  0  0  0  0  0  0  0  0  0  0  0
   16.7076   -3.6684    0.0000 C   0  0  0  0  0  0  0  0  0  0  0  0
    2.5000    4.5344    0.0000 C   0  0  0  0  0  0  0  0  0  0  0  0
   16.2076   -4.5344    0.0000 C   0  0  0  0  0  0  0  0  0  0  0  0
    5.0749    2.4704    0.0000 C   0  0  0  0  0  0  0  0  0  0  0  0
   13.6328   -2.4704    0.0000 C   0  0  0  0  0  0  0  0  0  0  0  0
    5.9409    1.9704    0.0000 C   0  0  0  0  0  0  0  0  0  0  0  0
   12.7667   -1.9704    0.0000 C   0  0  0  0  0  0  0  0  0  0  0  0
    6.8069    2.4704    0.0000 C   0  0  0  0  0  0  0  0  0  0  0  0
   12.7667   -0.9704    0.0000 C   0  0  0  0  0  0  0  0  0  0  0  0
    5.9409    0.9704    0.0000 C   0  0  0  0  0  0  0  0  0  0  0  0
   11.9007   -2.4704    0.0000 C   0  0  0  0  0  0  0  0  0  0  0  0
    7.6730    1.9704    0.0000 C   0  0  0  0  0  0  0  0  0  0  0  0
   11.9007   -0.4704    0.0000 C   0  0  0  0  0  0  0  0  0  0  0  0
    7.6730    0.9704    0.0000 C   0  0  0  0  0  0  0  0  0  0  0  0
   11.0347   -0.9704    0.0000 C   0  0  0  0  0  0  0  0  0  0  0  0
    6.8069    0.4704    0.0000 C   0  0  0  0  0  0  0  0  0  0  0  0
   11.0347   -1.9704    0.0000 C   0  0  0  0  0  0  0  0  0  0  0  0
    9.2028    1.4704    0.0000 C   0  0  0  0  0  0  0  0  0  0  0  0
   10.7028    0.6044    0.0000 C   0  0  0  0  0  0  0  0  0  0  0  0
   10.2028    1.4704    0.0000 C   0  0  0  0  0  0  0  0  0  0  0  0
    3.1553    2.0254    0.0000 H   0  0  0  0  0  0  0  0  0  0  0  0
   15.5523   -2.0254    0.0000 H   0  0  0  0  0  0  0  0  0  0  0  0
    4.5005    4.3554    0.0000 H   0  0  0  0  0  0  0  0  0  0  0  0
   14.2071   -4.3554    0.0000 H   0  0  0  0  0  0  0  0  0  0  0  0
    1.9174    2.5903    0.0000 H   0  0  0  0  0  0  0  0  0  0  0  0
    2.6077    2.1918    0.0000 H   0  0  0  0  0  0  0  0  0  0  0  0
   16.7902   -2.5903    0.0000 H   0  0  0  0  0  0  0  0  0  0  0  0
   16.1000   -2.1918    0.0000 H   0  0  0  0  0  0  0  0  0  0  0  0
    4.0826    4.7464    0.0000 H   0  0  0  0  0  0  0  0  0  0  0  0
    3.3923    5.1450    0.0000 H   0  0  0  0  0  0  0  0  0  0  0  0
   14.6250   -4.7464    0.0000 H   0  0  0  0  0  0  0  0  0  0  0  0
   15.3153   -5.1450    0.0000 H   0  0  0  0  0  0  0  0  0  0  0  0
    1.5250    4.0669    0.0000 H   0  0  0  0  0  0  0  0  0  0  0  0
    1.5250    3.2698    0.0000 H   0  0  0  0  0  0  0  0  0  0  0  0
   17.1826   -4.0669    0.0000 H   0  0  0  0  0  0  0  0  0  0  0  0
   17.1826   -3.2698    0.0000 H   0  0  0  0  0  0  0  0  0  0  0  0
    2.6077    5.1450    0.0000 H   0  0  0  0  0  0  0  0  0  0  0  0
    1.9174    4.7464    0.0000 H   0  0  0  0  0  0  0  0  0  0  0  0
   16.1000   -5.1450    0.0000 H   0  0  0  0  0  0  0  0  0  0  0  0
   16.7902   -4.7464    0.0000 H   0  0  0  0  0  0  0  0  0  0  0  0
    4.0392    1.4587    0.0000 H   0  0  0  0  0  0  0  0  0  0  0  0
   14.6684   -1.4587    0.0000 H   0  0  0  0  0  0  0  0  0  0  0  0
    6.8069    3.0904    0.0000 H   0  0  0  0  0  0  0  0  0  0  0  0
   13.3037   -0.6604    0.0000 H   0  0  0  0  0  0  0  0  0  0  0  0
    5.4040    0.6604    0.0000 H   0  0  0  0  0  0  0  0  0  0  0  0
   11.9007   -3.0904    0.0000 H   0  0  0  0  0  0  0  0  0  0  0  0
    6.8069   -0.1496    0.0000 H   0  0  0  0  0  0  0  0  0  0  0  0
   10.4977   -2.2804    0.0000 H   0  0  0  0  0  0  0  0  0  0  0  0
    8.8118    2.8645    0.0000 H   0  0  0  0  0  0  0  0  0  0  0  0
   12.1056    0.9628    0.0000 H   0  0  0  0  0  0  0  0  0  0  0  0
   10.7854    1.6825    0.0000 H   0  0  0  0  0  0  0  0  0  0  0  0
   10.0951    2.0810    0.0000 H   0  0  0  0  0  0  0  0  0  0  0  0
  1  9  1  0  0  0  0
  1 21  1  0  0  0  0
  1 58  1  0  0  0  0
  2 10  1  0  0  0  0
  2 22  1  0  0  0  0
  2 59  1  0  0  0  0
  3 11  1  0  0  0  0
  3 21  2  0  0  0  0
  4 12  1  0  0  0  0
  4 22  2  0  0  0  0
  5 29  1  0  0  0  0
  5 35  1  0  0  0  0
  5 66  1  0  0  0  0
  6 30  1  0  0  0  0
  6 36  1  0  0  0  0
  6 67  1  0  0  0  0
  7 31  1  0  0  0  0
  7 35  2  0  0  0  0
  8 32  1  0  0  0  0
  8 36  2  0  0  0  0
  9 11  1  0  0  0  0
  9 13  1  0  0  0  0
  9 38  1  1  0  0  0
 10 12  1  0  0  0  0
 10 14  1  0  0  0  0
 10 39  1  6  0  0  0
 11 15  1  0  0  0  0
 11 40  1  1  0  0  0
 12 16  1  0  0  0  0
 12 41  1  6  0  0  0
 13 17  1  0  0  0  0
 13 42  1  0  0  0  0
 13 43  1  0  0  0  0
 14 18  1  0  0  0  0
 14 44  1  0  0  0  0
 14 45  1  0  0  0  0
 15 19  1  0  0  0  0
 15 46  1  0  0  0  0
 15 47  1  0  0  0  0
 16 20  1  0  0  0  0
 16 48  1  0  0  0  0
 16 49  1  0  0  0  0
 17 19  1  0  0  0  0
 17 50  1  0  0  0  0
 17 51  1  0  0  0  0
 18 20  1  0  0  0  0
 18 52  1  0  0  0  0
 18 53  1  0  0  0  0
 19 54  1  0  0  0  0
 19 55  1  0  0  0  0
 20 56  1  0  0  0  0
 20 57  1  0  0  0  0
 21 23  1  0  0  0  0
 22 24  1  0  0  0  0
 23 25  2  0  0  0  0
 23 27  1  0  0  0  0
 24 26  2  0  0  0  0
 24 28  1  0  0  0  0
 25 29  1  0  0  0  0
 25 60  1  0  0  0  0
 26 30  1  0  0  0  0
 26 61  1  0  0  0  0
 27 33  2  0  0  0  0
 27 62  1  0  0  0  0
 28 34  2  0  0  0  0
 28 63  1  0  0  0  0
 29 31  2  0  0  0  0
 30 32  2  0  0  0  0
 31 33  1  0  0  0  0
 32 34  1  0  0  0  0
 33 64  1  0  0  0  0
 34 65  1  0  0  0  0
 35 37  1  0  0  0  0
 36 37  1  0  0  0  0
 37 68  1  0  0  0  0
 37 69  1  0  0  0  0
M  END
> <PUBCHEM_COMPOUND_CID>
516492
> <PUBCHEM_COMPOUND_CANONICALIZED>
1
> <PUBCHEM_CACTVS_COMPLEXITY>
848
> <PUBCHEM_CACTVS_HBOND_ACCEPTOR>
4
> <PUBCHEM_CACTVS_HBOND_DONOR>
4
> <PUBCHEM_CACTVS_ROTATABLE_BOND>
4
> <PUBCHEM_CACTVS_SUBSKEYS>
AAADcfB7wAAAAAAAAAAAAAAAAAAAAWLECAAwYMGAAAAAAFgB/gAAHAAQAAAADCjBHwQx0LbJkACgAyZiZACCgC2hEqAJmaA4dJiIaKLA2ZGUIAhokALIyCcQgAAOCAAAQAAAACAQAACAAAAAQAAAAAAAAA==
> <PUBCHEM_IUPAC_OPENEYE_NAME>
6-[(3aS,7aR)-3a,4,5,6,7,7a-hexahydro-1H-benzimidazol-2-yl]-2-[[6-[(3aR,7aS)-3a,4,5,6,7,7a-hexahydro-1H-benzimidazol-2-yl]-1H-benzimidazol-2-yl]methyl]-1H-benzimidazole
> <PUBCHEM_IUPAC_CAS_NAME>
6-[(3aS,7aR)-3a,4,5,6,7,7a-hexahydro-1H-benzimidazol-2-yl]-2-[[6-[(3aR,7aS)-3a,4,5,6,7,7a-hexahydro-1H-benzimidazol-2-yl]-1H-benzimidazol-2-yl]methyl]-1H-benzimidazole
> <PUBCHEM_IUPAC_NAME_MARKUP>
6-[(3<I>a</I><I>S</I>,7<I>a</I><I>R</I>)-3<I>a</I>,4,5,6,7,7<I>a</I>-hexahydro-1<I>H</I>-benzimidazol-2-yl]-2-[[6-[(3<I>a</I><I>R</I>,7<I>a</I><I>S</I>)-3<I>a</I>,4,5,6,7,7<I>a</I>-hexahydro-1<I>H</I>-benzimidazol-2-yl]-1<I>H</I>-benzimidazol-2-yl]methyl]-1<I>H</I>-benzimidazole
> <PUBCHEM_IUPAC_NAME>
6-[(3aS,7aR)-3a,4,5,6,7,7a-hexahydro-1H-benzimidazol-2-yl]-2-[[6-[(3aR,7aS)-3a,4,5,6,7,7a-hexahydro-1H-benzimidazol-2-yl]-1H-benzimidazol-2-yl]methyl]-1H-benzimidazole
> <PUBCHEM_IUPAC_SYSTEMATIC_NAME>
6-[(3aS,7aR)-3a,4,5,6,7,7a-hexahydro-1H-benzimidazol-2-yl]-2-[[6-[(3aR,7aS)-3a,4,5,6,7,7a-hexahydro-1H-benzimidazol-2-yl]-1H-benzimidazol-2-yl]methyl]-1H-benzimidazole
> <PUBCHEM_IUPAC_TRADITIONAL_NAME>
6-[(3aS,7aR)-3a,4,5,6,7,7a-hexahydro-1H-benzimidazol-2-yl]-2-[[6-[(3aR,7aS)-3a,4,5,6,7,7a-hexahydro-1H-benzimidazol-2-yl]-1H-benzimidazol-2-yl]methyl]-1H-benzimidazole
> <PUBCHEM_IUPAC_INCHI>
InChI=1S/C29H32N8/c1-2-6-19-18(5-1)34-28(35-19)16-9-11-22-24(13-16)32-26(30-22)15-27-31-23-12-10-17(14-25(23)33-27)29-36-20-7-3-4-8-21(20)37-29/h9-14,18-21H,1-8,15H2,(H,30,32)(H,31,33)(H,34,35)(H,36,37)/t18-,19+,20-,21+
> <PUBCHEM_IUPAC_INCHIKEY>
KPERAVUYJCGIDC-FXELSEDVSA-N
> <PUBCHEM_XLOGP3_AA>
3.6
> <PUBCHEM_EXACT_MASS>
492.27499305
> <PUBCHEM_MOLECULAR_FORMULA>
C29H32N8
> <PUBCHEM_MOLECULAR_WEIGHT>
492.6
> <PUBCHEM_OPENEYE_CAN_SMILES>
C1CCC2C(C1)NC(=N2)C3=CC4=C(C=C3)N=C(N4)CC5=NC6=C(N5)C=C(C=C6)C7=NC8CCCCC8N7
> <PUBCHEM_OPENEYE_ISO_SMILES>
C1CC[C@H]2[C@@H](C1)NC(=N2)C3=CC4=C(C=C3)N=C(N4)CC5=NC6=C(N5)C=C(C=C6)C7=N[C@@H]8CCCC[C@@H]8N7
> <PUBCHEM_CACTVS_TPSA>
106
> <PUBCHEM_MONOISOTOPIC_WEIGHT>
492.27499305
> <PUBCHEM_TOTAL_CHARGE>
0
> <PUBCHEM_HEAVY_ATOM_COUNT>
37
> <PUBCHEM_ATOM_DEF_STEREO_COUNT>
4
> <PUBCHEM_ATOM_UDEF_STEREO_COUNT>
0
> <PUBCHEM_BOND_DEF_STEREO_COUNT>
0
> <PUBCHEM_BOND_UDEF_STEREO_COUNT>
0
> <PUBCHEM_ISOTOPIC_ATOM_COUNT>
0
> <PUBCHEM_COMPONENT_COUNT>
1
> <PUBCHEM_CACTVS_TAUTO_COUNT>
-1
> <PUBCHEM_COORDINATE_TYPE>
1
5
255
> <PUBCHEM_BONDANNOTATIONS>
10  39  6
11  40  5
12  41  6
23  25  8
23  27  8
24  26  8
24  28  8
25  29  8
26  30  8
27  33  8
28  34  8
29  31  8
30  32  8
31  33  8
32  34  8
5  29  8
5  35  8
6  30  8
6  36  8
7  31  8
7  35  8
8  32  8
8  36  8
9  38  5
$$$$
