516483
  -OEChem-10302200282D
118120  0     1  0  0  0  0  0999 V2000
    8.0094   -1.2737    0.0000 O   0  0  0  0  0  0  0  0  0  0  0  0
    8.7331   -4.1283    0.0000 O   0  0  0  0  0  0  0  0  0  0  0  0
    9.5842    1.9698    0.0000 O   0  0  0  0  0  0  0  0  0  0  0  0
    6.1350   -1.6283    0.0000 O   0  0  0  0  0  0  0  0  0  0  0  0
    9.7921    2.9479    0.0000 O   0  0  0  0  0  0  0  0  0  0  0  0
    6.4037    3.6682    0.0000 O   0  0  0  0  0  0  0  0  0  0  0  0
    3.4030   -1.1283    0.0000 O   0  0  0  0  0  0  0  0  0  0  0  0
   10.7432    3.2569    0.0000 O   0  0  0  0  0  0  0  0  0  0  0  0
    2.5369   -2.6283    0.0000 O   0  0  0  0  0  0  0  0  0  0  0  0
    3.4030   -4.1283    0.0000 O   0  0  0  0  0  0  0  0  0  0  0  0
    9.6727    6.5515    0.0000 O   0  0  0  0  0  0  0  0  0  0  0  0
    9.7036   -1.6338    0.0000 N   0  0  0  0  0  0  0  0  0  0  0  0
    8.4253    0.6826    0.0000 N   0  0  0  0  0  0  0  0  0  0  0  0
    7.8671   -2.6283    0.0000 N   0  0  0  0  0  0  0  0  0  0  0  0
    8.0979    3.3080    0.0000 N   0  0  0  0  0  0  0  0  0  0  0  0
    5.1350   -3.1283    0.0000 N   0  0  0  0  0  0  0  0  0  0  0  0
    4.5601   -4.9602    0.0000 N   0  0  0  0  0  0  0  0  0  0  0  0
   10.2080    4.9042    0.0000 N   0  0  0  0  0  0  0  0  0  0  0  0
    5.2448    2.3810    0.0000 N   0  0  0  0  0  0  0  0  0  0  0  0
   12.1101    5.5223    0.0000 N   0  0  0  0  0  0  0  0  0  0  0  0
    7.9785    6.9116    0.0000 N   0  0  0  0  0  0  0  0  0  0  0  0
    9.5991   -2.6283    0.0000 C   0  0  1  0  0  0  0  0  0  0  0  0
   10.5127   -3.0350    0.0000 C   0  0  0  0  0  0  0  0  0  0  0  0
   10.6818   -1.4259    0.0000 C   0  0  0  0  0  0  0  0  0  0  0  0
   11.1818   -2.2919    0.0000 C   0  0  0  0  0  0  0  0  0  0  0  0
    9.1684    0.0135    0.0000 C   0  0  2  0  0  0  0  0  0  0  0  0
    8.9605   -0.9647    0.0000 C   0  0  0  0  0  0  0  0  0  0  0  0
   10.1195    0.3225    0.0000 C   0  0  2  0  0  0  0  0  0  0  0  0
    8.7331   -3.1283    0.0000 C   0  0  0  0  0  0  0  0  0  0  0  0
   10.3274    1.3007    0.0000 C   0  0  0  0  0  0  0  0  0  0  0  0
   10.8626   -0.3466    0.0000 C   0  0  0  0  0  0  0  0  0  0  0  0
    7.0010   -3.1283    0.0000 C   0  0  1  0  0  0  0  0  0  0  0  0
    8.6332    1.6608    0.0000 C   0  0  0  0  0  0  0  0  0  0  0  0
    7.0010   -4.1283    0.0000 C   0  0  0  0  0  0  0  0  0  0  0  0
   11.2784    1.6097    0.0000 C   0  0  0  0  0  0  0  0  0  0  0  0
    7.8900    2.3299    0.0000 C   0  0  2  0  0  0  0  0  0  0  0  0
    6.1350   -2.6283    0.0000 C   0  0  0  0  0  0  0  0  0  0  0  0
    6.1350   -4.6283    0.0000 C   0  0  0  0  0  0  0  0  0  0  0  0
    6.9390    2.0209    0.0000 C   0  0  0  0  0  0  0  0  0  0  0  0
    6.0320   -5.6170    0.0000 C   0  0  0  0  0  0  0  0  0  0  0  0
    5.2272   -4.2232    0.0000 C   0  0  0  0  0  0  0  0  0  0  0  0
    5.0534   -5.8232    0.0000 C   0  0  0  0  0  0  0  0  0  0  0  0
    9.0490    3.6171    0.0000 C   0  0  0  0  0  0  0  0  0  0  0  0
    9.2569    4.5952    0.0000 C   0  0  2  0  0  0  0  0  0  0  0  0
    4.2690   -2.6283    0.0000 C   0  0  1  0  0  0  0  0  0  0  0  0
    6.1958    2.6900    0.0000 C   0  0  0  0  0  0  0  0  0  0  0  0
   12.6453    3.8750    0.0000 C   0  0  2  0  0  0  0  0  0  0  0  0
   11.9022    4.5441    0.0000 C   0  0  1  0  0  0  0  0  0  0  0  0
    6.6998   -6.3613    0.0000 C   0  0  0  0  0  0  0  0  0  0  0  0
    8.5138    5.2643    0.0000 C   0  0  0  0  0  0  0  0  0  0  0  0
    4.7428   -6.7738    0.0000 C   0  0  0  0  0  0  0  0  0  0  0  0
   10.9511    4.2351    0.0000 C   0  0  0  0  0  0  0  0  0  0  0  0
   13.5964    4.1840    0.0000 C   0  0  0  0  0  0  0  0  0  0  0  0
    4.2690   -1.6283    0.0000 C   0  0  0  0  0  0  0  0  0  0  0  0
    6.3891   -7.3118    0.0000 C   0  0  0  0  0  0  0  0  0  0  0  0
   12.4374    2.8968    0.0000 C   0  0  0  0  0  0  0  0  0  0  0  0
    5.4106   -7.5181    0.0000 C   0  0  0  0  0  0  0  0  0  0  0  0
    3.4030   -3.1283    0.0000 C   0  0  0  0  0  0  0  0  0  0  0  0
   14.3395    3.5149    0.0000 C   0  0  0  0  0  0  0  0  0  0  0  0
    8.7217    6.2425    0.0000 C   0  0  0  0  0  0  0  0  0  0  0  0
    9.0791   -2.2906    0.0000 H   0  0  0  0  0  0  0  0  0  0  0  0
   10.2027   -3.5720    0.0000 H   0  0  0  0  0  0  0  0  0  0  0  0
   11.0142   -3.3995    0.0000 H   0  0  0  0  0  0  0  0  0  0  0  0
   11.2482   -1.1737    0.0000 H   0  0  0  0  0  0  0  0  0  0  0  0
   10.4902   -0.8362    0.0000 H   0  0  0  0  0  0  0  0  0  0  0  0
   11.5966   -2.7526    0.0000 H   0  0  0  0  0  0  0  0  0  0  0  0
   11.6834   -1.9275    0.0000 H   0  0  0  0  0  0  0  0  0  0  0  0
    9.2973    0.6199    0.0000 H   0  0  0  0  0  0  0  0  0  0  0  0
    9.9906   -0.2839    0.0000 H   0  0  0  0  0  0  0  0  0  0  0  0
   10.2411    1.9146    0.0000 H   0  0  0  0  0  0  0  0  0  0  0  0
    9.7078    1.3223    0.0000 H   0  0  0  0  0  0  0  0  0  0  0  0
    7.8356    0.4910    0.0000 H   0  0  0  0  0  0  0  0  0  0  0  0
    7.8671   -2.0083    0.0000 H   0  0  0  0  0  0  0  0  0  0  0  0
   10.4477   -0.8074    0.0000 H   0  0  0  0  0  0  0  0  0  0  0  0
   11.3234   -0.7615    0.0000 H   0  0  0  0  0  0  0  0  0  0  0  0
   11.2775    0.1141    0.0000 H   0  0  0  0  0  0  0  0  0  0  0  0
    7.5380   -3.4383    0.0000 H   0  0  0  0  0  0  0  0  0  0  0  0
    7.2131   -4.7109    0.0000 H   0  0  0  0  0  0  0  0  0  0  0  0
    7.6116   -4.0206    0.0000 H   0  0  0  0  0  0  0  0  0  0  0  0
   11.4700    1.0200    0.0000 H   0  0  0  0  0  0  0  0  0  0  0  0
   11.8681    1.8013    0.0000 H   0  0  0  0  0  0  0  0  0  0  0  0
   11.0868    2.1993    0.0000 H   0  0  0  0  0  0  0  0  0  0  0  0
    8.4797    2.5215    0.0000 H   0  0  0  0  0  0  0  0  0  0  0  0
    6.4504    1.6392    0.0000 H   0  0  0  0  0  0  0  0  0  0  0  0
    7.2300    1.4735    0.0000 H   0  0  0  0  0  0  0  0  0  0  0  0
    7.6372    3.7229    0.0000 H   0  0  0  0  0  0  0  0  0  0  0  0
    5.6720   -3.4383    0.0000 H   0  0  0  0  0  0  0  0  0  0  0  0
    5.0994   -3.6165    0.0000 H   0  0  0  0  0  0  0  0  0  0  0  0
    9.7177    4.1804    0.0000 H   0  0  0  0  0  0  0  0  0  0  0  0
    4.8059   -2.3183    0.0000 H   0  0  0  0  0  0  0  0  0  0  0  0
    3.9438   -4.8933    0.0000 H   0  0  0  0  0  0  0  0  0  0  0  0
   12.0557    3.6834    0.0000 H   0  0  0  0  0  0  0  0  0  0  0  0
   12.4918    4.7357    0.0000 H   0  0  0  0  0  0  0  0  0  0  0  0
    7.3065   -6.2335    0.0000 H   0  0  0  0  0  0  0  0  0  0  0  0
   10.3369    5.5107    0.0000 H   0  0  0  0  0  0  0  0  0  0  0  0
    7.9389    5.4966    0.0000 H   0  0  0  0  0  0  0  0  0  0  0  0
    8.1852    4.7386    0.0000 H   0  0  0  0  0  0  0  0  0  0  0  0
    4.1361   -6.9016    0.0000 H   0  0  0  0  0  0  0  0  0  0  0  0
   14.0849    4.5657    0.0000 H   0  0  0  0  0  0  0  0  0  0  0  0
   13.3053    4.7314    0.0000 H   0  0  0  0  0  0  0  0  0  0  0  0
    4.8796   -1.7360    0.0000 H   0  0  0  0  0  0  0  0  0  0  0  0
    4.4810   -1.0457    0.0000 H   0  0  0  0  0  0  0  0  0  0  0  0
    6.8032   -7.7733    0.0000 H   0  0  0  0  0  0  0  0  0  0  0  0
   11.8309    3.0257    0.0000 H   0  0  0  0  0  0  0  0  0  0  0  0
   12.3085    2.2904    0.0000 H   0  0  0  0  0  0  0  0  0  0  0  0
   13.0439    2.7679    0.0000 H   0  0  0  0  0  0  0  0  0  0  0  0
    5.2180   -8.1074    0.0000 H   0  0  0  0  0  0  0  0  0  0  0  0
   12.6997    5.7138    0.0000 H   0  0  0  0  0  0  0  0  0  0  0  0
   11.6493    5.9371    0.0000 H   0  0  0  0  0  0  0  0  0  0  0  0
    4.7840    2.7959    0.0000 H   0  0  0  0  0  0  0  0  0  0  0  0
    5.1159    1.7745    0.0000 H   0  0  0  0  0  0  0  0  0  0  0  0
   13.9247    3.0541    0.0000 H   0  0  0  0  0  0  0  0  0  0  0  0
   14.8003    3.1000    0.0000 H   0  0  0  0  0  0  0  0  0  0  0  0
   14.7544    3.9756    0.0000 H   0  0  0  0  0  0  0  0  0  0  0  0
    3.4030   -0.5083    0.0000 H   0  0  0  0  0  0  0  0  0  0  0  0
    2.0000   -2.9383    0.0000 H   0  0  0  0  0  0  0  0  0  0  0  0
    8.1074    7.5181    0.0000 H   0  0  0  0  0  0  0  0  0  0  0  0
    7.3889    6.7200    0.0000 H   0  0  0  0  0  0  0  0  0  0  0  0
  1 27  2  0  0  0  0
  2 29  2  0  0  0  0
  3 33  2  0  0  0  0
  4 37  2  0  0  0  0
  5 43  2  0  0  0  0
  6 46  2  0  0  0  0
  7 54  1  0  0  0  0
  7115  1  0  0  0  0
  8 52  2  0  0  0  0
  9 58  1  0  0  0  0
  9116  1  0  0  0  0
 10 58  2  0  0  0  0
 11 60  2  0  0  0  0
 12 22  1  0  0  0  0
 12 24  1  0  0  0  0
 12 27  1  0  0  0  0
 26 13  1  1  0  0  0
 13 33  1  0  0  0  0
 13 72  1  0  0  0  0
 14 29  1  0  0  0  0
 32 14  1  1  0  0  0
 14 73  1  0  0  0  0
 36 15  1  6  0  0  0
 15 43  1  0  0  0  0
 15 86  1  0  0  0  0
 16 37  1  0  0  0  0
 45 16  1  6  0  0  0
 16 87  1  0  0  0  0
 17 41  1  0  0  0  0
 17 42  1  0  0  0  0
 17 91  1  0  0  0  0
 44 18  1  6  0  0  0
 18 52  1  0  0  0  0
 18 95  1  0  0  0  0
 19 46  1  0  0  0  0
 19110  1  0  0  0  0
 19111  1  0  0  0  0
 48 20  1  1  0  0  0
 20108  1  0  0  0  0
 20109  1  0  0  0  0
 21 60  1  0  0  0  0
 21117  1  0  0  0  0
 21118  1  0  0  0  0
 22 23  1  0  0  0  0
 22 29  1  1  0  0  0
 22 61  1  0  0  0  0
 23 25  1  0  0  0  0
 23 62  1  0  0  0  0
 23 63  1  0  0  0  0
 24 25  1  0  0  0  0
 24 64  1  0  0  0  0
 24 65  1  0  0  0  0
 25 66  1  0  0  0  0
 25 67  1  0  0  0  0
 26 27  1  0  0  0  0
 26 28  1  0  0  0  0
 26 68  1  0  0  0  0
 28 30  1  0  0  0  0
 28 31  1  6  0  0  0
 28 69  1  0  0  0  0
 30 35  1  0  0  0  0
 30 70  1  0  0  0  0
 30 71  1  0  0  0  0
 31 74  1  0  0  0  0
 31 75  1  0  0  0  0
 31 76  1  0  0  0  0
 32 34  1  0  0  0  0
 32 37  1  0  0  0  0
 32 77  1  0  0  0  0
 33 36  1  0  0  0  0
 34 38  1  0  0  0  0
 34 78  1  0  0  0  0
 34 79  1  0  0  0  0
 35 80  1  0  0  0  0
 35 81  1  0  0  0  0
 35 82  1  0  0  0  0
 36 39  1  0  0  0  0
 36 83  1  0  0  0  0
 38 40  1  0  0  0  0
 38 41  2  0  0  0  0
 39 46  1  0  0  0  0
 39 84  1  0  0  0  0
 39 85  1  0  0  0  0
 40 42  1  0  0  0  0
 40 49  2  0  0  0  0
 41 88  1  0  0  0  0
 42 51  2  0  0  0  0
 43 44  1  0  0  0  0
 44 50  1  0  0  0  0
 44 89  1  0  0  0  0
 45 54  1  0  0  0  0
 45 58  1  0  0  0  0
 45 90  1  0  0  0  0
 47 48  1  0  0  0  0
 47 53  1  0  0  0  0
 47 56  1  6  0  0  0
 47 92  1  0  0  0  0
 48 52  1  0  0  0  0
 48 93  1  0  0  0  0
 49 55  1  0  0  0  0
 49 94  1  0  0  0  0
 50 60  1  0  0  0  0
 50 96  1  0  0  0  0
 50 97  1  0  0  0  0
 51 57  1  0  0  0  0
 51 98  1  0  0  0  0
 53 59  1  0  0  0  0
 53 99  1  0  0  0  0
 53100  1  0  0  0  0
 54101  1  0  0  0  0
 54102  1  0  0  0  0
 55 57  2  0  0  0  0
 55103  1  0  0  0  0
 56104  1  0  0  0  0
 56105  1  0  0  0  0
 56106  1  0  0  0  0
 57107  1  0  0  0  0
 59112  1  0  0  0  0
 59113  1  0  0  0  0
 59114  1  0  0  0  0
M  END
> <PUBCHEM_COMPOUND_CID>
516483
> <PUBCHEM_COMPOUND_CANONICALIZED>
1
> <PUBCHEM_CACTVS_COMPLEXITY>
1580
> <PUBCHEM_CACTVS_HBOND_ACCEPTOR>
12
> <PUBCHEM_CACTVS_HBOND_DONOR>
11
> <PUBCHEM_CACTVS_ROTATABLE_BOND>
23
> <PUBCHEM_CACTVS_SUBSKEYS>
AAADcfB//AAAAAAAAAAAAAAAAAAAAWLAAAAwAAAAAAAAAFgB8AAAHgAQCAAADSjhngY+yPPJkgCoAzX3XACCgCAxAiAI2aG4ZJgKcP7A0bGUYAhhtgDYyAcdicCOgAAAAAACAAAAAAAAAAQAAAAAAAAAAA==
> <PUBCHEM_IUPAC_OPENEYE_NAME>
(2S)-2-[[(2S)-2-[[(2S)-1-[(2S,3S)-2-[[(2S)-4-amino-2-[[(2S)-4-amino-2-[[(2S,3S)-2-amino-3-methyl-pentanoyl]amino]-4-oxo-butanoyl]amino]-4-oxo-butanoyl]amino]-3-methyl-pentanoyl]pyrrolidine-2-carbonyl]amino]-3-(1H-indol-3-yl)propanoyl]amino]-3-hydroxy-propanoic acid
> <PUBCHEM_IUPAC_CAS_NAME>
(2S)-2-[[(2S)-2-[[[(2S)-1-[(2S,3S)-2-[[(2S)-4-amino-2-[[(2S)-4-amino-2-[[(2S,3S)-2-amino-3-methyl-1-oxopentyl]amino]-1,4-dioxobutyl]amino]-1,4-dioxobutyl]amino]-3-methyl-1-oxopentyl]-2-pyrrolidinyl]-oxomethyl]amino]-3-(1H-indol-3-yl)-1-oxopropyl]amino]-3-hydroxypropanoic acid
> <PUBCHEM_IUPAC_NAME_MARKUP>
(2<I>S</I>)-2-[[(2<I>S</I>)-2-[[(2<I>S</I>)-1-[(2<I>S</I>,3<I>S</I>)-2-[[(2<I>S</I>)-4-amino-2-[[(2<I>S</I>)-4-amino-2-[[(2<I>S</I>,3<I>S</I>)-2-amino-3-methylpentanoyl]amino]-4-oxobutanoyl]amino]-4-oxobutanoyl]amino]-3-methylpentanoyl]pyrrolidine-2-carbonyl]amino]-3-(1<I>H</I>-indol-3-yl)propanoyl]amino]-3-hydroxypropanoic acid
> <PUBCHEM_IUPAC_NAME>
(2S)-2-[[(2S)-2-[[(2S)-1-[(2S,3S)-2-[[(2S)-4-amino-2-[[(2S)-4-amino-2-[[(2S,3S)-2-amino-3-methylpentanoyl]amino]-4-oxobutanoyl]amino]-4-oxobutanoyl]amino]-3-methylpentanoyl]pyrrolidine-2-carbonyl]amino]-3-(1H-indol-3-yl)propanoyl]amino]-3-hydroxypropanoic acid
> <PUBCHEM_IUPAC_SYSTEMATIC_NAME>
(2S)-2-[[(2S)-2-[[(2S)-1-[(2S,3S)-2-[[(2S)-4-azanyl-2-[[(2S)-4-azanyl-2-[[(2S,3S)-2-azanyl-3-methyl-pentanoyl]amino]-4-oxidanylidene-butanoyl]amino]-4-oxidanylidene-butanoyl]amino]-3-methyl-pentanoyl]pyrrolidin-2-yl]carbonylamino]-3-(1H-indol-3-yl)propanoyl]amino]-3-oxidanyl-propanoic acid
> <PUBCHEM_IUPAC_TRADITIONAL_NAME>
(2S)-2-[[(2S)-2-[[(2S)-1-[(2S,3S)-2-[[(2S)-4-amino-2-[[(2S)-4-amino-2-[[(2S,3S)-2-amino-3-methyl-pentanoyl]amino]-4-keto-butanoyl]amino]-4-keto-butanoyl]amino]-3-methyl-pentanoyl]prolyl]amino]-3-(1H-indol-3-yl)propanoyl]amino]-3-hydroxy-propionic acid
> <PUBCHEM_IUPAC_INCHI>
InChI=1S/C39H58N10O11/c1-5-19(3)31(42)37(57)46-25(15-29(40)51)34(54)44-26(16-30(41)52)35(55)48-32(20(4)6-2)38(58)49-13-9-12-28(49)36(56)45-24(33(53)47-27(18-50)39(59)60)14-21-17-43-23-11-8-7-10-22(21)23/h7-8,10-11,17,19-20,24-28,31-32,43,50H,5-6,9,12-16,18,42H2,1-4H3,(H2,40,51)(H2,41,52)(H,44,54)(H,45,56)(H,46,57)(H,47,53)(H,48,55)(H,59,60)/t19-,20-,24-,25-,26-,27-,28-,31-,32-/m0/s1
> <PUBCHEM_IUPAC_INCHIKEY>
HSLPOTKFOBSAPU-PPXQJOEMSA-N
> <PUBCHEM_XLOGP3_AA>
-3.9
> <PUBCHEM_EXACT_MASS>
842.42865270
> <PUBCHEM_MOLECULAR_FORMULA>
C39H58N10O11
> <PUBCHEM_MOLECULAR_WEIGHT>
842.9
> <PUBCHEM_OPENEYE_CAN_SMILES>
CCC(C)C(C(=O)NC(CC(=O)N)C(=O)NC(CC(=O)N)C(=O)NC(C(C)CC)C(=O)N1CCCC1C(=O)NC(CC2=CNC3=CC=CC=C32)C(=O)NC(CO)C(=O)O)N
> <PUBCHEM_OPENEYE_ISO_SMILES>
CC[C@H](C)[C@@H](C(=O)N[C@@H](CC(=O)N)C(=O)N[C@@H](CC(=O)N)C(=O)N[C@@H]([C@@H](C)CC)C(=O)N1CCC[C@H]1C(=O)N[C@@H](CC2=CNC3=CC=CC=C32)C(=O)N[C@@H](CO)C(=O)O)N
> <PUBCHEM_CACTVS_TPSA>
351
> <PUBCHEM_MONOISOTOPIC_WEIGHT>
842.42865270
> <PUBCHEM_TOTAL_CHARGE>
0
> <PUBCHEM_HEAVY_ATOM_COUNT>
60
> <PUBCHEM_ATOM_DEF_STEREO_COUNT>
9
> <PUBCHEM_ATOM_UDEF_STEREO_COUNT>
0
> <PUBCHEM_BOND_DEF_STEREO_COUNT>
0
> <PUBCHEM_BOND_UDEF_STEREO_COUNT>
0
> <PUBCHEM_ISOTOPIC_ATOM_COUNT>
0
> <PUBCHEM_COMPONENT_COUNT>
1
> <PUBCHEM_CACTVS_TAUTO_COUNT>
-1
> <PUBCHEM_COORDINATE_TYPE>
1
5
255
> <PUBCHEM_BONDANNOTATIONS>
26  13  5
32  14  5
36  15  6
45  16  6
17  41  8
17  42  8
44  18  6
48  20  5
22  29  5
28  31  6
38  40  8
38  41  8
40  42  8
40  49  8
42  51  8
47  56  6
49  55  8
51  57  8
55  57  8
$$$$
