516469
  -OEChem-10302200282D
 45 48  0     1  0  0  0  0  0999 V2000
    4.5106    2.3308    0.0000 O   0  0  0  0  0  0  0  0  0  0  0  0
    6.6053    1.9075    0.0000 O   0  0  0  0  0  0  0  0  0  0  0  0
    5.6782   -0.9456    0.0000 N   0  0  0  0  0  0  0  0  0  0  0  0
    5.0091   -0.2025    0.0000 C   0  0  0  0  0  0  0  0  0  0  0  0
    5.3181    0.7486    0.0000 C   0  0  0  0  0  0  0  0  0  0  0  0
    4.5124    1.3308    0.0000 C   0  0  3  0  0  0  0  0  0  0  0  0
    4.0150   -0.1999    0.0000 C   0  0  0  0  0  0  0  0  0  0  0  0
    3.7086    0.7458    0.0000 C   0  0  0  0  0  0  0  0  0  0  0  0
    6.6564   -0.7377    0.0000 C   0  0  0  0  0  0  0  0  0  0  0  0
    6.9654    0.2133    0.0000 C   0  0  0  0  0  0  0  0  0  0  0  0
    6.2962    0.9565    0.0000 C   0  0  0  0  0  0  0  0  0  0  0  0
    5.3692   -1.8967    0.0000 C   0  0  0  0  0  0  0  0  0  0  0  0
    8.6837   -0.3231    0.0000 C   0  0  0  0  0  0  0  0  0  0  0  0
    7.9808    0.4456    0.0000 C   0  0  0  0  0  0  0  0  0  0  0  0
    7.3413   -1.5225    0.0000 C   0  0  0  0  0  0  0  0  0  0  0  0
    3.3334   -0.9794    0.0000 C   0  0  0  0  0  0  0  0  0  0  0  0
    9.6610   -0.1114    0.0000 C   0  0  0  0  0  0  0  0  0  0  0  0
    2.6994    0.9775    0.0000 C   0  0  0  0  0  0  0  0  0  0  0  0
    8.3618   -1.3138    0.0000 C   0  0  0  0  0  0  0  0  0  0  0  0
    6.0383   -2.6398    0.0000 C   0  0  0  0  0  0  0  0  0  0  0  0
    2.3191   -0.7711    0.0000 C   0  0  0  0  0  0  0  0  0  0  0  0
    2.0000    0.2140    0.0000 C   0  0  0  0  0  0  0  0  0  0  0  0
   10.3330   -0.8520    0.0000 C   0  0  0  0  0  0  0  0  0  0  0  0
    9.9664    0.8408    0.0000 C   0  0  0  0  0  0  0  0  0  0  0  0
    5.0642    1.6134    0.0000 H   0  0  0  0  0  0  0  0  0  0  0  0
    4.8218   -1.6056    0.0000 H   0  0  0  0  0  0  0  0  0  0  0  0
    4.9875   -2.3853    0.0000 H   0  0  0  0  0  0  0  0  0  0  0  0
    8.1655    1.0374    0.0000 H   0  0  0  0  0  0  0  0  0  0  0  0
    7.1429   -2.1099    0.0000 H   0  0  0  0  0  0  0  0  0  0  0  0
    3.5313   -1.5670    0.0000 H   0  0  0  0  0  0  0  0  0  0  0  0
    9.2444    0.3477    0.0000 H   0  0  0  0  0  0  0  0  0  0  0  0
    2.5152    1.5695    0.0000 H   0  0  0  0  0  0  0  0  0  0  0  0
    8.7749   -1.7761    0.0000 H   0  0  0  0  0  0  0  0  0  0  0  0
    5.5776   -3.0547    0.0000 H   0  0  0  0  0  0  0  0  0  0  0  0
    6.4532   -3.1006    0.0000 H   0  0  0  0  0  0  0  0  0  0  0  0
    6.4991   -2.2250    0.0000 H   0  0  0  0  0  0  0  0  0  0  0  0
    3.9732    2.6398    0.0000 H   0  0  0  0  0  0  0  0  0  0  0  0
    1.9056   -1.2331    0.0000 H   0  0  0  0  0  0  0  0  0  0  0  0
    1.3942    0.3458    0.0000 H   0  0  0  0  0  0  0  0  0  0  0  0
    9.8739   -1.2686    0.0000 H   0  0  0  0  0  0  0  0  0  0  0  0
   10.7497   -1.3111    0.0000 H   0  0  0  0  0  0  0  0  0  0  0  0
   10.7922   -0.4354    0.0000 H   0  0  0  0  0  0  0  0  0  0  0  0
   10.5568    0.6515    0.0000 H   0  0  0  0  0  0  0  0  0  0  0  0
   10.1557    1.4312    0.0000 H   0  0  0  0  0  0  0  0  0  0  0  0
    9.3760    1.0301    0.0000 H   0  0  0  0  0  0  0  0  0  0  0  0
  1  6  1  0  0  0  0
  1 37  1  0  0  0  0
  2 11  2  0  0  0  0
  3  4  1  0  0  0  0
  3  9  1  0  0  0  0
  3 12  1  0  0  0  0
  4  5  2  0  0  0  0
  4  7  1  0  0  0  0
  5  6  1  0  0  0  0
  5 11  1  0  0  0  0
  6  8  1  0  0  0  0
  6 25  1  0  0  0  0
  7  8  1  0  0  0  0
  7 16  2  0  0  0  0
  8 18  2  0  0  0  0
  9 10  2  0  0  0  0
  9 15  1  0  0  0  0
 10 11  1  0  0  0  0
 10 14  1  0  0  0  0
 12 20  1  0  0  0  0
 12 26  1  0  0  0  0
 12 27  1  0  0  0  0
 13 14  2  0  0  0  0
 13 17  1  0  0  0  0
 13 19  1  0  0  0  0
 14 28  1  0  0  0  0
 15 19  2  0  0  0  0
 15 29  1  0  0  0  0
 16 21  1  0  0  0  0
 16 30  1  0  0  0  0
 17 23  1  0  0  0  0
 17 24  1  0  0  0  0
 17 31  1  0  0  0  0
 18 22  1  0  0  0  0
 18 32  1  0  0  0  0
 19 33  1  0  0  0  0
 20 34  1  0  0  0  0
 20 35  1  0  0  0  0
 20 36  1  0  0  0  0
 21 22  2  0  0  0  0
 21 38  1  0  0  0  0
 22 39  1  0  0  0  0
 23 40  1  0  0  0  0
 23 41  1  0  0  0  0
 23 42  1  0  0  0  0
 24 43  1  0  0  0  0
 24 44  1  0  0  0  0
 24 45  1  0  0  0  0
M  END
> <PUBCHEM_COMPOUND_CID>
516469
> <PUBCHEM_COMPOUND_CANONICALIZED>
1
> <PUBCHEM_CACTVS_COMPLEXITY>
552
> <PUBCHEM_CACTVS_HBOND_ACCEPTOR>
3
> <PUBCHEM_CACTVS_HBOND_DONOR>
1
> <PUBCHEM_CACTVS_ROTATABLE_BOND>
2
> <PUBCHEM_CACTVS_SUBSKEYS>
AAADceB6MAAAAAAAAAAAAAAAAAAAAQAAAAAwYIAAAAAAAFiBQAAAHgAACAAADRzhmAYywIMAAgCIAqRSQACCAAAlAgAIiAEIbMgINj7AlZGEcYhk4AHI2ce42OOOiAACAAASAAAQAAQAACQAAAAAAAAAAA==
> <PUBCHEM_IUPAC_OPENEYE_NAME>
5-ethyl-11-hydroxy-8-isopropyl-11H-indeno[1,2-b]quinolin-10-one
> <PUBCHEM_IUPAC_CAS_NAME>
5-ethyl-11-hydroxy-8-propan-2-yl-11H-indeno[1,2-b]quinolin-10-one
> <PUBCHEM_IUPAC_NAME_MARKUP>
5-ethyl-11-hydroxy-8-propan-2-yl-11<I>H</I>-indeno[1,2-b]quinolin-10-one
> <PUBCHEM_IUPAC_NAME>
5-ethyl-11-hydroxy-8-propan-2-yl-11H-indeno[1,2-b]quinolin-10-one
> <PUBCHEM_IUPAC_SYSTEMATIC_NAME>
5-ethyl-11-oxidanyl-8-propan-2-yl-11H-indeno[1,2-b]quinolin-10-one
> <PUBCHEM_IUPAC_TRADITIONAL_NAME>
5-ethyl-11-hydroxy-8-isopropyl-11H-indeno[1,2-b]quinolin-10-one
> <PUBCHEM_IUPAC_INCHI>
InChI=1S/C21H21NO2/c1-4-22-17-10-9-13(12(2)3)11-16(17)21(24)18-19(22)14-7-5-6-8-15(14)20(18)23/h5-12,20,23H,4H2,1-3H3
> <PUBCHEM_IUPAC_INCHIKEY>
LRBKZCRQEQNAJH-UHFFFAOYSA-N
> <PUBCHEM_XLOGP3_AA>
3.7
> <PUBCHEM_EXACT_MASS>
319.157228913
> <PUBCHEM_MOLECULAR_FORMULA>
C21H21NO2
> <PUBCHEM_MOLECULAR_WEIGHT>
319.4
> <PUBCHEM_OPENEYE_CAN_SMILES>
CCN1C2=C(C=C(C=C2)C(C)C)C(=O)C3=C1C4=CC=CC=C4C3O
> <PUBCHEM_OPENEYE_ISO_SMILES>
CCN1C2=C(C=C(C=C2)C(C)C)C(=O)C3=C1C4=CC=CC=C4C3O
> <PUBCHEM_CACTVS_TPSA>
40.5
> <PUBCHEM_MONOISOTOPIC_WEIGHT>
319.157228913
> <PUBCHEM_TOTAL_CHARGE>
0
> <PUBCHEM_HEAVY_ATOM_COUNT>
24
> <PUBCHEM_ATOM_DEF_STEREO_COUNT>
0
> <PUBCHEM_ATOM_UDEF_STEREO_COUNT>
1
> <PUBCHEM_BOND_DEF_STEREO_COUNT>
0
> <PUBCHEM_BOND_UDEF_STEREO_COUNT>
0
> <PUBCHEM_ISOTOPIC_ATOM_COUNT>
0
> <PUBCHEM_COMPONENT_COUNT>
1
> <PUBCHEM_CACTVS_TAUTO_COUNT>
-1
> <PUBCHEM_COORDINATE_TYPE>
1
5
255
> <PUBCHEM_BONDANNOTATIONS>
6  1  3
10  11  8
10  14  8
13  14  8
13  19  8
15  19  8
16  21  8
18  22  8
21  22  8
3  4  8
3  9  8
4  5  8
5  11  8
7  16  8
7  8  8
8  18  8
9  10  8
9  15  8
$$$$
