516480
  -OEChem-10302200282D
167169  0     1  0  0  0  0  0999 V2000
   13.4735   -4.4213    0.0000 O   0  0  0  0  0  0  0  0  0  0  0  0
   14.1972   -7.2760    0.0000 O   0  0  0  0  0  0  0  0  0  0  0  0
   15.0483   -1.1779    0.0000 O   0  0  0  0  0  0  0  0  0  0  0  0
   11.5991   -4.7760    0.0000 O   0  0  0  0  0  0  0  0  0  0  0  0
   15.2562   -0.1997    0.0000 O   0  0  0  0  0  0  0  0  0  0  0  0
   11.8678    0.5205    0.0000 O   0  0  0  0  0  0  0  0  0  0  0  0
    8.8671   -4.2760    0.0000 O   0  0  0  0  0  0  0  0  0  0  0  0
    8.8671   -7.2760    0.0000 O   0  0  0  0  0  0  0  0  0  0  0  0
   15.1368    3.4038    0.0000 O   0  0  0  0  0  0  0  0  0  0  0  0
   11.9563    5.1022    0.0000 O   0  0  0  0  0  0  0  0  0  0  0  0
   16.2073    0.1093    0.0000 O   0  0  0  0  0  0  0  0  0  0  0  0
    6.1350   -4.7760    0.0000 O   0  0  0  0  0  0  0  0  0  0  0  0
    5.2690   -9.2760    0.0000 O   0  0  0  0  0  0  0  0  0  0  0  0
    7.0010   -9.2760    0.0000 O   0  0  0  0  0  0  0  0  0  0  0  0
    2.5369   -5.7760    0.0000 O   0  0  0  0  0  0  0  0  0  0  0  0
    3.4030   -7.2760    0.0000 O   0  0  0  0  0  0  0  0  0  0  0  0
   15.1677   -4.7815    0.0000 N   0  0  0  0  0  0  0  0  0  0  0  0
   13.8894   -2.4650    0.0000 N   0  0  0  0  0  0  0  0  0  0  0  0
   13.3312   -5.7760    0.0000 N   0  0  0  0  0  0  0  0  0  0  0  0
   13.5620    0.1604    0.0000 N   0  0  0  0  0  0  0  0  0  0  0  0
   10.5991   -6.2760    0.0000 N   0  0  0  0  0  0  0  0  0  0  0  0
   10.0242   -8.1079    0.0000 N   0  0  0  0  0  0  0  0  0  0  0  0
   13.9779    2.1167    0.0000 N   0  0  0  0  0  0  0  0  0  0  0  0
   13.6505    4.7421    0.0000 N   0  0  0  0  0  0  0  0  0  0  0  0
    7.8671   -5.7760    0.0000 N   0  0  0  0  0  0  0  0  0  0  0  0
   10.7089   -0.7667    0.0000 N   0  0  0  0  0  0  0  0  0  0  0  0
   12.3722    7.0585    0.0000 N   0  0  0  0  0  0  0  0  0  0  0  0
   17.3663    1.3964    0.0000 N   0  0  0  0  0  0  0  0  0  0  0  0
    5.1350   -6.2760    0.0000 N   0  0  0  0  0  0  0  0  0  0  0  0
   15.4332    8.9637    0.0000 N   0  0  0  0  0  0  0  0  0  0  0  0
   16.5922   10.2509    0.0000 N   0  0  0  0  0  0  0  0  0  0  0  0
   17.1274    8.6036    0.0000 N   0  0  0  0  0  0  0  0  0  0  0  0
   15.0632   -5.7760    0.0000 C   0  0  1  0  0  0  0  0  0  0  0  0
   15.9768   -6.1827    0.0000 C   0  0  0  0  0  0  0  0  0  0  0  0
   16.1459   -4.5735    0.0000 C   0  0  0  0  0  0  0  0  0  0  0  0
   16.6459   -5.4396    0.0000 C   0  0  0  0  0  0  0  0  0  0  0  0
   14.6325   -3.1342    0.0000 C   0  0  2  0  0  0  0  0  0  0  0  0
   14.4246   -4.1123    0.0000 C   0  0  0  0  0  0  0  0  0  0  0  0
   15.5836   -2.8252    0.0000 C   0  0  2  0  0  0  0  0  0  0  0  0
   14.1972   -6.2760    0.0000 C   0  0  0  0  0  0  0  0  0  0  0  0
   15.7915   -1.8470    0.0000 C   0  0  0  0  0  0  0  0  0  0  0  0
   16.3267   -3.4943    0.0000 C   0  0  0  0  0  0  0  0  0  0  0  0
   12.4651   -6.2760    0.0000 C   0  0  1  0  0  0  0  0  0  0  0  0
   14.0973   -1.4869    0.0000 C   0  0  0  0  0  0  0  0  0  0  0  0
   16.7425   -1.5380    0.0000 C   0  0  0  0  0  0  0  0  0  0  0  0
   12.4651   -7.2760    0.0000 C   0  0  0  0  0  0  0  0  0  0  0  0
   13.3541   -0.8178    0.0000 C   0  0  2  0  0  0  0  0  0  0  0  0
   11.5991   -5.7760    0.0000 C   0  0  0  0  0  0  0  0  0  0  0  0
   11.5991   -7.7760    0.0000 C   0  0  0  0  0  0  0  0  0  0  0  0
   12.4031   -1.1268    0.0000 C   0  0  0  0  0  0  0  0  0  0  0  0
   11.4961   -8.7647    0.0000 C   0  0  0  0  0  0  0  0  0  0  0  0
   10.6913   -7.3709    0.0000 C   0  0  0  0  0  0  0  0  0  0  0  0
    9.7331   -5.7760    0.0000 C   0  0  1  0  0  0  0  0  0  0  0  0
   10.5176   -8.9709    0.0000 C   0  0  0  0  0  0  0  0  0  0  0  0
   14.5131    0.4694    0.0000 C   0  0  0  0  0  0  0  0  0  0  0  0
   14.7210    1.4475    0.0000 C   0  0  2  0  0  0  0  0  0  0  0  0
   11.6599   -0.4577    0.0000 C   0  0  0  0  0  0  0  0  0  0  0  0
   13.4426    3.7640    0.0000 C   0  0  1  0  0  0  0  0  0  0  0  0
   12.4916    3.4549    0.0000 C   0  0  2  0  0  0  0  0  0  0  0  0
   12.1639   -9.5090    0.0000 C   0  0  0  0  0  0  0  0  0  0  0  0
    9.7331   -4.7760    0.0000 C   0  0  0  0  0  0  0  0  0  0  0  0
   10.2069   -9.9214    0.0000 C   0  0  0  0  0  0  0  0  0  0  0  0
   15.6721    1.7566    0.0000 C   0  0  0  0  0  0  0  0  0  0  0  0
    8.8671   -6.2760    0.0000 C   0  0  0  0  0  0  0  0  0  0  0  0
   14.1858    3.0948    0.0000 C   0  0  0  0  0  0  0  0  0  0  0  0
   11.7484    4.1241    0.0000 C   0  0  0  0  0  0  0  0  0  0  0  0
   11.8532  -10.4595    0.0000 C   0  0  0  0  0  0  0  0  0  0  0  0
   10.8747  -10.6657    0.0000 C   0  0  0  0  0  0  0  0  0  0  0  0
   12.2837    2.4768    0.0000 C   0  0  0  0  0  0  0  0  0  0  0  0
    7.0010   -6.2760    0.0000 C   0  0  1  0  0  0  0  0  0  0  0  0
   10.7974    3.8150    0.0000 C   0  0  0  0  0  0  0  0  0  0  0  0
   12.9074    5.4112    0.0000 C   0  0  0  0  0  0  0  0  0  0  0  0
   13.1153    6.3894    0.0000 C   0  0  2  0  0  0  0  0  0  0  0  0
   16.4152    1.0874    0.0000 C   0  0  0  0  0  0  0  0  0  0  0  0
    7.0010   -7.2760    0.0000 C   0  0  0  0  0  0  0  0  0  0  0  0
   14.0664    6.6984    0.0000 C   0  0  0  0  0  0  0  0  0  0  0  0
    6.1350   -5.7760    0.0000 C   0  0  0  0  0  0  0  0  0  0  0  0
   14.2743    7.6766    0.0000 C   0  0  0  0  0  0  0  0  0  0  0  0
    6.1350   -7.7760    0.0000 C   0  0  0  0  0  0  0  0  0  0  0  0
   15.2253    7.9856    0.0000 C   0  0  0  0  0  0  0  0  0  0  0  0
    4.2690   -5.7760    0.0000 C   0  0  1  0  0  0  0  0  0  0  0  0
    6.1350   -8.7760    0.0000 C   0  0  0  0  0  0  0  0  0  0  0  0
    4.2690   -4.7760    0.0000 C   0  0  0  0  0  0  0  0  0  0  0  0
    3.4030   -6.2760    0.0000 C   0  0  0  0  0  0  0  0  0  0  0  0
   16.3843    9.2727    0.0000 C   0  0  0  0  0  0  0  0  0  0  0  0
   14.5432   -5.4383    0.0000 H   0  0  0  0  0  0  0  0  0  0  0  0
   15.6668   -6.7196    0.0000 H   0  0  0  0  0  0  0  0  0  0  0  0
   16.4783   -6.5471    0.0000 H   0  0  0  0  0  0  0  0  0  0  0  0
   16.7123   -4.3214    0.0000 H   0  0  0  0  0  0  0  0  0  0  0  0
   15.9543   -3.9839    0.0000 H   0  0  0  0  0  0  0  0  0  0  0  0
   17.0608   -5.9003    0.0000 H   0  0  0  0  0  0  0  0  0  0  0  0
   17.1475   -5.0751    0.0000 H   0  0  0  0  0  0  0  0  0  0  0  0
   14.7614   -2.5277    0.0000 H   0  0  0  0  0  0  0  0  0  0  0  0
   15.4547   -3.4316    0.0000 H   0  0  0  0  0  0  0  0  0  0  0  0
   15.7052   -1.2330    0.0000 H   0  0  0  0  0  0  0  0  0  0  0  0
   15.1719   -1.8254    0.0000 H   0  0  0  0  0  0  0  0  0  0  0  0
   13.2997   -2.6566    0.0000 H   0  0  0  0  0  0  0  0  0  0  0  0
   13.3312   -5.1560    0.0000 H   0  0  0  0  0  0  0  0  0  0  0  0
   15.9118   -3.9550    0.0000 H   0  0  0  0  0  0  0  0  0  0  0  0
   16.7875   -3.9092    0.0000 H   0  0  0  0  0  0  0  0  0  0  0  0
   16.7416   -3.0335    0.0000 H   0  0  0  0  0  0  0  0  0  0  0  0
   13.0021   -6.5860    0.0000 H   0  0  0  0  0  0  0  0  0  0  0  0
   16.9341   -2.1276    0.0000 H   0  0  0  0  0  0  0  0  0  0  0  0
   17.3322   -1.3464    0.0000 H   0  0  0  0  0  0  0  0  0  0  0  0
   16.5509   -0.9483    0.0000 H   0  0  0  0  0  0  0  0  0  0  0  0
   12.6772   -7.8586    0.0000 H   0  0  0  0  0  0  0  0  0  0  0  0
   13.0757   -7.1683    0.0000 H   0  0  0  0  0  0  0  0  0  0  0  0
   12.8934   -0.4029    0.0000 H   0  0  0  0  0  0  0  0  0  0  0  0
   11.9145   -1.5085    0.0000 H   0  0  0  0  0  0  0  0  0  0  0  0
   12.6941   -1.6742    0.0000 H   0  0  0  0  0  0  0  0  0  0  0  0
   13.1013    0.5752    0.0000 H   0  0  0  0  0  0  0  0  0  0  0  0
   11.1360   -6.5860    0.0000 H   0  0  0  0  0  0  0  0  0  0  0  0
   10.5635   -6.7642    0.0000 H   0  0  0  0  0  0  0  0  0  0  0  0
   10.2700   -5.4660    0.0000 H   0  0  0  0  0  0  0  0  0  0  0  0
   14.1314    1.2560    0.0000 H   0  0  0  0  0  0  0  0  0  0  0  0
    9.4079   -8.0409    0.0000 H   0  0  0  0  0  0  0  0  0  0  0  0
   12.9819    4.1788    0.0000 H   0  0  0  0  0  0  0  0  0  0  0  0
   11.9019    3.2634    0.0000 H   0  0  0  0  0  0  0  0  0  0  0  0
   12.7706   -9.3811    0.0000 H   0  0  0  0  0  0  0  0  0  0  0  0
   10.3437   -4.8836    0.0000 H   0  0  0  0  0  0  0  0  0  0  0  0
    9.9451   -4.1934    0.0000 H   0  0  0  0  0  0  0  0  0  0  0  0
   13.3882    1.9251    0.0000 H   0  0  0  0  0  0  0  0  0  0  0  0
   16.1606    2.1383    0.0000 H   0  0  0  0  0  0  0  0  0  0  0  0
   15.3810    2.3040    0.0000 H   0  0  0  0  0  0  0  0  0  0  0  0
    9.6002  -10.0493    0.0000 H   0  0  0  0  0  0  0  0  0  0  0  0
   12.2370    4.5058    0.0000 H   0  0  0  0  0  0  0  0  0  0  0  0
   11.4574    4.6715    0.0000 H   0  0  0  0  0  0  0  0  0  0  0  0
   12.2673  -10.9210    0.0000 H   0  0  0  0  0  0  0  0  0  0  0  0
   14.2402    4.9337    0.0000 H   0  0  0  0  0  0  0  0  0  0  0  0
   11.6772    2.6057    0.0000 H   0  0  0  0  0  0  0  0  0  0  0  0
   12.1548    1.8703    0.0000 H   0  0  0  0  0  0  0  0  0  0  0  0
   12.8901    2.3479    0.0000 H   0  0  0  0  0  0  0  0  0  0  0  0
   10.6821  -11.2551    0.0000 H   0  0  0  0  0  0  0  0  0  0  0  0
    8.4040   -5.4660    0.0000 H   0  0  0  0  0  0  0  0  0  0  0  0
   10.2481   -0.3518    0.0000 H   0  0  0  0  0  0  0  0  0  0  0  0
   10.5800   -1.3731    0.0000 H   0  0  0  0  0  0  0  0  0  0  0  0
    7.5380   -6.5860    0.0000 H   0  0  0  0  0  0  0  0  0  0  0  0
   10.6058    4.4047    0.0000 H   0  0  0  0  0  0  0  0  0  0  0  0
   10.2077    3.6235    0.0000 H   0  0  0  0  0  0  0  0  0  0  0  0
   10.9890    3.2254    0.0000 H   0  0  0  0  0  0  0  0  0  0  0  0
   13.2442    6.9958    0.0000 H   0  0  0  0  0  0  0  0  0  0  0  0
    7.2131   -7.8586    0.0000 H   0  0  0  0  0  0  0  0  0  0  0  0
    7.6116   -7.1683    0.0000 H   0  0  0  0  0  0  0  0  0  0  0  0
   14.1527    6.0844    0.0000 H   0  0  0  0  0  0  0  0  0  0  0  0
   14.6860    6.6768    0.0000 H   0  0  0  0  0  0  0  0  0  0  0  0
    8.8671   -3.6560    0.0000 H   0  0  0  0  0  0  0  0  0  0  0  0
   14.1880    8.2905    0.0000 H   0  0  0  0  0  0  0  0  0  0  0  0
   13.6547    7.6982    0.0000 H   0  0  0  0  0  0  0  0  0  0  0  0
    5.9230   -7.1934    0.0000 H   0  0  0  0  0  0  0  0  0  0  0  0
    5.5244   -7.8836    0.0000 H   0  0  0  0  0  0  0  0  0  0  0  0
   12.5011    7.6650    0.0000 H   0  0  0  0  0  0  0  0  0  0  0  0
   11.7825    6.8669    0.0000 H   0  0  0  0  0  0  0  0  0  0  0  0
   17.8270    0.9816    0.0000 H   0  0  0  0  0  0  0  0  0  0  0  0
   17.4952    2.0029    0.0000 H   0  0  0  0  0  0  0  0  0  0  0  0
   15.3116    7.3716    0.0000 H   0  0  0  0  0  0  0  0  0  0  0  0
   15.8450    7.9639    0.0000 H   0  0  0  0  0  0  0  0  0  0  0  0
    5.6720   -6.5860    0.0000 H   0  0  0  0  0  0  0  0  0  0  0  0
    4.8059   -5.4660    0.0000 H   0  0  0  0  0  0  0  0  0  0  0  0
    4.8890   -4.7760    0.0000 H   0  0  0  0  0  0  0  0  0  0  0  0
    4.2690   -4.1560    0.0000 H   0  0  0  0  0  0  0  0  0  0  0  0
    3.6490   -4.7760    0.0000 H   0  0  0  0  0  0  0  0  0  0  0  0
    5.2690   -9.8960    0.0000 H   0  0  0  0  0  0  0  0  0  0  0  0
    2.0000   -6.0860    0.0000 H   0  0  0  0  0  0  0  0  0  0  0  0
   17.1819   10.4425    0.0000 H   0  0  0  0  0  0  0  0  0  0  0  0
   16.1315   10.6657    0.0000 H   0  0  0  0  0  0  0  0  0  0  0  0
   17.7171    8.7952    0.0000 H   0  0  0  0  0  0  0  0  0  0  0  0
   16.9985    7.9972    0.0000 H   0  0  0  0  0  0  0  0  0  0  0  0
  1 38  2  0  0  0  0
  2 40  2  0  0  0  0
  3 44  2  0  0  0  0
  4 48  2  0  0  0  0
  5 55  2  0  0  0  0
  6 57  2  0  0  0  0
  7 61  1  0  0  0  0
  7146  1  0  0  0  0
  8 64  2  0  0  0  0
  9 65  2  0  0  0  0
 10 72  2  0  0  0  0
 11 74  2  0  0  0  0
 12 77  2  0  0  0  0
 13 82  1  0  0  0  0
 13162  1  0  0  0  0
 14 82  2  0  0  0  0
 15 84  1  0  0  0  0
 15163  1  0  0  0  0
 16 84  2  0  0  0  0
 17 33  1  0  0  0  0
 17 35  1  0  0  0  0
 17 38  1  0  0  0  0
 37 18  1  1  0  0  0
 18 44  1  0  0  0  0
 18 97  1  0  0  0  0
 19 40  1  0  0  0  0
 43 19  1  1  0  0  0
 19 98  1  0  0  0  0
 47 20  1  6  0  0  0
 20 55  1  0  0  0  0
 20111  1  0  0  0  0
 21 48  1  0  0  0  0
 53 21  1  6  0  0  0
 21112  1  0  0  0  0
 22 52  1  0  0  0  0
 22 54  1  0  0  0  0
 22116  1  0  0  0  0
 56 23  1  1  0  0  0
 23 65  1  0  0  0  0
 23122  1  0  0  0  0
 58 24  1  6  0  0  0
 24 72  1  0  0  0  0
 24129  1  0  0  0  0
 25 64  1  0  0  0  0
 70 25  1  1  0  0  0
 25134  1  0  0  0  0
 26 57  1  0  0  0  0
 26135  1  0  0  0  0
 26136  1  0  0  0  0
 73 27  1  1  0  0  0
 27151  1  0  0  0  0
 27152  1  0  0  0  0
 28 74  1  0  0  0  0
 28153  1  0  0  0  0
 28154  1  0  0  0  0
 29 77  1  0  0  0  0
 81 29  1  6  0  0  0
 29157  1  0  0  0  0
 30 80  1  0  0  0  0
 30 85  2  0  0  0  0
 31 85  1  0  0  0  0
 31164  1  0  0  0  0
 31165  1  0  0  0  0
 32 85  1  0  0  0  0
 32166  1  0  0  0  0
 32167  1  0  0  0  0
 33 34  1  0  0  0  0
 33 40  1  1  0  0  0
 33 86  1  0  0  0  0
 34 36  1  0  0  0  0
 34 87  1  0  0  0  0
 34 88  1  0  0  0  0
 35 36  1  0  0  0  0
 35 89  1  0  0  0  0
 35 90  1  0  0  0  0
 36 91  1  0  0  0  0
 36 92  1  0  0  0  0
 37 38  1  0  0  0  0
 37 39  1  0  0  0  0
 37 93  1  0  0  0  0
 39 41  1  0  0  0  0
 39 42  1  6  0  0  0
 39 94  1  0  0  0  0
 41 45  1  0  0  0  0
 41 95  1  0  0  0  0
 41 96  1  0  0  0  0
 42 99  1  0  0  0  0
 42100  1  0  0  0  0
 42101  1  0  0  0  0
 43 46  1  0  0  0  0
 43 48  1  0  0  0  0
 43102  1  0  0  0  0
 44 47  1  0  0  0  0
 45103  1  0  0  0  0
 45104  1  0  0  0  0
 45105  1  0  0  0  0
 46 49  1  0  0  0  0
 46106  1  0  0  0  0
 46107  1  0  0  0  0
 47 50  1  0  0  0  0
 47108  1  0  0  0  0
 49 51  1  0  0  0  0
 49 52  2  0  0  0  0
 50 57  1  0  0  0  0
 50109  1  0  0  0  0
 50110  1  0  0  0  0
 51 54  1  0  0  0  0
 51 60  2  0  0  0  0
 52113  1  0  0  0  0
 53 61  1  0  0  0  0
 53 64  1  0  0  0  0
 53114  1  0  0  0  0
 54 62  2  0  0  0  0
 55 56  1  0  0  0  0
 56 63  1  0  0  0  0
 56115  1  0  0  0  0
 58 59  1  0  0  0  0
 58 65  1  0  0  0  0
 58117  1  0  0  0  0
 59 66  1  0  0  0  0
 59 69  1  1  0  0  0
 59118  1  0  0  0  0
 60 67  1  0  0  0  0
 60119  1  0  0  0  0
 61120  1  0  0  0  0
 61121  1  0  0  0  0
 62 68  1  0  0  0  0
 62125  1  0  0  0  0
 63 74  1  0  0  0  0
 63123  1  0  0  0  0
 63124  1  0  0  0  0
 66 71  1  0  0  0  0
 66126  1  0  0  0  0
 66127  1  0  0  0  0
 67 68  2  0  0  0  0
 67128  1  0  0  0  0
 68133  1  0  0  0  0
 69130  1  0  0  0  0
 69131  1  0  0  0  0
 69132  1  0  0  0  0
 70 75  1  0  0  0  0
 70 77  1  0  0  0  0
 70137  1  0  0  0  0
 71138  1  0  0  0  0
 71139  1  0  0  0  0
 71140  1  0  0  0  0
 72 73  1  0  0  0  0
 73 76  1  0  0  0  0
 73141  1  0  0  0  0
 75 79  1  0  0  0  0
 75142  1  0  0  0  0
 75143  1  0  0  0  0
 76 78  1  0  0  0  0
 76144  1  0  0  0  0
 76145  1  0  0  0  0
 78 80  1  0  0  0  0
 78147  1  0  0  0  0
 78148  1  0  0  0  0
 79 82  1  0  0  0  0
 79149  1  0  0  0  0
 79150  1  0  0  0  0
 80155  1  0  0  0  0
 80156  1  0  0  0  0
 81 83  1  0  0  0  0
 81 84  1  0  0  0  0
 81158  1  0  0  0  0
 83159  1  0  0  0  0
 83160  1  0  0  0  0
 83161  1  0  0  0  0
M  END
> <PUBCHEM_COMPOUND_CID>
516480
> <PUBCHEM_COMPOUND_CANONICALIZED>
1
> <PUBCHEM_CACTVS_COMPLEXITY>
2430
> <PUBCHEM_CACTVS_HBOND_ACCEPTOR>
18
> <PUBCHEM_CACTVS_HBOND_DONOR>
17
> <PUBCHEM_CACTVS_ROTATABLE_BOND>
36
> <PUBCHEM_CACTVS_SUBSKEYS>
AAADcfB//gAAAAAAAAAAAAAAAAAAAWLAAAAwAAAAAAAAAFgB8AAAHgAQCAAADSjhngY/yPPJkgCoAzX3fACCgCExAiAI2aG4ZJgKcP7A0bGUYAhmtgDYyAe9n8KOgAAAAAACAAAAAAAAAAQAAAAAAAAAAA==
> <PUBCHEM_IUPAC_OPENEYE_NAME>
(4S)-4-[[(2S)-2-[[(2S)-2-[[(2S)-1-[(2S,3S)-2-[[(2S)-4-amino-2-[[(2S)-4-amino-2-[[(2S,3S)-2-[[(2S)-2-amino-5-guanidino-pentanoyl]amino]-3-methyl-pentanoyl]amino]-4-oxo-butanoyl]amino]-4-oxo-butanoyl]amino]-3-methyl-pentanoyl]pyrrolidine-2-carbonyl]amino]-3-(1H-indol-3-yl)propanoyl]amino]-3-hydroxy-propanoyl]amino]-5-[[(1S)-1-carboxyethyl]amino]-5-oxo-pentanoic acid
> <PUBCHEM_IUPAC_CAS_NAME>
(4S)-4-[[(2S)-2-[[(2S)-2-[[[(2S)-1-[(2S,3S)-2-[[(2S)-4-amino-2-[[(2S)-4-amino-2-[[(2S,3S)-2-[[(2S)-2-amino-5-(diaminomethylideneamino)-1-oxopentyl]amino]-3-methyl-1-oxopentyl]amino]-1,4-dioxobutyl]amino]-1,4-dioxobutyl]amino]-3-methyl-1-oxopentyl]-2-pyrrolidinyl]-oxomethyl]amino]-3-(1H-indol-3-yl)-1-oxopropyl]amino]-3-hydroxy-1-oxopropyl]amino]-5-[[(1S)-1-carboxyethyl]amino]-5-oxopentanoic acid
> <PUBCHEM_IUPAC_NAME_MARKUP>
(4<I>S</I>)-4-[[(2<I>S</I>)-2-[[(2<I>S</I>)-2-[[(2<I>S</I>)-1-[(2<I>S</I>,3<I>S</I>)-2-[[(2<I>S</I>)-4-amino-2-[[(2<I>S</I>)-4-amino-2-[[(2<I>S</I>,3<I>S</I>)-2-[[(2<I>S</I>)-2-amino-5-(diaminomethylideneamino)pentanoyl]amino]-3-methylpentanoyl]amino]-4-oxobutanoyl]amino]-4-oxobutanoyl]amino]-3-methylpentanoyl]pyrrolidine-2-carbonyl]amino]-3-(1<I>H</I>-indol-3-yl)propanoyl]amino]-3-hydroxypropanoyl]amino]-5-[[(1<I>S</I>)-1-carboxyethyl]amino]-5-oxopentanoic acid
> <PUBCHEM_IUPAC_NAME>
(4S)-4-[[(2S)-2-[[(2S)-2-[[(2S)-1-[(2S,3S)-2-[[(2S)-4-amino-2-[[(2S)-4-amino-2-[[(2S,3S)-2-[[(2S)-2-amino-5-(diaminomethylideneamino)pentanoyl]amino]-3-methylpentanoyl]amino]-4-oxobutanoyl]amino]-4-oxobutanoyl]amino]-3-methylpentanoyl]pyrrolidine-2-carbonyl]amino]-3-(1H-indol-3-yl)propanoyl]amino]-3-hydroxypropanoyl]amino]-5-[[(1S)-1-carboxyethyl]amino]-5-oxopentanoic acid
> <PUBCHEM_IUPAC_SYSTEMATIC_NAME>
(4S)-4-[[(2S)-2-[[(2S)-2-[[(2S)-1-[(2S,3S)-2-[[(2S)-4-azanyl-2-[[(2S)-4-azanyl-2-[[(2S,3S)-2-[[(2S)-2-azanyl-5-[bis(azanyl)methylideneamino]pentanoyl]amino]-3-methyl-pentanoyl]amino]-4-oxidanylidene-butanoyl]amino]-4-oxidanylidene-butanoyl]amino]-3-methyl-pentanoyl]pyrrolidin-2-yl]carbonylamino]-3-(1H-indol-3-yl)propanoyl]amino]-3-oxidanyl-propanoyl]amino]-5-oxidanylidene-5-[[(2S)-1-oxidanyl-1-oxidanylidene-propan-2-yl]amino]pentanoic acid
> <PUBCHEM_IUPAC_TRADITIONAL_NAME>
(4S)-4-[[(2S)-2-[[(2S)-2-[[(2S)-1-[(2S,3S)-2-[[(2S)-4-amino-2-[[(2S)-4-amino-2-[[(2S,3S)-2-[[(2S)-2-amino-5-guanidino-pentanoyl]amino]-3-methyl-pentanoyl]amino]-4-keto-butanoyl]amino]-4-keto-butanoyl]amino]-3-methyl-pentanoyl]prolyl]amino]-3-(1H-indol-3-yl)propanoyl]amino]-3-hydroxy-propanoyl]amino]-5-[[(1S)-1-carboxyethyl]amino]-5-keto-valeric acid
> <PUBCHEM_IUPAC_INCHI>
InChI=1S/C53H82N16O16/c1-6-25(3)41(67-43(75)30(54)13-10-18-59-53(57)58)50(82)65-34(21-38(55)71)46(78)63-35(22-39(56)72)47(79)68-42(26(4)7-2)51(83)69-19-11-15-37(69)49(81)64-33(20-28-23-60-31-14-9-8-12-29(28)31)45(77)66-36(24-70)48(80)62-32(16-17-40(73)74)44(76)61-27(5)52(84)85/h8-9,12,14,23,25-27,30,32-37,41-42,60,70H,6-7,10-11,13,15-22,24,54H2,1-5H3,(H2,55,71)(H2,56,72)(H,61,76)(H,62,80)(H,63,78)(H,64,81)(H,65,82)(H,66,77)(H,67,75)(H,68,79)(H,73,74)(H,84,85)(H4,57,58,59)/t25-,26-,27-,30-,32-,33-,34-,35-,36-,37-,41-,42-/m0/s1
> <PUBCHEM_IUPAC_INCHIKEY>
UENGSBZEBXCLKL-IOLKSEGISA-N
> <PUBCHEM_XLOGP3_AA>
-6.4
> <PUBCHEM_EXACT_MASS>
1198.60947059
> <PUBCHEM_MOLECULAR_FORMULA>
C53H82N16O16
> <PUBCHEM_MOLECULAR_WEIGHT>
1199.3
> <PUBCHEM_OPENEYE_CAN_SMILES>
CCC(C)C(C(=O)NC(CC(=O)N)C(=O)NC(CC(=O)N)C(=O)NC(C(C)CC)C(=O)N1CCCC1C(=O)NC(CC2=CNC3=CC=CC=C32)C(=O)NC(CO)C(=O)NC(CCC(=O)O)C(=O)NC(C)C(=O)O)NC(=O)C(CCCN=C(N)N)N
> <PUBCHEM_OPENEYE_ISO_SMILES>
CC[C@H](C)[C@@H](C(=O)N[C@@H](CC(=O)N)C(=O)N[C@@H](CC(=O)N)C(=O)N[C@@H]([C@@H](C)CC)C(=O)N1CCC[C@H]1C(=O)N[C@@H](CC2=CNC3=CC=CC=C32)C(=O)N[C@@H](CO)C(=O)N[C@@H](CCC(=O)O)C(=O)N[C@@H](C)C(=O)O)NC(=O)[C@H](CCCN=C(N)N)N
> <PUBCHEM_CACTVS_TPSA>
540
> <PUBCHEM_MONOISOTOPIC_WEIGHT>
1198.60947059
> <PUBCHEM_TOTAL_CHARGE>
0
> <PUBCHEM_HEAVY_ATOM_COUNT>
85
> <PUBCHEM_ATOM_DEF_STEREO_COUNT>
12
> <PUBCHEM_ATOM_UDEF_STEREO_COUNT>
0
> <PUBCHEM_BOND_DEF_STEREO_COUNT>
0
> <PUBCHEM_BOND_UDEF_STEREO_COUNT>
0
> <PUBCHEM_ISOTOPIC_ATOM_COUNT>
0
> <PUBCHEM_COMPONENT_COUNT>
1
> <PUBCHEM_CACTVS_TAUTO_COUNT>
-1
> <PUBCHEM_COORDINATE_TYPE>
1
5
255
> <PUBCHEM_BONDANNOTATIONS>
37  18  5
43  19  5
47  20  6
53  21  6
22  52  8
22  54  8
56  23  5
58  24  6
70  25  5
73  27  5
81  29  6
33  40  5
39  42  6
49  51  8
49  52  8
51  54  8
51  60  8
54  62  8
59  69  5
60  67  8
62  68  8
67  68  8
$$$$
