516500
  -OEChem-10302200282D
 61 66  0     1  0  0  0  0  0999 V2000
    4.2514    2.0637    0.0000 N   0  0  0  0  0  0  0  0  0  0  0  0
   14.6364   -2.0637    0.0000 N   0  0  0  0  0  0  0  0  0  0  0  0
    5.0604    3.4650    0.0000 N   0  0  0  0  0  0  0  0  0  0  0  0
   13.8274   -3.4650    0.0000 N   0  0  0  0  0  0  0  0  0  0  0  0
    8.7093    2.2752    0.0000 N   0  0  0  0  0  0  0  0  0  0  0  0
   11.7816    0.5014    0.0000 N   0  0  0  0  0  0  0  0  0  0  0  0
    8.7093    0.6657    0.0000 N   0  0  0  0  0  0  0  0  0  0  0  0
   10.3878   -0.3034    0.0000 N   0  0  0  0  0  0  0  0  0  0  0  0
    3.5823    2.8069    0.0000 C   0  0  3  0  0  0  0  0  0  0  0  0
   15.3055   -2.8069    0.0000 C   0  0  3  0  0  0  0  0  0  0  0  0
    4.0823    3.6729    0.0000 C   0  0  0  0  0  0  0  0  0  0  0  0
   14.8055   -3.6729    0.0000 C   0  0  0  0  0  0  0  0  0  0  0  0
    2.5878    2.7023    0.0000 C   0  0  0  0  0  0  0  0  0  0  0  0
   16.3001   -2.7023    0.0000 C   0  0  0  0  0  0  0  0  0  0  0  0
    5.1650    2.4704    0.0000 C   0  0  0  0  0  0  0  0  0  0  0  0
   13.7229   -2.4704    0.0000 C   0  0  0  0  0  0  0  0  0  0  0  0
    6.0310    1.9704    0.0000 C   0  0  0  0  0  0  0  0  0  0  0  0
   12.8568   -1.9704    0.0000 C   0  0  0  0  0  0  0  0  0  0  0  0
    7.7631    1.9704    0.0000 C   0  0  0  0  0  0  0  0  0  0  0  0
   11.9908   -0.4704    0.0000 C   0  0  0  0  0  0  0  0  0  0  0  0
   10.2929    1.4704    0.0000 C   0  0  0  0  0  0  0  0  0  0  0  0
    6.8970    2.4704    0.0000 C   0  0  0  0  0  0  0  0  0  0  0  0
   12.8568   -0.9704    0.0000 C   0  0  0  0  0  0  0  0  0  0  0  0
    9.2929    1.4704    0.0000 C   0  0  0  0  0  0  0  0  0  0  0  0
   10.7929    0.6044    0.0000 C   0  0  0  0  0  0  0  0  0  0  0  0
    7.7631    0.9704    0.0000 C   0  0  0  0  0  0  0  0  0  0  0  0
   11.1248   -0.9704    0.0000 C   0  0  0  0  0  0  0  0  0  0  0  0
    2.0000    3.5113    0.0000 C   0  0  0  0  0  0  0  0  0  0  0  0
   16.8878   -3.5113    0.0000 C   0  0  0  0  0  0  0  0  0  0  0  0
    6.0310    0.9704    0.0000 C   0  0  0  0  0  0  0  0  0  0  0  0
   11.9908   -2.4704    0.0000 C   0  0  0  0  0  0  0  0  0  0  0  0
    6.8970    0.4704    0.0000 C   0  0  0  0  0  0  0  0  0  0  0  0
   11.1248   -1.9704    0.0000 C   0  0  0  0  0  0  0  0  0  0  0  0
    3.3601    2.2280    0.0000 H   0  0  0  0  0  0  0  0  0  0  0  0
   15.5277   -2.2280    0.0000 H   0  0  0  0  0  0  0  0  0  0  0  0
    4.2739    4.2625    0.0000 H   0  0  0  0  0  0  0  0  0  0  0  0
    3.5159    3.9251    0.0000 H   0  0  0  0  0  0  0  0  0  0  0  0
   14.6140   -4.2625    0.0000 H   0  0  0  0  0  0  0  0  0  0  0  0
   15.3719   -3.9251    0.0000 H   0  0  0  0  0  0  0  0  0  0  0  0
    2.0305    2.4305    0.0000 H   0  0  0  0  0  0  0  0  0  0  0  0
    2.7587    2.1064    0.0000 H   0  0  0  0  0  0  0  0  0  0  0  0
   16.8573   -2.4305    0.0000 H   0  0  0  0  0  0  0  0  0  0  0  0
   16.1292   -2.1064    0.0000 H   0  0  0  0  0  0  0  0  0  0  0  0
    4.1225    1.4573    0.0000 H   0  0  0  0  0  0  0  0  0  0  0  0
   14.7653   -1.4573    0.0000 H   0  0  0  0  0  0  0  0  0  0  0  0
   10.8755    1.6825    0.0000 H   0  0  0  0  0  0  0  0  0  0  0  0
   10.1852    2.0810    0.0000 H   0  0  0  0  0  0  0  0  0  0  0  0
    6.8970    3.0904    0.0000 H   0  0  0  0  0  0  0  0  0  0  0  0
   13.3938   -0.6604    0.0000 H   0  0  0  0  0  0  0  0  0  0  0  0
    2.5016    3.8758    0.0000 H   0  0  0  0  0  0  0  0  0  0  0  0
    1.6356    4.0129    0.0000 H   0  0  0  0  0  0  0  0  0  0  0  0
    1.4984    3.1469    0.0000 H   0  0  0  0  0  0  0  0  0  0  0  0
   16.3863   -3.8758    0.0000 H   0  0  0  0  0  0  0  0  0  0  0  0
   17.2523   -4.0129    0.0000 H   0  0  0  0  0  0  0  0  0  0  0  0
   17.3894   -3.1469    0.0000 H   0  0  0  0  0  0  0  0  0  0  0  0
    8.9019    2.8645    0.0000 H   0  0  0  0  0  0  0  0  0  0  0  0
   12.1957    0.9628    0.0000 H   0  0  0  0  0  0  0  0  0  0  0  0
    5.4941    0.6604    0.0000 H   0  0  0  0  0  0  0  0  0  0  0  0
   11.9908   -3.0904    0.0000 H   0  0  0  0  0  0  0  0  0  0  0  0
    6.8970   -0.1496    0.0000 H   0  0  0  0  0  0  0  0  0  0  0  0
   10.5879   -2.2804    0.0000 H   0  0  0  0  0  0  0  0  0  0  0  0
  1  9  1  0  0  0  0
  1 15  1  0  0  0  0
  1 44  1  0  0  0  0
  2 10  1  0  0  0  0
  2 16  1  0  0  0  0
  2 45  1  0  0  0  0
  3 11  1  0  0  0  0
  3 15  2  0  0  0  0
  4 12  1  0  0  0  0
  4 16  2  0  0  0  0
  5 19  1  0  0  0  0
  5 24  1  0  0  0  0
  5 56  1  0  0  0  0
  6 20  1  0  0  0  0
  6 25  1  0  0  0  0
  6 57  1  0  0  0  0
  7 24  2  0  0  0  0
  7 26  1  0  0  0  0
  8 25  2  0  0  0  0
  8 27  1  0  0  0  0
  9 11  1  0  0  0  0
  9 13  1  0  0  0  0
  9 34  1  0  0  0  0
 10 12  1  0  0  0  0
 10 14  1  0  0  0  0
 10 35  1  0  0  0  0
 11 36  1  0  0  0  0
 11 37  1  0  0  0  0
 12 38  1  0  0  0  0
 12 39  1  0  0  0  0
 13 28  1  0  0  0  0
 13 40  1  0  0  0  0
 13 41  1  0  0  0  0
 14 29  1  0  0  0  0
 14 42  1  0  0  0  0
 14 43  1  0  0  0  0
 15 17  1  0  0  0  0
 16 18  1  0  0  0  0
 17 22  2  0  0  0  0
 17 30  1  0  0  0  0
 18 23  2  0  0  0  0
 18 31  1  0  0  0  0
 19 22  1  0  0  0  0
 19 26  2  0  0  0  0
 20 23  1  0  0  0  0
 20 27  2  0  0  0  0
 21 24  1  0  0  0  0
 21 25  1  0  0  0  0
 21 46  1  0  0  0  0
 21 47  1  0  0  0  0
 22 48  1  0  0  0  0
 23 49  1  0  0  0  0
 26 32  1  0  0  0  0
 27 33  1  0  0  0  0
 28 50  1  0  0  0  0
 28 51  1  0  0  0  0
 28 52  1  0  0  0  0
 29 53  1  0  0  0  0
 29 54  1  0  0  0  0
 29 55  1  0  0  0  0
 30 32  2  0  0  0  0
 30 58  1  0  0  0  0
 31 33  2  0  0  0  0
 31 59  1  0  0  0  0
 32 60  1  0  0  0  0
 33 61  1  0  0  0  0
M  END
> <PUBCHEM_COMPOUND_CID>
516500
> <PUBCHEM_COMPOUND_CANONICALIZED>
1
> <PUBCHEM_CACTVS_COMPLEXITY>
706
> <PUBCHEM_CACTVS_HBOND_ACCEPTOR>
4
> <PUBCHEM_CACTVS_HBOND_DONOR>
4
> <PUBCHEM_CACTVS_ROTATABLE_BOND>
6
> <PUBCHEM_CACTVS_SUBSKEYS>
AAADceB7wAAAAAAAAAAAAAAAAAAAAWLECAAwYAAAAAAAAFgB/gAAHAAQAAAADCjBHwQz0LbJkACgAyZiZACCgC2hEqAJmaA4dJiIaKLA2ZGUIAhokALIyCcQgAAOCAAAQAAAACAQAACAAAAAQAAAAAAAAA==
> <PUBCHEM_IUPAC_OPENEYE_NAME>
6-(5-ethyl-4,5-dihydro-1H-imidazol-2-yl)-2-[[6-(5-ethyl-4,5-dihydro-1H-imidazol-2-yl)-1H-benzimidazol-2-yl]methyl]-1H-benzimidazole
> <PUBCHEM_IUPAC_CAS_NAME>
6-(5-ethyl-4,5-dihydro-1H-imidazol-2-yl)-2-[[6-(5-ethyl-4,5-dihydro-1H-imidazol-2-yl)-1H-benzimidazol-2-yl]methyl]-1H-benzimidazole
> <PUBCHEM_IUPAC_NAME_MARKUP>
6-(5-ethyl-4,5-dihydro-1<I>H</I>-imidazol-2-yl)-2-[[6-(5-ethyl-4,5-dihydro-1<I>H</I>-imidazol-2-yl)-1<I>H</I>-benzimidazol-2-yl]methyl]-1<I>H</I>-benzimidazole
> <PUBCHEM_IUPAC_NAME>
6-(5-ethyl-4,5-dihydro-1H-imidazol-2-yl)-2-[[6-(5-ethyl-4,5-dihydro-1H-imidazol-2-yl)-1H-benzimidazol-2-yl]methyl]-1H-benzimidazole
> <PUBCHEM_IUPAC_SYSTEMATIC_NAME>
6-(5-ethyl-4,5-dihydro-1H-imidazol-2-yl)-2-[[6-(5-ethyl-4,5-dihydro-1H-imidazol-2-yl)-1H-benzimidazol-2-yl]methyl]-1H-benzimidazole
> <PUBCHEM_IUPAC_TRADITIONAL_NAME>
6-(4-ethyl-2-imidazolin-2-yl)-2-[[6-(4-ethyl-2-imidazolin-2-yl)-1H-benzimidazol-2-yl]methyl]-1H-benzimidazole
> <PUBCHEM_IUPAC_INCHI>
InChI=1S/C25H28N8/c1-3-16-12-26-24(28-16)14-5-7-18-20(9-14)32-22(30-18)11-23-31-19-8-6-15(10-21(19)33-23)25-27-13-17(4-2)29-25/h5-10,16-17H,3-4,11-13H2,1-2H3,(H,26,28)(H,27,29)(H,30,32)(H,31,33)
> <PUBCHEM_IUPAC_INCHIKEY>
BDYFOARGFOBJRR-UHFFFAOYSA-N
> <PUBCHEM_XLOGP3_AA>
2.9
> <PUBCHEM_EXACT_MASS>
440.24369293
> <PUBCHEM_MOLECULAR_FORMULA>
C25H28N8
> <PUBCHEM_MOLECULAR_WEIGHT>
440.5
> <PUBCHEM_OPENEYE_CAN_SMILES>
CCC1CN=C(N1)C2=CC3=C(C=C2)N=C(N3)CC4=NC5=C(N4)C=C(C=C5)C6=NCC(N6)CC
> <PUBCHEM_OPENEYE_ISO_SMILES>
CCC1CN=C(N1)C2=CC3=C(C=C2)N=C(N3)CC4=NC5=C(N4)C=C(C=C5)C6=NCC(N6)CC
> <PUBCHEM_CACTVS_TPSA>
106
> <PUBCHEM_MONOISOTOPIC_WEIGHT>
440.24369293
> <PUBCHEM_TOTAL_CHARGE>
0
> <PUBCHEM_HEAVY_ATOM_COUNT>
33
> <PUBCHEM_ATOM_DEF_STEREO_COUNT>
0
> <PUBCHEM_ATOM_UDEF_STEREO_COUNT>
2
> <PUBCHEM_BOND_DEF_STEREO_COUNT>
0
> <PUBCHEM_BOND_UDEF_STEREO_COUNT>
0
> <PUBCHEM_ISOTOPIC_ATOM_COUNT>
0
> <PUBCHEM_COMPONENT_COUNT>
1
> <PUBCHEM_CACTVS_TAUTO_COUNT>
-1
> <PUBCHEM_COORDINATE_TYPE>
1
5
255
> <PUBCHEM_BONDANNOTATIONS>
10  14  3
17  22  8
17  30  8
18  23  8
18  31  8
19  22  8
19  26  8
20  23  8
20  27  8
26  32  8
27  33  8
30  32  8
31  33  8
5  19  8
5  24  8
6  20  8
6  25  8
7  24  8
7  26  8
8  25  8
8  27  8
9  13  3
$$$$
