516533
  -OEChem-10302200282D
197199  0     1  0  0  0  0  0999 V2000
    6.1350    8.2209    0.0000 S   0  0  0  0  0  0  0  0  0  0  0  0
    3.4030   13.7209    0.0000 S   0  0  0  0  0  0  0  0  0  0  0  0
   12.8542    0.8662    0.0000 O   0  0  0  0  0  0  0  0  0  0  0  0
   12.9965    2.2208    0.0000 O   0  0  0  0  0  0  0  0  0  0  0  0
   11.2794   -2.3772    0.0000 O   0  0  0  0  0  0  0  0  0  0  0  0
   13.8626    2.7208    0.0000 O   0  0  0  0  0  0  0  0  0  0  0  0
   11.0715   -3.3554    0.0000 O   0  0  0  0  0  0  0  0  0  0  0  0
   14.4599   -4.0756    0.0000 O   0  0  0  0  0  0  0  0  0  0  0  0
   16.0632   12.7209    0.0000 O   0  0  0  0  0  0  0  0  0  0  0  0
   14.3312    9.7209    0.0000 O   0  0  0  0  0  0  0  0  0  0  0  0
   11.1909   -6.9590    0.0000 O   0  0  0  0  0  0  0  0  0  0  0  0
    7.5946   -7.2169    0.0000 O   0  0  0  0  0  0  0  0  0  0  0  0
   11.5991   12.2209    0.0000 O   0  0  0  0  0  0  0  0  0  0  0  0
   10.7331    7.7209    0.0000 O   0  0  0  0  0  0  0  0  0  0  0  0
   12.4651    7.7209    0.0000 O   0  0  0  0  0  0  0  0  0  0  0  0
    8.8671    9.7209    0.0000 O   0  0  0  0  0  0  0  0  0  0  0  0
    6.1350   12.2209    0.0000 O   0  0  0  0  0  0  0  0  0  0  0  0
    2.5369   11.2209    0.0000 O   0  0  0  0  0  0  0  0  0  0  0  0
    3.4030    9.7209    0.0000 O   0  0  0  0  0  0  0  0  0  0  0  0
   11.1600    1.2263    0.0000 N   0  0  0  0  0  0  0  0  0  0  0  0
   12.4383   -1.0901    0.0000 N   0  0  0  0  0  0  0  0  0  0  0  0
   12.1305    3.7208    0.0000 N   0  0  0  0  0  0  0  0  0  0  0  0
   12.7657   -3.7155    0.0000 N   0  0  0  0  0  0  0  0  0  0  0  0
   16.0632   10.7209    0.0000 N   0  0  0  0  0  0  0  0  0  0  0  0
   14.9374    6.9188    0.0000 N   0  0  0  0  0  0  0  0  0  0  0  0
   10.6556   -5.3117    0.0000 N   0  0  0  0  0  0  0  0  0  0  0  0
   13.3312   11.2209    0.0000 N   0  0  0  0  0  0  0  0  0  0  0  0
   15.6188   -2.7884    0.0000 N   0  0  0  0  0  0  0  0  0  0  0  0
    9.2888   -7.5770    0.0000 N   0  0  0  0  0  0  0  0  0  0  0  0
   10.5991   10.7209    0.0000 N   0  0  0  0  0  0  0  0  0  0  0  0
    7.1787   -9.1732    0.0000 N   0  0  0  0  0  0  0  0  0  0  0  0
    7.8671   11.2209    0.0000 N   0  0  0  0  0  0  0  0  0  0  0  0
    9.2003  -12.1587    0.0000 N   0  0  0  0  0  0  0  0  0  0  0  0
    5.1350   10.7209    0.0000 N   0  0  0  0  0  0  0  0  0  0  0  0
    9.7355  -13.8060    0.0000 N   0  0  0  0  0  0  0  0  0  0  0  0
   10.8945  -12.5188    0.0000 N   0  0  0  0  0  0  0  0  0  0  0  0
   11.2645    2.2208    0.0000 C   0  0  1  0  0  0  0  0  0  0  0  0
   10.3509    2.6276    0.0000 C   0  0  0  0  0  0  0  0  0  0  0  0
   10.1818    1.0184    0.0000 C   0  0  0  0  0  0  0  0  0  0  0  0
    9.6818    1.8844    0.0000 C   0  0  0  0  0  0  0  0  0  0  0  0
   11.6952   -0.4209    0.0000 C   0  0  2  0  0  0  0  0  0  0  0  0
   11.9031    0.5572    0.0000 C   0  0  0  0  0  0  0  0  0  0  0  0
   10.7441   -0.7300    0.0000 C   0  0  2  0  0  0  0  0  0  0  0  0
   12.1305    2.7208    0.0000 C   0  0  0  0  0  0  0  0  0  0  0  0
   10.5362   -1.7081    0.0000 C   0  0  0  0  0  0  0  0  0  0  0  0
   10.0010   -0.0608    0.0000 C   0  0  0  0  0  0  0  0  0  0  0  0
   12.9965    4.2209    0.0000 C   0  0  1  0  0  0  0  0  0  0  0  0
   12.2304   -2.0682    0.0000 C   0  0  0  0  0  0  0  0  0  0  0  0
    9.5852   -2.0171    0.0000 C   0  0  0  0  0  0  0  0  0  0  0  0
   12.9965    5.2209    0.0000 C   0  0  0  0  0  0  0  0  0  0  0  0
   12.9736   -2.7374    0.0000 C   0  0  2  0  0  0  0  0  0  0  0  0
   13.8626    3.7208    0.0000 C   0  0  0  0  0  0  0  0  0  0  0  0
   13.8626    5.7209    0.0000 C   0  0  0  0  0  0  0  0  0  0  0  0
   13.9246   -2.4283    0.0000 C   0  0  0  0  0  0  0  0  0  0  0  0
   14.7704    5.3157    0.0000 C   0  0  0  0  0  0  0  0  0  0  0  0
   13.9656    6.7096    0.0000 C   0  0  0  0  0  0  0  0  0  0  0  0
   15.1972   11.2209    0.0000 C   0  0  1  0  0  0  0  0  0  0  0  0
   15.4382    6.0600    0.0000 C   0  0  0  0  0  0  0  0  0  0  0  0
   11.8146   -4.0245    0.0000 C   0  0  0  0  0  0  0  0  0  0  0  0
   14.6678   -3.0975    0.0000 C   0  0  0  0  0  0  0  0  0  0  0  0
   15.0810    4.3652    0.0000 C   0  0  0  0  0  0  0  0  0  0  0  0
   11.6067   -5.0027    0.0000 C   0  0  2  0  0  0  0  0  0  0  0  0
   15.1972   12.2209    0.0000 C   0  0  0  0  0  0  0  0  0  0  0  0
   16.4167    5.8538    0.0000 C   0  0  0  0  0  0  0  0  0  0  0  0
   14.3312   10.7209    0.0000 C   0  0  0  0  0  0  0  0  0  0  0  0
    9.4967   -6.5988    0.0000 C   0  0  1  0  0  0  0  0  0  0  0  0
   16.0595    4.1590    0.0000 C   0  0  0  0  0  0  0  0  0  0  0  0
    8.7535   -5.9297    0.0000 C   0  0  2  0  0  0  0  0  0  0  0  0
   16.7274    4.9033    0.0000 C   0  0  0  0  0  0  0  0  0  0  0  0
   12.3498   -5.6718    0.0000 C   0  0  0  0  0  0  0  0  0  0  0  0
   10.4477   -6.2898    0.0000 C   0  0  0  0  0  0  0  0  0  0  0  0
   12.4651   10.7209    0.0000 C   0  0  1  0  0  0  0  0  0  0  0  0
    7.8025   -6.2387    0.0000 C   0  0  0  0  0  0  0  0  0  0  0  0
    8.9614   -4.9516    0.0000 C   0  0  0  0  0  0  0  0  0  0  0  0
   12.4651    9.7209    0.0000 C   0  0  0  0  0  0  0  0  0  0  0  0
    7.0593   -5.5696    0.0000 C   0  0  0  0  0  0  0  0  0  0  0  0
    8.3377   -7.8860    0.0000 C   0  0  0  0  0  0  0  0  0  0  0  0
   11.5991   11.2209    0.0000 C   0  0  0  0  0  0  0  0  0  0  0  0
    8.1298   -8.8642    0.0000 C   0  0  2  0  0  0  0  0  0  0  0  0
   11.5991    9.2209    0.0000 C   0  0  0  0  0  0  0  0  0  0  0  0
    8.8729   -9.5333    0.0000 C   0  0  0  0  0  0  0  0  0  0  0  0
    8.6650  -10.5114    0.0000 C   0  0  0  0  0  0  0  0  0  0  0  0
    9.7331   11.2209    0.0000 C   0  0  2  0  0  0  0  0  0  0  0  0
   11.5991    8.2209    0.0000 C   0  0  0  0  0  0  0  0  0  0  0  0
    9.4082  -11.1806    0.0000 C   0  0  0  0  0  0  0  0  0  0  0  0
    8.8671   10.7209    0.0000 C   0  0  0  0  0  0  0  0  0  0  0  0
    9.7331   12.2209    0.0000 C   0  0  0  0  0  0  0  0  0  0  0  0
    7.0010   10.7209    0.0000 C   0  0  1  0  0  0  0  0  0  0  0  0
    7.0010    9.7209    0.0000 C   0  0  0  0  0  0  0  0  0  0  0  0
    6.1350   11.2209    0.0000 C   0  0  0  0  0  0  0  0  0  0  0  0
    6.1350    9.2209    0.0000 C   0  0  0  0  0  0  0  0  0  0  0  0
    4.2690   11.2209    0.0000 C   0  0  1  0  0  0  0  0  0  0  0  0
    9.9434  -12.8278    0.0000 C   0  0  0  0  0  0  0  0  0  0  0  0
    4.2690   12.2209    0.0000 C   0  0  0  0  0  0  0  0  0  0  0  0
    3.4030   12.7209    0.0000 C   0  0  0  0  0  0  0  0  0  0  0  0
    3.4030   10.7209    0.0000 C   0  0  0  0  0  0  0  0  0  0  0  0
    5.2690    7.7209    0.0000 C   0  0  0  0  0  0  0  0  0  0  0  0
    2.5369   14.2209    0.0000 C   0  0  0  0  0  0  0  0  0  0  0  0
   11.7845    1.8832    0.0000 H   0  0  0  0  0  0  0  0  0  0  0  0
   10.6609    3.1645    0.0000 H   0  0  0  0  0  0  0  0  0  0  0  0
    9.8494    2.9920    0.0000 H   0  0  0  0  0  0  0  0  0  0  0  0
    9.6154    0.7662    0.0000 H   0  0  0  0  0  0  0  0  0  0  0  0
   10.3734    0.4288    0.0000 H   0  0  0  0  0  0  0  0  0  0  0  0
    9.2670    2.3452    0.0000 H   0  0  0  0  0  0  0  0  0  0  0  0
    9.1802    1.5200    0.0000 H   0  0  0  0  0  0  0  0  0  0  0  0
   11.5663   -1.0274    0.0000 H   0  0  0  0  0  0  0  0  0  0  0  0
   10.8730   -0.1235    0.0000 H   0  0  0  0  0  0  0  0  0  0  0  0
   10.6225   -2.3221    0.0000 H   0  0  0  0  0  0  0  0  0  0  0  0
   11.1559   -1.7298    0.0000 H   0  0  0  0  0  0  0  0  0  0  0  0
   13.0280   -0.8985    0.0000 H   0  0  0  0  0  0  0  0  0  0  0  0
   12.6675    4.0308    0.0000 H   0  0  0  0  0  0  0  0  0  0  0  0
   10.4159    0.3999    0.0000 H   0  0  0  0  0  0  0  0  0  0  0  0
    9.5402    0.3540    0.0000 H   0  0  0  0  0  0  0  0  0  0  0  0
    9.5861   -0.5216    0.0000 H   0  0  0  0  0  0  0  0  0  0  0  0
   12.4596    4.5308    0.0000 H   0  0  0  0  0  0  0  0  0  0  0  0
    9.3936   -1.4275    0.0000 H   0  0  0  0  0  0  0  0  0  0  0  0
    8.9955   -2.2087    0.0000 H   0  0  0  0  0  0  0  0  0  0  0  0
    9.7768   -2.6068    0.0000 H   0  0  0  0  0  0  0  0  0  0  0  0
   12.7845    5.8035    0.0000 H   0  0  0  0  0  0  0  0  0  0  0  0
   12.3860    5.1132    0.0000 H   0  0  0  0  0  0  0  0  0  0  0  0
   12.3839   -2.9290    0.0000 H   0  0  0  0  0  0  0  0  0  0  0  0
   14.4132   -2.0466    0.0000 H   0  0  0  0  0  0  0  0  0  0  0  0
   13.6336   -1.8809    0.0000 H   0  0  0  0  0  0  0  0  0  0  0  0
   13.2264   -4.1304    0.0000 H   0  0  0  0  0  0  0  0  0  0  0  0
   16.6001   10.4109    0.0000 H   0  0  0  0  0  0  0  0  0  0  0  0
   13.5042    7.1236    0.0000 H   0  0  0  0  0  0  0  0  0  0  0  0
   15.1972   10.6009    0.0000 H   0  0  0  0  0  0  0  0  0  0  0  0
   15.1877    7.4860    0.0000 H   0  0  0  0  0  0  0  0  0  0  0  0
   14.6670    3.9038    0.0000 H   0  0  0  0  0  0  0  0  0  0  0  0
   11.4778   -5.6091    0.0000 H   0  0  0  0  0  0  0  0  0  0  0  0
   14.9851   12.8035    0.0000 H   0  0  0  0  0  0  0  0  0  0  0  0
   14.5866   12.1132    0.0000 H   0  0  0  0  0  0  0  0  0  0  0  0
   16.8308    6.3153    0.0000 H   0  0  0  0  0  0  0  0  0  0  0  0
    9.9574   -7.0137    0.0000 H   0  0  0  0  0  0  0  0  0  0  0  0
   16.2521    3.5697    0.0000 H   0  0  0  0  0  0  0  0  0  0  0  0
    9.3432   -5.7381    0.0000 H   0  0  0  0  0  0  0  0  0  0  0  0
   10.1949   -4.8968    0.0000 H   0  0  0  0  0  0  0  0  0  0  0  0
   17.3340    4.7754    0.0000 H   0  0  0  0  0  0  0  0  0  0  0  0
   11.9350   -6.1326    0.0000 H   0  0  0  0  0  0  0  0  0  0  0  0
   12.8106   -6.0867    0.0000 H   0  0  0  0  0  0  0  0  0  0  0  0
   12.7647   -5.2110    0.0000 H   0  0  0  0  0  0  0  0  0  0  0  0
   13.8681   11.5309    0.0000 H   0  0  0  0  0  0  0  0  0  0  0  0
   16.0796   -3.2033    0.0000 H   0  0  0  0  0  0  0  0  0  0  0  0
   15.7477   -2.1820    0.0000 H   0  0  0  0  0  0  0  0  0  0  0  0
   13.0021   10.4109    0.0000 H   0  0  0  0  0  0  0  0  0  0  0  0
    7.3139   -6.6204    0.0000 H   0  0  0  0  0  0  0  0  0  0  0  0
    8.0935   -6.7862    0.0000 H   0  0  0  0  0  0  0  0  0  0  0  0
    9.7495   -7.9919    0.0000 H   0  0  0  0  0  0  0  0  0  0  0  0
    9.5679   -5.0805    0.0000 H   0  0  0  0  0  0  0  0  0  0  0  0
    9.0903   -4.3451    0.0000 H   0  0  0  0  0  0  0  0  0  0  0  0
    8.3550   -4.8227    0.0000 H   0  0  0  0  0  0  0  0  0  0  0  0
   16.0632   13.3409    0.0000 H   0  0  0  0  0  0  0  0  0  0  0  0
   12.6772    9.1382    0.0000 H   0  0  0  0  0  0  0  0  0  0  0  0
   13.0757    9.8285    0.0000 H   0  0  0  0  0  0  0  0  0  0  0  0
    7.4742   -5.1088    0.0000 H   0  0  0  0  0  0  0  0  0  0  0  0
    6.5986   -5.1547    0.0000 H   0  0  0  0  0  0  0  0  0  0  0  0
    6.6445   -6.0304    0.0000 H   0  0  0  0  0  0  0  0  0  0  0  0
    8.0009   -9.4706    0.0000 H   0  0  0  0  0  0  0  0  0  0  0  0
   11.3871    9.8035    0.0000 H   0  0  0  0  0  0  0  0  0  0  0  0
   10.9885    9.1132    0.0000 H   0  0  0  0  0  0  0  0  0  0  0  0
    9.4478   -9.7656    0.0000 H   0  0  0  0  0  0  0  0  0  0  0  0
    9.2015   -9.0075    0.0000 H   0  0  0  0  0  0  0  0  0  0  0  0
   11.1360   10.4109    0.0000 H   0  0  0  0  0  0  0  0  0  0  0  0
    8.0902  -10.2792    0.0000 H   0  0  0  0  0  0  0  0  0  0  0  0
    8.3365  -11.0372    0.0000 H   0  0  0  0  0  0  0  0  0  0  0  0
   10.2700   11.5309    0.0000 H   0  0  0  0  0  0  0  0  0  0  0  0
    7.0498   -9.7796    0.0000 H   0  0  0  0  0  0  0  0  0  0  0  0
    6.7180   -8.7583    0.0000 H   0  0  0  0  0  0  0  0  0  0  0  0
    9.9830  -11.4128    0.0000 H   0  0  0  0  0  0  0  0  0  0  0  0
    9.7367  -10.6548    0.0000 H   0  0  0  0  0  0  0  0  0  0  0  0
   10.3531   12.2209    0.0000 H   0  0  0  0  0  0  0  0  0  0  0  0
    9.7331   12.8409    0.0000 H   0  0  0  0  0  0  0  0  0  0  0  0
    9.1131   12.2209    0.0000 H   0  0  0  0  0  0  0  0  0  0  0  0
    7.5380   10.4109    0.0000 H   0  0  0  0  0  0  0  0  0  0  0  0
    8.4040   11.5309    0.0000 H   0  0  0  0  0  0  0  0  0  0  0  0
    7.2131    9.1382    0.0000 H   0  0  0  0  0  0  0  0  0  0  0  0
    7.6116    9.8285    0.0000 H   0  0  0  0  0  0  0  0  0  0  0  0
   10.7331    7.1009    0.0000 H   0  0  0  0  0  0  0  0  0  0  0  0
    5.9230    9.8035    0.0000 H   0  0  0  0  0  0  0  0  0  0  0  0
    5.5244    9.1132    0.0000 H   0  0  0  0  0  0  0  0  0  0  0  0
    5.6720   10.4109    0.0000 H   0  0  0  0  0  0  0  0  0  0  0  0
    4.8059   11.5309    0.0000 H   0  0  0  0  0  0  0  0  0  0  0  0
    4.8796   12.1132    0.0000 H   0  0  0  0  0  0  0  0  0  0  0  0
    4.4810   12.8035    0.0000 H   0  0  0  0  0  0  0  0  0  0  0  0
    2.7924   12.8285    0.0000 H   0  0  0  0  0  0  0  0  0  0  0  0
    3.1909   12.1382    0.0000 H   0  0  0  0  0  0  0  0  0  0  0  0
   10.1962  -14.2209    0.0000 H   0  0  0  0  0  0  0  0  0  0  0  0
    9.1458  -13.9976    0.0000 H   0  0  0  0  0  0  0  0  0  0  0  0
   11.3552  -12.9337    0.0000 H   0  0  0  0  0  0  0  0  0  0  0  0
   11.0234  -11.9124    0.0000 H   0  0  0  0  0  0  0  0  0  0  0  0
    4.9590    8.2578    0.0000 H   0  0  0  0  0  0  0  0  0  0  0  0
    4.7320    7.4109    0.0000 H   0  0  0  0  0  0  0  0  0  0  0  0
    5.5790    7.1839    0.0000 H   0  0  0  0  0  0  0  0  0  0  0  0
    2.0000   10.9109    0.0000 H   0  0  0  0  0  0  0  0  0  0  0  0
    2.8469   14.7578    0.0000 H   0  0  0  0  0  0  0  0  0  0  0  0
    2.0000   14.5309    0.0000 H   0  0  0  0  0  0  0  0  0  0  0  0
    2.2269   13.6839    0.0000 H   0  0  0  0  0  0  0  0  0  0  0  0
  1 91  1  0  0  0  0
  1 97  1  0  0  0  0
  2 95  1  0  0  0  0
  2 98  1  0  0  0  0
  3 42  2  0  0  0  0
  4 44  2  0  0  0  0
  5 48  2  0  0  0  0
  6 52  2  0  0  0  0
  7 59  2  0  0  0  0
  8 60  2  0  0  0  0
  9 63  1  0  0  0  0
  9152  1  0  0  0  0
 10 65  2  0  0  0  0
 11 71  2  0  0  0  0
 12 77  2  0  0  0  0
 13 78  2  0  0  0  0
 14 84  1  0  0  0  0
 14178  1  0  0  0  0
 15 84  2  0  0  0  0
 16 86  2  0  0  0  0
 17 90  2  0  0  0  0
 18 96  1  0  0  0  0
 18194  1  0  0  0  0
 19 96  2  0  0  0  0
 20 37  1  0  0  0  0
 20 39  1  0  0  0  0
 20 42  1  0  0  0  0
 41 21  1  1  0  0  0
 21 48  1  0  0  0  0
 21110  1  0  0  0  0
 22 44  1  0  0  0  0
 47 22  1  1  0  0  0
 22111  1  0  0  0  0
 51 23  1  6  0  0  0
 23 59  1  0  0  0  0
 23124  1  0  0  0  0
 24 52  1  0  0  0  0
 57 24  1  6  0  0  0
 24125  1  0  0  0  0
 25 56  1  0  0  0  0
 25 58  1  0  0  0  0
 25128  1  0  0  0  0
 62 26  1  6  0  0  0
 26 71  1  0  0  0  0
 26137  1  0  0  0  0
 27 65  1  0  0  0  0
 72 27  1  1  0  0  0
 27142  1  0  0  0  0
 28 60  1  0  0  0  0
 28143  1  0  0  0  0
 28144  1  0  0  0  0
 66 29  1  1  0  0  0
 29 77  1  0  0  0  0
 29148  1  0  0  0  0
 30 78  1  0  0  0  0
 83 30  1  6  0  0  0
 30163  1  0  0  0  0
 79 31  1  6  0  0  0
 31167  1  0  0  0  0
 31168  1  0  0  0  0
 32 86  1  0  0  0  0
 88 32  1  1  0  0  0
 32175  1  0  0  0  0
 33 85  1  0  0  0  0
 33 93  2  0  0  0  0
 34 90  1  0  0  0  0
 92 34  1  6  0  0  0
 34181  1  0  0  0  0
 35 93  1  0  0  0  0
 35187  1  0  0  0  0
 35188  1  0  0  0  0
 36 93  1  0  0  0  0
 36189  1  0  0  0  0
 36190  1  0  0  0  0
 37 38  1  0  0  0  0
 37 44  1  1  0  0  0
 37 99  1  0  0  0  0
 38 40  1  0  0  0  0
 38100  1  0  0  0  0
 38101  1  0  0  0  0
 39 40  1  0  0  0  0
 39102  1  0  0  0  0
 39103  1  0  0  0  0
 40104  1  0  0  0  0
 40105  1  0  0  0  0
 41 42  1  0  0  0  0
 41 43  1  0  0  0  0
 41106  1  0  0  0  0
 43 45  1  0  0  0  0
 43 46  1  6  0  0  0
 43107  1  0  0  0  0
 45 49  1  0  0  0  0
 45108  1  0  0  0  0
 45109  1  0  0  0  0
 46112  1  0  0  0  0
 46113  1  0  0  0  0
 46114  1  0  0  0  0
 47 50  1  0  0  0  0
 47 52  1  0  0  0  0
 47115  1  0  0  0  0
 48 51  1  0  0  0  0
 49116  1  0  0  0  0
 49117  1  0  0  0  0
 49118  1  0  0  0  0
 50 53  1  0  0  0  0
 50119  1  0  0  0  0
 50120  1  0  0  0  0
 51 54  1  0  0  0  0
 51121  1  0  0  0  0
 53 55  1  0  0  0  0
 53 56  2  0  0  0  0
 54 60  1  0  0  0  0
 54122  1  0  0  0  0
 54123  1  0  0  0  0
 55 58  1  0  0  0  0
 55 61  2  0  0  0  0
 56126  1  0  0  0  0
 57 63  1  0  0  0  0
 57 65  1  0  0  0  0
 57127  1  0  0  0  0
 58 64  2  0  0  0  0
 59 62  1  0  0  0  0
 61 67  1  0  0  0  0
 61129  1  0  0  0  0
 62 70  1  0  0  0  0
 62130  1  0  0  0  0
 63131  1  0  0  0  0
 63132  1  0  0  0  0
 64 69  1  0  0  0  0
 64133  1  0  0  0  0
 66 68  1  0  0  0  0
 66 71  1  0  0  0  0
 66134  1  0  0  0  0
 67 69  2  0  0  0  0
 67135  1  0  0  0  0
 68 73  1  0  0  0  0
 68 74  1  6  0  0  0
 68136  1  0  0  0  0
 69138  1  0  0  0  0
 70139  1  0  0  0  0
 70140  1  0  0  0  0
 70141  1  0  0  0  0
 72 75  1  0  0  0  0
 72 78  1  0  0  0  0
 72145  1  0  0  0  0
 73 76  1  0  0  0  0
 73146  1  0  0  0  0
 73147  1  0  0  0  0
 74149  1  0  0  0  0
 74150  1  0  0  0  0
 74151  1  0  0  0  0
 75 80  1  0  0  0  0
 75153  1  0  0  0  0
 75154  1  0  0  0  0
 76155  1  0  0  0  0
 76156  1  0  0  0  0
 76157  1  0  0  0  0
 77 79  1  0  0  0  0
 79 81  1  0  0  0  0
 79158  1  0  0  0  0
 80 84  1  0  0  0  0
 80159  1  0  0  0  0
 80160  1  0  0  0  0
 81 82  1  0  0  0  0
 81161  1  0  0  0  0
 81162  1  0  0  0  0
 82 85  1  0  0  0  0
 82164  1  0  0  0  0
 82165  1  0  0  0  0
 83 86  1  0  0  0  0
 83 87  1  0  0  0  0
 83166  1  0  0  0  0
 85169  1  0  0  0  0
 85170  1  0  0  0  0
 87171  1  0  0  0  0
 87172  1  0  0  0  0
 87173  1  0  0  0  0
 88 89  1  0  0  0  0
 88 90  1  0  0  0  0
 88174  1  0  0  0  0
 89 91  1  0  0  0  0
 89176  1  0  0  0  0
 89177  1  0  0  0  0
 91179  1  0  0  0  0
 91180  1  0  0  0  0
 92 94  1  0  0  0  0
 92 96  1  0  0  0  0
 92182  1  0  0  0  0
 94 95  1  0  0  0  0
 94183  1  0  0  0  0
 94184  1  0  0  0  0
 95185  1  0  0  0  0
 95186  1  0  0  0  0
 97191  1  0  0  0  0
 97192  1  0  0  0  0
 97193  1  0  0  0  0
 98195  1  0  0  0  0
 98196  1  0  0  0  0
 98197  1  0  0  0  0
M  END
> <PUBCHEM_COMPOUND_CID>
516533
> <PUBCHEM_COMPOUND_CANONICALIZED>
1
> <PUBCHEM_CACTVS_COMPLEXITY>
2790
> <PUBCHEM_CACTVS_HBOND_ACCEPTOR>
21
> <PUBCHEM_CACTVS_HBOND_DONOR>
18
> <PUBCHEM_CACTVS_ROTATABLE_BOND>
44
> <PUBCHEM_CACTVS_SUBSKEYS>
AAADcfB//gBgAAAAAAAAAAAAAAAAAWLAAAAwAAAAAAAAAFgB8AAAHgQQCAAADSjl3ga/yPPJkgioAzX3fACCgCExAjAI2aG4ZJgKcP7g0bGUYAhmtgDYyAe9n8KOgAAAAAACAAAAAAAAAAQAAAAAAAAAAA==
> <PUBCHEM_IUPAC_OPENEYE_NAME>
(4S)-4-[[(2S)-2-[[(2S)-2-[[(2S)-1-[(2S,3S)-2-[[(2S)-4-amino-2-[[(2S)-2-[[(2S,3S)-2-[[(2S)-2-amino-5-guanidino-pentanoyl]amino]-3-methyl-pentanoyl]amino]propanoyl]amino]-4-oxo-butanoyl]amino]-3-methyl-pentanoyl]pyrrolidine-2-carbonyl]amino]-3-(1H-indol-3-yl)propanoyl]amino]-3-hydroxy-propanoyl]amino]-5-[[(1S)-2-[[(1S)-1-[[(1S)-1-carboxy-3-methylsulfanyl-propyl]carbamoyl]-3-methylsulfanyl-propyl]amino]-1-methyl-2-oxo-ethyl]amino]-5-oxo-pentanoic acid
> <PUBCHEM_IUPAC_CAS_NAME>
(4S)-4-[[(2S)-2-[[(2S)-2-[[[(2S)-1-[(2S,3S)-2-[[(2S)-4-amino-2-[[(2S)-2-[[(2S,3S)-2-[[(2S)-2-amino-5-(diaminomethylideneamino)-1-oxopentyl]amino]-3-methyl-1-oxopentyl]amino]-1-oxopropyl]amino]-1,4-dioxobutyl]amino]-3-methyl-1-oxopentyl]-2-pyrrolidinyl]-oxomethyl]amino]-3-(1H-indol-3-yl)-1-oxopropyl]amino]-3-hydroxy-1-oxopropyl]amino]-5-[[(2S)-1-[[(2S)-1-[[(1S)-1-carboxy-3-(methylthio)propyl]amino]-4-(methylthio)-1-oxobutan-2-yl]amino]-1-oxopropan-2-yl]amino]-5-oxopentanoic acid
> <PUBCHEM_IUPAC_NAME_MARKUP>
(4<I>S</I>)-4-[[(2<I>S</I>)-2-[[(2<I>S</I>)-2-[[(2<I>S</I>)-1-[(2<I>S</I>,3<I>S</I>)-2-[[(2<I>S</I>)-4-amino-2-[[(2<I>S</I>)-2-[[(2<I>S</I>,3<I>S</I>)-2-[[(2<I>S</I>)-2-amino-5-(diaminomethylideneamino)pentanoyl]amino]-3-methylpentanoyl]amino]propanoyl]amino]-4-oxobutanoyl]amino]-3-methylpentanoyl]pyrrolidine-2-carbonyl]amino]-3-(1<I>H</I>-indol-3-yl)propanoyl]amino]-3-hydroxypropanoyl]amino]-5-[[(2<I>S</I>)-1-[[(2<I>S</I>)-1-[[(1<I>S</I>)-1-carboxy-3-methylsulfanylpropyl]amino]-4-methylsulfanyl-1-oxobutan-2-yl]amino]-1-oxopropan-2-yl]amino]-5-oxopentanoic acid
> <PUBCHEM_IUPAC_NAME>
(4S)-4-[[(2S)-2-[[(2S)-2-[[(2S)-1-[(2S,3S)-2-[[(2S)-4-amino-2-[[(2S)-2-[[(2S,3S)-2-[[(2S)-2-amino-5-(diaminomethylideneamino)pentanoyl]amino]-3-methylpentanoyl]amino]propanoyl]amino]-4-oxobutanoyl]amino]-3-methylpentanoyl]pyrrolidine-2-carbonyl]amino]-3-(1H-indol-3-yl)propanoyl]amino]-3-hydroxypropanoyl]amino]-5-[[(2S)-1-[[(2S)-1-[[(1S)-1-carboxy-3-methylsulfanylpropyl]amino]-4-methylsulfanyl-1-oxobutan-2-yl]amino]-1-oxopropan-2-yl]amino]-5-oxopentanoic acid
> <PUBCHEM_IUPAC_SYSTEMATIC_NAME>
(4S)-4-[[(2S)-2-[[(2S)-2-[[(2S)-1-[(2S,3S)-2-[[(2S)-4-azanyl-2-[[(2S)-2-[[(2S,3S)-2-[[(2S)-2-azanyl-5-[bis(azanyl)methylideneamino]pentanoyl]amino]-3-methyl-pentanoyl]amino]propanoyl]amino]-4-oxidanylidene-butanoyl]amino]-3-methyl-pentanoyl]pyrrolidin-2-yl]carbonylamino]-3-(1H-indol-3-yl)propanoyl]amino]-3-oxidanyl-propanoyl]amino]-5-[[(2S)-1-[[(2S)-4-methylsulfanyl-1-[[(2S)-4-methylsulfanyl-1-oxidanyl-1-oxidanylidene-butan-2-yl]amino]-1-oxidanylidene-butan-2-yl]amino]-1-oxidanylidene-propan-2-yl]amino]-5-oxidanylidene-pentanoic acid
> <PUBCHEM_IUPAC_TRADITIONAL_NAME>
(4S)-4-[[(2S)-2-[[(2S)-2-[[(2S)-1-[(2S,3S)-2-[[(2S)-4-amino-2-[[(2S)-2-[[(2S,3S)-2-[[(2S)-2-amino-5-guanidino-pentanoyl]amino]-3-methyl-pentanoyl]amino]propanoyl]amino]-4-keto-butanoyl]amino]-3-methyl-pentanoyl]prolyl]amino]-3-(1H-indol-3-yl)propanoyl]amino]-3-hydroxy-propanoyl]amino]-5-[[(1S)-2-[[(1S)-1-[[(1S)-1-carboxy-3-(methylthio)propyl]carbamoyl]-3-(methylthio)propyl]amino]-2-keto-1-methyl-ethyl]amino]-5-keto-valeric acid
> <PUBCHEM_IUPAC_INCHI>
InChI=1S/C62H99N17O17S2/c1-9-31(3)48(77-52(86)37(63)16-13-23-67-62(65)66)59(93)70-34(6)51(85)74-43(28-46(64)81)56(90)78-49(32(4)10-2)60(94)79-24-14-18-45(79)58(92)75-42(27-35-29-68-38-17-12-11-15-36(35)38)55(89)76-44(30-80)57(91)72-39(19-20-47(82)83)53(87)69-33(5)50(84)71-40(21-25-97-7)54(88)73-41(61(95)96)22-26-98-8/h11-12,15,17,29,31-34,37,39-45,48-49,68,80H,9-10,13-14,16,18-28,30,63H2,1-8H3,(H2,64,81)(H,69,87)(H,70,93)(H,71,84)(H,72,91)(H,73,88)(H,74,85)(H,75,92)(H,76,89)(H,77,86)(H,78,90)(H,82,83)(H,95,96)(H4,65,66,67)/t31-,32-,33-,34-,37-,39-,40-,41-,42-,43-,44-,45-,48-,49-/m0/s1
> <PUBCHEM_IUPAC_INCHIKEY>
HBZSELRKFQHVSE-GRCBEQODSA-N
> <PUBCHEM_XLOGP3_AA>
-4.1
> <PUBCHEM_EXACT_MASS>
1417.68462710
> <PUBCHEM_MOLECULAR_FORMULA>
C62H99N17O17S2
> <PUBCHEM_MOLECULAR_WEIGHT>
1418.7
> <PUBCHEM_OPENEYE_CAN_SMILES>
CCC(C)C(C(=O)NC(C)C(=O)NC(CC(=O)N)C(=O)NC(C(C)CC)C(=O)N1CCCC1C(=O)NC(CC2=CNC3=CC=CC=C32)C(=O)NC(CO)C(=O)NC(CCC(=O)O)C(=O)NC(C)C(=O)NC(CCSC)C(=O)NC(CCSC)C(=O)O)NC(=O)C(CCCN=C(N)N)N
> <PUBCHEM_OPENEYE_ISO_SMILES>
CC[C@H](C)[C@@H](C(=O)N[C@@H](C)C(=O)N[C@@H](CC(=O)N)C(=O)N[C@@H]([C@@H](C)CC)C(=O)N1CCC[C@H]1C(=O)N[C@@H](CC2=CNC3=CC=CC=C32)C(=O)N[C@@H](CO)C(=O)N[C@@H](CCC(=O)O)C(=O)N[C@@H](C)C(=O)N[C@@H](CCSC)C(=O)N[C@@H](CCSC)C(=O)O)NC(=O)[C@H](CCCN=C(N)N)N
> <PUBCHEM_CACTVS_TPSA>
606
> <PUBCHEM_MONOISOTOPIC_WEIGHT>
1417.68462710
> <PUBCHEM_TOTAL_CHARGE>
0
> <PUBCHEM_HEAVY_ATOM_COUNT>
98
> <PUBCHEM_ATOM_DEF_STEREO_COUNT>
14
> <PUBCHEM_ATOM_UDEF_STEREO_COUNT>
0
> <PUBCHEM_BOND_DEF_STEREO_COUNT>
0
> <PUBCHEM_BOND_UDEF_STEREO_COUNT>
0
> <PUBCHEM_ISOTOPIC_ATOM_COUNT>
0
> <PUBCHEM_COMPONENT_COUNT>
1
> <PUBCHEM_CACTVS_TAUTO_COUNT>
-1
> <PUBCHEM_COORDINATE_TYPE>
1
5
255
> <PUBCHEM_BONDANNOTATIONS>
41  21  5
47  22  5
51  23  6
57  24  6
25  56  8
25  58  8
62  26  6
72  27  5
66  29  5
83  30  6
79  31  6
88  32  5
92  34  6
37  44  5
43  46  6
53  55  8
53  56  8
55  58  8
55  61  8
58  64  8
61  67  8
64  69  8
67  69  8
68  74  6
$$$$
