516529
  -OEChem-10302200282D
127133  0     1  0  0  0  0  0999 V2000
   14.2618    0.7337    0.0000 O   0  0  0  0  0  0  0  0  0  0  0  0
   14.9855   -2.1209    0.0000 O   0  0  0  0  0  0  0  0  0  0  0  0
   12.3874    0.3791    0.0000 O   0  0  0  0  0  0  0  0  0  0  0  0
   15.8366    3.9772    0.0000 O   0  0  0  0  0  0  0  0  0  0  0  0
   18.6898    4.9042    0.0000 O   0  0  0  0  0  0  0  0  0  0  0  0
    9.6554   -2.1209    0.0000 O   0  0  0  0  0  0  0  0  0  0  0  0
    6.9233   -2.6209    0.0000 O   0  0  0  0  0  0  0  0  0  0  0  0
    9.6554    1.8791    0.0000 O   0  0  0  0  0  0  0  0  0  0  0  0
    6.9233    0.3791    0.0000 O   0  0  0  0  0  0  0  0  0  0  0  0
    8.7893    0.3791    0.0000 O   0  0  0  0  0  0  0  0  0  0  0  0
    3.3252   -0.6209    0.0000 O   0  0  0  0  0  0  0  0  0  0  0  0
    4.1912   -2.1209    0.0000 O   0  0  0  0  0  0  0  0  0  0  0  0
   15.9560    0.3736    0.0000 N   0  0  0  0  0  0  0  0  0  0  0  0
   14.1194   -0.6209    0.0000 N   0  0  0  0  0  0  0  0  0  0  0  0
   16.3719    2.3299    0.0000 N   0  0  0  0  0  0  0  0  0  0  0  0
   11.3874   -1.1209    0.0000 N   0  0  0  0  0  0  0  0  0  0  0  0
   12.4261    1.4327    0.0000 N   0  0  0  0  0  0  0  0  0  0  0  0
   10.8125   -2.9528    0.0000 N   0  0  0  0  0  0  0  0  0  0  0  0
   18.2740    2.9479    0.0000 N   0  0  0  0  0  0  0  0  0  0  0  0
    8.6554   -0.6209    0.0000 N   0  0  0  0  0  0  0  0  0  0  0  0
    5.9233   -1.1209    0.0000 N   0  0  0  0  0  0  0  0  0  0  0  0
    2.6164    1.2110    0.0000 N   0  0  0  0  0  0  0  0  0  0  0  0
   15.8515   -0.6209    0.0000 C   0  0  1  0  0  0  0  0  0  0  0  0
   16.7650   -1.0276    0.0000 C   0  0  0  0  0  0  0  0  0  0  0  0
   17.4342   -0.2845    0.0000 C   0  0  0  0  0  0  0  0  0  0  0  0
   16.9342    0.5815    0.0000 C   0  0  0  0  0  0  0  0  0  0  0  0
   15.2129    1.0427    0.0000 C   0  0  0  0  0  0  0  0  0  0  0  0
   14.9855   -1.1209    0.0000 C   0  0  0  0  0  0  0  0  0  0  0  0
   15.4208    2.0209    0.0000 C   0  0  2  0  0  0  0  0  0  0  0  0
   14.6776    2.6900    0.0000 C   0  0  0  0  0  0  0  0  0  0  0  0
   13.2534   -1.1209    0.0000 C   0  0  1  0  0  0  0  0  0  0  0  0
   13.2534   -2.1209    0.0000 C   0  0  0  0  0  0  0  0  0  0  0  0
   13.7266    2.3810    0.0000 C   0  0  0  0  0  0  0  0  0  0  0  0
   12.3874   -0.6209    0.0000 C   0  0  0  0  0  0  0  0  0  0  0  0
   12.9229    2.9660    0.0000 C   0  0  0  0  0  0  0  0  0  0  0  0
   12.3874   -2.6209    0.0000 C   0  0  0  0  0  0  0  0  0  0  0  0
   16.5798    3.3080    0.0000 C   0  0  0  0  0  0  0  0  0  0  0  0
   13.4202    1.4353    0.0000 C   0  0  0  0  0  0  0  0  0  0  0  0
   12.1149    2.3768    0.0000 C   0  0  0  0  0  0  0  0  0  0  0  0
   12.2843   -3.6096    0.0000 C   0  0  0  0  0  0  0  0  0  0  0  0
   17.5308    3.6171    0.0000 C   0  0  2  0  0  0  0  0  0  0  0  0
   10.5214   -0.6209    0.0000 C   0  0  1  0  0  0  0  0  0  0  0  0
   11.4796   -2.2158    0.0000 C   0  0  0  0  0  0  0  0  0  0  0  0
   12.8166    3.9603    0.0000 C   0  0  0  0  0  0  0  0  0  0  0  0
   11.3058   -3.8159    0.0000 C   0  0  0  0  0  0  0  0  0  0  0  0
   11.2006    2.7820    0.0000 C   0  0  0  0  0  0  0  0  0  0  0  0
   10.5214    0.3791    0.0000 C   0  0  0  0  0  0  0  0  0  0  0  0
   17.7387    4.5952    0.0000 C   0  0  0  0  0  0  0  0  0  0  0  0
   12.9522   -4.3539    0.0000 C   0  0  0  0  0  0  0  0  0  0  0  0
    9.6554   -1.1209    0.0000 C   0  0  0  0  0  0  0  0  0  0  0  0
   11.9024    4.3655    0.0000 C   0  0  0  0  0  0  0  0  0  0  0  0
   11.0944    3.7763    0.0000 C   0  0  0  0  0  0  0  0  0  0  0  0
    7.7893   -1.1209    0.0000 C   0  0  1  0  0  0  0  0  0  0  0  0
   10.9952   -4.7664    0.0000 C   0  0  0  0  0  0  0  0  0  0  0  0
   12.6415   -5.3045    0.0000 C   0  0  0  0  0  0  0  0  0  0  0  0
    7.7893   -2.1209    0.0000 C   0  0  1  0  0  0  0  0  0  0  0  0
   11.6630   -5.5107    0.0000 C   0  0  0  0  0  0  0  0  0  0  0  0
    6.9233   -0.6209    0.0000 C   0  0  0  0  0  0  0  0  0  0  0  0
    9.6554    0.8791    0.0000 C   0  0  0  0  0  0  0  0  0  0  0  0
    5.0573   -0.6209    0.0000 C   0  0  1  0  0  0  0  0  0  0  0  0
    5.0573    0.3791    0.0000 C   0  0  0  0  0  0  0  0  0  0  0  0
    4.1912    0.8791    0.0000 C   0  0  0  0  0  0  0  0  0  0  0  0
    8.6554   -2.6209    0.0000 C   0  0  0  0  0  0  0  0  0  0  0  0
    4.0882    1.8678    0.0000 C   0  0  0  0  0  0  0  0  0  0  0  0
    3.1097    2.0740    0.0000 C   0  0  0  0  0  0  0  0  0  0  0  0
    3.2835    0.4740    0.0000 C   0  0  0  0  0  0  0  0  0  0  0  0
    4.1912   -1.1209    0.0000 C   0  0  0  0  0  0  0  0  0  0  0  0
    4.7560    2.6121    0.0000 C   0  0  0  0  0  0  0  0  0  0  0  0
    2.7990    3.0246    0.0000 C   0  0  0  0  0  0  0  0  0  0  0  0
    4.4454    3.5626    0.0000 C   0  0  0  0  0  0  0  0  0  0  0  0
    3.4669    3.7688    0.0000 C   0  0  0  0  0  0  0  0  0  0  0  0
   15.3315   -0.2832    0.0000 H   0  0  0  0  0  0  0  0  0  0  0  0
   16.4550   -1.5646    0.0000 H   0  0  0  0  0  0  0  0  0  0  0  0
   17.2666   -1.3921    0.0000 H   0  0  0  0  0  0  0  0  0  0  0  0
   17.8490   -0.7453    0.0000 H   0  0  0  0  0  0  0  0  0  0  0  0
   17.9358    0.0799    0.0000 H   0  0  0  0  0  0  0  0  0  0  0  0
   17.5006    0.8337    0.0000 H   0  0  0  0  0  0  0  0  0  0  0  0
   16.7426    1.1712    0.0000 H   0  0  0  0  0  0  0  0  0  0  0  0
   15.8815    1.6060    0.0000 H   0  0  0  0  0  0  0  0  0  0  0  0
   15.1662    3.0717    0.0000 H   0  0  0  0  0  0  0  0  0  0  0  0
   14.3866    3.2374    0.0000 H   0  0  0  0  0  0  0  0  0  0  0  0
   14.1194   -0.0009    0.0000 H   0  0  0  0  0  0  0  0  0  0  0  0
   13.7904   -1.4309    0.0000 H   0  0  0  0  0  0  0  0  0  0  0  0
   16.8326    1.9150    0.0000 H   0  0  0  0  0  0  0  0  0  0  0  0
   13.4655   -2.7035    0.0000 H   0  0  0  0  0  0  0  0  0  0  0  0
   13.8640   -2.0133    0.0000 H   0  0  0  0  0  0  0  0  0  0  0  0
   13.7855    0.9343    0.0000 H   0  0  0  0  0  0  0  0  0  0  0  0
   11.9243   -1.4309    0.0000 H   0  0  0  0  0  0  0  0  0  0  0  0
   18.1205    3.8087    0.0000 H   0  0  0  0  0  0  0  0  0  0  0  0
   12.0635    0.9299    0.0000 H   0  0  0  0  0  0  0  0  0  0  0  0
   11.0583   -0.3109    0.0000 H   0  0  0  0  0  0  0  0  0  0  0  0
   11.3518   -1.6091    0.0000 H   0  0  0  0  0  0  0  0  0  0  0  0
   13.3176    4.3256    0.0000 H   0  0  0  0  0  0  0  0  0  0  0  0
   10.1962   -2.8859    0.0000 H   0  0  0  0  0  0  0  0  0  0  0  0
   10.6997    2.4167    0.0000 H   0  0  0  0  0  0  0  0  0  0  0  0
   11.1320    0.2714    0.0000 H   0  0  0  0  0  0  0  0  0  0  0  0
   10.7334    0.9617    0.0000 H   0  0  0  0  0  0  0  0  0  0  0  0
   17.6524    5.2092    0.0000 H   0  0  0  0  0  0  0  0  0  0  0  0
   17.1191    4.6168    0.0000 H   0  0  0  0  0  0  0  0  0  0  0  0
   13.5589   -4.2261    0.0000 H   0  0  0  0  0  0  0  0  0  0  0  0
   11.8365    4.9820    0.0000 H   0  0  0  0  0  0  0  0  0  0  0  0
   10.5275    4.0275    0.0000 H   0  0  0  0  0  0  0  0  0  0  0  0
    8.3263   -1.4309    0.0000 H   0  0  0  0  0  0  0  0  0  0  0  0
   10.3885   -4.8942    0.0000 H   0  0  0  0  0  0  0  0  0  0  0  0
   18.8636    3.1395    0.0000 H   0  0  0  0  0  0  0  0  0  0  0  0
   18.1451    2.3415    0.0000 H   0  0  0  0  0  0  0  0  0  0  0  0
    9.1923   -0.3109    0.0000 H   0  0  0  0  0  0  0  0  0  0  0  0
   13.0556   -5.7659    0.0000 H   0  0  0  0  0  0  0  0  0  0  0  0
    7.7893   -2.7409    0.0000 H   0  0  0  0  0  0  0  0  0  0  0  0
   11.4704   -6.1000    0.0000 H   0  0  0  0  0  0  0  0  0  0  0  0
    5.5942   -0.3109    0.0000 H   0  0  0  0  0  0  0  0  0  0  0  0
    5.6678    0.2714    0.0000 H   0  0  0  0  0  0  0  0  0  0  0  0
    5.2693    0.9617    0.0000 H   0  0  0  0  0  0  0  0  0  0  0  0
    6.4602   -1.4309    0.0000 H   0  0  0  0  0  0  0  0  0  0  0  0
   18.8187    5.5107    0.0000 H   0  0  0  0  0  0  0  0  0  0  0  0
    8.3454   -3.1578    0.0000 H   0  0  0  0  0  0  0  0  0  0  0  0
    9.1923   -2.9309    0.0000 H   0  0  0  0  0  0  0  0  0  0  0  0
    8.9654   -2.0840    0.0000 H   0  0  0  0  0  0  0  0  0  0  0  0
    3.1556   -0.1327    0.0000 H   0  0  0  0  0  0  0  0  0  0  0  0
    6.9233   -3.2409    0.0000 H   0  0  0  0  0  0  0  0  0  0  0  0
    2.0000    1.1440    0.0000 H   0  0  0  0  0  0  0  0  0  0  0  0
    5.3627    2.4842    0.0000 H   0  0  0  0  0  0  0  0  0  0  0  0
   10.1923    2.1891    0.0000 H   0  0  0  0  0  0  0  0  0  0  0  0
    2.1923    3.1524    0.0000 H   0  0  0  0  0  0  0  0  0  0  0  0
    4.8594    4.0241    0.0000 H   0  0  0  0  0  0  0  0  0  0  0  0
    3.2743    4.3582    0.0000 H   0  0  0  0  0  0  0  0  0  0  0  0
    2.7883   -0.9309    0.0000 H   0  0  0  0  0  0  0  0  0  0  0  0
  1 27  2  0  0  0  0
  2 28  2  0  0  0  0
  3 34  2  0  0  0  0
  4 37  2  0  0  0  0
  5 48  1  0  0  0  0
  5115  1  0  0  0  0
  6 50  2  0  0  0  0
 56  7  1  1  0  0  0
  7120  1  0  0  0  0
  8 59  1  0  0  0  0
  8123  1  0  0  0  0
  9 58  2  0  0  0  0
 10 59  2  0  0  0  0
 11 67  1  0  0  0  0
 11127  1  0  0  0  0
 12 67  2  0  0  0  0
 13 23  1  0  0  0  0
 13 26  1  0  0  0  0
 13 27  1  0  0  0  0
 14 28  1  0  0  0  0
 31 14  1  1  0  0  0
 14 82  1  0  0  0  0
 29 15  1  6  0  0  0
 15 37  1  0  0  0  0
 15 84  1  0  0  0  0
 16 34  1  0  0  0  0
 42 16  1  6  0  0  0
 16 88  1  0  0  0  0
 17 38  1  0  0  0  0
 17 39  1  0  0  0  0
 17 90  1  0  0  0  0
 18 43  1  0  0  0  0
 18 45  1  0  0  0  0
 18 94  1  0  0  0  0
 41 19  1  6  0  0  0
 19105  1  0  0  0  0
 19106  1  0  0  0  0
 20 50  1  0  0  0  0
 53 20  1  1  0  0  0
 20107  1  0  0  0  0
 21 58  1  0  0  0  0
 60 21  1  6  0  0  0
 21114  1  0  0  0  0
 22 65  1  0  0  0  0
 22 66  1  0  0  0  0
 22121  1  0  0  0  0
 23 24  1  0  0  0  0
 23 28  1  1  0  0  0
 23 72  1  0  0  0  0
 24 25  1  0  0  0  0
 24 73  1  0  0  0  0
 24 74  1  0  0  0  0
 25 26  1  0  0  0  0
 25 75  1  0  0  0  0
 25 76  1  0  0  0  0
 26 77  1  0  0  0  0
 26 78  1  0  0  0  0
 27 29  1  0  0  0  0
 29 30  1  0  0  0  0
 29 79  1  0  0  0  0
 30 33  1  0  0  0  0
 30 80  1  0  0  0  0
 30 81  1  0  0  0  0
 31 32  1  0  0  0  0
 31 34  1  0  0  0  0
 31 83  1  0  0  0  0
 32 36  1  0  0  0  0
 32 85  1  0  0  0  0
 32 86  1  0  0  0  0
 33 35  1  0  0  0  0
 33 38  2  0  0  0  0
 35 39  1  0  0  0  0
 35 44  2  0  0  0  0
 36 40  1  0  0  0  0
 36 43  2  0  0  0  0
 37 41  1  0  0  0  0
 38 87  1  0  0  0  0
 39 46  2  0  0  0  0
 40 45  1  0  0  0  0
 40 49  2  0  0  0  0
 41 48  1  0  0  0  0
 41 89  1  0  0  0  0
 42 47  1  0  0  0  0
 42 50  1  0  0  0  0
 42 91  1  0  0  0  0
 43 92  1  0  0  0  0
 44 51  1  0  0  0  0
 44 93  1  0  0  0  0
 45 54  2  0  0  0  0
 46 52  1  0  0  0  0
 46 95  1  0  0  0  0
 47 59  1  0  0  0  0
 47 96  1  0  0  0  0
 47 97  1  0  0  0  0
 48 98  1  0  0  0  0
 48 99  1  0  0  0  0
 49 55  1  0  0  0  0
 49100  1  0  0  0  0
 51 52  2  0  0  0  0
 51101  1  0  0  0  0
 52102  1  0  0  0  0
 53 56  1  0  0  0  0
 53 58  1  0  0  0  0
 53103  1  0  0  0  0
 54 57  1  0  0  0  0
 54104  1  0  0  0  0
 55 57  2  0  0  0  0
 55108  1  0  0  0  0
 56 63  1  0  0  0  0
 56109  1  0  0  0  0
 57110  1  0  0  0  0
 60 61  1  0  0  0  0
 60 67  1  0  0  0  0
 60111  1  0  0  0  0
 61 62  1  0  0  0  0
 61112  1  0  0  0  0
 61113  1  0  0  0  0
 62 64  1  0  0  0  0
 62 66  2  0  0  0  0
 63116  1  0  0  0  0
 63117  1  0  0  0  0
 63118  1  0  0  0  0
 64 65  1  0  0  0  0
 64 68  2  0  0  0  0
 65 69  2  0  0  0  0
 66119  1  0  0  0  0
 68 70  1  0  0  0  0
 68122  1  0  0  0  0
 69 71  1  0  0  0  0
 69124  1  0  0  0  0
 70 71  2  0  0  0  0
 70125  1  0  0  0  0
 71126  1  0  0  0  0
M  END
> <PUBCHEM_COMPOUND_CID>
516529
> <PUBCHEM_COMPOUND_CANONICALIZED>
1
> <PUBCHEM_CACTVS_COMPLEXITY>
1930
> <PUBCHEM_CACTVS_HBOND_ACCEPTOR>
13
> <PUBCHEM_CACTVS_HBOND_DONOR>
13
> <PUBCHEM_CACTVS_ROTATABLE_BOND>
22
> <PUBCHEM_CACTVS_SUBSKEYS>
AAADcfB//AAAAAAAAAAAAAAAAAAAAWLFiwAwYMAAAAAAAFgB/gAAHgAQCAAADDzhngY+yPPJkgCoAzX3XACCgCAxAiAI2aG4ZJgKcP7AkbGUYAhmtgDYyAe/2fKOgAAAAAACAAAAAAAAAAQAAAAAAAAAAA==
> <PUBCHEM_IUPAC_OPENEYE_NAME>
(3S)-3-[[(2S)-2-[[(2S)-1-[(2S)-2-[[(2S)-2-amino-3-hydroxy-propanoyl]amino]-3-(1H-indol-3-yl)propanoyl]pyrrolidine-2-carbonyl]amino]-3-(1H-indol-3-yl)propanoyl]amino]-4-[[(1S,2R)-1-[[(1S)-1-carboxy-2-(1H-indol-3-yl)ethyl]carbamoyl]-2-hydroxy-propyl]amino]-4-oxo-butanoic acid
> <PUBCHEM_IUPAC_CAS_NAME>
(3S)-3-[[(2S)-2-[[[(2S)-1-[(2S)-2-[[(2S)-2-amino-3-hydroxy-1-oxopropyl]amino]-3-(1H-indol-3-yl)-1-oxopropyl]-2-pyrrolidinyl]-oxomethyl]amino]-3-(1H-indol-3-yl)-1-oxopropyl]amino]-4-[[(2S,3R)-1-[[(1S)-1-carboxy-2-(1H-indol-3-yl)ethyl]amino]-3-hydroxy-1-oxobutan-2-yl]amino]-4-oxobutanoic acid
> <PUBCHEM_IUPAC_NAME_MARKUP>
(3<I>S</I>)-3-[[(2<I>S</I>)-2-[[(2<I>S</I>)-1-[(2<I>S</I>)-2-[[(2<I>S</I>)-2-amino-3-hydroxypropanoyl]amino]-3-(1<I>H</I>-indol-3-yl)propanoyl]pyrrolidine-2-carbonyl]amino]-3-(1<I>H</I>-indol-3-yl)propanoyl]amino]-4-[[(2<I>S</I>,3<I>R</I>)-1-[[(1<I>S</I>)-1-carboxy-2-(1<I>H</I>-indol-3-yl)ethyl]amino]-3-hydroxy-1-oxobutan-2-yl]amino]-4-oxobutanoic acid
> <PUBCHEM_IUPAC_NAME>
(3S)-3-[[(2S)-2-[[(2S)-1-[(2S)-2-[[(2S)-2-amino-3-hydroxypropanoyl]amino]-3-(1H-indol-3-yl)propanoyl]pyrrolidine-2-carbonyl]amino]-3-(1H-indol-3-yl)propanoyl]amino]-4-[[(2S,3R)-1-[[(1S)-1-carboxy-2-(1H-indol-3-yl)ethyl]amino]-3-hydroxy-1-oxobutan-2-yl]amino]-4-oxobutanoic acid
> <PUBCHEM_IUPAC_SYSTEMATIC_NAME>
(3S)-3-[[(2S)-2-[[(2S)-1-[(2S)-2-[[(2S)-2-azanyl-3-oxidanyl-propanoyl]amino]-3-(1H-indol-3-yl)propanoyl]pyrrolidin-2-yl]carbonylamino]-3-(1H-indol-3-yl)propanoyl]amino]-4-[[(2S,3R)-1-[[(2S)-3-(1H-indol-3-yl)-1-oxidanyl-1-oxidanylidene-propan-2-yl]amino]-3-oxidanyl-1-oxidanylidene-butan-2-yl]amino]-4-oxidanylidene-butanoic acid
> <PUBCHEM_IUPAC_TRADITIONAL_NAME>
(3S)-3-[[(2S)-2-[[(2S)-1-[(2S)-2-[[(2S)-2-amino-3-hydroxy-propanoyl]amino]-3-(1H-indol-3-yl)propanoyl]prolyl]amino]-3-(1H-indol-3-yl)propanoyl]amino]-4-[[(1S,2R)-1-[[(1S)-1-carboxy-2-(1H-indol-3-yl)ethyl]carbamoyl]-2-hydroxy-propyl]amino]-4-keto-butyric acid
> <PUBCHEM_IUPAC_INCHI>
InChI=1S/C49H56N10O12/c1-25(61)42(47(68)57-39(49(70)71)19-28-23-53-35-14-7-4-11-31(28)35)58-45(66)37(20-41(62)63)54-44(65)36(17-26-21-51-33-12-5-2-9-29(26)33)55-46(67)40-15-8-16-59(40)48(69)38(56-43(64)32(50)24-60)18-27-22-52-34-13-6-3-10-30(27)34/h2-7,9-14,21-23,25,32,36-40,42,51-53,60-61H,8,15-20,24,50H2,1H3,(H,54,65)(H,55,67)(H,56,64)(H,57,68)(H,58,66)(H,62,63)(H,70,71)/t25-,32+,36+,37+,38+,39+,40+,42+/m1/s1
> <PUBCHEM_IUPAC_INCHIKEY>
LBOLMMVUXVIOBK-VJCZIFBOSA-N
> <PUBCHEM_XLOGP3_AA>
-1.6
> <PUBCHEM_EXACT_MASS>
976.40791726
> <PUBCHEM_MOLECULAR_FORMULA>
C49H56N10O12
> <PUBCHEM_MOLECULAR_WEIGHT>
977.0
> <PUBCHEM_OPENEYE_CAN_SMILES>
CC(C(C(=O)NC(CC1=CNC2=CC=CC=C21)C(=O)O)NC(=O)C(CC(=O)O)NC(=O)C(CC3=CNC4=CC=CC=C43)NC(=O)C5CCCN5C(=O)C(CC6=CNC7=CC=CC=C76)NC(=O)C(CO)N)O
> <PUBCHEM_OPENEYE_ISO_SMILES>
C[C@H]([C@@H](C(=O)N[C@@H](CC1=CNC2=CC=CC=C21)C(=O)O)NC(=O)[C@H](CC(=O)O)NC(=O)[C@H](CC3=CNC4=CC=CC=C43)NC(=O)[C@@H]5CCCN5C(=O)[C@H](CC6=CNC7=CC=CC=C76)NC(=O)[C@H](CO)N)O
> <PUBCHEM_CACTVS_TPSA>
354
> <PUBCHEM_MONOISOTOPIC_WEIGHT>
976.40791726
> <PUBCHEM_TOTAL_CHARGE>
0
> <PUBCHEM_HEAVY_ATOM_COUNT>
71
> <PUBCHEM_ATOM_DEF_STEREO_COUNT>
8
> <PUBCHEM_ATOM_UDEF_STEREO_COUNT>
0
> <PUBCHEM_BOND_DEF_STEREO_COUNT>
0
> <PUBCHEM_BOND_UDEF_STEREO_COUNT>
0
> <PUBCHEM_ISOTOPIC_ATOM_COUNT>
0
> <PUBCHEM_COMPONENT_COUNT>
1
> <PUBCHEM_CACTVS_TAUTO_COUNT>
-1
> <PUBCHEM_COORDINATE_TYPE>
1
5
255
> <PUBCHEM_BONDANNOTATIONS>
31  14  5
29  15  6
42  16  6
17  38  8
17  39  8
18  43  8
18  45  8
41  19  6
53  20  5
60  21  6
22  65  8
22  66  8
23  28  5
33  35  8
33  38  8
35  39  8
35  44  8
36  40  8
36  43  8
39  46  8
40  45  8
40  49  8
44  51  8
45  54  8
46  52  8
49  55  8
51  52  8
54  57  8
55  57  8
62  64  8
62  66  8
64  65  8
64  68  8
65  69  8
68  70  8
69  71  8
56  7  5
70  71  8
$$$$
