516531
  -OEChem-10302200282D
143147  0     1  0  0  0  0  0999 V2000
   20.0909   -3.5075    0.0000 S   0  0  0  0  0  0  0  0  0  0  0  0
    3.4030    0.6722    0.0000 S   0  0  0  0  0  0  0  0  0  0  0  0
   12.7095    0.7262    0.0000 O   0  0  0  0  0  0  0  0  0  0  0  0
   17.2568    1.2931    0.0000 O   0  0  0  0  0  0  0  0  0  0  0  0
   11.4651    0.1722    0.0000 O   0  0  0  0  0  0  0  0  0  0  0  0
   18.3588    0.4925    0.0000 O   0  0  0  0  0  0  0  0  0  0  0  0
   16.0979    0.0060    0.0000 O   0  0  0  0  0  0  0  0  0  0  0  0
   16.3058    0.9841    0.0000 O   0  0  0  0  0  0  0  0  0  0  0  0
    8.8671   -2.3278    0.0000 O   0  0  0  0  0  0  0  0  0  0  0  0
   18.3588   -0.5075    0.0000 O   0  0  0  0  0  0  0  0  0  0  0  0
    6.1350    0.1722    0.0000 O   0  0  0  0  0  0  0  0  0  0  0  0
    5.2690   -4.3278    0.0000 O   0  0  0  0  0  0  0  0  0  0  0  0
    7.0010   -4.3278    0.0000 O   0  0  0  0  0  0  0  0  0  0  0  0
    2.5369   -0.8278    0.0000 O   0  0  0  0  0  0  0  0  0  0  0  0
    3.4030   -2.3278    0.0000 O   0  0  0  0  0  0  0  0  0  0  0  0
   13.2447   -0.9211    0.0000 N   0  0  0  0  0  0  0  0  0  0  0  0
   19.2248    1.9925    0.0000 N   0  0  0  0  0  0  0  0  0  0  0  0
   16.7216    2.9404    0.0000 N   0  0  0  0  0  0  0  0  0  0  0  0
   14.6116    1.3442    0.0000 N   0  0  0  0  0  0  0  0  0  0  0  0
   10.5991   -1.3278    0.0000 N   0  0  0  0  0  0  0  0  0  0  0  0
   20.0909   -0.5075    0.0000 N   0  0  0  0  0  0  0  0  0  0  0  0
    7.8671   -0.8278    0.0000 N   0  0  0  0  0  0  0  0  0  0  0  0
   22.7365    0.8993    0.0000 N   0  0  0  0  0  0  0  0  0  0  0  0
    7.2922    1.0041    0.0000 N   0  0  0  0  0  0  0  0  0  0  0  0
   22.9056   -0.7099    0.0000 N   0  0  0  0  0  0  0  0  0  0  0  0
   18.3588   -2.5075    0.0000 N   0  0  0  0  0  0  0  0  0  0  0  0
    5.1350   -1.3278    0.0000 N   0  0  0  0  0  0  0  0  0  0  0  0
   12.3312   -1.3278    0.0000 C   0  0  1  0  0  0  0  0  0  0  0  0
   18.4158    2.5803    0.0000 C   0  0  1  0  0  0  0  0  0  0  0  0
   12.4357   -2.3223    0.0000 C   0  0  0  0  0  0  0  0  0  0  0  0
   18.7248    3.5314    0.0000 C   0  0  0  0  0  0  0  0  0  0  0  0
   13.4138   -2.5302    0.0000 C   0  0  0  0  0  0  0  0  0  0  0  0
   13.9138   -1.6642    0.0000 C   0  0  0  0  0  0  0  0  0  0  0  0
   19.7248    3.5314    0.0000 C   0  0  0  0  0  0  0  0  0  0  0  0
   20.0338    2.5803    0.0000 C   0  0  0  0  0  0  0  0  0  0  0  0
   13.4526    0.0571    0.0000 C   0  0  0  0  0  0  0  0  0  0  0  0
   14.4037    0.3661    0.0000 C   0  0  2  0  0  0  0  0  0  0  0  0
   17.4648    2.2713    0.0000 C   0  0  0  0  0  0  0  0  0  0  0  0
   11.4651   -0.8278    0.0000 C   0  0  0  0  0  0  0  0  0  0  0  0
   15.7706    2.6314    0.0000 C   0  0  1  0  0  0  0  0  0  0  0  0
   19.2248    0.9925    0.0000 C   0  0  0  0  0  0  0  0  0  0  0  0
   20.0909    0.4925    0.0000 C   0  0  2  0  0  0  0  0  0  0  0  0
   15.0274    3.3005    0.0000 C   0  0  0  0  0  0  0  0  0  0  0  0
   15.1468   -0.3030    0.0000 C   0  0  1  0  0  0  0  0  0  0  0  0
   15.5626    1.6532    0.0000 C   0  0  0  0  0  0  0  0  0  0  0  0
   15.2353    4.2787    0.0000 C   0  0  0  0  0  0  0  0  0  0  0  0
    9.7331   -0.8278    0.0000 C   0  0  1  0  0  0  0  0  0  0  0  0
   20.9569    0.9925    0.0000 C   0  0  0  0  0  0  0  0  0  0  0  0
   14.9389   -1.2812    0.0000 C   0  0  0  0  0  0  0  0  0  0  0  0
    9.7331    0.1722    0.0000 C   0  0  0  0  0  0  0  0  0  0  0  0
   14.4922    4.9478    0.0000 C   0  0  0  0  0  0  0  0  0  0  0  0
   16.1864    4.5877    0.0000 C   0  0  0  0  0  0  0  0  0  0  0  0
    8.8671   -1.3278    0.0000 C   0  0  0  0  0  0  0  0  0  0  0  0
   21.8229    0.4925    0.0000 C   0  0  0  0  0  0  0  0  0  0  0  0
    8.8671    0.6722    0.0000 C   0  0  0  0  0  0  0  0  0  0  0  0
   19.2248   -1.0075    0.0000 C   0  0  0  0  0  0  0  0  0  0  0  0
    8.7640    1.6609    0.0000 C   0  0  0  0  0  0  0  0  0  0  0  0
    7.0010   -1.3278    0.0000 C   0  0  1  0  0  0  0  0  0  0  0  0
   19.2248   -2.0075    0.0000 C   0  0  2  0  0  0  0  0  0  0  0  0
    7.9593    0.2671    0.0000 C   0  0  0  0  0  0  0  0  0  0  0  0
   21.9274   -0.5020    0.0000 C   0  0  0  0  0  0  0  0  0  0  0  0
    7.7855    1.8671    0.0000 C   0  0  0  0  0  0  0  0  0  0  0  0
    7.0010   -2.3278    0.0000 C   0  0  0  0  0  0  0  0  0  0  0  0
    9.4319    2.4052    0.0000 C   0  0  0  0  0  0  0  0  0  0  0  0
   23.4056    0.1561    0.0000 C   0  0  0  0  0  0  0  0  0  0  0  0
   20.0909   -2.5075    0.0000 C   0  0  0  0  0  0  0  0  0  0  0  0
    6.1350   -0.8278    0.0000 C   0  0  0  0  0  0  0  0  0  0  0  0
    7.4748    2.8176    0.0000 C   0  0  0  0  0  0  0  0  0  0  0  0
    6.1350   -2.8278    0.0000 C   0  0  0  0  0  0  0  0  0  0  0  0
    9.1212    3.3557    0.0000 C   0  0  0  0  0  0  0  0  0  0  0  0
    8.1427    3.5620    0.0000 C   0  0  0  0  0  0  0  0  0  0  0  0
    4.2690   -0.8278    0.0000 C   0  0  1  0  0  0  0  0  0  0  0  0
    6.1350   -3.8278    0.0000 C   0  0  0  0  0  0  0  0  0  0  0  0
    4.2690    0.1722    0.0000 C   0  0  0  0  0  0  0  0  0  0  0  0
    3.4030   -1.3278    0.0000 C   0  0  0  0  0  0  0  0  0  0  0  0
   12.3636   -0.7087    0.0000 H   0  0  0  0  0  0  0  0  0  0  0  0
   18.3188    1.9679    0.0000 H   0  0  0  0  0  0  0  0  0  0  0  0
   11.8157   -2.3223    0.0000 H   0  0  0  0  0  0  0  0  0  0  0  0
   12.3709   -2.9389    0.0000 H   0  0  0  0  0  0  0  0  0  0  0  0
   18.7896    4.1480    0.0000 H   0  0  0  0  0  0  0  0  0  0  0  0
   18.1184    3.6603    0.0000 H   0  0  0  0  0  0  0  0  0  0  0  0
   13.2222   -3.1199    0.0000 H   0  0  0  0  0  0  0  0  0  0  0  0
   13.9802   -2.7824    0.0000 H   0  0  0  0  0  0  0  0  0  0  0  0
   14.4154   -2.0286    0.0000 H   0  0  0  0  0  0  0  0  0  0  0  0
   14.3287   -1.2035    0.0000 H   0  0  0  0  0  0  0  0  0  0  0  0
   20.3313    3.6603    0.0000 H   0  0  0  0  0  0  0  0  0  0  0  0
   19.6600    4.1480    0.0000 H   0  0  0  0  0  0  0  0  0  0  0  0
   20.3438    2.0434    0.0000 H   0  0  0  0  0  0  0  0  0  0  0  0
   20.6002    2.8325    0.0000 H   0  0  0  0  0  0  0  0  0  0  0  0
   13.9429    0.7810    0.0000 H   0  0  0  0  0  0  0  0  0  0  0  0
   15.8995    3.2378    0.0000 H   0  0  0  0  0  0  0  0  0  0  0  0
   16.8505    3.5469    0.0000 H   0  0  0  0  0  0  0  0  0  0  0  0
   20.6278    0.1825    0.0000 H   0  0  0  0  0  0  0  0  0  0  0  0
   14.4526    3.5328    0.0000 H   0  0  0  0  0  0  0  0  0  0  0  0
   14.6989    2.7747    0.0000 H   0  0  0  0  0  0  0  0  0  0  0  0
   15.2757    0.3034    0.0000 H   0  0  0  0  0  0  0  0  0  0  0  0
   14.1508    1.7591    0.0000 H   0  0  0  0  0  0  0  0  0  0  0  0
   10.5991   -1.9478    0.0000 H   0  0  0  0  0  0  0  0  0  0  0  0
   15.3642    4.8851    0.0000 H   0  0  0  0  0  0  0  0  0  0  0  0
   10.2700   -0.5178    0.0000 H   0  0  0  0  0  0  0  0  0  0  0  0
   21.3554    1.4675    0.0000 H   0  0  0  0  0  0  0  0  0  0  0  0
   20.5584    1.4675    0.0000 H   0  0  0  0  0  0  0  0  0  0  0  0
   14.3325   -1.1523    0.0000 H   0  0  0  0  0  0  0  0  0  0  0  0
   14.8100   -1.8876    0.0000 H   0  0  0  0  0  0  0  0  0  0  0  0
   15.5454   -1.4101    0.0000 H   0  0  0  0  0  0  0  0  0  0  0  0
   10.3437    0.0645    0.0000 H   0  0  0  0  0  0  0  0  0  0  0  0
    9.9451    0.7548    0.0000 H   0  0  0  0  0  0  0  0  0  0  0  0
   20.6278   -0.8175    0.0000 H   0  0  0  0  0  0  0  0  0  0  0  0
   14.9070    5.4086    0.0000 H   0  0  0  0  0  0  0  0  0  0  0  0
   14.0314    5.3627    0.0000 H   0  0  0  0  0  0  0  0  0  0  0  0
   14.0773    4.4871    0.0000 H   0  0  0  0  0  0  0  0  0  0  0  0
   16.3780    3.9980    0.0000 H   0  0  0  0  0  0  0  0  0  0  0  0
   16.7760    4.7793    0.0000 H   0  0  0  0  0  0  0  0  0  0  0  0
   15.9948    5.1774    0.0000 H   0  0  0  0  0  0  0  0  0  0  0  0
   16.5586   -0.4089    0.0000 H   0  0  0  0  0  0  0  0  0  0  0  0
    8.4040   -0.5178    0.0000 H   0  0  0  0  0  0  0  0  0  0  0  0
    7.5380   -1.6378    0.0000 H   0  0  0  0  0  0  0  0  0  0  0  0
   18.6879   -1.6975    0.0000 H   0  0  0  0  0  0  0  0  0  0  0  0
    7.8314   -0.3396    0.0000 H   0  0  0  0  0  0  0  0  0  0  0  0
   22.8654    1.5057    0.0000 H   0  0  0  0  0  0  0  0  0  0  0  0
   21.4667   -0.9169    0.0000 H   0  0  0  0  0  0  0  0  0  0  0  0
    6.6758    0.9371    0.0000 H   0  0  0  0  0  0  0  0  0  0  0  0
    7.2131   -2.9104    0.0000 H   0  0  0  0  0  0  0  0  0  0  0  0
    7.6116   -2.2202    0.0000 H   0  0  0  0  0  0  0  0  0  0  0  0
   10.0385    2.2774    0.0000 H   0  0  0  0  0  0  0  0  0  0  0  0
   24.0222    0.2209    0.0000 H   0  0  0  0  0  0  0  0  0  0  0  0
   20.7014   -2.6151    0.0000 H   0  0  0  0  0  0  0  0  0  0  0  0
   20.3029   -1.9249    0.0000 H   0  0  0  0  0  0  0  0  0  0  0  0
    6.8682    2.9455    0.0000 H   0  0  0  0  0  0  0  0  0  0  0  0
    5.9230   -2.2452    0.0000 H   0  0  0  0  0  0  0  0  0  0  0  0
    5.5244   -2.9355    0.0000 H   0  0  0  0  0  0  0  0  0  0  0  0
   18.3588   -3.1275    0.0000 H   0  0  0  0  0  0  0  0  0  0  0  0
   17.8219   -2.1975    0.0000 H   0  0  0  0  0  0  0  0  0  0  0  0
    9.5352    3.8172    0.0000 H   0  0  0  0  0  0  0  0  0  0  0  0
    7.9501    4.1513    0.0000 H   0  0  0  0  0  0  0  0  0  0  0  0
    5.6720   -1.6378    0.0000 H   0  0  0  0  0  0  0  0  0  0  0  0
    4.8059   -0.5178    0.0000 H   0  0  0  0  0  0  0  0  0  0  0  0
   20.6278   -3.8175    0.0000 H   0  0  0  0  0  0  0  0  0  0  0  0
    4.8796    0.0645    0.0000 H   0  0  0  0  0  0  0  0  0  0  0  0
    4.4810    0.7548    0.0000 H   0  0  0  0  0  0  0  0  0  0  0  0
    5.2690   -4.9478    0.0000 H   0  0  0  0  0  0  0  0  0  0  0  0
    3.4030    1.2922    0.0000 H   0  0  0  0  0  0  0  0  0  0  0  0
    2.0000   -1.1378    0.0000 H   0  0  0  0  0  0  0  0  0  0  0  0
  1 66  1  0  0  0  0
  1138  1  0  0  0  0
  2 74  1  0  0  0  0
  2142  1  0  0  0  0
  3 36  2  0  0  0  0
  4 38  2  0  0  0  0
  5 39  2  0  0  0  0
  6 41  2  0  0  0  0
 44  7  1  6  0  0  0
  7115  1  0  0  0  0
  8 45  2  0  0  0  0
  9 53  2  0  0  0  0
 10 56  2  0  0  0  0
 11 67  2  0  0  0  0
 12 73  1  0  0  0  0
 12141  1  0  0  0  0
 13 73  2  0  0  0  0
 14 75  1  0  0  0  0
 14143  1  0  0  0  0
 15 75  2  0  0  0  0
 16 28  1  0  0  0  0
 16 33  1  0  0  0  0
 16 36  1  0  0  0  0
 17 29  1  0  0  0  0
 17 35  1  0  0  0  0
 17 41  1  0  0  0  0
 18 38  1  0  0  0  0
 40 18  1  6  0  0  0
 18 92  1  0  0  0  0
 37 19  1  1  0  0  0
 19 45  1  0  0  0  0
 19 97  1  0  0  0  0
 20 39  1  0  0  0  0
 47 20  1  6  0  0  0
 20 98  1  0  0  0  0
 42 21  1  6  0  0  0
 21 56  1  0  0  0  0
 21108  1  0  0  0  0
 22 53  1  0  0  0  0
 58 22  1  1  0  0  0
 22116  1  0  0  0  0
 23 54  1  0  0  0  0
 23 65  1  0  0  0  0
 23120  1  0  0  0  0
 24 60  1  0  0  0  0
 24 62  1  0  0  0  0
 24122  1  0  0  0  0
 25 61  1  0  0  0  0
 25 65  2  0  0  0  0
 59 26  1  6  0  0  0
 26132  1  0  0  0  0
 26133  1  0  0  0  0
 27 67  1  0  0  0  0
 72 27  1  6  0  0  0
 27136  1  0  0  0  0
 28 30  1  0  0  0  0
 28 39  1  1  0  0  0
 28 76  1  0  0  0  0
 29 31  1  0  0  0  0
 29 38  1  6  0  0  0
 29 77  1  0  0  0  0
 30 32  1  0  0  0  0
 30 78  1  0  0  0  0
 30 79  1  0  0  0  0
 31 34  1  0  0  0  0
 31 80  1  0  0  0  0
 31 81  1  0  0  0  0
 32 33  1  0  0  0  0
 32 82  1  0  0  0  0
 32 83  1  0  0  0  0
 33 84  1  0  0  0  0
 33 85  1  0  0  0  0
 34 35  1  0  0  0  0
 34 86  1  0  0  0  0
 34 87  1  0  0  0  0
 35 88  1  0  0  0  0
 35 89  1  0  0  0  0
 36 37  1  0  0  0  0
 37 44  1  0  0  0  0
 37 90  1  0  0  0  0
 40 43  1  0  0  0  0
 40 45  1  0  0  0  0
 40 91  1  0  0  0  0
 41 42  1  0  0  0  0
 42 48  1  0  0  0  0
 42 93  1  0  0  0  0
 43 46  1  0  0  0  0
 43 94  1  0  0  0  0
 43 95  1  0  0  0  0
 44 49  1  0  0  0  0
 44 96  1  0  0  0  0
 46 51  1  0  0  0  0
 46 52  1  0  0  0  0
 46 99  1  0  0  0  0
 47 50  1  0  0  0  0
 47 53  1  0  0  0  0
 47100  1  0  0  0  0
 48 54  1  0  0  0  0
 48101  1  0  0  0  0
 48102  1  0  0  0  0
 49103  1  0  0  0  0
 49104  1  0  0  0  0
 49105  1  0  0  0  0
 50 55  1  0  0  0  0
 50106  1  0  0  0  0
 50107  1  0  0  0  0
 51109  1  0  0  0  0
 51110  1  0  0  0  0
 51111  1  0  0  0  0
 52112  1  0  0  0  0
 52113  1  0  0  0  0
 52114  1  0  0  0  0
 54 61  2  0  0  0  0
 55 57  1  0  0  0  0
 55 60  2  0  0  0  0
 56 59  1  0  0  0  0
 57 62  1  0  0  0  0
 57 64  2  0  0  0  0
 58 63  1  0  0  0  0
 58 67  1  0  0  0  0
 58117  1  0  0  0  0
 59 66  1  0  0  0  0
 59118  1  0  0  0  0
 60119  1  0  0  0  0
 61121  1  0  0  0  0
 62 68  2  0  0  0  0
 63 69  1  0  0  0  0
 63123  1  0  0  0  0
 63124  1  0  0  0  0
 64 70  1  0  0  0  0
 64125  1  0  0  0  0
 65126  1  0  0  0  0
 66127  1  0  0  0  0
 66128  1  0  0  0  0
 68 71  1  0  0  0  0
 68129  1  0  0  0  0
 69 73  1  0  0  0  0
 69130  1  0  0  0  0
 69131  1  0  0  0  0
 70 71  2  0  0  0  0
 70134  1  0  0  0  0
 71135  1  0  0  0  0
 72 74  1  0  0  0  0
 72 75  1  0  0  0  0
 72137  1  0  0  0  0
 74139  1  0  0  0  0
 74140  1  0  0  0  0
M  END
> <PUBCHEM_COMPOUND_CID>
516531
> <PUBCHEM_COMPOUND_CANONICALIZED>
1
> <PUBCHEM_CACTVS_COMPLEXITY>
2060
> <PUBCHEM_CACTVS_HBOND_ACCEPTOR>
17
> <PUBCHEM_CACTVS_HBOND_DONOR>
14
> <PUBCHEM_CACTVS_ROTATABLE_BOND>
27
> <PUBCHEM_CACTVS_SUBSKEYS>
AAADcfB//ABgAAAAAAAAAAAAAAAAAWLFiwAwAAAAAAAAAFgB/AAAHgQQCAAADTzl3ga/2PfJkgSoAzX3fACCgC2xEqAJ2aG4dJiKePbA2bGUYAhutgLYyCe8n8KOgAAAAAACAAAAAAAAAAQAAAAAAAAAAA==
> <PUBCHEM_IUPAC_OPENEYE_NAME>
(4S)-4-[[(2S)-2-[[(2S)-1-[(2S,3R)-2-[[(2S)-2-[[(2S)-1-[(2S)-2-[[(2R)-2-amino-3-sulfanyl-propanoyl]amino]-3-(1H-imidazol-5-yl)propanoyl]pyrrolidine-2-carbonyl]amino]-4-methyl-pentanoyl]amino]-3-hydroxy-butanoyl]pyrrolidine-2-carbonyl]amino]-3-(1H-indol-3-yl)propanoyl]amino]-5-[[(1R)-1-carboxy-2-sulfanyl-ethyl]amino]-5-oxo-pentanoic acid
> <PUBCHEM_IUPAC_CAS_NAME>
(4S)-4-[[(2S)-2-[[[(2S)-1-[(2S,3R)-2-[[(2S)-2-[[[(2S)-1-[(2S)-2-[[(2R)-2-amino-3-mercapto-1-oxopropyl]amino]-3-(1H-imidazol-5-yl)-1-oxopropyl]-2-pyrrolidinyl]-oxomethyl]amino]-4-methyl-1-oxopentyl]amino]-3-hydroxy-1-oxobutyl]-2-pyrrolidinyl]-oxomethyl]amino]-3-(1H-indol-3-yl)-1-oxopropyl]amino]-5-[[(1R)-1-carboxy-2-mercaptoethyl]amino]-5-oxopentanoic acid
> <PUBCHEM_IUPAC_NAME_MARKUP>
(4<I>S</I>)-4-[[(2<I>S</I>)-2-[[(2<I>S</I>)-1-[(2<I>S</I>,3<I>R</I>)-2-[[(2<I>S</I>)-2-[[(2<I>S</I>)-1-[(2<I>S</I>)-2-[[(2<I>R</I>)-2-amino-3-sulfanylpropanoyl]amino]-3-(1<I>H</I>-imidazol-5-yl)propanoyl]pyrrolidine-2-carbonyl]amino]-4-methylpentanoyl]amino]-3-hydroxybutanoyl]pyrrolidine-2-carbonyl]amino]-3-(1<I>H</I>-indol-3-yl)propanoyl]amino]-5-[[(1<I>R</I>)-1-carboxy-2-sulfanylethyl]amino]-5-oxopentanoic acid
> <PUBCHEM_IUPAC_NAME>
(4S)-4-[[(2S)-2-[[(2S)-1-[(2S,3R)-2-[[(2S)-2-[[(2S)-1-[(2S)-2-[[(2R)-2-amino-3-sulfanylpropanoyl]amino]-3-(1H-imidazol-5-yl)propanoyl]pyrrolidine-2-carbonyl]amino]-4-methylpentanoyl]amino]-3-hydroxybutanoyl]pyrrolidine-2-carbonyl]amino]-3-(1H-indol-3-yl)propanoyl]amino]-5-[[(1R)-1-carboxy-2-sulfanylethyl]amino]-5-oxopentanoic acid
> <PUBCHEM_IUPAC_SYSTEMATIC_NAME>
(4S)-4-[[(2S)-2-[[(2S)-1-[(2S,3R)-2-[[(2S)-2-[[(2S)-1-[(2S)-2-[[(2R)-2-azanyl-3-sulfanyl-propanoyl]amino]-3-(1H-imidazol-5-yl)propanoyl]pyrrolidin-2-yl]carbonylamino]-4-methyl-pentanoyl]amino]-3-oxidanyl-butanoyl]pyrrolidin-2-yl]carbonylamino]-3-(1H-indol-3-yl)propanoyl]amino]-5-oxidanylidene-5-[[(2R)-1-oxidanyl-1-oxidanylidene-3-sulfanyl-propan-2-yl]amino]pentanoic acid
> <PUBCHEM_IUPAC_TRADITIONAL_NAME>
(4S)-4-[[(2S)-2-[[(2S)-1-[(2S,3R)-2-[[(2S)-2-[[(2S)-1-[(2S)-2-[[(2R)-2-amino-3-mercapto-propanoyl]amino]-3-(1H-imidazol-5-yl)propanoyl]prolyl]amino]-4-methyl-pentanoyl]amino]-3-hydroxy-butanoyl]prolyl]amino]-3-(1H-indol-3-yl)propanoyl]amino]-5-[[(1R)-1-carboxy-2-mercapto-ethyl]amino]-5-keto-valeric acid
> <PUBCHEM_IUPAC_INCHI>
InChI=1S/C48H68N12O13S2/c1-24(2)16-32(54-44(68)36-10-6-14-59(36)46(70)34(18-27-20-50-23-52-27)56-40(64)29(49)21-74)43(67)58-39(25(3)61)47(71)60-15-7-11-37(60)45(69)55-33(17-26-19-51-30-9-5-4-8-28(26)30)42(66)53-31(12-13-38(62)63)41(65)57-35(22-75)48(72)73/h4-5,8-9,19-20,23-25,29,31-37,39,51,61,74-75H,6-7,10-18,21-22,49H2,1-3H3,(H,50,52)(H,53,66)(H,54,68)(H,55,69)(H,56,64)(H,57,65)(H,58,67)(H,62,63)(H,72,73)/t25-,29+,31+,32+,33+,34+,35+,36+,37+,39+/m1/s1
> <PUBCHEM_IUPAC_INCHIKEY>
MMEVXBBIXFSFBT-ZQPQTUMTSA-N
> <PUBCHEM_XLOGP3_AA>
-2.9
> <PUBCHEM_EXACT_MASS>
1084.44702262
> <PUBCHEM_MOLECULAR_FORMULA>
C48H68N12O13S2
> <PUBCHEM_MOLECULAR_WEIGHT>
1085.3
> <PUBCHEM_OPENEYE_CAN_SMILES>
CC(C)CC(C(=O)NC(C(C)O)C(=O)N1CCCC1C(=O)NC(CC2=CNC3=CC=CC=C32)C(=O)NC(CCC(=O)O)C(=O)NC(CS)C(=O)O)NC(=O)C4CCCN4C(=O)C(CC5=CN=CN5)NC(=O)C(CS)N
> <PUBCHEM_OPENEYE_ISO_SMILES>
C[C@H]([C@@H](C(=O)N1CCC[C@H]1C(=O)N[C@@H](CC2=CNC3=CC=CC=C32)C(=O)N[C@@H](CCC(=O)O)C(=O)N[C@@H](CS)C(=O)O)NC(=O)[C@H](CC(C)C)NC(=O)[C@@H]4CCCN4C(=O)[C@H](CC5=CN=CN5)NC(=O)[C@H](CS)N)O
> <PUBCHEM_CACTVS_TPSA>
383
> <PUBCHEM_MONOISOTOPIC_WEIGHT>
1084.44702262
> <PUBCHEM_TOTAL_CHARGE>
0
> <PUBCHEM_HEAVY_ATOM_COUNT>
75
> <PUBCHEM_ATOM_DEF_STEREO_COUNT>
10
> <PUBCHEM_ATOM_UDEF_STEREO_COUNT>
0
> <PUBCHEM_BOND_DEF_STEREO_COUNT>
0
> <PUBCHEM_BOND_UDEF_STEREO_COUNT>
0
> <PUBCHEM_ISOTOPIC_ATOM_COUNT>
0
> <PUBCHEM_COMPONENT_COUNT>
1
> <PUBCHEM_CACTVS_TAUTO_COUNT>
-1
> <PUBCHEM_COORDINATE_TYPE>
1
5
255
> <PUBCHEM_BONDANNOTATIONS>
40  18  6
37  19  5
47  20  6
42  21  6
58  22  5
23  54  8
23  65  8
24  60  8
24  62  8
25  61  8
25  65  8
59  26  6
72  27  6
28  39  5
29  38  6
54  61  8
55  57  8
55  60  8
57  62  8
57  64  8
62  68  8
64  70  8
68  71  8
44  7  6
70  71  8
$$$$
