516532
  -OEChem-10302200282D
192194  0     1  0  0  0  0  0999 V2000
    6.1350    8.2209    0.0000 S   0  0  0  0  0  0  0  0  0  0  0  0
    3.4030   13.7209    0.0000 S   0  0  0  0  0  0  0  0  0  0  0  0
   12.8542    0.8662    0.0000 O   0  0  0  0  0  0  0  0  0  0  0  0
   12.9965    2.2208    0.0000 O   0  0  0  0  0  0  0  0  0  0  0  0
   11.2794   -2.3772    0.0000 O   0  0  0  0  0  0  0  0  0  0  0  0
   13.8626    2.7208    0.0000 O   0  0  0  0  0  0  0  0  0  0  0  0
   11.0715   -3.3554    0.0000 O   0  0  0  0  0  0  0  0  0  0  0  0
   14.4599   -4.0756    0.0000 O   0  0  0  0  0  0  0  0  0  0  0  0
   16.0632   12.7209    0.0000 O   0  0  0  0  0  0  0  0  0  0  0  0
   14.3312    9.7209    0.0000 O   0  0  0  0  0  0  0  0  0  0  0  0
   11.1909   -6.9590    0.0000 O   0  0  0  0  0  0  0  0  0  0  0  0
   10.1204   -3.6644    0.0000 O   0  0  0  0  0  0  0  0  0  0  0  0
   11.5991   12.2209    0.0000 O   0  0  0  0  0  0  0  0  0  0  0  0
   10.7331    7.7209    0.0000 O   0  0  0  0  0  0  0  0  0  0  0  0
   12.4651    7.7209    0.0000 O   0  0  0  0  0  0  0  0  0  0  0  0
    8.8671    9.7209    0.0000 O   0  0  0  0  0  0  0  0  0  0  0  0
   14.3714   -8.6573    0.0000 O   0  0  0  0  0  0  0  0  0  0  0  0
    6.1350   12.2209    0.0000 O   0  0  0  0  0  0  0  0  0  0  0  0
    2.5369   11.2209    0.0000 O   0  0  0  0  0  0  0  0  0  0  0  0
    3.4030    9.7209    0.0000 O   0  0  0  0  0  0  0  0  0  0  0  0
   11.1600    1.2263    0.0000 N   0  0  0  0  0  0  0  0  0  0  0  0
   12.4383   -1.0901    0.0000 N   0  0  0  0  0  0  0  0  0  0  0  0
   12.1305    3.7208    0.0000 N   0  0  0  0  0  0  0  0  0  0  0  0
   16.0632   10.7209    0.0000 N   0  0  0  0  0  0  0  0  0  0  0  0
   12.7657   -3.7155    0.0000 N   0  0  0  0  0  0  0  0  0  0  0  0
   14.9374    6.9188    0.0000 N   0  0  0  0  0  0  0  0  0  0  0  0
   13.3312   11.2209    0.0000 N   0  0  0  0  0  0  0  0  0  0  0  0
   12.3498   -5.6718    0.0000 N   0  0  0  0  0  0  0  0  0  0  0  0
   15.6188   -2.7884    0.0000 N   0  0  0  0  0  0  0  0  0  0  0  0
   10.5991   10.7209    0.0000 N   0  0  0  0  0  0  0  0  0  0  0  0
   12.6772   -8.2972    0.0000 N   0  0  0  0  0  0  0  0  0  0  0  0
    8.9614   -4.9516    0.0000 N   0  0  0  0  0  0  0  0  0  0  0  0
    7.8671   11.2209    0.0000 N   0  0  0  0  0  0  0  0  0  0  0  0
   13.9555  -10.6136    0.0000 N   0  0  0  0  0  0  0  0  0  0  0  0
    5.1350   10.7209    0.0000 N   0  0  0  0  0  0  0  0  0  0  0  0
   10.8945  -12.5188    0.0000 N   0  0  0  0  0  0  0  0  0  0  0  0
    9.7355  -13.8060    0.0000 N   0  0  0  0  0  0  0  0  0  0  0  0
    9.2003  -12.1587    0.0000 N   0  0  0  0  0  0  0  0  0  0  0  0
   11.2645    2.2208    0.0000 C   0  0  1  0  0  0  0  0  0  0  0  0
   10.3509    2.6276    0.0000 C   0  0  0  0  0  0  0  0  0  0  0  0
   10.1818    1.0184    0.0000 C   0  0  0  0  0  0  0  0  0  0  0  0
    9.6818    1.8844    0.0000 C   0  0  0  0  0  0  0  0  0  0  0  0
   11.6952   -0.4209    0.0000 C   0  0  2  0  0  0  0  0  0  0  0  0
   11.9031    0.5572    0.0000 C   0  0  0  0  0  0  0  0  0  0  0  0
   10.7441   -0.7300    0.0000 C   0  0  2  0  0  0  0  0  0  0  0  0
   12.1305    2.7208    0.0000 C   0  0  0  0  0  0  0  0  0  0  0  0
   10.5362   -1.7081    0.0000 C   0  0  0  0  0  0  0  0  0  0  0  0
   10.0010   -0.0608    0.0000 C   0  0  0  0  0  0  0  0  0  0  0  0
   12.9965    4.2209    0.0000 C   0  0  1  0  0  0  0  0  0  0  0  0
   12.9965    5.2209    0.0000 C   0  0  0  0  0  0  0  0  0  0  0  0
    9.5852   -2.0171    0.0000 C   0  0  0  0  0  0  0  0  0  0  0  0
   12.2304   -2.0682    0.0000 C   0  0  0  0  0  0  0  0  0  0  0  0
   12.9736   -2.7374    0.0000 C   0  0  2  0  0  0  0  0  0  0  0  0
   13.8626    3.7208    0.0000 C   0  0  0  0  0  0  0  0  0  0  0  0
   13.8626    5.7209    0.0000 C   0  0  0  0  0  0  0  0  0  0  0  0
   13.9246   -2.4283    0.0000 C   0  0  0  0  0  0  0  0  0  0  0  0
   14.7704    5.3157    0.0000 C   0  0  0  0  0  0  0  0  0  0  0  0
   13.9656    6.7096    0.0000 C   0  0  0  0  0  0  0  0  0  0  0  0
   15.1972   11.2209    0.0000 C   0  0  1  0  0  0  0  0  0  0  0  0
   15.4382    6.0600    0.0000 C   0  0  0  0  0  0  0  0  0  0  0  0
   11.8146   -4.0245    0.0000 C   0  0  0  0  0  0  0  0  0  0  0  0
   14.6678   -3.0975    0.0000 C   0  0  0  0  0  0  0  0  0  0  0  0
   15.0810    4.3652    0.0000 C   0  0  0  0  0  0  0  0  0  0  0  0
   11.6067   -5.0027    0.0000 C   0  0  2  0  0  0  0  0  0  0  0  0
   15.1972   12.2209    0.0000 C   0  0  0  0  0  0  0  0  0  0  0  0
   16.4167    5.8538    0.0000 C   0  0  0  0  0  0  0  0  0  0  0  0
   14.3312   10.7209    0.0000 C   0  0  0  0  0  0  0  0  0  0  0  0
   16.0595    4.1590    0.0000 C   0  0  0  0  0  0  0  0  0  0  0  0
   16.7274    4.9033    0.0000 C   0  0  0  0  0  0  0  0  0  0  0  0
   10.6556   -5.3117    0.0000 C   0  0  0  0  0  0  0  0  0  0  0  0
   12.4651   10.7209    0.0000 C   0  0  1  0  0  0  0  0  0  0  0  0
   12.4651    9.7209    0.0000 C   0  0  0  0  0  0  0  0  0  0  0  0
   12.1419   -6.6499    0.0000 C   0  0  0  0  0  0  0  0  0  0  0  0
    9.9125   -4.6426    0.0000 C   0  0  0  0  0  0  0  0  0  0  0  0
   11.5991   11.2209    0.0000 C   0  0  0  0  0  0  0  0  0  0  0  0
   12.8851   -7.3191    0.0000 C   0  0  2  0  0  0  0  0  0  0  0  0
   11.5991    9.2209    0.0000 C   0  0  0  0  0  0  0  0  0  0  0  0
    9.7331   11.2209    0.0000 C   0  0  2  0  0  0  0  0  0  0  0  0
   13.8361   -7.0101    0.0000 C   0  0  0  0  0  0  0  0  0  0  0  0
   11.5991    8.2209    0.0000 C   0  0  0  0  0  0  0  0  0  0  0  0
   13.4203   -8.9664    0.0000 C   0  0  0  0  0  0  0  0  0  0  0  0
    8.8671   10.7209    0.0000 C   0  0  0  0  0  0  0  0  0  0  0  0
    9.7331   12.2209    0.0000 C   0  0  0  0  0  0  0  0  0  0  0  0
   13.2124   -9.9445    0.0000 C   0  0  2  0  0  0  0  0  0  0  0  0
    7.0010   10.7209    0.0000 C   0  0  1  0  0  0  0  0  0  0  0  0
   12.2613  -10.2535    0.0000 C   0  0  0  0  0  0  0  0  0  0  0  0
    7.0010    9.7209    0.0000 C   0  0  0  0  0  0  0  0  0  0  0  0
   12.0534  -11.2317    0.0000 C   0  0  0  0  0  0  0  0  0  0  0  0
    6.1350   11.2209    0.0000 C   0  0  0  0  0  0  0  0  0  0  0  0
    6.1350    9.2209    0.0000 C   0  0  0  0  0  0  0  0  0  0  0  0
    4.2690   11.2209    0.0000 C   0  0  1  0  0  0  0  0  0  0  0  0
   11.1024  -11.5407    0.0000 C   0  0  0  0  0  0  0  0  0  0  0  0
    4.2690   12.2209    0.0000 C   0  0  0  0  0  0  0  0  0  0  0  0
    3.4030   12.7209    0.0000 C   0  0  0  0  0  0  0  0  0  0  0  0
    3.4030   10.7209    0.0000 C   0  0  0  0  0  0  0  0  0  0  0  0
    5.2690    7.7209    0.0000 C   0  0  0  0  0  0  0  0  0  0  0  0
    9.9434  -12.8278    0.0000 C   0  0  0  0  0  0  0  0  0  0  0  0
    2.5369   14.2209    0.0000 C   0  0  0  0  0  0  0  0  0  0  0  0
   11.7845    1.8832    0.0000 H   0  0  0  0  0  0  0  0  0  0  0  0
   10.6609    3.1645    0.0000 H   0  0  0  0  0  0  0  0  0  0  0  0
    9.8494    2.9920    0.0000 H   0  0  0  0  0  0  0  0  0  0  0  0
    9.6154    0.7662    0.0000 H   0  0  0  0  0  0  0  0  0  0  0  0
   10.3734    0.4288    0.0000 H   0  0  0  0  0  0  0  0  0  0  0  0
    9.2670    2.3452    0.0000 H   0  0  0  0  0  0  0  0  0  0  0  0
    9.1802    1.5200    0.0000 H   0  0  0  0  0  0  0  0  0  0  0  0
   11.5663   -1.0274    0.0000 H   0  0  0  0  0  0  0  0  0  0  0  0
   10.8730   -0.1235    0.0000 H   0  0  0  0  0  0  0  0  0  0  0  0
   10.6225   -2.3221    0.0000 H   0  0  0  0  0  0  0  0  0  0  0  0
   11.1559   -1.7298    0.0000 H   0  0  0  0  0  0  0  0  0  0  0  0
   13.0280   -0.8985    0.0000 H   0  0  0  0  0  0  0  0  0  0  0  0
   12.6675    4.0308    0.0000 H   0  0  0  0  0  0  0  0  0  0  0  0
   10.4159    0.3999    0.0000 H   0  0  0  0  0  0  0  0  0  0  0  0
    9.5402    0.3540    0.0000 H   0  0  0  0  0  0  0  0  0  0  0  0
    9.5861   -0.5216    0.0000 H   0  0  0  0  0  0  0  0  0  0  0  0
   12.4596    4.5308    0.0000 H   0  0  0  0  0  0  0  0  0  0  0  0
   12.7845    5.8035    0.0000 H   0  0  0  0  0  0  0  0  0  0  0  0
   12.3860    5.1132    0.0000 H   0  0  0  0  0  0  0  0  0  0  0  0
    9.3936   -1.4275    0.0000 H   0  0  0  0  0  0  0  0  0  0  0  0
    8.9955   -2.2087    0.0000 H   0  0  0  0  0  0  0  0  0  0  0  0
    9.7768   -2.6068    0.0000 H   0  0  0  0  0  0  0  0  0  0  0  0
   12.3839   -2.9290    0.0000 H   0  0  0  0  0  0  0  0  0  0  0  0
   14.4132   -2.0466    0.0000 H   0  0  0  0  0  0  0  0  0  0  0  0
   13.6336   -1.8809    0.0000 H   0  0  0  0  0  0  0  0  0  0  0  0
   16.6001   10.4109    0.0000 H   0  0  0  0  0  0  0  0  0  0  0  0
   13.2264   -4.1304    0.0000 H   0  0  0  0  0  0  0  0  0  0  0  0
   13.5042    7.1236    0.0000 H   0  0  0  0  0  0  0  0  0  0  0  0
   15.1972   10.6009    0.0000 H   0  0  0  0  0  0  0  0  0  0  0  0
   15.1877    7.4860    0.0000 H   0  0  0  0  0  0  0  0  0  0  0  0
   14.6670    3.9038    0.0000 H   0  0  0  0  0  0  0  0  0  0  0  0
   11.4778   -5.6091    0.0000 H   0  0  0  0  0  0  0  0  0  0  0  0
   14.9851   12.8035    0.0000 H   0  0  0  0  0  0  0  0  0  0  0  0
   14.5866   12.1132    0.0000 H   0  0  0  0  0  0  0  0  0  0  0  0
   16.8308    6.3153    0.0000 H   0  0  0  0  0  0  0  0  0  0  0  0
   16.2521    3.5697    0.0000 H   0  0  0  0  0  0  0  0  0  0  0  0
   17.3340    4.7754    0.0000 H   0  0  0  0  0  0  0  0  0  0  0  0
   10.1671   -5.6934    0.0000 H   0  0  0  0  0  0  0  0  0  0  0  0
   10.9467   -5.8591    0.0000 H   0  0  0  0  0  0  0  0  0  0  0  0
   13.8681   11.5309    0.0000 H   0  0  0  0  0  0  0  0  0  0  0  0
   12.9395   -5.4802    0.0000 H   0  0  0  0  0  0  0  0  0  0  0  0
   13.0021   10.4109    0.0000 H   0  0  0  0  0  0  0  0  0  0  0  0
   16.0796   -3.2033    0.0000 H   0  0  0  0  0  0  0  0  0  0  0  0
   15.7477   -2.1820    0.0000 H   0  0  0  0  0  0  0  0  0  0  0  0
   12.6772    9.1382    0.0000 H   0  0  0  0  0  0  0  0  0  0  0  0
   13.0757    9.8285    0.0000 H   0  0  0  0  0  0  0  0  0  0  0  0
   16.0632   13.3409    0.0000 H   0  0  0  0  0  0  0  0  0  0  0  0
   12.2954   -7.5107    0.0000 H   0  0  0  0  0  0  0  0  0  0  0  0
   11.3871    9.8035    0.0000 H   0  0  0  0  0  0  0  0  0  0  0  0
   10.9885    9.1132    0.0000 H   0  0  0  0  0  0  0  0  0  0  0  0
   11.1360   10.4109    0.0000 H   0  0  0  0  0  0  0  0  0  0  0  0
   10.2700   11.5309    0.0000 H   0  0  0  0  0  0  0  0  0  0  0  0
   14.0277   -7.5997    0.0000 H   0  0  0  0  0  0  0  0  0  0  0  0
   14.4258   -6.8185    0.0000 H   0  0  0  0  0  0  0  0  0  0  0  0
   13.6445   -6.4204    0.0000 H   0  0  0  0  0  0  0  0  0  0  0  0
   12.0875   -8.4888    0.0000 H   0  0  0  0  0  0  0  0  0  0  0  0
    8.5007   -4.5367    0.0000 H   0  0  0  0  0  0  0  0  0  0  0  0
    8.8325   -5.5580    0.0000 H   0  0  0  0  0  0  0  0  0  0  0  0
   10.3531   12.2209    0.0000 H   0  0  0  0  0  0  0  0  0  0  0  0
    9.7331   12.8409    0.0000 H   0  0  0  0  0  0  0  0  0  0  0  0
    9.1131   12.2209    0.0000 H   0  0  0  0  0  0  0  0  0  0  0  0
   13.8021   -9.7529    0.0000 H   0  0  0  0  0  0  0  0  0  0  0  0
    7.5380   10.4109    0.0000 H   0  0  0  0  0  0  0  0  0  0  0  0
    8.4040   11.5309    0.0000 H   0  0  0  0  0  0  0  0  0  0  0  0
   12.1751   -9.6396    0.0000 H   0  0  0  0  0  0  0  0  0  0  0  0
   11.6417  -10.2319    0.0000 H   0  0  0  0  0  0  0  0  0  0  0  0
    7.2131    9.1382    0.0000 H   0  0  0  0  0  0  0  0  0  0  0  0
    7.6116    9.8285    0.0000 H   0  0  0  0  0  0  0  0  0  0  0  0
   12.1397  -11.8456    0.0000 H   0  0  0  0  0  0  0  0  0  0  0  0
   12.6730  -11.2533    0.0000 H   0  0  0  0  0  0  0  0  0  0  0  0
   10.7331    7.1009    0.0000 H   0  0  0  0  0  0  0  0  0  0  0  0
   13.8266  -11.2201    0.0000 H   0  0  0  0  0  0  0  0  0  0  0  0
   14.5452  -10.4220    0.0000 H   0  0  0  0  0  0  0  0  0  0  0  0
    5.9230    9.8035    0.0000 H   0  0  0  0  0  0  0  0  0  0  0  0
    5.5244    9.1132    0.0000 H   0  0  0  0  0  0  0  0  0  0  0  0
    4.8059   11.5309    0.0000 H   0  0  0  0  0  0  0  0  0  0  0  0
    5.6720   10.4109    0.0000 H   0  0  0  0  0  0  0  0  0  0  0  0
   11.0161  -10.9267    0.0000 H   0  0  0  0  0  0  0  0  0  0  0  0
   10.4827  -11.5190    0.0000 H   0  0  0  0  0  0  0  0  0  0  0  0
    4.8796   12.1132    0.0000 H   0  0  0  0  0  0  0  0  0  0  0  0
    4.4810   12.8035    0.0000 H   0  0  0  0  0  0  0  0  0  0  0  0
    2.7924   12.8285    0.0000 H   0  0  0  0  0  0  0  0  0  0  0  0
    3.1909   12.1382    0.0000 H   0  0  0  0  0  0  0  0  0  0  0  0
    4.9590    8.2578    0.0000 H   0  0  0  0  0  0  0  0  0  0  0  0
    4.7320    7.4109    0.0000 H   0  0  0  0  0  0  0  0  0  0  0  0
    5.5790    7.1839    0.0000 H   0  0  0  0  0  0  0  0  0  0  0  0
    2.0000   10.9109    0.0000 H   0  0  0  0  0  0  0  0  0  0  0  0
    2.8469   14.7578    0.0000 H   0  0  0  0  0  0  0  0  0  0  0  0
    2.0000   14.5309    0.0000 H   0  0  0  0  0  0  0  0  0  0  0  0
    2.2269   13.6839    0.0000 H   0  0  0  0  0  0  0  0  0  0  0  0
    9.1458  -13.9976    0.0000 H   0  0  0  0  0  0  0  0  0  0  0  0
   10.1962  -14.2209    0.0000 H   0  0  0  0  0  0  0  0  0  0  0  0
    8.6106  -12.3503    0.0000 H   0  0  0  0  0  0  0  0  0  0  0  0
    9.3292  -11.5523    0.0000 H   0  0  0  0  0  0  0  0  0  0  0  0
  1 90  1  0  0  0  0
  1 96  1  0  0  0  0
  2 94  1  0  0  0  0
  2 98  1  0  0  0  0
  3 44  2  0  0  0  0
  4 46  2  0  0  0  0
  5 52  2  0  0  0  0
  6 54  2  0  0  0  0
  7 61  2  0  0  0  0
  8 62  2  0  0  0  0
  9 65  1  0  0  0  0
  9145  1  0  0  0  0
 10 67  2  0  0  0  0
 11 73  2  0  0  0  0
 12 74  2  0  0  0  0
 13 75  2  0  0  0  0
 14 80  1  0  0  0  0
 14169  1  0  0  0  0
 15 80  2  0  0  0  0
 16 82  2  0  0  0  0
 17 81  2  0  0  0  0
 18 89  2  0  0  0  0
 19 95  1  0  0  0  0
 19185  1  0  0  0  0
 20 95  2  0  0  0  0
 21 39  1  0  0  0  0
 21 41  1  0  0  0  0
 21 44  1  0  0  0  0
 43 22  1  1  0  0  0
 22 52  1  0  0  0  0
 22110  1  0  0  0  0
 23 46  1  0  0  0  0
 49 23  1  1  0  0  0
 23111  1  0  0  0  0
 24 54  1  0  0  0  0
 59 24  1  6  0  0  0
 24124  1  0  0  0  0
 53 25  1  6  0  0  0
 25 61  1  0  0  0  0
 25125  1  0  0  0  0
 26 58  1  0  0  0  0
 26 60  1  0  0  0  0
 26128  1  0  0  0  0
 27 67  1  0  0  0  0
 71 27  1  1  0  0  0
 27138  1  0  0  0  0
 64 28  1  1  0  0  0
 28 73  1  0  0  0  0
 28139  1  0  0  0  0
 29 62  1  0  0  0  0
 29141  1  0  0  0  0
 29142  1  0  0  0  0
 30 75  1  0  0  0  0
 78 30  1  6  0  0  0
 30149  1  0  0  0  0
 76 31  1  6  0  0  0
 31 81  1  0  0  0  0
 31154  1  0  0  0  0
 32 74  1  0  0  0  0
 32155  1  0  0  0  0
 32156  1  0  0  0  0
 33 82  1  0  0  0  0
 85 33  1  1  0  0  0
 33162  1  0  0  0  0
 84 34  1  1  0  0  0
 34170  1  0  0  0  0
 34171  1  0  0  0  0
 35 89  1  0  0  0  0
 91 35  1  6  0  0  0
 35175  1  0  0  0  0
 36 92  1  0  0  0  0
 36 97  2  0  0  0  0
 37 97  1  0  0  0  0
 37189  1  0  0  0  0
 37190  1  0  0  0  0
 38 97  1  0  0  0  0
 38191  1  0  0  0  0
 38192  1  0  0  0  0
 39 40  1  0  0  0  0
 39 46  1  1  0  0  0
 39 99  1  0  0  0  0
 40 42  1  0  0  0  0
 40100  1  0  0  0  0
 40101  1  0  0  0  0
 41 42  1  0  0  0  0
 41102  1  0  0  0  0
 41103  1  0  0  0  0
 42104  1  0  0  0  0
 42105  1  0  0  0  0
 43 44  1  0  0  0  0
 43 45  1  0  0  0  0
 43106  1  0  0  0  0
 45 47  1  0  0  0  0
 45 48  1  6  0  0  0
 45107  1  0  0  0  0
 47 51  1  0  0  0  0
 47108  1  0  0  0  0
 47109  1  0  0  0  0
 48112  1  0  0  0  0
 48113  1  0  0  0  0
 48114  1  0  0  0  0
 49 50  1  0  0  0  0
 49 54  1  0  0  0  0
 49115  1  0  0  0  0
 50 55  1  0  0  0  0
 50116  1  0  0  0  0
 50117  1  0  0  0  0
 51118  1  0  0  0  0
 51119  1  0  0  0  0
 51120  1  0  0  0  0
 52 53  1  0  0  0  0
 53 56  1  0  0  0  0
 53121  1  0  0  0  0
 55 57  1  0  0  0  0
 55 58  2  0  0  0  0
 56 62  1  0  0  0  0
 56122  1  0  0  0  0
 56123  1  0  0  0  0
 57 60  1  0  0  0  0
 57 63  2  0  0  0  0
 58126  1  0  0  0  0
 59 65  1  0  0  0  0
 59 67  1  0  0  0  0
 59127  1  0  0  0  0
 60 66  2  0  0  0  0
 61 64  1  0  0  0  0
 63 68  1  0  0  0  0
 63129  1  0  0  0  0
 64 70  1  0  0  0  0
 64130  1  0  0  0  0
 65131  1  0  0  0  0
 65132  1  0  0  0  0
 66 69  1  0  0  0  0
 66133  1  0  0  0  0
 68 69  2  0  0  0  0
 68134  1  0  0  0  0
 69135  1  0  0  0  0
 70 74  1  0  0  0  0
 70136  1  0  0  0  0
 70137  1  0  0  0  0
 71 72  1  0  0  0  0
 71 75  1  0  0  0  0
 71140  1  0  0  0  0
 72 77  1  0  0  0  0
 72143  1  0  0  0  0
 72144  1  0  0  0  0
 73 76  1  0  0  0  0
 76 79  1  0  0  0  0
 76146  1  0  0  0  0
 77 80  1  0  0  0  0
 77147  1  0  0  0  0
 77148  1  0  0  0  0
 78 82  1  0  0  0  0
 78 83  1  0  0  0  0
 78150  1  0  0  0  0
 79151  1  0  0  0  0
 79152  1  0  0  0  0
 79153  1  0  0  0  0
 81 84  1  0  0  0  0
 83157  1  0  0  0  0
 83158  1  0  0  0  0
 83159  1  0  0  0  0
 84 86  1  0  0  0  0
 84160  1  0  0  0  0
 85 87  1  0  0  0  0
 85 89  1  0  0  0  0
 85161  1  0  0  0  0
 86 88  1  0  0  0  0
 86163  1  0  0  0  0
 86164  1  0  0  0  0
 87 90  1  0  0  0  0
 87165  1  0  0  0  0
 87166  1  0  0  0  0
 88 92  1  0  0  0  0
 88167  1  0  0  0  0
 88168  1  0  0  0  0
 90172  1  0  0  0  0
 90173  1  0  0  0  0
 91 93  1  0  0  0  0
 91 95  1  0  0  0  0
 91174  1  0  0  0  0
 92176  1  0  0  0  0
 92177  1  0  0  0  0
 93 94  1  0  0  0  0
 93178  1  0  0  0  0
 93179  1  0  0  0  0
 94180  1  0  0  0  0
 94181  1  0  0  0  0
 96182  1  0  0  0  0
 96183  1  0  0  0  0
 96184  1  0  0  0  0
 98186  1  0  0  0  0
 98187  1  0  0  0  0
 98188  1  0  0  0  0
M  END
> <PUBCHEM_COMPOUND_CID>
516532
> <PUBCHEM_COMPOUND_CANONICALIZED>
1
> <PUBCHEM_CACTVS_COMPLEXITY>
2840
> <PUBCHEM_CACTVS_HBOND_ACCEPTOR>
22
> <PUBCHEM_CACTVS_HBOND_DONOR>
19
> <PUBCHEM_CACTVS_ROTATABLE_BOND>
44
> <PUBCHEM_CACTVS_SUBSKEYS>
AAADcfB//gBgAAAAAAAAAAAAAAAAAWLAAAAwAAAAAAAAAFgB8AAAHgQQCAAADSjl3ga/yPPJkgioAzX3fACCgCExAjAI2aG4ZJgKcP7g0bGUYAhmtgDYyAe9n8KOgAAAAAACAAAAAAAAAAQAAAAAAAAAAA==
> <PUBCHEM_IUPAC_OPENEYE_NAME>
(4S)-4-[[(2S)-2-[[(2S)-2-[[(2S)-1-[(2S,3S)-2-[[(2S)-4-amino-2-[[(2S)-4-amino-2-[[(2S)-2-[[(2S)-2-amino-5-guanidino-pentanoyl]amino]propanoyl]amino]-4-oxo-butanoyl]amino]-4-oxo-butanoyl]amino]-3-methyl-pentanoyl]pyrrolidine-2-carbonyl]amino]-3-(1H-indol-3-yl)propanoyl]amino]-3-hydroxy-propanoyl]amino]-5-[[(1S)-2-[[(1S)-1-[[(1S)-1-carboxy-3-methylsulfanyl-propyl]carbamoyl]-3-methylsulfanyl-propyl]amino]-1-methyl-2-oxo-ethyl]amino]-5-oxo-pentanoic acid
> <PUBCHEM_IUPAC_CAS_NAME>
(4S)-4-[[(2S)-2-[[(2S)-2-[[[(2S)-1-[(2S,3S)-2-[[(2S)-4-amino-2-[[(2S)-4-amino-2-[[(2S)-2-[[(2S)-2-amino-5-(diaminomethylideneamino)-1-oxopentyl]amino]-1-oxopropyl]amino]-1,4-dioxobutyl]amino]-1,4-dioxobutyl]amino]-3-methyl-1-oxopentyl]-2-pyrrolidinyl]-oxomethyl]amino]-3-(1H-indol-3-yl)-1-oxopropyl]amino]-3-hydroxy-1-oxopropyl]amino]-5-[[(2S)-1-[[(2S)-1-[[(1S)-1-carboxy-3-(methylthio)propyl]amino]-4-(methylthio)-1-oxobutan-2-yl]amino]-1-oxopropan-2-yl]amino]-5-oxopentanoic acid
> <PUBCHEM_IUPAC_NAME_MARKUP>
(4<I>S</I>)-4-[[(2<I>S</I>)-2-[[(2<I>S</I>)-2-[[(2<I>S</I>)-1-[(2<I>S</I>,3<I>S</I>)-2-[[(2<I>S</I>)-4-amino-2-[[(2<I>S</I>)-4-amino-2-[[(2<I>S</I>)-2-[[(2<I>S</I>)-2-amino-5-(diaminomethylideneamino)pentanoyl]amino]propanoyl]amino]-4-oxobutanoyl]amino]-4-oxobutanoyl]amino]-3-methylpentanoyl]pyrrolidine-2-carbonyl]amino]-3-(1<I>H</I>-indol-3-yl)propanoyl]amino]-3-hydroxypropanoyl]amino]-5-[[(2<I>S</I>)-1-[[(2<I>S</I>)-1-[[(1<I>S</I>)-1-carboxy-3-methylsulfanylpropyl]amino]-4-methylsulfanyl-1-oxobutan-2-yl]amino]-1-oxopropan-2-yl]amino]-5-oxopentanoic acid
> <PUBCHEM_IUPAC_NAME>
(4S)-4-[[(2S)-2-[[(2S)-2-[[(2S)-1-[(2S,3S)-2-[[(2S)-4-amino-2-[[(2S)-4-amino-2-[[(2S)-2-[[(2S)-2-amino-5-(diaminomethylideneamino)pentanoyl]amino]propanoyl]amino]-4-oxobutanoyl]amino]-4-oxobutanoyl]amino]-3-methylpentanoyl]pyrrolidine-2-carbonyl]amino]-3-(1H-indol-3-yl)propanoyl]amino]-3-hydroxypropanoyl]amino]-5-[[(2S)-1-[[(2S)-1-[[(1S)-1-carboxy-3-methylsulfanylpropyl]amino]-4-methylsulfanyl-1-oxobutan-2-yl]amino]-1-oxopropan-2-yl]amino]-5-oxopentanoic acid
> <PUBCHEM_IUPAC_SYSTEMATIC_NAME>
(4S)-4-[[(2S)-2-[[(2S)-2-[[(2S)-1-[(2S,3S)-2-[[(2S)-4-azanyl-2-[[(2S)-4-azanyl-2-[[(2S)-2-[[(2S)-2-azanyl-5-[bis(azanyl)methylideneamino]pentanoyl]amino]propanoyl]amino]-4-oxidanylidene-butanoyl]amino]-4-oxidanylidene-butanoyl]amino]-3-methyl-pentanoyl]pyrrolidin-2-yl]carbonylamino]-3-(1H-indol-3-yl)propanoyl]amino]-3-oxidanyl-propanoyl]amino]-5-[[(2S)-1-[[(2S)-4-methylsulfanyl-1-[[(2S)-4-methylsulfanyl-1-oxidanyl-1-oxidanylidene-butan-2-yl]amino]-1-oxidanylidene-butan-2-yl]amino]-1-oxidanylidene-propan-2-yl]amino]-5-oxidanylidene-pentanoic acid
> <PUBCHEM_IUPAC_TRADITIONAL_NAME>
(4S)-4-[[(2S)-2-[[(2S)-2-[[(2S)-1-[(2S,3S)-2-[[(2S)-4-amino-2-[[(2S)-4-amino-2-[[(2S)-2-[[(2S)-2-amino-5-guanidino-pentanoyl]amino]propanoyl]amino]-4-keto-butanoyl]amino]-4-keto-butanoyl]amino]-3-methyl-pentanoyl]prolyl]amino]-3-(1H-indol-3-yl)propanoyl]amino]-3-hydroxy-propanoyl]amino]-5-[[(1S)-2-[[(1S)-1-[[(1S)-1-carboxy-3-(methylthio)propyl]carbamoyl]-3-(methylthio)propyl]amino]-2-keto-1-methyl-ethyl]amino]-5-keto-valeric acid
> <PUBCHEM_IUPAC_INCHI>
InChI=1S/C60H94N18O18S2/c1-7-29(2)47(77-55(91)41(26-45(63)81)74-54(90)40(25-44(62)80)73-49(85)30(3)68-50(86)34(61)13-10-20-66-60(64)65)58(94)78-21-11-15-43(78)57(93)75-39(24-32-27-67-35-14-9-8-12-33(32)35)53(89)76-42(28-79)56(92)71-36(16-17-46(82)83)51(87)69-31(4)48(84)70-37(18-22-97-5)52(88)72-38(59(95)96)19-23-98-6/h8-9,12,14,27,29-31,34,36-43,47,67,79H,7,10-11,13,15-26,28,61H2,1-6H3,(H2,62,80)(H2,63,81)(H,68,86)(H,69,87)(H,70,84)(H,71,92)(H,72,88)(H,73,85)(H,74,90)(H,75,93)(H,76,89)(H,77,91)(H,82,83)(H,95,96)(H4,64,65,66)/t29-,30-,31-,34-,36-,37-,38-,39-,40-,41-,42-,43-,47-/m0/s1
> <PUBCHEM_IUPAC_INCHIKEY>
KFMFUQJTEAIQDN-XTGFFWJTSA-N
> <PUBCHEM_XLOGP3_AA>
-7
> <PUBCHEM_EXACT_MASS>
1418.64349057
> <PUBCHEM_MOLECULAR_FORMULA>
C60H94N18O18S2
> <PUBCHEM_MOLECULAR_WEIGHT>
1419.6
> <PUBCHEM_OPENEYE_CAN_SMILES>
CCC(C)C(C(=O)N1CCCC1C(=O)NC(CC2=CNC3=CC=CC=C32)C(=O)NC(CO)C(=O)NC(CCC(=O)O)C(=O)NC(C)C(=O)NC(CCSC)C(=O)NC(CCSC)C(=O)O)NC(=O)C(CC(=O)N)NC(=O)C(CC(=O)N)NC(=O)C(C)NC(=O)C(CCCN=C(N)N)N
> <PUBCHEM_OPENEYE_ISO_SMILES>
CC[C@H](C)[C@@H](C(=O)N1CCC[C@H]1C(=O)N[C@@H](CC2=CNC3=CC=CC=C32)C(=O)N[C@@H](CO)C(=O)N[C@@H](CCC(=O)O)C(=O)N[C@@H](C)C(=O)N[C@@H](CCSC)C(=O)N[C@@H](CCSC)C(=O)O)NC(=O)[C@H](CC(=O)N)NC(=O)[C@H](CC(=O)N)NC(=O)[C@H](C)NC(=O)[C@H](CCCN=C(N)N)N
> <PUBCHEM_CACTVS_TPSA>
649
> <PUBCHEM_MONOISOTOPIC_WEIGHT>
1418.64349057
> <PUBCHEM_TOTAL_CHARGE>
0
> <PUBCHEM_HEAVY_ATOM_COUNT>
98
> <PUBCHEM_ATOM_DEF_STEREO_COUNT>
13
> <PUBCHEM_ATOM_UDEF_STEREO_COUNT>
0
> <PUBCHEM_BOND_DEF_STEREO_COUNT>
0
> <PUBCHEM_BOND_UDEF_STEREO_COUNT>
0
> <PUBCHEM_ISOTOPIC_ATOM_COUNT>
0
> <PUBCHEM_COMPONENT_COUNT>
1
> <PUBCHEM_CACTVS_TAUTO_COUNT>
-1
> <PUBCHEM_COORDINATE_TYPE>
1
5
255
> <PUBCHEM_BONDANNOTATIONS>
43  22  5
49  23  5
59  24  6
53  25  6
26  58  8
26  60  8
71  27  5
64  28  5
78  30  6
76  31  6
85  33  5
84  34  5
91  35  6
39  46  5
45  48  6
55  57  8
55  58  8
57  60  8
57  63  8
60  66  8
63  68  8
66  69  8
68  69  8
$$$$
