516526
  -OEChem-10302200282D
111113  0     1  0  0  0  0  0999 V2000
    8.2882    1.8483    0.0000 O   0  0  0  0  0  0  0  0  0  0  0  0
   11.1472    1.1421    0.0000 O   0  0  0  0  0  0  0  0  0  0  0  0
    6.1688    4.7651    0.0000 O   0  0  0  0  0  0  0  0  0  0  0  0
    9.8065   -1.6096    0.0000 O   0  0  0  0  0  0  0  0  0  0  0  0
   11.2361   -3.4426    0.0000 O   0  0  0  0  0  0  0  0  0  0  0  0
   13.0872   -1.0818    0.0000 O   0  0  0  0  0  0  0  0  0  0  0  0
    3.1726    2.7594    0.0000 O   0  0  0  0  0  0  0  0  0  0  0  0
   13.5892   -4.6522    0.0000 O   0  0  0  0  0  0  0  0  0  0  0  0
   17.0473   -1.6453    0.0000 O   0  0  0  0  0  0  0  0  0  0  0  0
   15.6843   -0.5766    0.0000 O   0  0  0  0  0  0  0  0  0  0  0  0
   16.9323   -6.0027    0.0000 O   0  0  0  0  0  0  0  0  0  0  0  0
   17.1763   -4.2879    0.0000 O   0  0  0  0  0  0  0  0  0  0  0  0
    9.4038    3.1732    0.0000 N   0  0  0  0  0  0  0  0  0  0  0  0
    9.4161    1.0847    0.0000 N   0  0  0  0  0  0  0  0  0  0  0  0
    6.7583    3.1365    0.0000 N   0  0  0  0  0  0  0  0  0  0  0  0
   11.1071   -0.8000    0.0000 N   0  0  0  0  0  0  0  0  0  0  0  0
    8.1601   -2.6810    0.0000 N   0  0  0  0  0  0  0  0  0  0  0  0
    4.8778    2.4557    0.0000 N   0  0  0  0  0  0  0  0  0  0  0  0
   12.8432   -2.7965    0.0000 N   0  0  0  0  0  0  0  0  0  0  0  0
    2.5830    4.3881    0.0000 N   0  0  0  0  0  0  0  0  0  0  0  0
   15.1962   -4.0061    0.0000 N   0  0  0  0  0  0  0  0  0  0  0  0
   10.2319    2.6126    0.0000 C   0  0  1  0  0  0  0  0  0  0  0  0
   11.0210    3.2269    0.0000 C   0  0  0  0  0  0  0  0  0  0  0  0
    9.6811    4.1340    0.0000 C   0  0  0  0  0  0  0  0  0  0  0  0
   10.6806    4.1671    0.0000 C   0  0  0  0  0  0  0  0  0  0  0  0
    7.6986    3.4769    0.0000 C   0  0  2  0  0  0  0  0  0  0  0  0
    8.4636    2.8328    0.0000 C   0  0  0  0  0  0  0  0  0  0  0  0
    7.8740    4.4614    0.0000 C   0  0  2  0  0  0  0  0  0  0  0  0
   10.2651    1.6131    0.0000 C   0  0  0  0  0  0  0  0  0  0  0  0
    7.1090    5.1055    0.0000 C   0  0  0  0  0  0  0  0  0  0  0  0
    8.8142    4.8018    0.0000 C   0  0  0  0  0  0  0  0  0  0  0  0
    9.4493    0.0852    0.0000 C   0  0  1  0  0  0  0  0  0  0  0  0
    8.4708   -0.1210    0.0000 C   0  0  0  0  0  0  0  0  0  0  0  0
    7.2844    6.0900    0.0000 C   0  0  0  0  0  0  0  0  0  0  0  0
    5.9934    3.7806    0.0000 C   0  0  0  0  0  0  0  0  0  0  0  0
   10.1171   -0.6591    0.0000 C   0  0  0  0  0  0  0  0  0  0  0  0
    8.1601   -1.0715    0.0000 C   0  0  0  0  0  0  0  0  0  0  0  0
    5.0531    3.4402    0.0000 C   0  0  2  0  0  0  0  0  0  0  0  0
    7.2139   -1.3763    0.0000 C   0  0  0  0  0  0  0  0  0  0  0  0
    4.2882    4.0843    0.0000 C   0  0  0  0  0  0  0  0  0  0  0  0
    8.7437   -1.8763    0.0000 C   0  0  0  0  0  0  0  0  0  0  0  0
   11.4801   -1.7278    0.0000 C   0  0  1  0  0  0  0  0  0  0  0  0
    7.2139   -2.3763    0.0000 C   0  0  0  0  0  0  0  0  0  0  0  0
    6.3479   -0.8763    0.0000 C   0  0  0  0  0  0  0  0  0  0  0  0
   10.8631   -2.5148    0.0000 C   0  0  0  0  0  0  0  0  0  0  0  0
   12.4702   -1.8687    0.0000 C   0  0  0  0  0  0  0  0  0  0  0  0
    6.3479   -2.8763    0.0000 C   0  0  0  0  0  0  0  0  0  0  0  0
    3.3479    3.7440    0.0000 C   0  0  0  0  0  0  0  0  0  0  0  0
   13.8332   -2.9374    0.0000 C   0  0  1  0  0  0  0  0  0  0  0  0
    5.4818   -1.3763    0.0000 C   0  0  0  0  0  0  0  0  0  0  0  0
    5.4818   -2.3763    0.0000 C   0  0  0  0  0  0  0  0  0  0  0  0
   14.4502   -2.1505    0.0000 C   0  0  0  0  0  0  0  0  0  0  0  0
   14.2062   -3.8652    0.0000 C   0  0  0  0  0  0  0  0  0  0  0  0
   15.4403   -2.2914    0.0000 C   0  0  0  0  0  0  0  0  0  0  0  0
   15.5692   -4.9340    0.0000 C   0  0  1  0  0  0  0  0  0  0  0  0
   16.0573   -1.5044    0.0000 C   0  0  0  0  0  0  0  0  0  0  0  0
   14.9522   -5.7209    0.0000 C   0  0  0  0  0  0  0  0  0  0  0  0
   16.5593   -5.0748    0.0000 C   0  0  0  0  0  0  0  0  0  0  0  0
    9.6891    2.3129    0.0000 H   0  0  0  0  0  0  0  0  0  0  0  0
   11.3486    2.7005    0.0000 H   0  0  0  0  0  0  0  0  0  0  0  0
   11.5787    3.4977    0.0000 H   0  0  0  0  0  0  0  0  0  0  0  0
    9.7254    4.7524    0.0000 H   0  0  0  0  0  0  0  0  0  0  0  0
    9.0707    4.2427    0.0000 H   0  0  0  0  0  0  0  0  0  0  0  0
   11.2824    4.3161    0.0000 H   0  0  0  0  0  0  0  0  0  0  0  0
   10.5954    4.7812    0.0000 H   0  0  0  0  0  0  0  0  0  0  0  0
    7.5899    2.8665    0.0000 H   0  0  0  0  0  0  0  0  0  0  0  0
    7.9827    5.0718    0.0000 H   0  0  0  0  0  0  0  0  0  0  0  0
    6.5268    5.3186    0.0000 H   0  0  0  0  0  0  0  0  0  0  0  0
    6.7981    4.5691    0.0000 H   0  0  0  0  0  0  0  0  0  0  0  0
    8.8692    1.3767    0.0000 H   0  0  0  0  0  0  0  0  0  0  0  0
    6.6496    2.5261    0.0000 H   0  0  0  0  0  0  0  0  0  0  0  0
   10.0245    0.3165    0.0000 H   0  0  0  0  0  0  0  0  0  0  0  0
    9.0253    4.2188    0.0000 H   0  0  0  0  0  0  0  0  0  0  0  0
    9.3972    5.0128    0.0000 H   0  0  0  0  0  0  0  0  0  0  0  0
    8.6032    5.3848    0.0000 H   0  0  0  0  0  0  0  0  0  0  0  0
    8.4502    0.4986    0.0000 H   0  0  0  0  0  0  0  0  0  0  0  0
    7.8570   -0.0337    0.0000 H   0  0  0  0  0  0  0  0  0  0  0  0
    7.8948    5.9813    0.0000 H   0  0  0  0  0  0  0  0  0  0  0  0
    7.3931    6.7004    0.0000 H   0  0  0  0  0  0  0  0  0  0  0  0
    6.6740    6.1988    0.0000 H   0  0  0  0  0  0  0  0  0  0  0  0
    5.5274    3.0409    0.0000 H   0  0  0  0  0  0  0  0  0  0  0  0
   11.4897   -0.3121    0.0000 H   0  0  0  0  0  0  0  0  0  0  0  0
    4.7638    4.4820    0.0000 H   0  0  0  0  0  0  0  0  0  0  0  0
    3.9791    4.6218    0.0000 H   0  0  0  0  0  0  0  0  0  0  0  0
    9.3637   -1.8763    0.0000 H   0  0  0  0  0  0  0  0  0  0  0  0
   10.8663   -1.6405    0.0000 H   0  0  0  0  0  0  0  0  0  0  0  0
    8.3527   -3.2703    0.0000 H   0  0  0  0  0  0  0  0  0  0  0  0
    4.2948    2.2447    0.0000 H   0  0  0  0  0  0  0  0  0  0  0  0
    5.3520    2.0564    0.0000 H   0  0  0  0  0  0  0  0  0  0  0  0
    6.3479   -0.2563    0.0000 H   0  0  0  0  0  0  0  0  0  0  0  0
   10.4491   -2.0533    0.0000 H   0  0  0  0  0  0  0  0  0  0  0  0
   10.3368   -2.8424    0.0000 H   0  0  0  0  0  0  0  0  0  0  0  0
    6.3479   -3.4963    0.0000 H   0  0  0  0  0  0  0  0  0  0  0  0
   13.4506   -3.4253    0.0000 H   0  0  0  0  0  0  0  0  0  0  0  0
    4.9449   -1.0663    0.0000 H   0  0  0  0  0  0  0  0  0  0  0  0
   12.4606   -3.2844    0.0000 H   0  0  0  0  0  0  0  0  0  0  0  0
    4.9449   -2.6863    0.0000 H   0  0  0  0  0  0  0  0  0  0  0  0
   14.6428   -1.5612    0.0000 H   0  0  0  0  0  0  0  0  0  0  0  0
   13.9033   -1.8584    0.0000 H   0  0  0  0  0  0  0  0  0  0  0  0
    2.0000    4.1770    0.0000 H   0  0  0  0  0  0  0  0  0  0  0  0
    2.6917    4.9984    0.0000 H   0  0  0  0  0  0  0  0  0  0  0  0
   10.8536   -3.9305    0.0000 H   0  0  0  0  0  0  0  0  0  0  0  0
   15.2476   -2.8807    0.0000 H   0  0  0  0  0  0  0  0  0  0  0  0
   15.9872   -2.5834    0.0000 H   0  0  0  0  0  0  0  0  0  0  0  0
   15.5788   -3.5182    0.0000 H   0  0  0  0  0  0  0  0  0  0  0  0
   14.9554   -4.8466    0.0000 H   0  0  0  0  0  0  0  0  0  0  0  0
   14.4643   -5.3384    0.0000 H   0  0  0  0  0  0  0  0  0  0  0  0
   14.5697   -6.2088    0.0000 H   0  0  0  0  0  0  0  0  0  0  0  0
   15.4401   -6.1035    0.0000 H   0  0  0  0  0  0  0  0  0  0  0  0
   17.4299   -1.1574    0.0000 H   0  0  0  0  0  0  0  0  0  0  0  0
   17.5461   -6.0900    0.0000 H   0  0  0  0  0  0  0  0  0  0  0  0
  1 27  2  0  0  0  0
  2 29  2  0  0  0  0
  3 35  2  0  0  0  0
  4 36  2  0  0  0  0
  5 45  1  0  0  0  0
  5102  1  0  0  0  0
  6 46  2  0  0  0  0
  7 48  2  0  0  0  0
  8 53  2  0  0  0  0
  9 56  1  0  0  0  0
  9110  1  0  0  0  0
 10 56  2  0  0  0  0
 11 58  1  0  0  0  0
 11111  1  0  0  0  0
 12 58  2  0  0  0  0
 13 22  1  0  0  0  0
 13 24  1  0  0  0  0
 13 27  1  0  0  0  0
 14 29  1  0  0  0  0
 32 14  1  6  0  0  0
 14 70  1  0  0  0  0
 26 15  1  1  0  0  0
 15 35  1  0  0  0  0
 15 71  1  0  0  0  0
 16 36  1  0  0  0  0
 42 16  1  6  0  0  0
 16 82  1  0  0  0  0
 17 41  1  0  0  0  0
 17 43  1  0  0  0  0
 17 87  1  0  0  0  0
 38 18  1  1  0  0  0
 18 88  1  0  0  0  0
 18 89  1  0  0  0  0
 19 46  1  0  0  0  0
 49 19  1  1  0  0  0
 19 96  1  0  0  0  0
 20 48  1  0  0  0  0
 20100  1  0  0  0  0
 20101  1  0  0  0  0
 21 53  1  0  0  0  0
 55 21  1  6  0  0  0
 21105  1  0  0  0  0
 22 23  1  0  0  0  0
 22 29  1  1  0  0  0
 22 59  1  0  0  0  0
 23 25  1  0  0  0  0
 23 60  1  0  0  0  0
 23 61  1  0  0  0  0
 24 25  1  0  0  0  0
 24 62  1  0  0  0  0
 24 63  1  0  0  0  0
 25 64  1  0  0  0  0
 25 65  1  0  0  0  0
 26 27  1  0  0  0  0
 26 28  1  0  0  0  0
 26 66  1  0  0  0  0
 28 30  1  0  0  0  0
 28 31  1  6  0  0  0
 28 67  1  0  0  0  0
 30 34  1  0  0  0  0
 30 68  1  0  0  0  0
 30 69  1  0  0  0  0
 31 73  1  0  0  0  0
 31 74  1  0  0  0  0
 31 75  1  0  0  0  0
 32 33  1  0  0  0  0
 32 36  1  0  0  0  0
 32 72  1  0  0  0  0
 33 37  1  0  0  0  0
 33 76  1  0  0  0  0
 33 77  1  0  0  0  0
 34 78  1  0  0  0  0
 34 79  1  0  0  0  0
 34 80  1  0  0  0  0
 35 38  1  0  0  0  0
 37 39  1  0  0  0  0
 37 41  2  0  0  0  0
 38 40  1  0  0  0  0
 38 81  1  0  0  0  0
 39 43  1  0  0  0  0
 39 44  2  0  0  0  0
 40 48  1  0  0  0  0
 40 83  1  0  0  0  0
 40 84  1  0  0  0  0
 41 85  1  0  0  0  0
 42 45  1  0  0  0  0
 42 46  1  0  0  0  0
 42 86  1  0  0  0  0
 43 47  2  0  0  0  0
 44 50  1  0  0  0  0
 44 90  1  0  0  0  0
 45 91  1  0  0  0  0
 45 92  1  0  0  0  0
 47 51  1  0  0  0  0
 47 93  1  0  0  0  0
 49 52  1  0  0  0  0
 49 53  1  0  0  0  0
 49 94  1  0  0  0  0
 50 51  2  0  0  0  0
 50 95  1  0  0  0  0
 51 97  1  0  0  0  0
 52 54  1  0  0  0  0
 52 98  1  0  0  0  0
 52 99  1  0  0  0  0
 54 56  1  0  0  0  0
 54103  1  0  0  0  0
 54104  1  0  0  0  0
 55 57  1  0  0  0  0
 55 58  1  0  0  0  0
 55106  1  0  0  0  0
 57107  1  0  0  0  0
 57108  1  0  0  0  0
 57109  1  0  0  0  0
M  END
> <PUBCHEM_COMPOUND_CID>
516526
> <PUBCHEM_COMPOUND_CANONICALIZED>
1
> <PUBCHEM_CACTVS_COMPLEXITY>
1530
> <PUBCHEM_CACTVS_HBOND_ACCEPTOR>
13
> <PUBCHEM_CACTVS_HBOND_DONOR>
11
> <PUBCHEM_CACTVS_ROTATABLE_BOND>
22
> <PUBCHEM_CACTVS_SUBSKEYS>
AAADcfB//AAAAAAAAAAAAAAAAAAAAWLAAAAwAAAAAAAAAFgB8AAAHgAQCAAADSjhngY+yPPJkgCoAzX3XACCgCAxAiAI2aG4ZJgKcP7A0bGUYAhmtgDYyAe9n8KOgAAAAAACAAAAAAAAAAQAAAAAAAAAAA==
> <PUBCHEM_IUPAC_OPENEYE_NAME>
(4S)-5-[[(1S)-1-carboxyethyl]amino]-4-[[(2S)-2-[[(2S)-2-[[(2S)-1-[(2S,3S)-2-[[(2S)-2,4-diamino-4-oxo-butanoyl]amino]-3-methyl-pentanoyl]pyrrolidine-2-carbonyl]amino]-3-(1H-indol-3-yl)propanoyl]amino]-3-hydroxy-propanoyl]amino]-5-oxo-pentanoic acid
> <PUBCHEM_IUPAC_CAS_NAME>
(4S)-5-[[(1S)-1-carboxyethyl]amino]-4-[[(2S)-2-[[(2S)-2-[[[(2S)-1-[(2S,3S)-2-[[(2S)-2,4-diamino-1,4-dioxobutyl]amino]-3-methyl-1-oxopentyl]-2-pyrrolidinyl]-oxomethyl]amino]-3-(1H-indol-3-yl)-1-oxopropyl]amino]-3-hydroxy-1-oxopropyl]amino]-5-oxopentanoic acid
> <PUBCHEM_IUPAC_NAME_MARKUP>
(4<I>S</I>)-5-[[(1<I>S</I>)-1-carboxyethyl]amino]-4-[[(2<I>S</I>)-2-[[(2<I>S</I>)-2-[[(2<I>S</I>)-1-[(2<I>S</I>,3<I>S</I>)-2-[[(2<I>S</I>)-2,4-diamino-4-oxobutanoyl]amino]-3-methylpentanoyl]pyrrolidine-2-carbonyl]amino]-3-(1<I>H</I>-indol-3-yl)propanoyl]amino]-3-hydroxypropanoyl]amino]-5-oxopentanoic acid
> <PUBCHEM_IUPAC_NAME>
(4S)-5-[[(1S)-1-carboxyethyl]amino]-4-[[(2S)-2-[[(2S)-2-[[(2S)-1-[(2S,3S)-2-[[(2S)-2,4-diamino-4-oxobutanoyl]amino]-3-methylpentanoyl]pyrrolidine-2-carbonyl]amino]-3-(1H-indol-3-yl)propanoyl]amino]-3-hydroxypropanoyl]amino]-5-oxopentanoic acid
> <PUBCHEM_IUPAC_SYSTEMATIC_NAME>
(4S)-4-[[(2S)-2-[[(2S)-2-[[(2S)-1-[(2S,3S)-2-[[(2S)-2,4-bis(azanyl)-4-oxidanylidene-butanoyl]amino]-3-methyl-pentanoyl]pyrrolidin-2-yl]carbonylamino]-3-(1H-indol-3-yl)propanoyl]amino]-3-oxidanyl-propanoyl]amino]-5-oxidanylidene-5-[[(2S)-1-oxidanyl-1-oxidanylidene-propan-2-yl]amino]pentanoic acid
> <PUBCHEM_IUPAC_TRADITIONAL_NAME>
(4S)-5-[[(1S)-1-carboxyethyl]amino]-4-[[(2S)-2-[[(2S)-2-[[(2S)-1-[(2S,3S)-2-[[(2S)-2,4-diamino-4-keto-butanoyl]amino]-3-methyl-pentanoyl]prolyl]amino]-3-(1H-indol-3-yl)propanoyl]amino]-3-hydroxy-propanoyl]amino]-5-keto-valeric acid
> <PUBCHEM_IUPAC_INCHI>
InChI=1S/C37H53N9O12/c1-4-18(2)30(45-31(51)22(38)15-28(39)48)36(56)46-13-7-10-27(46)35(55)43-25(14-20-16-40-23-9-6-5-8-21(20)23)33(53)44-26(17-47)34(54)42-24(11-12-29(49)50)32(52)41-19(3)37(57)58/h5-6,8-9,16,18-19,22,24-27,30,40,47H,4,7,10-15,17,38H2,1-3H3,(H2,39,48)(H,41,52)(H,42,54)(H,43,55)(H,44,53)(H,45,51)(H,49,50)(H,57,58)/t18-,19-,22-,24-,25-,26-,27-,30-/m0/s1
> <PUBCHEM_IUPAC_INCHIKEY>
SSYOOWZVIWQYES-LJNJXTHGSA-N
> <PUBCHEM_XLOGP3_AA>
-4.3
> <PUBCHEM_EXACT_MASS>
815.38136816
> <PUBCHEM_MOLECULAR_FORMULA>
C37H53N9O12
> <PUBCHEM_MOLECULAR_WEIGHT>
815.9
> <PUBCHEM_OPENEYE_CAN_SMILES>
CCC(C)C(C(=O)N1CCCC1C(=O)NC(CC2=CNC3=CC=CC=C32)C(=O)NC(CO)C(=O)NC(CCC(=O)O)C(=O)NC(C)C(=O)O)NC(=O)C(CC(=O)N)N
> <PUBCHEM_OPENEYE_ISO_SMILES>
CC[C@H](C)[C@@H](C(=O)N1CCC[C@H]1C(=O)N[C@@H](CC2=CNC3=CC=CC=C32)C(=O)N[C@@H](CO)C(=O)N[C@@H](CCC(=O)O)C(=O)N[C@@H](C)C(=O)O)NC(=O)[C@H](CC(=O)N)N
> <PUBCHEM_CACTVS_TPSA>
346
> <PUBCHEM_MONOISOTOPIC_WEIGHT>
815.38136816
> <PUBCHEM_TOTAL_CHARGE>
0
> <PUBCHEM_HEAVY_ATOM_COUNT>
58
> <PUBCHEM_ATOM_DEF_STEREO_COUNT>
8
> <PUBCHEM_ATOM_UDEF_STEREO_COUNT>
0
> <PUBCHEM_BOND_DEF_STEREO_COUNT>
0
> <PUBCHEM_BOND_UDEF_STEREO_COUNT>
0
> <PUBCHEM_ISOTOPIC_ATOM_COUNT>
0
> <PUBCHEM_COMPONENT_COUNT>
1
> <PUBCHEM_CACTVS_TAUTO_COUNT>
-1
> <PUBCHEM_COORDINATE_TYPE>
1
5
255
> <PUBCHEM_BONDANNOTATIONS>
32  14  6
26  15  5
42  16  6
17  41  8
17  43  8
38  18  5
49  19  5
55  21  6
22  29  5
28  31  6
37  39  8
37  41  8
39  43  8
39  44  8
43  47  8
44  50  8
47  51  8
50  51  8
$$$$
