516566
  -OEChem-10302200282D
 55 54  0     1  0  0  0  0  0999 V2000
    3.7320   -0.3170    0.0000 S   0  0  0  0  0  0  0  0  0  0  0  0
    8.9282    1.6830    0.0000 S   0  0  0  0  0  0  0  0  0  0  0  0
    4.5981   -1.8170    0.0000 O   0  0  0  0  0  0  0  0  0  0  0  0
    9.7942    0.1830    0.0000 O   0  0  0  0  0  0  0  0  0  0  0  0
    5.4641    2.6830    0.0000 O   0  0  0  0  0  0  0  0  0  0  0  0
    2.8660    0.1830    0.0000 O   0  0  0  0  0  0  0  0  0  0  0  0
    6.3301    1.1830    0.0000 N   0  0  0  0  0  0  0  0  0  0  0  0
    3.7320    1.6830    0.0000 N   0  0  0  0  0  0  0  0  0  0  0  0
    2.8660   -1.8170    0.0000 C   0  0  0  0  0  0  0  0  0  0  0  0
   10.6603    1.6830    0.0000 C   0  0  0  0  0  0  0  0  0  0  0  0
    4.5981    1.1830    0.0000 C   0  0  1  0  0  0  0  0  0  0  0  0
    2.0000   -2.3170    0.0000 C   0  0  0  0  0  0  0  0  0  0  0  0
    3.3660   -2.6830    0.0000 C   0  0  0  0  0  0  0  0  0  0  0  0
    2.3660   -0.9510    0.0000 C   0  0  0  0  0  0  0  0  0  0  0  0
    3.7320   -1.3170    0.0000 C   0  0  0  0  0  0  0  0  0  0  0  0
    4.5981    0.1830    0.0000 C   0  0  0  0  0  0  0  0  0  0  0  0
   11.5263    2.1830    0.0000 C   0  0  0  0  0  0  0  0  0  0  0  0
   11.1603    0.8170    0.0000 C   0  0  0  0  0  0  0  0  0  0  0  0
   10.1603    2.5490    0.0000 C   0  0  0  0  0  0  0  0  0  0  0  0
    9.7942    1.1830    0.0000 C   0  0  0  0  0  0  0  0  0  0  0  0
    5.4641    1.6830    0.0000 C   0  0  0  0  0  0  0  0  0  0  0  0
    7.1962    1.6830    0.0000 C   0  0  0  0  0  0  0  0  0  0  0  0
    8.0622    1.1830    0.0000 C   0  0  0  0  0  0  0  0  0  0  0  0
    2.8660    1.1830    0.0000 C   0  0  0  0  0  0  0  0  0  0  0  0
    2.0000    1.6830    0.0000 C   0  0  0  0  0  0  0  0  0  0  0  0
    4.5981    1.8030    0.0000 H   0  0  0  0  0  0  0  0  0  0  0  0
    1.6900   -1.7800    0.0000 H   0  0  0  0  0  0  0  0  0  0  0  0
    1.4631   -2.6270    0.0000 H   0  0  0  0  0  0  0  0  0  0  0  0
    2.3100   -2.8539    0.0000 H   0  0  0  0  0  0  0  0  0  0  0  0
    2.8291   -2.9930    0.0000 H   0  0  0  0  0  0  0  0  0  0  0  0
    3.6760   -3.2200    0.0000 H   0  0  0  0  0  0  0  0  0  0  0  0
    3.9030   -2.3730    0.0000 H   0  0  0  0  0  0  0  0  0  0  0  0
    2.9030   -0.6410    0.0000 H   0  0  0  0  0  0  0  0  0  0  0  0
    2.0560   -0.4140    0.0000 H   0  0  0  0  0  0  0  0  0  0  0  0
    1.8291   -1.2610    0.0000 H   0  0  0  0  0  0  0  0  0  0  0  0
    4.8101   -0.3996    0.0000 H   0  0  0  0  0  0  0  0  0  0  0  0
    5.2087    0.2907    0.0000 H   0  0  0  0  0  0  0  0  0  0  0  0
   11.8363    1.6461    0.0000 H   0  0  0  0  0  0  0  0  0  0  0  0
   12.0632    2.4930    0.0000 H   0  0  0  0  0  0  0  0  0  0  0  0
   11.2163    2.7200    0.0000 H   0  0  0  0  0  0  0  0  0  0  0  0
   10.6233    0.5070    0.0000 H   0  0  0  0  0  0  0  0  0  0  0  0
   11.4703    0.2801    0.0000 H   0  0  0  0  0  0  0  0  0  0  0  0
   11.6972    1.1270    0.0000 H   0  0  0  0  0  0  0  0  0  0  0  0
   10.6972    2.8590    0.0000 H   0  0  0  0  0  0  0  0  0  0  0  0
    9.8503    3.0860    0.0000 H   0  0  0  0  0  0  0  0  0  0  0  0
    9.6233    2.2390    0.0000 H   0  0  0  0  0  0  0  0  0  0  0  0
    7.5947    2.1580    0.0000 H   0  0  0  0  0  0  0  0  0  0  0  0
    6.7976    2.1580    0.0000 H   0  0  0  0  0  0  0  0  0  0  0  0
    7.6636    0.7081    0.0000 H   0  0  0  0  0  0  0  0  0  0  0  0
    8.4607    0.7081    0.0000 H   0  0  0  0  0  0  0  0  0  0  0  0
    6.3301    0.5630    0.0000 H   0  0  0  0  0  0  0  0  0  0  0  0
    3.7320    2.3030    0.0000 H   0  0  0  0  0  0  0  0  0  0  0  0
    2.3100    2.2200    0.0000 H   0  0  0  0  0  0  0  0  0  0  0  0
    1.4631    1.9930    0.0000 H   0  0  0  0  0  0  0  0  0  0  0  0
    1.6900    1.1461    0.0000 H   0  0  0  0  0  0  0  0  0  0  0  0
  1 15  1  0  0  0  0
  1 16  1  0  0  0  0
  2 20  1  0  0  0  0
  2 23  1  0  0  0  0
  3 15  2  0  0  0  0
  4 20  2  0  0  0  0
  5 21  2  0  0  0  0
  6 24  2  0  0  0  0
  7 21  1  0  0  0  0
  7 22  1  0  0  0  0
  7 51  1  0  0  0  0
 11  8  1  6  0  0  0
  8 24  1  0  0  0  0
  8 52  1  0  0  0  0
  9 12  1  0  0  0  0
  9 13  1  0  0  0  0
  9 14  1  0  0  0  0
  9 15  1  0  0  0  0
 10 17  1  0  0  0  0
 10 18  1  0  0  0  0
 10 19  1  0  0  0  0
 10 20  1  0  0  0  0
 11 16  1  0  0  0  0
 11 21  1  0  0  0  0
 11 26  1  0  0  0  0
 12 27  1  0  0  0  0
 12 28  1  0  0  0  0
 12 29  1  0  0  0  0
 13 30  1  0  0  0  0
 13 31  1  0  0  0  0
 13 32  1  0  0  0  0
 14 33  1  0  0  0  0
 14 34  1  0  0  0  0
 14 35  1  0  0  0  0
 16 36  1  0  0  0  0
 16 37  1  0  0  0  0
 17 38  1  0  0  0  0
 17 39  1  0  0  0  0
 17 40  1  0  0  0  0
 18 41  1  0  0  0  0
 18 42  1  0  0  0  0
 18 43  1  0  0  0  0
 19 44  1  0  0  0  0
 19 45  1  0  0  0  0
 19 46  1  0  0  0  0
 22 23  1  0  0  0  0
 22 47  1  0  0  0  0
 22 48  1  0  0  0  0
 23 49  1  0  0  0  0
 23 50  1  0  0  0  0
 24 25  1  0  0  0  0
 25 53  1  0  0  0  0
 25 54  1  0  0  0  0
 25 55  1  0  0  0  0
M  END
> <PUBCHEM_COMPOUND_CID>
516566
> <PUBCHEM_COMPOUND_CANONICALIZED>
1
> <PUBCHEM_CACTVS_COMPLEXITY>
508
> <PUBCHEM_CACTVS_HBOND_ACCEPTOR>
6
> <PUBCHEM_CACTVS_HBOND_DONOR>
2
> <PUBCHEM_CACTVS_ROTATABLE_BOND>
11
> <PUBCHEM_CACTVS_SUBSKEYS>
AAADceB7OABgAAAAAAAAAAAAAAAAAAAAAAAAAAAAAAAAAAAAAAAAHgQQAAAADijFwASCAALAAAgIAAEQEAAAAAAAABAAAIGIAAAAQAAgACAUAAAAFgCgAAAAAAAAAAAAAAAAAAAAAAAAAAAAAAAAAAAAAA==
> <PUBCHEM_IUPAC_OPENEYE_NAME>
S-[2-[[(2R)-2-acetamido-3-(2,2-dimethylpropanoylsulfanyl)propanoyl]amino]ethyl] 2,2-dimethylpropanethioate
> <PUBCHEM_IUPAC_CAS_NAME>
2,2-dimethylpropanethioic acid S-[2-[[(2R)-2-acetamido-3-[(2,2-dimethyl-1-oxopropyl)thio]-1-oxopropyl]amino]ethyl] ester
> <PUBCHEM_IUPAC_NAME_MARKUP>
<I>S</I>-[2-[[(2<I>R</I>)-2-acetamido-3-(2,2-dimethylpropanoylsulfanyl)propanoyl]amino]ethyl] 2,2-dimethylpropanethioate
> <PUBCHEM_IUPAC_NAME>
S-[2-[[(2R)-2-acetamido-3-(2,2-dimethylpropanoylsulfanyl)propanoyl]amino]ethyl] 2,2-dimethylpropanethioate
> <PUBCHEM_IUPAC_SYSTEMATIC_NAME>
S-[2-[[(2R)-2-acetamido-3-(2,2-dimethylpropanoylsulfanyl)propanoyl]amino]ethyl] 2,2-dimethylpropanethioate
> <PUBCHEM_IUPAC_TRADITIONAL_NAME>
2,2-dimethylpropanethioic acid S-[2-[[(2R)-2-acetamido-3-(pivaloylthio)propanoyl]amino]ethyl] ester
> <PUBCHEM_IUPAC_INCHI>
InChI=1S/C17H30N2O4S2/c1-11(20)19-12(10-25-15(23)17(5,6)7)13(21)18-8-9-24-14(22)16(2,3)4/h12H,8-10H2,1-7H3,(H,18,21)(H,19,20)/t12-/m0/s1
> <PUBCHEM_IUPAC_INCHIKEY>
AYEKSFFTIBAJJE-LBPRGKRZSA-N
> <PUBCHEM_XLOGP3_AA>
2.6
> <PUBCHEM_EXACT_MASS>
390.16469979
> <PUBCHEM_MOLECULAR_FORMULA>
C17H30N2O4S2
> <PUBCHEM_MOLECULAR_WEIGHT>
390.6
> <PUBCHEM_OPENEYE_CAN_SMILES>
CC(=O)NC(CSC(=O)C(C)(C)C)C(=O)NCCSC(=O)C(C)(C)C
> <PUBCHEM_OPENEYE_ISO_SMILES>
CC(=O)N[C@@H](CSC(=O)C(C)(C)C)C(=O)NCCSC(=O)C(C)(C)C
> <PUBCHEM_CACTVS_TPSA>
143
> <PUBCHEM_MONOISOTOPIC_WEIGHT>
390.16469979
> <PUBCHEM_TOTAL_CHARGE>
0
> <PUBCHEM_HEAVY_ATOM_COUNT>
25
> <PUBCHEM_ATOM_DEF_STEREO_COUNT>
1
> <PUBCHEM_ATOM_UDEF_STEREO_COUNT>
0
> <PUBCHEM_BOND_DEF_STEREO_COUNT>
0
> <PUBCHEM_BOND_UDEF_STEREO_COUNT>
0
> <PUBCHEM_ISOTOPIC_ATOM_COUNT>
0
> <PUBCHEM_COMPONENT_COUNT>
1
> <PUBCHEM_CACTVS_TAUTO_COUNT>
-1
> <PUBCHEM_COORDINATE_TYPE>
1
5
255
> <PUBCHEM_BONDANNOTATIONS>
11  8  6
$$$$
