516502
  -OEChem-10302200282D
 69 74  0     1  0  0  0  0  0999 V2000
    2.0000    4.1938    0.0000 O   0  0  0  0  0  0  0  0  0  0  0  0
   14.9355   -2.3404    0.0000 O   0  0  0  0  0  0  0  0  0  0  0  0
    3.6750    2.1060    0.0000 N   0  0  0  0  0  0  0  0  0  0  0  0
   13.0990   -3.3349    0.0000 N   0  0  0  0  0  0  0  0  0  0  0  0
    7.2193    0.9108    0.0000 N   0  0  0  0  0  0  0  0  0  0  0  0
   10.2917   -0.8631    0.0000 N   0  0  0  0  0  0  0  0  0  0  0  0
    7.2193   -0.6987    0.0000 N   0  0  0  0  0  0  0  0  0  0  0  0
    8.8978   -1.6678    0.0000 N   0  0  0  0  0  0  0  0  0  0  0  0
    2.8090    0.6060    0.0000 N   0  0  0  0  0  0  0  0  0  0  0  0
   12.2329   -4.8349    0.0000 N   0  0  0  0  0  0  0  0  0  0  0  0
    2.8090    3.6060    0.0000 C   0  0  3  0  0  0  0  0  0  0  0  0
   14.8310   -3.3349    0.0000 C   0  0  3  0  0  0  0  0  0  0  0  0
    3.6180    4.1938    0.0000 C   0  0  0  0  0  0  0  0  0  0  0  0
   15.7445   -3.7416    0.0000 C   0  0  0  0  0  0  0  0  0  0  0  0
    3.3090    5.1449    0.0000 C   0  0  0  0  0  0  0  0  0  0  0  0
   16.4137   -2.9985    0.0000 C   0  0  0  0  0  0  0  0  0  0  0  0
    2.3090    5.1449    0.0000 C   0  0  0  0  0  0  0  0  0  0  0  0
   15.9137   -2.1324    0.0000 C   0  0  0  0  0  0  0  0  0  0  0  0
    2.8090    2.6060    0.0000 C   0  0  0  0  0  0  0  0  0  0  0  0
   13.9650   -3.8349    0.0000 C   0  0  0  0  0  0  0  0  0  0  0  0
    3.6750    1.1060    0.0000 C   0  0  0  0  0  0  0  0  0  0  0  0
   12.2329   -3.8349    0.0000 C   0  0  0  0  0  0  0  0  0  0  0  0
    8.8029    0.1060    0.0000 C   0  0  0  0  0  0  0  0  0  0  0  0
    4.5411    0.6060    0.0000 C   0  0  0  0  0  0  0  0  0  0  0  0
   11.3669   -3.3349    0.0000 C   0  0  0  0  0  0  0  0  0  0  0  0
    6.2731    0.6060    0.0000 C   0  0  0  0  0  0  0  0  0  0  0  0
   10.5009   -1.8349    0.0000 C   0  0  0  0  0  0  0  0  0  0  0  0
    7.8030    0.1060    0.0000 C   0  0  0  0  0  0  0  0  0  0  0  0
    9.3029   -0.7600    0.0000 C   0  0  0  0  0  0  0  0  0  0  0  0
    6.2731   -0.3940    0.0000 C   0  0  0  0  0  0  0  0  0  0  0  0
    9.6348   -2.3349    0.0000 C   0  0  0  0  0  0  0  0  0  0  0  0
    5.4071    1.1060    0.0000 C   0  0  0  0  0  0  0  0  0  0  0  0
   11.3669   -2.3349    0.0000 C   0  0  0  0  0  0  0  0  0  0  0  0
    4.5411   -0.3940    0.0000 C   0  0  0  0  0  0  0  0  0  0  0  0
   10.5009   -3.8349    0.0000 C   0  0  0  0  0  0  0  0  0  0  0  0
    5.4071   -0.8940    0.0000 C   0  0  0  0  0  0  0  0  0  0  0  0
    9.6348   -3.3349    0.0000 C   0  0  0  0  0  0  0  0  0  0  0  0
    2.2566    3.3246    0.0000 H   0  0  0  0  0  0  0  0  0  0  0  0
   14.3110   -2.9972    0.0000 H   0  0  0  0  0  0  0  0  0  0  0  0
    3.9280    3.6569    0.0000 H   0  0  0  0  0  0  0  0  0  0  0  0
    4.1844    4.4460    0.0000 H   0  0  0  0  0  0  0  0  0  0  0  0
   15.4345   -4.2785    0.0000 H   0  0  0  0  0  0  0  0  0  0  0  0
   16.2461   -4.1060    0.0000 H   0  0  0  0  0  0  0  0  0  0  0  0
    3.9155    5.2738    0.0000 H   0  0  0  0  0  0  0  0  0  0  0  0
    3.2442    5.7615    0.0000 H   0  0  0  0  0  0  0  0  0  0  0  0
   16.8285   -3.4592    0.0000 H   0  0  0  0  0  0  0  0  0  0  0  0
   16.9153   -2.6340    0.0000 H   0  0  0  0  0  0  0  0  0  0  0  0
    2.3738    5.7615    0.0000 H   0  0  0  0  0  0  0  0  0  0  0  0
    1.7026    5.2738    0.0000 H   0  0  0  0  0  0  0  0  0  0  0  0
   16.4801   -1.8803    0.0000 H   0  0  0  0  0  0  0  0  0  0  0  0
   15.7221   -1.5428    0.0000 H   0  0  0  0  0  0  0  0  0  0  0  0
    2.1984    2.7137    0.0000 H   0  0  0  0  0  0  0  0  0  0  0  0
    2.5970    2.0234    0.0000 H   0  0  0  0  0  0  0  0  0  0  0  0
   13.5664   -4.3098    0.0000 H   0  0  0  0  0  0  0  0  0  0  0  0
   14.3635   -4.3098    0.0000 H   0  0  0  0  0  0  0  0  0  0  0  0
    9.3856    0.3181    0.0000 H   0  0  0  0  0  0  0  0  0  0  0  0
    8.6953    0.7166    0.0000 H   0  0  0  0  0  0  0  0  0  0  0  0
    5.4071    1.7260    0.0000 H   0  0  0  0  0  0  0  0  0  0  0  0
   11.9038   -2.0249    0.0000 H   0  0  0  0  0  0  0  0  0  0  0  0
    7.4120    1.5001    0.0000 H   0  0  0  0  0  0  0  0  0  0  0  0
   10.7057   -0.4016    0.0000 H   0  0  0  0  0  0  0  0  0  0  0  0
    4.0041   -0.7040    0.0000 H   0  0  0  0  0  0  0  0  0  0  0  0
   10.5009   -4.4549    0.0000 H   0  0  0  0  0  0  0  0  0  0  0  0
    5.4071   -1.5140    0.0000 H   0  0  0  0  0  0  0  0  0  0  0  0
    9.0979   -3.6449    0.0000 H   0  0  0  0  0  0  0  0  0  0  0  0
    2.2721    0.9160    0.0000 H   0  0  0  0  0  0  0  0  0  0  0  0
    2.8090   -0.0140    0.0000 H   0  0  0  0  0  0  0  0  0  0  0  0
   12.7699   -5.1449    0.0000 H   0  0  0  0  0  0  0  0  0  0  0  0
   11.6960   -5.1449    0.0000 H   0  0  0  0  0  0  0  0  0  0  0  0
  1 11  1  0  0  0  0
  1 17  1  0  0  0  0
  2 12  1  0  0  0  0
  2 18  1  0  0  0  0
  3 19  1  0  0  0  0
  3 21  2  0  0  0  0
  4 20  1  0  0  0  0
  4 22  2  0  0  0  0
  5 26  1  0  0  0  0
  5 28  1  0  0  0  0
  5 60  1  0  0  0  0
  6 27  1  0  0  0  0
  6 29  1  0  0  0  0
  6 61  1  0  0  0  0
  7 28  2  0  0  0  0
  7 30  1  0  0  0  0
  8 29  2  0  0  0  0
  8 31  1  0  0  0  0
  9 21  1  0  0  0  0
  9 66  1  0  0  0  0
  9 67  1  0  0  0  0
 10 22  1  0  0  0  0
 10 68  1  0  0  0  0
 10 69  1  0  0  0  0
 11 13  1  0  0  0  0
 11 19  1  0  0  0  0
 11 38  1  0  0  0  0
 12 14  1  0  0  0  0
 12 20  1  0  0  0  0
 12 39  1  0  0  0  0
 13 15  1  0  0  0  0
 13 40  1  0  0  0  0
 13 41  1  0  0  0  0
 14 16  1  0  0  0  0
 14 42  1  0  0  0  0
 14 43  1  0  0  0  0
 15 17  1  0  0  0  0
 15 44  1  0  0  0  0
 15 45  1  0  0  0  0
 16 18  1  0  0  0  0
 16 46  1  0  0  0  0
 16 47  1  0  0  0  0
 17 48  1  0  0  0  0
 17 49  1  0  0  0  0
 18 50  1  0  0  0  0
 18 51  1  0  0  0  0
 19 52  1  0  0  0  0
 19 53  1  0  0  0  0
 20 54  1  0  0  0  0
 20 55  1  0  0  0  0
 21 24  1  0  0  0  0
 22 25  1  0  0  0  0
 23 28  1  0  0  0  0
 23 29  1  0  0  0  0
 23 56  1  0  0  0  0
 23 57  1  0  0  0  0
 24 32  2  0  0  0  0
 24 34  1  0  0  0  0
 25 33  2  0  0  0  0
 25 35  1  0  0  0  0
 26 30  2  0  0  0  0
 26 32  1  0  0  0  0
 27 31  2  0  0  0  0
 27 33  1  0  0  0  0
 30 36  1  0  0  0  0
 31 37  1  0  0  0  0
 32 58  1  0  0  0  0
 33 59  1  0  0  0  0
 34 36  2  0  0  0  0
 34 62  1  0  0  0  0
 35 37  2  0  0  0  0
 35 63  1  0  0  0  0
 36 64  1  0  0  0  0
 37 65  1  0  0  0  0
M  END
> <PUBCHEM_COMPOUND_CID>
516502
> <PUBCHEM_COMPOUND_CANONICALIZED>
1
> <PUBCHEM_CACTVS_COMPLEXITY>
773
> <PUBCHEM_CACTVS_HBOND_ACCEPTOR>
6
> <PUBCHEM_CACTVS_HBOND_DONOR>
4
> <PUBCHEM_CACTVS_ROTATABLE_BOND>
8
> <PUBCHEM_CACTVS_SUBSKEYS>
AAADcfB78AAAAAAAAAAAAAAAAAAAAWLEiQAwYAAAAAAAAFgB/gAAHgAQAAAADBzhnwYx0LbJlACgAyZiZACCgC2hEqAJmSAwdJiKaKLA2ZGXIAhskALIyCeQkAAOCAAAQAAAACAQAACAAAAAQAAAAAAAAA==
> <PUBCHEM_IUPAC_OPENEYE_NAME>
N'-(tetrahydrofuran-2-ylmethyl)-2-[[6-[N'-(tetrahydrofuran-2-ylmethyl)carbamimidoyl]-1H-benzimidazol-2-yl]methyl]-3H-benzimidazole-5-carboxamidine
> <PUBCHEM_IUPAC_CAS_NAME>
2-[[6-[amino(2-oxolanylmethylimino)methyl]-1H-benzimidazol-2-yl]methyl]-N'-(2-oxolanylmethyl)-3H-benzimidazole-5-carboximidamide
> <PUBCHEM_IUPAC_NAME_MARKUP>
<I>N</I>&apos;-(oxolan-2-ylmethyl)-2-[[6-[<I>N</I>&apos;-(oxolan-2-ylmethyl)carbamimidoyl]-1<I>H</I>-benzimidazol-2-yl]methyl]-3<I>H</I>-benzimidazole-5-carboximidamide
> <PUBCHEM_IUPAC_NAME>
N'-(oxolan-2-ylmethyl)-2-[[6-[N'-(oxolan-2-ylmethyl)carbamimidoyl]-1H-benzimidazol-2-yl]methyl]-3H-benzimidazole-5-carboximidamide
> <PUBCHEM_IUPAC_SYSTEMATIC_NAME>
N'-(oxolan-2-ylmethyl)-2-[[6-[N'-(oxolan-2-ylmethyl)carbamimidoyl]-1H-benzimidazol-2-yl]methyl]-3H-benzimidazole-5-carboximidamide
> <PUBCHEM_IUPAC_TRADITIONAL_NAME>
N'-(tetrahydrofurfuryl)-2-[[6-[N'-(tetrahydrofurfuryl)amidino]-1H-benzimidazol-2-yl]methyl]-3H-benzimidazole-5-carboxamidine
> <PUBCHEM_IUPAC_INCHI>
InChI=1S/C27H32N8O2/c28-26(30-14-18-3-1-9-36-18)16-5-7-20-22(11-16)34-24(32-20)13-25-33-21-8-6-17(12-23(21)35-25)27(29)31-15-19-4-2-10-37-19/h5-8,11-12,18-19H,1-4,9-10,13-15H2,(H2,28,30)(H2,29,31)(H,32,34)(H,33,35)
> <PUBCHEM_IUPAC_INCHIKEY>
GPXLNXLXWROTRH-UHFFFAOYSA-N
> <PUBCHEM_XLOGP3_AA>
1.8
> <PUBCHEM_EXACT_MASS>
500.26482229
> <PUBCHEM_MOLECULAR_FORMULA>
C27H32N8O2
> <PUBCHEM_MOLECULAR_WEIGHT>
500.6
> <PUBCHEM_OPENEYE_CAN_SMILES>
C1CC(OC1)CN=C(C2=CC3=C(C=C2)N=C(N3)CC4=NC5=C(N4)C=C(C=C5)C(=NCC6CCCO6)N)N
> <PUBCHEM_OPENEYE_ISO_SMILES>
C1CC(OC1)CN=C(C2=CC3=C(C=C2)N=C(N3)CC4=NC5=C(N4)C=C(C=C5)C(=NCC6CCCO6)N)N
> <PUBCHEM_CACTVS_TPSA>
153
> <PUBCHEM_MONOISOTOPIC_WEIGHT>
500.26482229
> <PUBCHEM_TOTAL_CHARGE>
0
> <PUBCHEM_HEAVY_ATOM_COUNT>
37
> <PUBCHEM_ATOM_DEF_STEREO_COUNT>
0
> <PUBCHEM_ATOM_UDEF_STEREO_COUNT>
2
> <PUBCHEM_BOND_DEF_STEREO_COUNT>
0
> <PUBCHEM_BOND_UDEF_STEREO_COUNT>
0
> <PUBCHEM_ISOTOPIC_ATOM_COUNT>
0
> <PUBCHEM_COMPONENT_COUNT>
1
> <PUBCHEM_CACTVS_TAUTO_COUNT>
-1
> <PUBCHEM_COORDINATE_TYPE>
1
5
255
> <PUBCHEM_BONDANNOTATIONS>
11  19  3
12  20  3
24  32  8
24  34  8
25  33  8
25  35  8
26  30  8
26  32  8
27  31  8
27  33  8
30  36  8
31  37  8
34  36  8
35  37  8
5  26  8
5  28  8
6  27  8
6  29  8
7  28  8
7  30  8
8  29  8
8  31  8
$$$$
