516643
  -OEChem-10302200282D
 45 48  0     1  0  0  0  0  0999 V2000
    5.5384   -3.2736    0.0000 Cl  0  0  0  0  0  0  0  0  0  0  0  0
   10.6516    2.9135    0.0000 Cl  0  0  0  0  0  0  0  0  0  0  0  0
    6.0384    2.2652    0.0000 O   0  0  0  0  0  0  0  0  0  0  0  0
    5.2294    1.6774    0.0000 N   0  0  3  0  0  0  0  0  0  0  0  0
    3.6092    0.6253    0.0000 N   0  0  0  0  0  0  0  0  0  0  0  0
    2.2079    1.4343    0.0000 N   0  0  0  0  0  0  0  0  0  0  0  0
    5.5384    0.7264    0.0000 C   0  0  2  0  0  0  0  0  0  0  0  0
    6.5384    0.7264    0.0000 C   0  0  0  0  0  0  0  0  0  0  0  0
    6.8474    1.6774    0.0000 C   0  0  1  0  0  0  0  0  0  0  0  0
    4.5873    0.4174    0.0000 C   0  0  0  0  0  0  0  0  0  0  0  0
    5.5384   -0.2736    0.0000 C   0  0  0  0  0  0  0  0  0  0  0  0
    7.7984    1.9864    0.0000 C   0  0  0  0  0  0  0  0  0  0  0  0
    4.5602    2.4206    0.0000 C   0  0  0  0  0  0  0  0  0  0  0  0
    4.6724   -0.7736    0.0000 C   0  0  0  0  0  0  0  0  0  0  0  0
    6.4044   -0.7736    0.0000 C   0  0  0  0  0  0  0  0  0  0  0  0
    8.0064    2.9646    0.0000 C   0  0  0  0  0  0  0  0  0  0  0  0
    8.5416    1.3173    0.0000 C   0  0  0  0  0  0  0  0  0  0  0  0
    2.8660   -0.0439    0.0000 C   0  0  0  0  0  0  0  0  0  0  0  0
    3.2024    1.5388    0.0000 C   0  0  0  0  0  0  0  0  0  0  0  0
    4.6724   -1.7736    0.0000 C   0  0  0  0  0  0  0  0  0  0  0  0
    6.4044   -1.7736    0.0000 C   0  0  0  0  0  0  0  0  0  0  0  0
    5.5384   -2.2736    0.0000 C   0  0  0  0  0  0  0  0  0  0  0  0
    8.9574    3.2736    0.0000 C   0  0  0  0  0  0  0  0  0  0  0  0
    9.4926    1.6263    0.0000 C   0  0  0  0  0  0  0  0  0  0  0  0
    2.0000    0.4561    0.0000 C   0  0  0  0  0  0  0  0  0  0  0  0
    9.7006    2.6045    0.0000 C   0  0  0  0  0  0  0  0  0  0  0  0
    6.4736    0.1098    0.0000 H   0  0  0  0  0  0  0  0  0  0  0  0
    7.1448    0.5975    0.0000 H   0  0  0  0  0  0  0  0  0  0  0  0
    6.9444    2.2898    0.0000 H   0  0  0  0  0  0  0  0  0  0  0  0
    4.2588   -0.1084    0.0000 H   0  0  0  0  0  0  0  0  0  0  0  0
    4.5549    1.0365    0.0000 H   0  0  0  0  0  0  0  0  0  0  0  0
    5.0210    2.8354    0.0000 H   0  0  0  0  0  0  0  0  0  0  0  0
    4.1454    2.8813    0.0000 H   0  0  0  0  0  0  0  0  0  0  0  0
    4.0995    2.0057    0.0000 H   0  0  0  0  0  0  0  0  0  0  0  0
    4.1354   -0.4636    0.0000 H   0  0  0  0  0  0  0  0  0  0  0  0
    6.9413   -0.4636    0.0000 H   0  0  0  0  0  0  0  0  0  0  0  0
    7.5456    3.3795    0.0000 H   0  0  0  0  0  0  0  0  0  0  0  0
    8.4127    0.7109    0.0000 H   0  0  0  0  0  0  0  0  0  0  0  0
    2.9308   -0.6605    0.0000 H   0  0  0  0  0  0  0  0  0  0  0  0
    3.5124    2.0758    0.0000 H   0  0  0  0  0  0  0  0  0  0  0  0
    4.1354   -2.0836    0.0000 H   0  0  0  0  0  0  0  0  0  0  0  0
    6.9413   -2.0836    0.0000 H   0  0  0  0  0  0  0  0  0  0  0  0
    9.0863    3.8801    0.0000 H   0  0  0  0  0  0  0  0  0  0  0  0
    9.9534    1.2115    0.0000 H   0  0  0  0  0  0  0  0  0  0  0  0
    1.4336    0.2040    0.0000 H   0  0  0  0  0  0  0  0  0  0  0  0
  1 22  1  0  0  0  0
  2 26  1  0  0  0  0
  3  4  1  0  0  0  0
  3  9  1  0  0  0  0
  4  7  1  0  0  0  0
  4 13  1  0  0  0  0
  5 10  1  0  0  0  0
  5 18  1  0  0  0  0
  5 19  1  0  0  0  0
  6 19  2  0  0  0  0
  6 25  1  0  0  0  0
  7  8  1  0  0  0  0
  7 10  1  6  0  0  0
  7 11  1  0  0  0  0
  8  9  1  0  0  0  0
  8 27  1  0  0  0  0
  8 28  1  0  0  0  0
  9 12  1  6  0  0  0
  9 29  1  0  0  0  0
 10 30  1  0  0  0  0
 10 31  1  0  0  0  0
 11 14  2  0  0  0  0
 11 15  1  0  0  0  0
 12 16  2  0  0  0  0
 12 17  1  0  0  0  0
 13 32  1  0  0  0  0
 13 33  1  0  0  0  0
 13 34  1  0  0  0  0
 14 20  1  0  0  0  0
 14 35  1  0  0  0  0
 15 21  2  0  0  0  0
 15 36  1  0  0  0  0
 16 23  1  0  0  0  0
 16 37  1  0  0  0  0
 17 24  2  0  0  0  0
 17 38  1  0  0  0  0
 18 25  2  0  0  0  0
 18 39  1  0  0  0  0
 19 40  1  0  0  0  0
 20 22  2  0  0  0  0
 20 41  1  0  0  0  0
 21 22  1  0  0  0  0
 21 42  1  0  0  0  0
 23 26  2  0  0  0  0
 23 43  1  0  0  0  0
 24 26  1  0  0  0  0
 24 44  1  0  0  0  0
 25 45  1  0  0  0  0
M  END
> <PUBCHEM_COMPOUND_CID>
516643
> <PUBCHEM_COMPOUND_CANONICALIZED>
1
> <PUBCHEM_CACTVS_COMPLEXITY>
466
> <PUBCHEM_CACTVS_HBOND_ACCEPTOR>
3
> <PUBCHEM_CACTVS_HBOND_DONOR>
0
> <PUBCHEM_CACTVS_ROTATABLE_BOND>
4
> <PUBCHEM_CACTVS_SUBSKEYS>
AAADceB7IAAGAAAAAAAAAAAAAAAAAWLAAAAwYAAAAAAAAAAB0AAAHgIEAAAADJ7hmiY/kJccEACgAjBnZACCgC0xF6ApyAAYPoiIbiKBmxGUMAhuwAOIiCewwOAOhAAAAAAAAAAIAAAAAAAAAAAAAAAAAA==
> <PUBCHEM_IUPAC_OPENEYE_NAME>
(3S,5S)-3,5-bis(4-chlorophenyl)-3-(imidazol-1-ylmethyl)-2-methyl-isoxazolidine
> <PUBCHEM_IUPAC_CAS_NAME>
(3S,5S)-3,5-bis(4-chlorophenyl)-3-(1-imidazolylmethyl)-2-methylisoxazolidine
> <PUBCHEM_IUPAC_NAME_MARKUP>
(3<I>S</I>,5<I>S</I>)-3,5-bis(4-chlorophenyl)-3-(imidazol-1-ylmethyl)-2-methyl-1,2-oxazolidine
> <PUBCHEM_IUPAC_NAME>
(3S,5S)-3,5-bis(4-chlorophenyl)-3-(imidazol-1-ylmethyl)-2-methyl-1,2-oxazolidine
> <PUBCHEM_IUPAC_SYSTEMATIC_NAME>
(3S,5S)-3,5-bis(4-chlorophenyl)-3-(imidazol-1-ylmethyl)-2-methyl-1,2-oxazolidine
> <PUBCHEM_IUPAC_TRADITIONAL_NAME>
(3S,5S)-3,5-bis(4-chlorophenyl)-3-(imidazol-1-ylmethyl)-2-methyl-isoxazolidine
> <PUBCHEM_IUPAC_INCHI>
InChI=1S/C20H19Cl2N3O/c1-24-20(13-25-11-10-23-14-25,16-4-8-18(22)9-5-16)12-19(26-24)15-2-6-17(21)7-3-15/h2-11,14,19H,12-13H2,1H3/t19-,20+/m0/s1
> <PUBCHEM_IUPAC_INCHIKEY>
JQNRGBCRWDMIDS-VQTJNVASSA-N
> <PUBCHEM_XLOGP3_AA>
4.3
> <PUBCHEM_EXACT_MASS>
387.0905176
> <PUBCHEM_MOLECULAR_FORMULA>
C20H19Cl2N3O
> <PUBCHEM_MOLECULAR_WEIGHT>
388.3
> <PUBCHEM_OPENEYE_CAN_SMILES>
CN1C(CC(O1)C2=CC=C(C=C2)Cl)(CN3C=CN=C3)C4=CC=C(C=C4)Cl
> <PUBCHEM_OPENEYE_ISO_SMILES>
CN1[C@](C[C@H](O1)C2=CC=C(C=C2)Cl)(CN3C=CN=C3)C4=CC=C(C=C4)Cl
> <PUBCHEM_CACTVS_TPSA>
30.3
> <PUBCHEM_MONOISOTOPIC_WEIGHT>
387.0905176
> <PUBCHEM_TOTAL_CHARGE>
0
> <PUBCHEM_HEAVY_ATOM_COUNT>
26
> <PUBCHEM_ATOM_DEF_STEREO_COUNT>
2
> <PUBCHEM_ATOM_UDEF_STEREO_COUNT>
0
> <PUBCHEM_BOND_DEF_STEREO_COUNT>
0
> <PUBCHEM_BOND_UDEF_STEREO_COUNT>
0
> <PUBCHEM_ISOTOPIC_ATOM_COUNT>
0
> <PUBCHEM_COMPONENT_COUNT>
1
> <PUBCHEM_CACTVS_TAUTO_COUNT>
1
> <PUBCHEM_COORDINATE_TYPE>
1
5
255
> <PUBCHEM_BONDANNOTATIONS>
11  14  8
11  15  8
12  16  8
12  17  8
14  20  8
15  21  8
16  23  8
17  24  8
18  25  8
20  22  8
21  22  8
23  26  8
24  26  8
5  18  8
5  19  8
6  19  8
6  25  8
7  10  6
9  12  6
$$$$
