516698
  -OEChem-10302200282D
 23 23  0     1  0  0  0  0  0999 V2000
    2.8090    0.6816    0.0000 O   0  0  0  0  0  0  0  0  0  0  0  0
    5.3122    1.6295    0.0000 O   0  0  0  0  0  0  0  0  0  0  0  0
    6.4712    0.3423    0.0000 O   0  0  0  0  0  0  0  0  0  0  0  0
    6.8870   -1.6140    0.0000 O   0  0  0  0  0  0  0  0  0  0  0  0
    5.1928   -1.9741    0.0000 O   0  0  0  0  0  0  0  0  0  0  0  0
    3.6180    1.2694    0.0000 C   0  0  3  0  0  0  0  0  0  0  0  0
    3.3090    2.2204    0.0000 C   0  0  0  0  0  0  0  0  0  0  0  0
    2.3090    2.2204    0.0000 C   0  0  0  0  0  0  0  0  0  0  0  0
    2.0000    1.2694    0.0000 C   0  0  0  0  0  0  0  0  0  0  0  0
    4.5691    0.9604    0.0000 C   0  0  0  0  0  0  0  0  0  0  0  0
    4.7770   -0.0178    0.0000 C   0  0  0  0  0  0  0  0  0  0  0  0
    5.7281   -0.3268    0.0000 C   0  0  0  0  0  0  0  0  0  0  0  0
    5.9360   -1.3050    0.0000 C   0  0  0  0  0  0  0  0  0  0  0  0
    3.7150    0.6570    0.0000 H   0  0  0  0  0  0  0  0  0  0  0  0
    3.9155    2.3493    0.0000 H   0  0  0  0  0  0  0  0  0  0  0  0
    3.2442    2.8370    0.0000 H   0  0  0  0  0  0  0  0  0  0  0  0
    2.3738    2.8370    0.0000 H   0  0  0  0  0  0  0  0  0  0  0  0
    1.7026    2.3493    0.0000 H   0  0  0  0  0  0  0  0  0  0  0  0
    1.4336    1.5216    0.0000 H   0  0  0  0  0  0  0  0  0  0  0  0
    1.6900    0.7324    0.0000 H   0  0  0  0  0  0  0  0  0  0  0  0
    4.1574   -0.0394    0.0000 H   0  0  0  0  0  0  0  0  0  0  0  0
    4.6907   -0.6318    0.0000 H   0  0  0  0  0  0  0  0  0  0  0  0
    7.0159   -2.2204    0.0000 H   0  0  0  0  0  0  0  0  0  0  0  0
  1  6  1  0  0  0  0
  1  9  1  0  0  0  0
  2 10  2  0  0  0  0
  3 12  2  0  0  0  0
  4 13  1  0  0  0  0
  4 23  1  0  0  0  0
  5 13  2  0  0  0  0
  6  7  1  0  0  0  0
  6 10  1  0  0  0  0
  6 14  1  0  0  0  0
  7  8  1  0  0  0  0
  7 15  1  0  0  0  0
  7 16  1  0  0  0  0
  8  9  1  0  0  0  0
  8 17  1  0  0  0  0
  8 18  1  0  0  0  0
  9 19  1  0  0  0  0
  9 20  1  0  0  0  0
 10 11  1  0  0  0  0
 11 12  1  0  0  0  0
 11 21  1  0  0  0  0
 11 22  1  0  0  0  0
 12 13  1  0  0  0  0
M  END
> <PUBCHEM_COMPOUND_CID>
516698
> <PUBCHEM_COMPOUND_CANONICALIZED>
1
> <PUBCHEM_CACTVS_COMPLEXITY>
245
> <PUBCHEM_CACTVS_HBOND_ACCEPTOR>
5
> <PUBCHEM_CACTVS_HBOND_DONOR>
1
> <PUBCHEM_CACTVS_ROTATABLE_BOND>
4
> <PUBCHEM_CACTVS_SUBSKEYS>
AAADccBwOAAAAAAAAAAAAAAAAAAAASAAAAAAAAAAAAAAAAAAAAAAGgAACAAACBSggAIACAAABgAIAICQCAIAAAAAAAAAAAFAAAAAABIIAAQCQAAEAAAAAAGL7KzAAAAAAAAAAAAAAAAAAAAAAAAAAAAAAA==
> <PUBCHEM_IUPAC_OPENEYE_NAME>
2,4-dioxo-4-tetrahydrofuran-2-yl-butanoic acid
> <PUBCHEM_IUPAC_CAS_NAME>
2,4-dioxo-4-(2-oxolanyl)butanoic acid
> <PUBCHEM_IUPAC_NAME_MARKUP>
2,4-dioxo-4-(oxolan-2-yl)butanoic acid
> <PUBCHEM_IUPAC_NAME>
2,4-dioxo-4-(oxolan-2-yl)butanoic acid
> <PUBCHEM_IUPAC_SYSTEMATIC_NAME>
2,4-bis(oxidanylidene)-4-(oxolan-2-yl)butanoic acid
> <PUBCHEM_IUPAC_TRADITIONAL_NAME>
2,4-diketo-4-(tetrahydrofuryl)butyric acid
> <PUBCHEM_IUPAC_INCHI>
InChI=1S/C8H10O5/c9-5(4-6(10)8(11)12)7-2-1-3-13-7/h7H,1-4H2,(H,11,12)
> <PUBCHEM_IUPAC_INCHIKEY>
SSFPUTOWTOWUAG-UHFFFAOYSA-N
> <PUBCHEM_XLOGP3_AA>
-0.1
> <PUBCHEM_EXACT_MASS>
186.05282342
> <PUBCHEM_MOLECULAR_FORMULA>
C8H10O5
> <PUBCHEM_MOLECULAR_WEIGHT>
186.16
> <PUBCHEM_OPENEYE_CAN_SMILES>
C1CC(OC1)C(=O)CC(=O)C(=O)O
> <PUBCHEM_OPENEYE_ISO_SMILES>
C1CC(OC1)C(=O)CC(=O)C(=O)O
> <PUBCHEM_CACTVS_TPSA>
80.7
> <PUBCHEM_MONOISOTOPIC_WEIGHT>
186.05282342
> <PUBCHEM_TOTAL_CHARGE>
0
> <PUBCHEM_HEAVY_ATOM_COUNT>
13
> <PUBCHEM_ATOM_DEF_STEREO_COUNT>
0
> <PUBCHEM_ATOM_UDEF_STEREO_COUNT>
1
> <PUBCHEM_BOND_DEF_STEREO_COUNT>
0
> <PUBCHEM_BOND_UDEF_STEREO_COUNT>
0
> <PUBCHEM_ISOTOPIC_ATOM_COUNT>
0
> <PUBCHEM_COMPONENT_COUNT>
1
> <PUBCHEM_CACTVS_TAUTO_COUNT>
-1
> <PUBCHEM_COORDINATE_TYPE>
1
5
255
> <PUBCHEM_BONDANNOTATIONS>
6  10  3
$$$$
