516662
  -OEChem-10302200282D
119124  0     1  0  0  0  0  0999 V2000
   16.5434    9.0547    0.0000 O   0  0  0  0  0  0  0  0  0  0  0  0
    5.4141  -10.2218    0.0000 O   0  0  0  0  0  0  0  0  0  0  0  0
   16.5434    7.4453    0.0000 O   0  0  0  0  0  0  0  0  0  0  0  0
    6.8079   -9.4171    0.0000 O   0  0  0  0  0  0  0  0  0  0  0  0
   13.8651    7.7500    0.0000 O   0  0  0  0  0  0  0  0  0  0  0  0
    5.2049   -7.2500    0.0000 O   0  0  0  0  0  0  0  0  0  0  0  0
   14.5219   10.2218    0.0000 O   0  0  0  0  0  0  0  0  0  0  0  0
    3.3926   -9.0547    0.0000 O   0  0  0  0  0  0  0  0  0  0  0  0
   13.1281    9.4171    0.0000 O   0  0  0  0  0  0  0  0  0  0  0  0
    3.3926   -7.4453    0.0000 O   0  0  0  0  0  0  0  0  0  0  0  0
   13.8651    5.7500    0.0000 O   0  0  0  0  0  0  0  0  0  0  0  0
    6.9369   -6.2500    0.0000 O   0  0  0  0  0  0  0  0  0  0  0  0
   12.1331    4.7500    0.0000 O   0  0  0  0  0  0  0  0  0  0  0  0
    6.9369   -4.2500    0.0000 O   0  0  0  0  0  0  0  0  0  0  0  0
    8.6690   -4.2500    0.0000 N   0  0  0  0  0  0  0  0  0  0  0  0
   12.1331    2.7500    0.0000 N   0  0  0  0  0  0  0  0  0  0  0  0
   15.5972    8.7500    0.0000 C   0  0  1  0  0  0  0  0  0  0  0  0
    5.2049   -9.2500    0.0000 C   0  0  1  0  0  0  0  0  0  0  0  0
   15.5972    7.7500    0.0000 C   0  0  2  0  0  0  0  0  0  0  0  0
    6.0709   -8.7500    0.0000 C   0  0  2  0  0  0  0  0  0  0  0  0
   14.7312    9.2500    0.0000 C   0  0  2  0  0  0  0  0  0  0  0  0
    4.3388   -8.7500    0.0000 C   0  0  2  0  0  0  0  0  0  0  0  0
   13.8651    8.7500    0.0000 C   0  0  2  0  0  0  0  0  0  0  0  0
   14.7312    7.2500    0.0000 C   0  0  3  0  0  0  0  0  0  0  0  0
    4.3388   -7.7500    0.0000 C   0  0  2  0  0  0  0  0  0  0  0  0
    6.0709   -7.7500    0.0000 C   0  0  3  0  0  0  0  0  0  0  0  0
   17.1270    8.2500    0.0000 C   0  0  0  0  0  0  0  0  0  0  0  0
    6.4028  -10.3249    0.0000 C   0  0  0  0  0  0  0  0  0  0  0  0
   13.5332   10.3249    0.0000 C   0  0  0  0  0  0  0  0  0  0  0  0
    2.8090   -8.2500    0.0000 C   0  0  0  0  0  0  0  0  0  0  0  0
   14.7312    6.2500    0.0000 C   0  0  0  0  0  0  0  0  0  0  0  0
    6.9369   -7.2500    0.0000 C   0  0  0  0  0  0  0  0  0  0  0  0
   17.9360    8.8378    0.0000 C   0  0  0  0  0  0  0  0  0  0  0  0
   17.9360    7.6622    0.0000 C   0  0  0  0  0  0  0  0  0  0  0  0
    7.3163  -10.7316    0.0000 C   0  0  0  0  0  0  0  0  0  0  0  0
    6.2983  -11.3194    0.0000 C   0  0  0  0  0  0  0  0  0  0  0  0
   13.6378   11.3194    0.0000 C   0  0  0  0  0  0  0  0  0  0  0  0
   12.6197   10.7316    0.0000 C   0  0  0  0  0  0  0  0  0  0  0  0
    2.0000   -7.6622    0.0000 C   0  0  0  0  0  0  0  0  0  0  0  0
    2.0000   -8.8378    0.0000 C   0  0  0  0  0  0  0  0  0  0  0  0
   13.8651    4.7500    0.0000 C   0  0  0  0  0  0  0  0  0  0  0  0
    7.8030   -5.7500    0.0000 C   0  0  0  0  0  0  0  0  0  0  0  0
   12.9991    4.2500    0.0000 C   0  0  3  0  0  0  0  0  0  0  0  0
    7.8030   -4.7500    0.0000 C   0  0  3  0  0  0  0  0  0  0  0  0
   12.9991    3.2500    0.0000 C   0  0  0  0  0  0  0  0  0  0  0  0
    8.6690   -3.2500    0.0000 C   0  0  0  0  0  0  0  0  0  0  0  0
    9.5350   -2.7500    0.0000 C   0  0  0  0  0  0  0  0  0  0  0  0
   12.1331    1.7500    0.0000 C   0  0  0  0  0  0  0  0  0  0  0  0
    9.5350   -1.7500    0.0000 C   0  0  0  0  0  0  0  0  0  0  0  0
   11.2670    1.2500    0.0000 C   0  0  0  0  0  0  0  0  0  0  0  0
   10.4010   -1.2500    0.0000 C   0  0  0  0  0  0  0  0  0  0  0  0
   11.2670    0.2500    0.0000 C   0  0  0  0  0  0  0  0  0  0  0  0
   10.4010   -0.2500    0.0000 C   0  0  0  0  0  0  0  0  0  0  0  0
   15.6871    9.5952    0.0000 H   0  0  0  0  0  0  0  0  0  0  0  0
    4.5179   -9.7505    0.0000 H   0  0  0  0  0  0  0  0  0  0  0  0
   15.6871    6.9048    0.0000 H   0  0  0  0  0  0  0  0  0  0  0  0
    6.8479   -8.4053    0.0000 H   0  0  0  0  0  0  0  0  0  0  0  0
   15.4182    9.7505    0.0000 H   0  0  0  0  0  0  0  0  0  0  0  0
    4.2489   -9.5952    0.0000 H   0  0  0  0  0  0  0  0  0  0  0  0
   13.0882    8.4053    0.0000 H   0  0  0  0  0  0  0  0  0  0  0  0
   14.1942    6.9400    0.0000 H   0  0  0  0  0  0  0  0  0  0  0  0
    4.2489   -6.9048    0.0000 H   0  0  0  0  0  0  0  0  0  0  0  0
    6.0709   -7.1300    0.0000 H   0  0  0  0  0  0  0  0  0  0  0  0
   14.9432    5.6674    0.0000 H   0  0  0  0  0  0  0  0  0  0  0  0
   15.3417    6.3577    0.0000 H   0  0  0  0  0  0  0  0  0  0  0  0
    7.1490   -7.8326    0.0000 H   0  0  0  0  0  0  0  0  0  0  0  0
    7.5475   -7.1423    0.0000 H   0  0  0  0  0  0  0  0  0  0  0  0
   18.3004    8.3362    0.0000 H   0  0  0  0  0  0  0  0  0  0  0  0
   18.4376    9.2022    0.0000 H   0  0  0  0  0  0  0  0  0  0  0  0
   17.5716    9.3394    0.0000 H   0  0  0  0  0  0  0  0  0  0  0  0
   17.5716    7.1606    0.0000 H   0  0  0  0  0  0  0  0  0  0  0  0
   18.4376    7.2978    0.0000 H   0  0  0  0  0  0  0  0  0  0  0  0
   18.3004    8.1638    0.0000 H   0  0  0  0  0  0  0  0  0  0  0  0
    7.0642  -11.2980    0.0000 H   0  0  0  0  0  0  0  0  0  0  0  0
    7.8827  -10.9838    0.0000 H   0  0  0  0  0  0  0  0  0  0  0  0
    7.5685  -10.1652    0.0000 H   0  0  0  0  0  0  0  0  0  0  0  0
    5.6817  -11.2546    0.0000 H   0  0  0  0  0  0  0  0  0  0  0  0
    6.2335  -11.9360    0.0000 H   0  0  0  0  0  0  0  0  0  0  0  0
    6.9149  -11.3842    0.0000 H   0  0  0  0  0  0  0  0  0  0  0  0
   14.2544   11.2546    0.0000 H   0  0  0  0  0  0  0  0  0  0  0  0
   13.7026   11.9360    0.0000 H   0  0  0  0  0  0  0  0  0  0  0  0
   13.0211   11.3842    0.0000 H   0  0  0  0  0  0  0  0  0  0  0  0
   12.8719   11.2980    0.0000 H   0  0  0  0  0  0  0  0  0  0  0  0
   12.0533   10.9838    0.0000 H   0  0  0  0  0  0  0  0  0  0  0  0
   12.3675   10.1652    0.0000 H   0  0  0  0  0  0  0  0  0  0  0  0
    2.3644   -7.1606    0.0000 H   0  0  0  0  0  0  0  0  0  0  0  0
    1.4984   -7.2978    0.0000 H   0  0  0  0  0  0  0  0  0  0  0  0
    1.6356   -8.1638    0.0000 H   0  0  0  0  0  0  0  0  0  0  0  0
    1.6356   -8.3362    0.0000 H   0  0  0  0  0  0  0  0  0  0  0  0
    1.4984   -9.2022    0.0000 H   0  0  0  0  0  0  0  0  0  0  0  0
    2.3644   -9.3394    0.0000 H   0  0  0  0  0  0  0  0  0  0  0  0
   14.0772    4.1674    0.0000 H   0  0  0  0  0  0  0  0  0  0  0  0
   14.4757    4.8577    0.0000 H   0  0  0  0  0  0  0  0  0  0  0  0
    8.0150   -6.3326    0.0000 H   0  0  0  0  0  0  0  0  0  0  0  0
    8.4135   -5.6423    0.0000 H   0  0  0  0  0  0  0  0  0  0  0  0
   12.4622    3.9400    0.0000 H   0  0  0  0  0  0  0  0  0  0  0  0
    7.8030   -4.1300    0.0000 H   0  0  0  0  0  0  0  0  0  0  0  0
   13.2112    2.6674    0.0000 H   0  0  0  0  0  0  0  0  0  0  0  0
   13.6097    3.3577    0.0000 H   0  0  0  0  0  0  0  0  0  0  0  0
    9.2059   -4.5600    0.0000 H   0  0  0  0  0  0  0  0  0  0  0  0
   12.1331    5.3700    0.0000 H   0  0  0  0  0  0  0  0  0  0  0  0
    8.4569   -2.6674    0.0000 H   0  0  0  0  0  0  0  0  0  0  0  0
    8.0584   -3.3577    0.0000 H   0  0  0  0  0  0  0  0  0  0  0  0
   11.5961    3.0600    0.0000 H   0  0  0  0  0  0  0  0  0  0  0  0
    6.9369   -3.6300    0.0000 H   0  0  0  0  0  0  0  0  0  0  0  0
    9.7470   -3.3326    0.0000 H   0  0  0  0  0  0  0  0  0  0  0  0
   10.1456   -2.6423    0.0000 H   0  0  0  0  0  0  0  0  0  0  0  0
   12.3451    1.1674    0.0000 H   0  0  0  0  0  0  0  0  0  0  0  0
   12.7437    1.8577    0.0000 H   0  0  0  0  0  0  0  0  0  0  0  0
    9.3230   -1.1674    0.0000 H   0  0  0  0  0  0  0  0  0  0  0  0
    8.9244   -1.8577    0.0000 H   0  0  0  0  0  0  0  0  0  0  0  0
   11.0550    1.8326    0.0000 H   0  0  0  0  0  0  0  0  0  0  0  0
   10.6565    1.1423    0.0000 H   0  0  0  0  0  0  0  0  0  0  0  0
   10.6131   -1.8326    0.0000 H   0  0  0  0  0  0  0  0  0  0  0  0
   11.0116   -1.1423    0.0000 H   0  0  0  0  0  0  0  0  0  0  0  0
   11.4791   -0.3326    0.0000 H   0  0  0  0  0  0  0  0  0  0  0  0
   11.8776    0.3577    0.0000 H   0  0  0  0  0  0  0  0  0  0  0  0
   10.1890    0.3326    0.0000 H   0  0  0  0  0  0  0  0  0  0  0  0
    9.7904   -0.3577    0.0000 H   0  0  0  0  0  0  0  0  0  0  0  0
  1 17  1  0  0  0  0
  1 27  1  0  0  0  0
  2 18  1  0  0  0  0
  2 28  1  0  0  0  0
  3 19  1  0  0  0  0
  3 27  1  0  0  0  0
  4 20  1  0  0  0  0
  4 28  1  0  0  0  0
  5 23  1  0  0  0  0
  5 24  1  0  0  0  0
  6 25  1  0  0  0  0
  6 26  1  0  0  0  0
  7 21  1  0  0  0  0
  7 29  1  0  0  0  0
  8 22  1  0  0  0  0
  8 30  1  0  0  0  0
  9 23  1  0  0  0  0
  9 29  1  0  0  0  0
 10 25  1  0  0  0  0
 10 30  1  0  0  0  0
 11 31  1  0  0  0  0
 11 41  1  0  0  0  0
 12 32  1  0  0  0  0
 12 42  1  0  0  0  0
 13 43  1  0  0  0  0
 13101  1  0  0  0  0
 14 44  1  0  0  0  0
 14105  1  0  0  0  0
 15 44  1  0  0  0  0
 15 46  1  0  0  0  0
 15100  1  0  0  0  0
 16 45  1  0  0  0  0
 16 48  1  0  0  0  0
 16104  1  0  0  0  0
 17 19  1  0  0  0  0
 17 21  1  0  0  0  0
 17 54  1  6  0  0  0
 18 20  1  0  0  0  0
 18 22  1  0  0  0  0
 18 55  1  1  0  0  0
 19 24  1  0  0  0  0
 19 56  1  6  0  0  0
 20 26  1  0  0  0  0
 20 57  1  1  0  0  0
 21 23  1  0  0  0  0
 21 58  1  1  0  0  0
 22 25  1  0  0  0  0
 22 59  1  6  0  0  0
 23 60  1  1  0  0  0
 24 31  1  0  0  0  0
 24 61  1  0  0  0  0
 25 62  1  6  0  0  0
 26 32  1  0  0  0  0
 26 63  1  0  0  0  0
 27 33  1  0  0  0  0
 27 34  1  0  0  0  0
 28 35  1  0  0  0  0
 28 36  1  0  0  0  0
 29 37  1  0  0  0  0
 29 38  1  0  0  0  0
 30 39  1  0  0  0  0
 30 40  1  0  0  0  0
 31 64  1  0  0  0  0
 31 65  1  0  0  0  0
 32 66  1  0  0  0  0
 32 67  1  0  0  0  0
 33 68  1  0  0  0  0
 33 69  1  0  0  0  0
 33 70  1  0  0  0  0
 34 71  1  0  0  0  0
 34 72  1  0  0  0  0
 34 73  1  0  0  0  0
 35 74  1  0  0  0  0
 35 75  1  0  0  0  0
 35 76  1  0  0  0  0
 36 77  1  0  0  0  0
 36 78  1  0  0  0  0
 36 79  1  0  0  0  0
 37 80  1  0  0  0  0
 37 81  1  0  0  0  0
 37 82  1  0  0  0  0
 38 83  1  0  0  0  0
 38 84  1  0  0  0  0
 38 85  1  0  0  0  0
 39 86  1  0  0  0  0
 39 87  1  0  0  0  0
 39 88  1  0  0  0  0
 40 89  1  0  0  0  0
 40 90  1  0  0  0  0
 40 91  1  0  0  0  0
 41 43  1  0  0  0  0
 41 92  1  0  0  0  0
 41 93  1  0  0  0  0
 42 44  1  0  0  0  0
 42 94  1  0  0  0  0
 42 95  1  0  0  0  0
 43 45  1  0  0  0  0
 43 96  1  0  0  0  0
 44 97  1  0  0  0  0
 45 98  1  0  0  0  0
 45 99  1  0  0  0  0
 46 47  1  0  0  0  0
 46102  1  0  0  0  0
 46103  1  0  0  0  0
 47 49  1  0  0  0  0
 47106  1  0  0  0  0
 47107  1  0  0  0  0
 48 50  1  0  0  0  0
 48108  1  0  0  0  0
 48109  1  0  0  0  0
 49 51  1  0  0  0  0
 49110  1  0  0  0  0
 49111  1  0  0  0  0
 50 52  1  0  0  0  0
 50112  1  0  0  0  0
 50113  1  0  0  0  0
 51 53  1  0  0  0  0
 51114  1  0  0  0  0
 51115  1  0  0  0  0
 52 53  1  0  0  0  0
 52116  1  0  0  0  0
 52117  1  0  0  0  0
 53118  1  0  0  0  0
 53119  1  0  0  0  0
M  END
> <PUBCHEM_COMPOUND_CID>
516662
> <PUBCHEM_COMPOUND_CANONICALIZED>
1
> <PUBCHEM_CACTVS_COMPLEXITY>
1160
> <PUBCHEM_CACTVS_HBOND_ACCEPTOR>
16
> <PUBCHEM_CACTVS_HBOND_DONOR>
4
> <PUBCHEM_CACTVS_ROTATABLE_BOND>
20
> <PUBCHEM_CACTVS_SUBSKEYS>
AAADcfB/PAAAAAAAAAAAAAAAAAAAASJEiQAkSAAAAAAAAEgAAAAAHgAQCAAACBTxgAcCCALABgAAAAAAAAAAAAAAAAAAAIAIAAETEAIAgAAnAAAHEACXAAHQ4IwAAAAAAAAAAAAAAAAAAAAAAAAAAAAAAA==
> <PUBCHEM_IUPAC_OPENEYE_NAME>
1-[8-[[1-hydroxy-2-[[(1S,2R,6R,9S)-4,4,11,11-tetramethyl-3,5,7,10,12-pentaoxatricyclo[7.3.0.02,6]dodecan-8-yl]methoxy]ethyl]amino]octylamino]-3-[[(1S,2R,6R,9S)-4,4,11,11-tetramethyl-3,5,7,10,12-pentaoxatricyclo[7.3.0.02,6]dodecan-8-yl]methoxy]propan-2-ol
> <PUBCHEM_IUPAC_CAS_NAME>
1-[8-[[1-hydroxy-2-[[(1S,2R,6R,9S)-4,4,11,11-tetramethyl-3,5,7,10,12-pentaoxatricyclo[7.3.0.02,6]dodecan-8-yl]methoxy]ethyl]amino]octylamino]-3-[[(1S,2R,6R,9S)-4,4,11,11-tetramethyl-3,5,7,10,12-pentaoxatricyclo[7.3.0.02,6]dodecan-8-yl]methoxy]-2-propanol
> <PUBCHEM_IUPAC_NAME_MARKUP>
1-[8-[[1-hydroxy-2-[[(1<I>S</I>,2<I>R</I>,6<I>R</I>,9<I>S</I>)-4,4,11,11-tetramethyl-3,5,7,10,12-pentaoxatricyclo[7.3.0.0<SUP>2,6</SUP>]dodecan-8-yl]methoxy]ethyl]amino]octylamino]-3-[[(1<I>S</I>,2<I>R</I>,6<I>R</I>,9<I>S</I>)-4,4,11,11-tetramethyl-3,5,7,10,12-pentaoxatricyclo[7.3.0.0<SUP>2,6</SUP>]dodecan-8-yl]methoxy]propan-2-ol
> <PUBCHEM_IUPAC_NAME>
1-[8-[[1-hydroxy-2-[[(1S,2R,6R,9S)-4,4,11,11-tetramethyl-3,5,7,10,12-pentaoxatricyclo[7.3.0.02,6]dodecan-8-yl]methoxy]ethyl]amino]octylamino]-3-[[(1S,2R,6R,9S)-4,4,11,11-tetramethyl-3,5,7,10,12-pentaoxatricyclo[7.3.0.02,6]dodecan-8-yl]methoxy]propan-2-ol
> <PUBCHEM_IUPAC_SYSTEMATIC_NAME>
1-[8-[[1-oxidanyl-2-[[(1S,2R,6R,9S)-4,4,11,11-tetramethyl-3,5,7,10,12-pentaoxatricyclo[7.3.0.02,6]dodecan-8-yl]methoxy]ethyl]amino]octylamino]-3-[[(1S,2R,6R,9S)-4,4,11,11-tetramethyl-3,5,7,10,12-pentaoxatricyclo[7.3.0.02,6]dodecan-8-yl]methoxy]propan-2-ol
> <PUBCHEM_IUPAC_TRADITIONAL_NAME>
1-[8-[[1-hydroxy-2-[[(1S,2R,6R,9S)-4,4,11,11-tetramethyl-3,5,7,10,12-pentaoxatricyclo[7.3.0.02,6]dodecan-8-yl]methoxy]ethyl]amino]octylamino]-3-[[(1S,2R,6R,9S)-4,4,11,11-tetramethyl-3,5,7,10,12-pentaoxatricyclo[7.3.0.02,6]dodecan-8-yl]methoxy]propan-2-ol
> <PUBCHEM_IUPAC_INCHI>
InChI=1S/C37H66N2O14/c1-34(2)46-26-23(44-32-30(28(26)48-34)50-36(5,6)52-32)19-42-18-22(40)17-38-15-13-11-9-10-12-14-16-39-25(41)21-43-20-24-27-29(49-35(3,4)47-27)31-33(45-24)53-37(7,8)51-31/h22-33,38-41H,9-21H2,1-8H3/t22?,23?,24?,25?,26-,27-,28-,29-,30+,31+,32+,33+/m0/s1
> <PUBCHEM_IUPAC_INCHIKEY>
ACZAGGGZYRVEBP-MOYLIKIDSA-N
> <PUBCHEM_XLOGP3_AA>
1.3
> <PUBCHEM_EXACT_MASS>
762.45140478
> <PUBCHEM_MOLECULAR_FORMULA>
C37H66N2O14
> <PUBCHEM_MOLECULAR_WEIGHT>
762.9
> <PUBCHEM_OPENEYE_CAN_SMILES>
CC1(OC2C(OC3C(C2O1)OC(O3)(C)C)COCC(CNCCCCCCCCNC(COCC4C5C(C6C(O4)OC(O6)(C)C)OC(O5)(C)C)O)O)C
> <PUBCHEM_OPENEYE_ISO_SMILES>
CC1(O[C@@H]2[C@@H]3[C@H](OC([C@@H]2O1)COCC(CNCCCCCCCCNC(COCC4[C@H]5[C@@H]([C@@H]6[C@H](O4)OC(O6)(C)C)OC(O5)(C)C)O)O)OC(O3)(C)C)C
> <PUBCHEM_CACTVS_TPSA>
175
> <PUBCHEM_MONOISOTOPIC_WEIGHT>
762.45140478
> <PUBCHEM_TOTAL_CHARGE>
0
> <PUBCHEM_HEAVY_ATOM_COUNT>
53
> <PUBCHEM_ATOM_DEF_STEREO_COUNT>
8
> <PUBCHEM_ATOM_UDEF_STEREO_COUNT>
4
> <PUBCHEM_BOND_DEF_STEREO_COUNT>
0
> <PUBCHEM_BOND_UDEF_STEREO_COUNT>
0
> <PUBCHEM_ISOTOPIC_ATOM_COUNT>
0
> <PUBCHEM_COMPONENT_COUNT>
1
> <PUBCHEM_CACTVS_TAUTO_COUNT>
-1
> <PUBCHEM_COORDINATE_TYPE>
1
5
255
> <PUBCHEM_BONDANNOTATIONS>
43  13  3
44  14  3
17  54  6
18  55  5
19  56  6
20  57  5
21  58  5
22  59  6
23  60  5
24  31  3
25  62  6
26  32  3
$$$$
