516664
  -OEChem-10302200282D
128133  0     1  0  0  0  0  0999 V2000
   17.1200   10.9718    0.0000 O   0  0  0  0  0  0  0  0  0  0  0  0
    5.4141  -10.9718    0.0000 O   0  0  0  0  0  0  0  0  0  0  0  0
   15.7262   10.1671    0.0000 O   0  0  0  0  0  0  0  0  0  0  0  0
    6.8079  -10.1671    0.0000 O   0  0  0  0  0  0  0  0  0  0  0  0
   17.3292    8.0000    0.0000 O   0  0  0  0  0  0  0  0  0  0  0  0
    5.2049   -8.0000    0.0000 O   0  0  0  0  0  0  0  0  0  0  0  0
   19.1415    9.8047    0.0000 O   0  0  0  0  0  0  0  0  0  0  0  0
    3.3926   -9.8047    0.0000 O   0  0  0  0  0  0  0  0  0  0  0  0
   19.1415    8.1953    0.0000 O   0  0  0  0  0  0  0  0  0  0  0  0
    3.3926   -8.1953    0.0000 O   0  0  0  0  0  0  0  0  0  0  0  0
   15.5972    7.0000    0.0000 O   0  0  0  0  0  0  0  0  0  0  0  0
    6.9369   -7.0000    0.0000 O   0  0  0  0  0  0  0  0  0  0  0  0
   15.5972    5.0000    0.0000 O   0  0  0  0  0  0  0  0  0  0  0  0
    6.9369   -5.0000    0.0000 O   0  0  0  0  0  0  0  0  0  0  0  0
    8.6690   -5.0000    0.0000 N   0  0  0  0  0  0  0  0  0  0  0  0
   13.8651    4.0000    0.0000 N   0  0  0  0  0  0  0  0  0  0  0  0
   17.3292   10.0000    0.0000 C   0  0  1  0  0  0  0  0  0  0  0  0
    5.2049  -10.0000    0.0000 C   0  0  1  0  0  0  0  0  0  0  0  0
   16.4632    9.5000    0.0000 C   0  0  2  0  0  0  0  0  0  0  0  0
    6.0709   -9.5000    0.0000 C   0  0  2  0  0  0  0  0  0  0  0  0
   18.1953    9.5000    0.0000 C   0  0  2  0  0  0  0  0  0  0  0  0
    4.3388   -9.5000    0.0000 C   0  0  2  0  0  0  0  0  0  0  0  0
   18.1953    8.5000    0.0000 C   0  0  2  0  0  0  0  0  0  0  0  0
   16.4632    8.5000    0.0000 C   0  0  3  0  0  0  0  0  0  0  0  0
    4.3388   -8.5000    0.0000 C   0  0  2  0  0  0  0  0  0  0  0  0
    6.0709   -8.5000    0.0000 C   0  0  3  0  0  0  0  0  0  0  0  0
   16.1313   11.0749    0.0000 C   0  0  0  0  0  0  0  0  0  0  0  0
    6.4028  -11.0749    0.0000 C   0  0  0  0  0  0  0  0  0  0  0  0
   19.7251    9.0000    0.0000 C   0  0  0  0  0  0  0  0  0  0  0  0
    2.8090   -9.0000    0.0000 C   0  0  0  0  0  0  0  0  0  0  0  0
   15.5972    8.0000    0.0000 C   0  0  0  0  0  0  0  0  0  0  0  0
    6.9369   -8.0000    0.0000 C   0  0  0  0  0  0  0  0  0  0  0  0
   16.2358   12.0694    0.0000 C   0  0  0  0  0  0  0  0  0  0  0  0
   15.2178   11.4816    0.0000 C   0  0  0  0  0  0  0  0  0  0  0  0
    7.3163  -11.4816    0.0000 C   0  0  0  0  0  0  0  0  0  0  0  0
    6.2983  -12.0694    0.0000 C   0  0  0  0  0  0  0  0  0  0  0  0
   20.5341    9.5878    0.0000 C   0  0  0  0  0  0  0  0  0  0  0  0
   20.5341    8.4122    0.0000 C   0  0  0  0  0  0  0  0  0  0  0  0
    2.0000   -8.4122    0.0000 C   0  0  0  0  0  0  0  0  0  0  0  0
    2.0000   -9.5878    0.0000 C   0  0  0  0  0  0  0  0  0  0  0  0
   14.7312    6.5000    0.0000 C   0  0  0  0  0  0  0  0  0  0  0  0
    7.8030   -6.5000    0.0000 C   0  0  0  0  0  0  0  0  0  0  0  0
   14.7312    5.5000    0.0000 C   0  0  3  0  0  0  0  0  0  0  0  0
    7.8030   -5.5000    0.0000 C   0  0  3  0  0  0  0  0  0  0  0  0
   13.8651    5.0000    0.0000 C   0  0  0  0  0  0  0  0  0  0  0  0
    8.6690   -4.0000    0.0000 C   0  0  0  0  0  0  0  0  0  0  0  0
    9.5350   -3.5000    0.0000 C   0  0  0  0  0  0  0  0  0  0  0  0
   12.9991    3.5000    0.0000 C   0  0  0  0  0  0  0  0  0  0  0  0
    9.5350   -2.5000    0.0000 C   0  0  0  0  0  0  0  0  0  0  0  0
   12.9991    2.5000    0.0000 C   0  0  0  0  0  0  0  0  0  0  0  0
   10.4010   -2.0000    0.0000 C   0  0  0  0  0  0  0  0  0  0  0  0
   12.1331    2.0000    0.0000 C   0  0  0  0  0  0  0  0  0  0  0  0
   10.4010   -1.0000    0.0000 C   0  0  0  0  0  0  0  0  0  0  0  0
   12.1331    1.0000    0.0000 C   0  0  0  0  0  0  0  0  0  0  0  0
   11.2670   -0.5000    0.0000 C   0  0  0  0  0  0  0  0  0  0  0  0
   11.2670    0.5000    0.0000 C   0  0  0  0  0  0  0  0  0  0  0  0
   18.0162   10.5005    0.0000 H   0  0  0  0  0  0  0  0  0  0  0  0
    4.5179  -10.5005    0.0000 H   0  0  0  0  0  0  0  0  0  0  0  0
   15.6862    9.1553    0.0000 H   0  0  0  0  0  0  0  0  0  0  0  0
    6.8479   -9.1553    0.0000 H   0  0  0  0  0  0  0  0  0  0  0  0
   18.2852   10.3452    0.0000 H   0  0  0  0  0  0  0  0  0  0  0  0
    4.2489  -10.3452    0.0000 H   0  0  0  0  0  0  0  0  0  0  0  0
   18.2852    7.6548    0.0000 H   0  0  0  0  0  0  0  0  0  0  0  0
   16.4632    7.8800    0.0000 H   0  0  0  0  0  0  0  0  0  0  0  0
    4.2489   -7.6548    0.0000 H   0  0  0  0  0  0  0  0  0  0  0  0
    6.0709   -7.8800    0.0000 H   0  0  0  0  0  0  0  0  0  0  0  0
   15.3851    8.5826    0.0000 H   0  0  0  0  0  0  0  0  0  0  0  0
   14.9866    7.8923    0.0000 H   0  0  0  0  0  0  0  0  0  0  0  0
    7.1490   -8.5826    0.0000 H   0  0  0  0  0  0  0  0  0  0  0  0
    7.5475   -7.8923    0.0000 H   0  0  0  0  0  0  0  0  0  0  0  0
   16.8524   12.0046    0.0000 H   0  0  0  0  0  0  0  0  0  0  0  0
   16.3006   12.6860    0.0000 H   0  0  0  0  0  0  0  0  0  0  0  0
   15.6192   12.1342    0.0000 H   0  0  0  0  0  0  0  0  0  0  0  0
   15.4699   12.0480    0.0000 H   0  0  0  0  0  0  0  0  0  0  0  0
   14.6514   11.7338    0.0000 H   0  0  0  0  0  0  0  0  0  0  0  0
   14.9656   10.9152    0.0000 H   0  0  0  0  0  0  0  0  0  0  0  0
    7.0642  -12.0480    0.0000 H   0  0  0  0  0  0  0  0  0  0  0  0
    7.8827  -11.7338    0.0000 H   0  0  0  0  0  0  0  0  0  0  0  0
    7.5685  -10.9152    0.0000 H   0  0  0  0  0  0  0  0  0  0  0  0
    5.6817  -12.0046    0.0000 H   0  0  0  0  0  0  0  0  0  0  0  0
    6.2335  -12.6860    0.0000 H   0  0  0  0  0  0  0  0  0  0  0  0
    6.9149  -12.1342    0.0000 H   0  0  0  0  0  0  0  0  0  0  0  0
   20.8985    9.0862    0.0000 H   0  0  0  0  0  0  0  0  0  0  0  0
   21.0357    9.9522    0.0000 H   0  0  0  0  0  0  0  0  0  0  0  0
   20.1697   10.0894    0.0000 H   0  0  0  0  0  0  0  0  0  0  0  0
   20.1697    7.9106    0.0000 H   0  0  0  0  0  0  0  0  0  0  0  0
   21.0357    8.0478    0.0000 H   0  0  0  0  0  0  0  0  0  0  0  0
   20.8985    8.9138    0.0000 H   0  0  0  0  0  0  0  0  0  0  0  0
    2.3644   -7.9106    0.0000 H   0  0  0  0  0  0  0  0  0  0  0  0
    1.4984   -8.0478    0.0000 H   0  0  0  0  0  0  0  0  0  0  0  0
    1.6356   -8.9138    0.0000 H   0  0  0  0  0  0  0  0  0  0  0  0
    1.6356   -9.0862    0.0000 H   0  0  0  0  0  0  0  0  0  0  0  0
    1.4984   -9.9522    0.0000 H   0  0  0  0  0  0  0  0  0  0  0  0
    2.3644  -10.0894    0.0000 H   0  0  0  0  0  0  0  0  0  0  0  0
   14.5191    7.0826    0.0000 H   0  0  0  0  0  0  0  0  0  0  0  0
   14.1206    6.3923    0.0000 H   0  0  0  0  0  0  0  0  0  0  0  0
    8.0150   -7.0826    0.0000 H   0  0  0  0  0  0  0  0  0  0  0  0
    8.4135   -6.3923    0.0000 H   0  0  0  0  0  0  0  0  0  0  0  0
   14.7312    4.8800    0.0000 H   0  0  0  0  0  0  0  0  0  0  0  0
    7.8030   -4.8800    0.0000 H   0  0  0  0  0  0  0  0  0  0  0  0
   13.6531    5.5826    0.0000 H   0  0  0  0  0  0  0  0  0  0  0  0
   13.2545    4.8923    0.0000 H   0  0  0  0  0  0  0  0  0  0  0  0
    9.2059   -5.3100    0.0000 H   0  0  0  0  0  0  0  0  0  0  0  0
   16.1341    5.3100    0.0000 H   0  0  0  0  0  0  0  0  0  0  0  0
    8.4569   -3.4174    0.0000 H   0  0  0  0  0  0  0  0  0  0  0  0
    8.0584   -4.1077    0.0000 H   0  0  0  0  0  0  0  0  0  0  0  0
   14.4021    3.6900    0.0000 H   0  0  0  0  0  0  0  0  0  0  0  0
    6.9369   -4.3800    0.0000 H   0  0  0  0  0  0  0  0  0  0  0  0
    9.7470   -4.0826    0.0000 H   0  0  0  0  0  0  0  0  0  0  0  0
   10.1456   -3.3923    0.0000 H   0  0  0  0  0  0  0  0  0  0  0  0
   12.7870    4.0826    0.0000 H   0  0  0  0  0  0  0  0  0  0  0  0
   12.3885    3.3923    0.0000 H   0  0  0  0  0  0  0  0  0  0  0  0
    9.3230   -1.9174    0.0000 H   0  0  0  0  0  0  0  0  0  0  0  0
    8.9244   -2.6077    0.0000 H   0  0  0  0  0  0  0  0  0  0  0  0
   13.2112    1.9174    0.0000 H   0  0  0  0  0  0  0  0  0  0  0  0
   13.6097    2.6077    0.0000 H   0  0  0  0  0  0  0  0  0  0  0  0
   10.6131   -2.5826    0.0000 H   0  0  0  0  0  0  0  0  0  0  0  0
   11.0116   -1.8923    0.0000 H   0  0  0  0  0  0  0  0  0  0  0  0
   11.9210    2.5826    0.0000 H   0  0  0  0  0  0  0  0  0  0  0  0
   11.5225    1.8923    0.0000 H   0  0  0  0  0  0  0  0  0  0  0  0
   10.1890   -0.4174    0.0000 H   0  0  0  0  0  0  0  0  0  0  0  0
    9.7904   -1.1077    0.0000 H   0  0  0  0  0  0  0  0  0  0  0  0
   12.3451    0.4174    0.0000 H   0  0  0  0  0  0  0  0  0  0  0  0
   12.7437    1.1077    0.0000 H   0  0  0  0  0  0  0  0  0  0  0  0
   11.4791   -1.0826    0.0000 H   0  0  0  0  0  0  0  0  0  0  0  0
   11.8776   -0.3923    0.0000 H   0  0  0  0  0  0  0  0  0  0  0  0
   11.0550    1.0826    0.0000 H   0  0  0  0  0  0  0  0  0  0  0  0
   10.6565    0.3923    0.0000 H   0  0  0  0  0  0  0  0  0  0  0  0
  1 17  1  0  0  0  0
  1 27  1  0  0  0  0
  2 18  1  0  0  0  0
  2 28  1  0  0  0  0
  3 19  1  0  0  0  0
  3 27  1  0  0  0  0
  4 20  1  0  0  0  0
  4 28  1  0  0  0  0
  5 23  1  0  0  0  0
  5 24  1  0  0  0  0
  6 25  1  0  0  0  0
  6 26  1  0  0  0  0
  7 21  1  0  0  0  0
  7 29  1  0  0  0  0
  8 22  1  0  0  0  0
  8 30  1  0  0  0  0
  9 23  1  0  0  0  0
  9 29  1  0  0  0  0
 10 25  1  0  0  0  0
 10 30  1  0  0  0  0
 11 31  1  0  0  0  0
 11 41  1  0  0  0  0
 12 32  1  0  0  0  0
 12 42  1  0  0  0  0
 13 43  1  0  0  0  0
 13104  1  0  0  0  0
 14 44  1  0  0  0  0
 14108  1  0  0  0  0
 15 44  1  0  0  0  0
 15 46  1  0  0  0  0
 15103  1  0  0  0  0
 16 45  1  0  0  0  0
 16 48  1  0  0  0  0
 16107  1  0  0  0  0
 17 19  1  0  0  0  0
 17 21  1  0  0  0  0
 17 57  1  1  0  0  0
 18 20  1  0  0  0  0
 18 22  1  0  0  0  0
 18 58  1  1  0  0  0
 19 24  1  0  0  0  0
 19 59  1  1  0  0  0
 20 26  1  0  0  0  0
 20 60  1  1  0  0  0
 21 23  1  0  0  0  0
 21 61  1  6  0  0  0
 22 25  1  0  0  0  0
 22 62  1  6  0  0  0
 23 63  1  6  0  0  0
 24 31  1  0  0  0  0
 24 64  1  0  0  0  0
 25 65  1  6  0  0  0
 26 32  1  0  0  0  0
 26 66  1  0  0  0  0
 27 33  1  0  0  0  0
 27 34  1  0  0  0  0
 28 35  1  0  0  0  0
 28 36  1  0  0  0  0
 29 37  1  0  0  0  0
 29 38  1  0  0  0  0
 30 39  1  0  0  0  0
 30 40  1  0  0  0  0
 31 67  1  0  0  0  0
 31 68  1  0  0  0  0
 32 69  1  0  0  0  0
 32 70  1  0  0  0  0
 33 71  1  0  0  0  0
 33 72  1  0  0  0  0
 33 73  1  0  0  0  0
 34 74  1  0  0  0  0
 34 75  1  0  0  0  0
 34 76  1  0  0  0  0
 35 77  1  0  0  0  0
 35 78  1  0  0  0  0
 35 79  1  0  0  0  0
 36 80  1  0  0  0  0
 36 81  1  0  0  0  0
 36 82  1  0  0  0  0
 37 83  1  0  0  0  0
 37 84  1  0  0  0  0
 37 85  1  0  0  0  0
 38 86  1  0  0  0  0
 38 87  1  0  0  0  0
 38 88  1  0  0  0  0
 39 89  1  0  0  0  0
 39 90  1  0  0  0  0
 39 91  1  0  0  0  0
 40 92  1  0  0  0  0
 40 93  1  0  0  0  0
 40 94  1  0  0  0  0
 41 43  1  0  0  0  0
 41 95  1  0  0  0  0
 41 96  1  0  0  0  0
 42 44  1  0  0  0  0
 42 97  1  0  0  0  0
 42 98  1  0  0  0  0
 43 45  1  0  0  0  0
 43 99  1  0  0  0  0
 44100  1  0  0  0  0
 45101  1  0  0  0  0
 45102  1  0  0  0  0
 46 47  1  0  0  0  0
 46105  1  0  0  0  0
 46106  1  0  0  0  0
 47 49  1  0  0  0  0
 47109  1  0  0  0  0
 47110  1  0  0  0  0
 48 50  1  0  0  0  0
 48111  1  0  0  0  0
 48112  1  0  0  0  0
 49 51  1  0  0  0  0
 49113  1  0  0  0  0
 49114  1  0  0  0  0
 50 52  1  0  0  0  0
 50115  1  0  0  0  0
 50116  1  0  0  0  0
 51 53  1  0  0  0  0
 51117  1  0  0  0  0
 51118  1  0  0  0  0
 52 54  1  0  0  0  0
 52119  1  0  0  0  0
 52120  1  0  0  0  0
 53 55  1  0  0  0  0
 53121  1  0  0  0  0
 53122  1  0  0  0  0
 54 56  1  0  0  0  0
 54123  1  0  0  0  0
 54124  1  0  0  0  0
 55 56  1  0  0  0  0
 55125  1  0  0  0  0
 55126  1  0  0  0  0
 56127  1  0  0  0  0
 56128  1  0  0  0  0
M  END
> <PUBCHEM_COMPOUND_CID>
516664
> <PUBCHEM_COMPOUND_CANONICALIZED>
1
> <PUBCHEM_CACTVS_COMPLEXITY>
1210
> <PUBCHEM_CACTVS_HBOND_ACCEPTOR>
16
> <PUBCHEM_CACTVS_HBOND_DONOR>
4
> <PUBCHEM_CACTVS_ROTATABLE_BOND>
23
> <PUBCHEM_CACTVS_SUBSKEYS>
AAADcfB/PAAAAAAAAAAAAAAAAAAAASJEiQAkSAAAAAAAAEgAAAAAHgAQCAAACBTxgAcCCALABgAAAAAAAAAAAAAAAAAAAIAIAAETEAIAgAAnAAAHEACXAAHQ4IwAAAAAAAAAAAAAAAAAAAAAAAAAAAAAAA==
> <PUBCHEM_IUPAC_OPENEYE_NAME>
1-[11-[[1-hydroxy-2-[[(1S,2R,6R,9S)-4,4,11,11-tetramethyl-3,5,7,10,12-pentaoxatricyclo[7.3.0.02,6]dodecan-8-yl]methoxy]ethyl]amino]undecylamino]-3-[[(1S,2R,6R,9S)-4,4,11,11-tetramethyl-3,5,7,10,12-pentaoxatricyclo[7.3.0.02,6]dodecan-8-yl]methoxy]propan-2-ol
> <PUBCHEM_IUPAC_CAS_NAME>
1-[11-[[1-hydroxy-2-[[(1S,2R,6R,9S)-4,4,11,11-tetramethyl-3,5,7,10,12-pentaoxatricyclo[7.3.0.02,6]dodecan-8-yl]methoxy]ethyl]amino]undecylamino]-3-[[(1S,2R,6R,9S)-4,4,11,11-tetramethyl-3,5,7,10,12-pentaoxatricyclo[7.3.0.02,6]dodecan-8-yl]methoxy]-2-propanol
> <PUBCHEM_IUPAC_NAME_MARKUP>
1-[11-[[1-hydroxy-2-[[(1<I>S</I>,2<I>R</I>,6<I>R</I>,9<I>S</I>)-4,4,11,11-tetramethyl-3,5,7,10,12-pentaoxatricyclo[7.3.0.0<SUP>2,6</SUP>]dodecan-8-yl]methoxy]ethyl]amino]undecylamino]-3-[[(1<I>S</I>,2<I>R</I>,6<I>R</I>,9<I>S</I>)-4,4,11,11-tetramethyl-3,5,7,10,12-pentaoxatricyclo[7.3.0.0<SUP>2,6</SUP>]dodecan-8-yl]methoxy]propan-2-ol
> <PUBCHEM_IUPAC_NAME>
1-[11-[[1-hydroxy-2-[[(1S,2R,6R,9S)-4,4,11,11-tetramethyl-3,5,7,10,12-pentaoxatricyclo[7.3.0.02,6]dodecan-8-yl]methoxy]ethyl]amino]undecylamino]-3-[[(1S,2R,6R,9S)-4,4,11,11-tetramethyl-3,5,7,10,12-pentaoxatricyclo[7.3.0.02,6]dodecan-8-yl]methoxy]propan-2-ol
> <PUBCHEM_IUPAC_SYSTEMATIC_NAME>
1-[11-[[1-oxidanyl-2-[[(1S,2R,6R,9S)-4,4,11,11-tetramethyl-3,5,7,10,12-pentaoxatricyclo[7.3.0.02,6]dodecan-8-yl]methoxy]ethyl]amino]undecylamino]-3-[[(1S,2R,6R,9S)-4,4,11,11-tetramethyl-3,5,7,10,12-pentaoxatricyclo[7.3.0.02,6]dodecan-8-yl]methoxy]propan-2-ol
> <PUBCHEM_IUPAC_TRADITIONAL_NAME>
1-[11-[[1-hydroxy-2-[[(1S,2R,6R,9S)-4,4,11,11-tetramethyl-3,5,7,10,12-pentaoxatricyclo[7.3.0.02,6]dodecan-8-yl]methoxy]ethyl]amino]undecylamino]-3-[[(1S,2R,6R,9S)-4,4,11,11-tetramethyl-3,5,7,10,12-pentaoxatricyclo[7.3.0.02,6]dodecan-8-yl]methoxy]propan-2-ol
> <PUBCHEM_IUPAC_INCHI>
InChI=1S/C40H72N2O14/c1-37(2)49-29-26(47-35-33(31(29)51-37)53-39(5,6)55-35)22-45-21-25(43)20-41-18-16-14-12-10-9-11-13-15-17-19-42-28(44)24-46-23-27-30-32(52-38(3,4)50-30)34-36(48-27)56-40(7,8)54-34/h25-36,41-44H,9-24H2,1-8H3/t25?,26?,27?,28?,29-,30-,31-,32-,33+,34+,35+,36+/m0/s1
> <PUBCHEM_IUPAC_INCHIKEY>
BWQBZGBMXDFSPC-JAYJCOKKSA-N
> <PUBCHEM_XLOGP3_AA>
3
> <PUBCHEM_EXACT_MASS>
804.49835497
> <PUBCHEM_MOLECULAR_FORMULA>
C40H72N2O14
> <PUBCHEM_MOLECULAR_WEIGHT>
805.0
> <PUBCHEM_OPENEYE_CAN_SMILES>
CC1(OC2C(OC3C(C2O1)OC(O3)(C)C)COCC(CNCCCCCCCCCCCNC(COCC4C5C(C6C(O4)OC(O6)(C)C)OC(O5)(C)C)O)O)C
> <PUBCHEM_OPENEYE_ISO_SMILES>
CC1(O[C@@H]2[C@@H]3[C@H](OC([C@@H]2O1)COCC(CNCCCCCCCCCCCNC(COCC4[C@H]5[C@@H]([C@@H]6[C@H](O4)OC(O6)(C)C)OC(O5)(C)C)O)O)OC(O3)(C)C)C
> <PUBCHEM_CACTVS_TPSA>
175
> <PUBCHEM_MONOISOTOPIC_WEIGHT>
804.49835497
> <PUBCHEM_TOTAL_CHARGE>
0
> <PUBCHEM_HEAVY_ATOM_COUNT>
56
> <PUBCHEM_ATOM_DEF_STEREO_COUNT>
8
> <PUBCHEM_ATOM_UDEF_STEREO_COUNT>
4
> <PUBCHEM_BOND_DEF_STEREO_COUNT>
0
> <PUBCHEM_BOND_UDEF_STEREO_COUNT>
0
> <PUBCHEM_ISOTOPIC_ATOM_COUNT>
0
> <PUBCHEM_COMPONENT_COUNT>
1
> <PUBCHEM_CACTVS_TAUTO_COUNT>
-1
> <PUBCHEM_COORDINATE_TYPE>
1
5
255
> <PUBCHEM_BONDANNOTATIONS>
43  13  3
44  14  3
17  57  5
18  58  5
19  59  5
20  60  5
21  61  6
22  62  6
23  63  6
24  31  3
25  65  6
26  32  3
$$$$
