516774
  -OEChem-10302200292D
 56 61  0     1  0  0  0  0  0999 V2000
    5.0046    0.4419    0.0000 O   0  0  0  0  0  0  0  0  0  0  0  0
    3.2760    0.3313    0.0000 O   0  0  0  0  0  0  0  0  0  0  0  0
    6.0963   -1.6328    0.0000 C   0  0  3  0  0  0  0  0  0  0  0  0
    7.5892   -1.7113    0.0000 C   0  0  3  0  0  0  0  0  0  0  0  0
    7.4788   -2.7052    0.0000 C   0  0  3  0  0  0  0  0  0  0  0  0
    5.4358   -2.3836    0.0000 C   0  0  3  0  0  0  0  0  0  0  0  0
    5.6600   -3.5910    0.0000 C   0  0  0  0  0  0  0  0  0  0  0  0
    5.0684   -0.5561    0.0000 C   0  0  3  0  0  0  0  0  0  0  0  0
    4.0445    1.8835    0.0000 C   0  0  3  0  0  0  0  0  0  0  0  0
    3.5053    3.3889    0.0000 C   0  0  3  0  0  0  0  0  0  0  0  0
    4.4079   -1.3069    0.0000 C   0  0  0  0  0  0  0  0  0  0  0  0
    4.0670    2.9619    0.0000 C   0  0  3  0  0  0  0  0  0  0  0  0
    8.5633   -1.5129    0.0000 C   0  0  0  0  0  0  0  0  0  0  0  0
    8.3856   -3.1126    0.0000 C   0  0  0  0  0  0  0  0  0  0  0  0
    2.4493    1.9060    0.0000 C   0  0  3  0  0  0  0  0  0  0  0  0
    3.0494    1.3150    0.0000 C   0  0  0  0  0  0  0  0  0  0  0  0
    2.9885    2.6024    0.0000 C   0  0  0  0  0  0  0  0  0  0  0  0
    9.0544   -2.3772    0.0000 C   0  0  0  0  0  0  0  0  0  0  0  0
    2.7864    3.5910    0.0000 C   0  0  0  0  0  0  0  0  0  0  0  0
    5.1158    1.4416    0.0000 C   0  0  0  0  0  0  0  0  0  0  0  0
    2.0000    2.8720    0.0000 C   0  0  0  0  0  0  0  0  0  0  0  0
    4.9882    2.8047    0.0000 C   0  0  0  0  0  0  0  0  0  0  0  0
    4.1084    0.8855    0.0000 C   0  0  0  0  0  0  0  0  0  0  0  0
    5.5723    2.1307    0.0000 C   0  0  0  0  0  0  0  0  0  0  0  0
    6.3551   -1.0694    0.0000 H   0  0  0  0  0  0  0  0  0  0  0  0
    7.5432   -1.0930    0.0000 H   0  0  0  0  0  0  0  0  0  0  0  0
    7.3020   -3.2994    0.0000 H   0  0  0  0  0  0  0  0  0  0  0  0
    5.7234   -1.8343    0.0000 H   0  0  0  0  0  0  0  0  0  0  0  0
    5.1390   -3.9271    0.0000 H   0  0  0  0  0  0  0  0  0  0  0  0
    6.1687   -3.9455    0.0000 H   0  0  0  0  0  0  0  0  0  0  0  0
    5.6363   -0.3072    0.0000 H   0  0  0  0  0  0  0  0  0  0  0  0
    3.7817    3.9438    0.0000 H   0  0  0  0  0  0  0  0  0  0  0  0
    3.9544   -0.8841    0.0000 H   0  0  0  0  0  0  0  0  0  0  0  0
    3.9720   -1.7479    0.0000 H   0  0  0  0  0  0  0  0  0  0  0  0
    4.1143    2.3437    0.0000 H   0  0  0  0  0  0  0  0  0  0  0  0
    9.1315   -1.2649    0.0000 H   0  0  0  0  0  0  0  0  0  0  0  0
    8.3764   -0.9218    0.0000 H   0  0  0  0  0  0  0  0  0  0  0  0
    1.9426    1.5486    0.0000 H   0  0  0  0  0  0  0  0  0  0  0  0
    8.0734   -3.6483    0.0000 H   0  0  0  0  0  0  0  0  0  0  0  0
    8.8855   -3.4792    0.0000 H   0  0  0  0  0  0  0  0  0  0  0  0
    2.5759    0.9148    0.0000 H   0  0  0  0  0  0  0  0  0  0  0  0
    3.4047    0.8070    0.0000 H   0  0  0  0  0  0  0  0  0  0  0  0
    2.9917    3.2224    0.0000 H   0  0  0  0  0  0  0  0  0  0  0  0
    3.3472    2.0967    0.0000 H   0  0  0  0  0  0  0  0  0  0  0  0
    3.0613    4.1467    0.0000 H   0  0  0  0  0  0  0  0  0  0  0  0
    2.2908    3.9637    0.0000 H   0  0  0  0  0  0  0  0  0  0  0  0
    9.4667   -2.8403    0.0000 H   0  0  0  0  0  0  0  0  0  0  0  0
    9.5583   -2.0159    0.0000 H   0  0  0  0  0  0  0  0  0  0  0  0
    4.8428    0.8850    0.0000 H   0  0  0  0  0  0  0  0  0  0  0  0
    5.6537    1.1333    0.0000 H   0  0  0  0  0  0  0  0  0  0  0  0
    1.6303    3.3697    0.0000 H   0  0  0  0  0  0  0  0  0  0  0  0
    1.4673    2.5548    0.0000 H   0  0  0  0  0  0  0  0  0  0  0  0
    5.5544    3.0573    0.0000 H   0  0  0  0  0  0  0  0  0  0  0  0
    4.9107    3.4198    0.0000 H   0  0  0  0  0  0  0  0  0  0  0  0
    6.0561    1.7429    0.0000 H   0  0  0  0  0  0  0  0  0  0  0  0
    6.0022    2.5774    0.0000 H   0  0  0  0  0  0  0  0  0  0  0  0
  1  8  1  0  0  0  0
  1 23  1  0  0  0  0
  2 23  2  0  0  0  0
  3  4  1  0  0  0  0
  3  7  1  0  0  0  0
  3  8  1  0  0  0  0
  3 25  1  0  0  0  0
  4  5  1  0  0  0  0
  4 13  1  0  0  0  0
  4 26  1  0  0  0  0
  5  6  1  0  0  0  0
  5 14  1  0  0  0  0
  5 27  1  0  0  0  0
  6  7  1  0  0  0  0
  6 11  1  0  0  0  0
  6 28  1  0  0  0  0
  7 29  1  0  0  0  0
  7 30  1  0  0  0  0
  8 11  1  0  0  0  0
  8 31  1  0  0  0  0
  9 10  1  0  0  0  0
  9 16  1  0  0  0  0
  9 20  1  0  0  0  0
  9 23  1  0  0  0  0
 10 12  1  0  0  0  0
 10 19  1  0  0  0  0
 10 32  1  0  0  0  0
 11 33  1  0  0  0  0
 11 34  1  0  0  0  0
 12 17  1  0  0  0  0
 12 22  1  0  0  0  0
 12 35  1  0  0  0  0
 13 18  1  0  0  0  0
 13 36  1  0  0  0  0
 13 37  1  0  0  0  0
 14 18  1  0  0  0  0
 14 39  1  0  0  0  0
 14 40  1  0  0  0  0
 15 16  1  0  0  0  0
 15 17  1  0  0  0  0
 15 21  1  0  0  0  0
 15 38  1  0  0  0  0
 16 41  1  0  0  0  0
 16 42  1  0  0  0  0
 17 43  1  0  0  0  0
 17 44  1  0  0  0  0
 18 47  1  0  0  0  0
 18 48  1  0  0  0  0
 19 21  1  0  0  0  0
 19 45  1  0  0  0  0
 19 46  1  0  0  0  0
 20 24  1  0  0  0  0
 20 49  1  0  0  0  0
 20 50  1  0  0  0  0
 21 51  1  0  0  0  0
 21 52  1  0  0  0  0
 22 24  1  0  0  0  0
 22 53  1  0  0  0  0
 22 54  1  0  0  0  0
 24 55  1  0  0  0  0
 24 56  1  0  0  0  0
M  END
> <PUBCHEM_COMPOUND_CID>
516774
> <PUBCHEM_COMPOUND_CANONICALIZED>
1
> <PUBCHEM_CACTVS_COMPLEXITY>
556
> <PUBCHEM_CACTVS_HBOND_ACCEPTOR>
2
> <PUBCHEM_CACTVS_HBOND_DONOR>
0
> <PUBCHEM_CACTVS_ROTATABLE_BOND>
3
> <PUBCHEM_CACTVS_SUBSKEYS>
AAADcfB4MAAAAAAAAAAAAAAAAAAAAYMGAAAwYMGAAAAYMAAAAAAAGgAAAAAADxSggAIACAAABAAIAACQCAAAAAAAAAAAAAEAAAAAABIAAAACAAAEAAAAAAGIyPCPgAAAAAAAAADAAAYAADAAAYAADAAAAA==
> <PUBCHEM_IUPAC_OPENEYE_NAME>
8-tricyclo[5.2.1.02,6]decanyl tricyclo[5.3.1.03,8]undecane-3-carboxylate
> <PUBCHEM_IUPAC_CAS_NAME>
3-tricyclo[5.3.1.03,8]undecanecarboxylic acid 8-tricyclo[5.2.1.02,6]decanyl ester
> <PUBCHEM_IUPAC_NAME_MARKUP>
8-tricyclo[5.2.1.0<SUP>2,6</SUP>]decanyl tricyclo[5.3.1.0<SUP>3,8</SUP>]undecane-3-carboxylate
> <PUBCHEM_IUPAC_NAME>
8-tricyclo[5.2.1.02,6]decanyl tricyclo[5.3.1.03,8]undecane-3-carboxylate
> <PUBCHEM_IUPAC_SYSTEMATIC_NAME>
8-tricyclo[5.2.1.02,6]decanyl tricyclo[5.3.1.03,8]undecane-3-carboxylate
> <PUBCHEM_IUPAC_TRADITIONAL_NAME>
tricyclo[5.3.1.03,8]undecane-3-carboxylic acid 8-tricyclo[5.2.1.02,6]decanyl ester
> <PUBCHEM_IUPAC_INCHI>
InChI=1S/C22H32O2/c23-21(22-8-2-3-14-9-13(12-22)6-7-19(14)22)24-20-11-15-10-18(20)17-5-1-4-16(15)17/h13-20H,1-12H2
> <PUBCHEM_IUPAC_INCHIKEY>
VRLQGELIVJNHMS-UHFFFAOYSA-N
> <PUBCHEM_XLOGP3_AA>
6.2
> <PUBCHEM_EXACT_MASS>
328.240230259
> <PUBCHEM_MOLECULAR_FORMULA>
C22H32O2
> <PUBCHEM_MOLECULAR_WEIGHT>
328.5
> <PUBCHEM_OPENEYE_CAN_SMILES>
C1CC2C(C1)C3CC2CC3OC(=O)C45CCCC6C4CCC(C6)C5
> <PUBCHEM_OPENEYE_ISO_SMILES>
C1CC2C(C1)C3CC2CC3OC(=O)C45CCCC6C4CCC(C6)C5
> <PUBCHEM_CACTVS_TPSA>
26.3
> <PUBCHEM_MONOISOTOPIC_WEIGHT>
328.240230259
> <PUBCHEM_TOTAL_CHARGE>
0
> <PUBCHEM_HEAVY_ATOM_COUNT>
24
> <PUBCHEM_ATOM_DEF_STEREO_COUNT>
0
> <PUBCHEM_ATOM_UDEF_STEREO_COUNT>
9
> <PUBCHEM_BOND_DEF_STEREO_COUNT>
0
> <PUBCHEM_BOND_UDEF_STEREO_COUNT>
0
> <PUBCHEM_ISOTOPIC_ATOM_COUNT>
0
> <PUBCHEM_COMPONENT_COUNT>
1
> <PUBCHEM_CACTVS_TAUTO_COUNT>
-1
> <PUBCHEM_COORDINATE_TYPE>
1
5
255
> <PUBCHEM_BONDANNOTATIONS>
8  1  3
10  19  3
12  22  3
15  21  3
3  7  3
4  13  3
5  14  3
6  7  3
9  23  3
$$$$
