516736
  -OEChem-10302200292D
 42 44  0     1  0  0  0  0  0999 V2000
    5.2628    1.3556    0.0000 O   0  0  0  0  0  0  0  0  0  0  0  0
    5.5416   -0.4045    0.0000 O   0  0  0  0  0  0  0  0  0  0  0  0
    3.9538    0.4045    0.0000 N   0  0  0  0  0  0  0  0  0  0  0  0
    2.8660   -1.9434    0.0000 N   0  0  0  0  0  0  0  0  0  0  0  0
    4.4538    1.9434    0.0000 C   0  0  2  0  0  0  0  0  0  0  0  0
    3.6448    1.3556    0.0000 C   0  0  0  0  0  0  0  0  0  0  0  0
    4.4538    2.9434    0.0000 C   0  0  0  0  0  0  0  0  0  0  0  0
    5.3198    3.4434    0.0000 C   0  0  0  0  0  0  0  0  0  0  0  0
    3.3660   -0.4045    0.0000 C   0  0  0  0  0  0  0  0  0  0  0  0
    4.9538    0.4045    0.0000 C   0  0  0  0  0  0  0  0  0  0  0  0
    3.6750   -1.3556    0.0000 C   0  0  0  0  0  0  0  0  0  0  0  0
    2.3660   -0.4045    0.0000 C   0  0  0  0  0  0  0  0  0  0  0  0
    5.3198    4.4434    0.0000 C   0  0  0  0  0  0  0  0  0  0  0  0
    2.0570   -1.3556    0.0000 C   0  0  0  0  0  0  0  0  0  0  0  0
    2.8660   -2.9434    0.0000 C   0  0  0  0  0  0  0  0  0  0  0  0
    6.1859    4.9434    0.0000 C   0  0  0  0  0  0  0  0  0  0  0  0
    4.4538    4.9434    0.0000 C   0  0  0  0  0  0  0  0  0  0  0  0
    3.7320   -3.4434    0.0000 C   0  0  0  0  0  0  0  0  0  0  0  0
    2.0000   -3.4434    0.0000 C   0  0  0  0  0  0  0  0  0  0  0  0
    3.7320   -4.4434    0.0000 C   0  0  0  0  0  0  0  0  0  0  0  0
    2.0000   -4.4434    0.0000 C   0  0  0  0  0  0  0  0  0  0  0  0
    2.8660   -4.9434    0.0000 C   0  0  0  0  0  0  0  0  0  0  0  0
    5.0062    2.2248    0.0000 H   0  0  0  0  0  0  0  0  0  0  0  0
    3.3348    1.8925    0.0000 H   0  0  0  0  0  0  0  0  0  0  0  0
    3.0784    1.1034    0.0000 H   0  0  0  0  0  0  0  0  0  0  0  0
    4.2418    3.5260    0.0000 H   0  0  0  0  0  0  0  0  0  0  0  0
    3.8432    2.8357    0.0000 H   0  0  0  0  0  0  0  0  0  0  0  0
    5.5319    2.8607    0.0000 H   0  0  0  0  0  0  0  0  0  0  0  0
    5.9304    3.5510    0.0000 H   0  0  0  0  0  0  0  0  0  0  0  0
    4.2647   -1.5472    0.0000 H   0  0  0  0  0  0  0  0  0  0  0  0
    2.0016    0.0971    0.0000 H   0  0  0  0  0  0  0  0  0  0  0  0
    1.4674   -1.5472    0.0000 H   0  0  0  0  0  0  0  0  0  0  0  0
    6.4959    4.4064    0.0000 H   0  0  0  0  0  0  0  0  0  0  0  0
    6.7228    5.2534    0.0000 H   0  0  0  0  0  0  0  0  0  0  0  0
    5.8759    5.4803    0.0000 H   0  0  0  0  0  0  0  0  0  0  0  0
    4.4538    5.5634    0.0000 H   0  0  0  0  0  0  0  0  0  0  0  0
    3.9169    4.6334    0.0000 H   0  0  0  0  0  0  0  0  0  0  0  0
    4.2690   -3.1334    0.0000 H   0  0  0  0  0  0  0  0  0  0  0  0
    1.4631   -3.1334    0.0000 H   0  0  0  0  0  0  0  0  0  0  0  0
    4.2690   -4.7534    0.0000 H   0  0  0  0  0  0  0  0  0  0  0  0
    1.4631   -4.7534    0.0000 H   0  0  0  0  0  0  0  0  0  0  0  0
    2.8660   -5.5634    0.0000 H   0  0  0  0  0  0  0  0  0  0  0  0
  1  5  1  0  0  0  0
  1 10  1  0  0  0  0
  2 10  2  0  0  0  0
  3  6  1  0  0  0  0
  3  9  1  0  0  0  0
  3 10  1  0  0  0  0
  4 11  1  0  0  0  0
  4 14  1  0  0  0  0
  4 15  1  0  0  0  0
  5  6  1  0  0  0  0
  5  7  1  6  0  0  0
  5 23  1  0  0  0  0
  6 24  1  0  0  0  0
  6 25  1  0  0  0  0
  7  8  1  0  0  0  0
  7 26  1  0  0  0  0
  7 27  1  0  0  0  0
  8 13  1  0  0  0  0
  8 28  1  0  0  0  0
  8 29  1  0  0  0  0
  9 11  2  0  0  0  0
  9 12  1  0  0  0  0
 11 30  1  0  0  0  0
 12 14  2  0  0  0  0
 12 31  1  0  0  0  0
 13 16  1  0  0  0  0
 13 17  2  0  0  0  0
 14 32  1  0  0  0  0
 15 18  2  0  0  0  0
 15 19  1  0  0  0  0
 16 33  1  0  0  0  0
 16 34  1  0  0  0  0
 16 35  1  0  0  0  0
 17 36  1  0  0  0  0
 17 37  1  0  0  0  0
 18 20  1  0  0  0  0
 18 38  1  0  0  0  0
 19 21  2  0  0  0  0
 19 39  1  0  0  0  0
 20 22  2  0  0  0  0
 20 40  1  0  0  0  0
 21 22  1  0  0  0  0
 21 41  1  0  0  0  0
 22 42  1  0  0  0  0
M  END
> <PUBCHEM_COMPOUND_CID>
516736
> <PUBCHEM_COMPOUND_CANONICALIZED>
1
> <PUBCHEM_CACTVS_COMPLEXITY>
417
> <PUBCHEM_CACTVS_HBOND_ACCEPTOR>
2
> <PUBCHEM_CACTVS_HBOND_DONOR>
0
> <PUBCHEM_CACTVS_ROTATABLE_BOND>
5
> <PUBCHEM_CACTVS_SUBSKEYS>
AAADceB7MAAAAAAAAAAAAAAAAAAAAWLAAAAwAAAAAAAAAAABwAAAHgAAAAAADBzhkgY+yJMMFACoAjRnXACCgCAxEiAI2CA4dJgKYOLA0dGdJAhkhgDYyAeQAAAAAAAAAAAAAAAAAAAAAAAAAAAAAAAAAA==
> <PUBCHEM_IUPAC_OPENEYE_NAME>
(5S)-5-(3-methylbut-3-enyl)-3-(1-phenylpyrrol-3-yl)oxazolidin-2-one
> <PUBCHEM_IUPAC_CAS_NAME>
(5S)-5-(3-methylbut-3-enyl)-3-(1-phenyl-3-pyrrolyl)-2-oxazolidinone
> <PUBCHEM_IUPAC_NAME_MARKUP>
(5<I>S</I>)-5-(3-methylbut-3-enyl)-3-(1-phenylpyrrol-3-yl)-1,3-oxazolidin-2-one
> <PUBCHEM_IUPAC_NAME>
(5S)-5-(3-methylbut-3-enyl)-3-(1-phenylpyrrol-3-yl)-1,3-oxazolidin-2-one
> <PUBCHEM_IUPAC_SYSTEMATIC_NAME>
(5S)-5-(3-methylbut-3-enyl)-3-(1-phenylpyrrol-3-yl)-1,3-oxazolidin-2-one
> <PUBCHEM_IUPAC_TRADITIONAL_NAME>
(5S)-5-(3-methylbut-3-enyl)-3-(1-phenylpyrrol-3-yl)oxazolidin-2-one
> <PUBCHEM_IUPAC_INCHI>
InChI=1S/C18H20N2O2/c1-14(2)8-9-17-13-20(18(21)22-17)16-10-11-19(12-16)15-6-4-3-5-7-15/h3-7,10-12,17H,1,8-9,13H2,2H3/t17-/m0/s1
> <PUBCHEM_IUPAC_INCHIKEY>
VNNQXCGMGQZLGP-KRWDZBQOSA-N
> <PUBCHEM_XLOGP3_AA>
4
> <PUBCHEM_EXACT_MASS>
296.152477885
> <PUBCHEM_MOLECULAR_FORMULA>
C18H20N2O2
> <PUBCHEM_MOLECULAR_WEIGHT>
296.4
> <PUBCHEM_OPENEYE_CAN_SMILES>
CC(=C)CCC1CN(C(=O)O1)C2=CN(C=C2)C3=CC=CC=C3
> <PUBCHEM_OPENEYE_ISO_SMILES>
CC(=C)CC[C@H]1CN(C(=O)O1)C2=CN(C=C2)C3=CC=CC=C3
> <PUBCHEM_CACTVS_TPSA>
34.5
> <PUBCHEM_MONOISOTOPIC_WEIGHT>
296.152477885
> <PUBCHEM_TOTAL_CHARGE>
0
> <PUBCHEM_HEAVY_ATOM_COUNT>
22
> <PUBCHEM_ATOM_DEF_STEREO_COUNT>
1
> <PUBCHEM_ATOM_UDEF_STEREO_COUNT>
0
> <PUBCHEM_BOND_DEF_STEREO_COUNT>
0
> <PUBCHEM_BOND_UDEF_STEREO_COUNT>
0
> <PUBCHEM_ISOTOPIC_ATOM_COUNT>
0
> <PUBCHEM_COMPONENT_COUNT>
1
> <PUBCHEM_CACTVS_TAUTO_COUNT>
-1
> <PUBCHEM_COORDINATE_TYPE>
1
5
255
> <PUBCHEM_BONDANNOTATIONS>
12  14  8
15  18  8
15  19  8
18  20  8
19  21  8
20  22  8
21  22  8
4  11  8
4  14  8
5  7  6
9  11  8
9  12  8
$$$$
