516727
  -OEChem-10302200292D
103106  0     1  0  0  0  0  0999 V2000
   10.5269    2.4106    0.0000 O   0  0  0  0  0  0  0  0  0  0  0  0
   11.4147   -2.1209    0.0000 O   0  0  0  0  0  0  0  0  0  0  0  0
    5.9998   -2.1417    0.0000 O   0  0  0  0  0  0  0  0  0  0  0  0
   15.2281    4.4793    0.0000 O   0  0  0  0  0  0  0  0  0  0  0  0
    8.7948    5.4106    0.0000 N   0  0  0  0  0  0  0  0  0  0  0  0
   13.1813   -5.1006    0.0000 N   0  0  0  0  0  0  0  0  0  0  0  0
    2.5357   -2.1284    0.0000 N   0  0  0  0  0  0  0  0  0  0  0  0
   11.3929    0.9106    0.0000 C   0  0  1  0  0  0  0  0  0  0  0  0
   11.3929   -0.0894    0.0000 C   0  0  2  0  0  0  0  0  0  0  0  0
   10.5269   -0.5894    0.0000 C   0  0  3  0  0  0  0  0  0  0  0  0
    9.6608   -0.0894    0.0000 C   0  0  1  0  0  0  0  0  0  0  0  0
    8.7508   -0.5963    0.0000 C   0  0  2  0  0  0  0  0  0  0  0  0
   12.3391    1.2153    0.0000 C   0  0  2  0  0  0  0  0  0  0  0  0
   10.5269    1.4106    0.0000 C   0  0  2  0  0  0  0  0  0  0  0  0
    9.6608    0.9106    0.0000 C   0  0  0  0  0  0  0  0  0  0  0  0
    8.7428   -1.6378    0.0000 C   0  0  3  0  0  0  0  0  0  0  0  0
   10.5429   -1.6309    0.0000 C   0  0  1  0  0  0  0  0  0  0  0  0
   12.3391   -0.3941    0.0000 C   0  0  0  0  0  0  0  0  0  0  0  0
   12.9227    0.4106    0.0000 C   0  0  0  0  0  0  0  0  0  0  0  0
    9.6449   -2.1587    0.0000 C   0  0  0  0  0  0  0  0  0  0  0  0
    7.8240   -0.0322    0.0000 C   0  0  0  0  0  0  0  0  0  0  0  0
   11.3929    1.9106    0.0000 C   0  0  0  0  0  0  0  0  0  0  0  0
   12.6498    2.1658    0.0000 C   0  0  1  0  0  0  0  0  0  0  0  0
    7.8074   -2.1876    0.0000 C   0  0  0  0  0  0  0  0  0  0  0  0
    8.7586    0.4037    0.0000 C   0  0  0  0  0  0  0  0  0  0  0  0
    6.8761   -0.5601    0.0000 C   0  0  0  0  0  0  0  0  0  0  0  0
    6.8678   -1.6451    0.0000 C   0  0  1  0  0  0  0  0  0  0  0  0
   13.6283    2.3721    0.0000 C   0  0  0  0  0  0  0  0  0  0  0  0
   11.9819    2.9101    0.0000 C   0  0  0  0  0  0  0  0  0  0  0  0
    9.6608    2.9106    0.0000 C   0  0  0  0  0  0  0  0  0  0  0  0
   11.4262   -3.1208    0.0000 C   0  0  0  0  0  0  0  0  0  0  0  0
   13.9389    3.3226    0.0000 C   0  0  0  0  0  0  0  0  0  0  0  0
    9.6608    3.9106    0.0000 C   0  0  0  0  0  0  0  0  0  0  0  0
   12.2980   -3.6108    0.0000 C   0  0  0  0  0  0  0  0  0  0  0  0
    5.1357   -1.6384    0.0000 C   0  0  0  0  0  0  0  0  0  0  0  0
   14.9175    3.5288    0.0000 C   0  0  0  0  0  0  0  0  0  0  0  0
    8.7948    4.4106    0.0000 C   0  0  0  0  0  0  0  0  0  0  0  0
    4.2678   -2.1351    0.0000 C   0  0  0  0  0  0  0  0  0  0  0  0
   12.3096   -4.6107    0.0000 C   0  0  0  0  0  0  0  0  0  0  0  0
    3.4037   -1.6317    0.0000 C   0  0  0  0  0  0  0  0  0  0  0  0
   11.4828   -0.9346    0.0000 H   0  0  0  0  0  0  0  0  0  0  0  0
   11.0662   -0.8953    0.0000 H   0  0  0  0  0  0  0  0  0  0  0  0
   10.3970    0.3356    0.0000 H   0  0  0  0  0  0  0  0  0  0  0  0
   13.1788    1.3472    0.0000 H   0  0  0  0  0  0  0  0  0  0  0  0
    9.9899    1.7206    0.0000 H   0  0  0  0  0  0  0  0  0  0  0  0
    9.4488    1.4932    0.0000 H   0  0  0  0  0  0  0  0  0  0  0  0
    9.0503    0.8029    0.0000 H   0  0  0  0  0  0  0  0  0  0  0  0
    8.7452   -2.2578    0.0000 H   0  0  0  0  0  0  0  0  0  0  0  0
   10.5489   -2.2509    0.0000 H   0  0  0  0  0  0  0  0  0  0  0  0
   12.0881   -0.9610    0.0000 H   0  0  0  0  0  0  0  0  0  0  0  0
   12.8765   -0.7034    0.0000 H   0  0  0  0  0  0  0  0  0  0  0  0
   13.3836   -0.0041    0.0000 H   0  0  0  0  0  0  0  0  0  0  0  0
   13.3836    0.8253    0.0000 H   0  0  0  0  0  0  0  0  0  0  0  0
    9.2476   -2.6346    0.0000 H   0  0  0  0  0  0  0  0  0  0  0  0
   10.0459   -2.6316    0.0000 H   0  0  0  0  0  0  0  0  0  0  0  0
    8.2322    0.4345    0.0000 H   0  0  0  0  0  0  0  0  0  0  0  0
    7.4341    0.4499    0.0000 H   0  0  0  0  0  0  0  0  0  0  0  0
   12.0129    1.9106    0.0000 H   0  0  0  0  0  0  0  0  0  0  0  0
   11.3929    2.5306    0.0000 H   0  0  0  0  0  0  0  0  0  0  0  0
   10.7729    1.9106    0.0000 H   0  0  0  0  0  0  0  0  0  0  0  0
   12.8424    2.7552    0.0000 H   0  0  0  0  0  0  0  0  0  0  0  0
    7.4101   -2.6636    0.0000 H   0  0  0  0  0  0  0  0  0  0  0  0
    8.2084   -2.6605    0.0000 H   0  0  0  0  0  0  0  0  0  0  0  0
    9.3785    0.3989    0.0000 H   0  0  0  0  0  0  0  0  0  0  0  0
    8.7633    1.0237    0.0000 H   0  0  0  0  0  0  0  0  0  0  0  0
    8.1386    0.4085    0.0000 H   0  0  0  0  0  0  0  0  0  0  0  0
    6.6716    0.0252    0.0000 H   0  0  0  0  0  0  0  0  0  0  0  0
    6.2645   -0.6615    0.0000 H   0  0  0  0  0  0  0  0  0  0  0  0
    6.8666   -2.2651    0.0000 H   0  0  0  0  0  0  0  0  0  0  0  0
   13.6489    1.7524    0.0000 H   0  0  0  0  0  0  0  0  0  0  0  0
   14.2421    2.2847    0.0000 H   0  0  0  0  0  0  0  0  0  0  0  0
   12.4434    3.3242    0.0000 H   0  0  0  0  0  0  0  0  0  0  0  0
   11.5679    3.3716    0.0000 H   0  0  0  0  0  0  0  0  0  0  0  0
   11.5205    2.4961    0.0000 H   0  0  0  0  0  0  0  0  0  0  0  0
    9.0503    3.0183    0.0000 H   0  0  0  0  0  0  0  0  0  0  0  0
    9.4488    2.3280    0.0000 H   0  0  0  0  0  0  0  0  0  0  0  0
   10.8145   -3.0202    0.0000 H   0  0  0  0  0  0  0  0  0  0  0  0
   11.2209   -3.7058    0.0000 H   0  0  0  0  0  0  0  0  0  0  0  0
   13.9184    3.9422    0.0000 H   0  0  0  0  0  0  0  0  0  0  0  0
   13.3251    3.4099    0.0000 H   0  0  0  0  0  0  0  0  0  0  0  0
   10.2714    3.8029    0.0000 H   0  0  0  0  0  0  0  0  0  0  0  0
    9.8729    4.4932    0.0000 H   0  0  0  0  0  0  0  0  0  0  0  0
   12.9098   -3.7113    0.0000 H   0  0  0  0  0  0  0  0  0  0  0  0
   12.5033   -3.0257    0.0000 H   0  0  0  0  0  0  0  0  0  0  0  0
    5.5361   -1.1650    0.0000 H   0  0  0  0  0  0  0  0  0  0  0  0
    4.7390   -1.1619    0.0000 H   0  0  0  0  0  0  0  0  0  0  0  0
   14.9380    2.9092    0.0000 H   0  0  0  0  0  0  0  0  0  0  0  0
   15.5313    3.4415    0.0000 H   0  0  0  0  0  0  0  0  0  0  0  0
    8.1842    4.5183    0.0000 H   0  0  0  0  0  0  0  0  0  0  0  0
    8.5828    3.8280    0.0000 H   0  0  0  0  0  0  0  0  0  0  0  0
    3.8674   -2.6085    0.0000 H   0  0  0  0  0  0  0  0  0  0  0  0
    4.6645   -2.6115    0.0000 H   0  0  0  0  0  0  0  0  0  0  0  0
   11.6978   -4.5101    0.0000 H   0  0  0  0  0  0  0  0  0  0  0  0
   12.1043   -5.1957    0.0000 H   0  0  0  0  0  0  0  0  0  0  0  0
   15.8348    4.6072    0.0000 H   0  0  0  0  0  0  0  0  0  0  0  0
    3.8040   -1.1583    0.0000 H   0  0  0  0  0  0  0  0  0  0  0  0
    3.0070   -1.1553    0.0000 H   0  0  0  0  0  0  0  0  0  0  0  0
    8.2579    5.7206    0.0000 H   0  0  0  0  0  0  0  0  0  0  0  0
    9.3318    5.7206    0.0000 H   0  0  0  0  0  0  0  0  0  0  0  0
   13.1885   -5.7206    0.0000 H   0  0  0  0  0  0  0  0  0  0  0  0
   13.7146   -4.7844    0.0000 H   0  0  0  0  0  0  0  0  0  0  0  0
    2.0000   -1.8163    0.0000 H   0  0  0  0  0  0  0  0  0  0  0  0
    2.5334   -2.7484    0.0000 H   0  0  0  0  0  0  0  0  0  0  0  0
 14  1  1  6  0  0  0
  1 30  1  0  0  0  0
  2 17  1  0  0  0  0
  2 31  1  0  0  0  0
 27  3  1  6  0  0  0
  3 35  1  0  0  0  0
  4 36  1  0  0  0  0
  4 95  1  0  0  0  0
  5 37  1  0  0  0  0
  5 98  1  0  0  0  0
  5 99  1  0  0  0  0
  6 39  1  0  0  0  0
  6100  1  0  0  0  0
  6101  1  0  0  0  0
  7 40  1  0  0  0  0
  7102  1  0  0  0  0
  7103  1  0  0  0  0
  8  9  1  0  0  0  0
  8 13  1  0  0  0  0
  8 14  1  0  0  0  0
  8 22  1  1  0  0  0
  9 10  1  0  0  0  0
  9 18  1  0  0  0  0
  9 41  1  6  0  0  0
 10 11  1  0  0  0  0
 10 17  1  0  0  0  0
 10 42  1  0  0  0  0
 11 12  1  0  0  0  0
 11 15  1  0  0  0  0
 11 43  1  6  0  0  0
 12 16  1  0  0  0  0
 12 21  1  0  0  0  0
 12 25  1  1  0  0  0
 13 19  1  0  0  0  0
 13 23  1  0  0  0  0
 13 44  1  6  0  0  0
 14 15  1  0  0  0  0
 14 45  1  0  0  0  0
 15 46  1  0  0  0  0
 15 47  1  0  0  0  0
 16 20  1  0  0  0  0
 16 24  1  0  0  0  0
 16 48  1  0  0  0  0
 17 20  1  0  0  0  0
 17 49  1  0  0  0  0
 18 19  1  0  0  0  0
 18 50  1  0  0  0  0
 18 51  1  0  0  0  0
 19 52  1  0  0  0  0
 19 53  1  0  0  0  0
 20 54  1  0  0  0  0
 20 55  1  0  0  0  0
 21 26  1  0  0  0  0
 21 56  1  0  0  0  0
 21 57  1  0  0  0  0
 22 58  1  0  0  0  0
 22 59  1  0  0  0  0
 22 60  1  0  0  0  0
 23 28  1  0  0  0  0
 23 29  1  6  0  0  0
 23 61  1  0  0  0  0
 24 27  1  0  0  0  0
 24 62  1  0  0  0  0
 24 63  1  0  0  0  0
 25 64  1  0  0  0  0
 25 65  1  0  0  0  0
 25 66  1  0  0  0  0
 26 27  1  0  0  0  0
 26 67  1  0  0  0  0
 26 68  1  0  0  0  0
 27 69  1  0  0  0  0
 28 32  1  0  0  0  0
 28 70  1  0  0  0  0
 28 71  1  0  0  0  0
 29 72  1  0  0  0  0
 29 73  1  0  0  0  0
 29 74  1  0  0  0  0
 30 33  1  0  0  0  0
 30 75  1  0  0  0  0
 30 76  1  0  0  0  0
 31 34  1  0  0  0  0
 31 77  1  0  0  0  0
 31 78  1  0  0  0  0
 32 36  1  0  0  0  0
 32 79  1  0  0  0  0
 32 80  1  0  0  0  0
 33 37  1  0  0  0  0
 33 81  1  0  0  0  0
 33 82  1  0  0  0  0
 34 39  1  0  0  0  0
 34 83  1  0  0  0  0
 34 84  1  0  0  0  0
 35 38  1  0  0  0  0
 35 85  1  0  0  0  0
 35 86  1  0  0  0  0
 36 87  1  0  0  0  0
 36 88  1  0  0  0  0
 37 89  1  0  0  0  0
 37 90  1  0  0  0  0
 38 40  1  0  0  0  0
 38 91  1  0  0  0  0
 38 92  1  0  0  0  0
 39 93  1  0  0  0  0
 39 94  1  0  0  0  0
 40 96  1  0  0  0  0
 40 97  1  0  0  0  0
M  END
> <PUBCHEM_COMPOUND_CID>
516727
> <PUBCHEM_COMPOUND_CANONICALIZED>
1
> <PUBCHEM_CACTVS_COMPLEXITY>
757
> <PUBCHEM_CACTVS_HBOND_ACCEPTOR>
7
> <PUBCHEM_CACTVS_HBOND_DONOR>
4
> <PUBCHEM_CACTVS_ROTATABLE_BOND>
16
> <PUBCHEM_CACTVS_SUBSKEYS>
AAADcfB/OAAAAAAAAAAAAAAAAAAAAYAAAAAwYMAAAAAAAGDAAAAAHgAQCAAADxThgAYCAABABgAAAAAAAAAAAAAAAAAAAIAAAAAAEAIAAAACQAAGEAAAAAGA4PwPgAAAAAAAAADAAAYAADAAAQAACAAAAA==
> <PUBCHEM_IUPAC_OPENEYE_NAME>
(4R)-4-[(3R,7R,9S,10S,12S,13R,14S,17R)-3,7,12-tris(3-aminopropoxy)-10,13-dimethyl-2,3,4,5,6,7,8,9,11,12,14,15,16,17-tetradecahydro-1H-cyclopenta[a]phenanthren-17-yl]pentan-1-ol
> <PUBCHEM_IUPAC_CAS_NAME>
(4R)-4-[(3R,7R,9S,10S,12S,13R,14S,17R)-3,7,12-tris(3-aminopropoxy)-10,13-dimethyl-2,3,4,5,6,7,8,9,11,12,14,15,16,17-tetradecahydro-1H-cyclopenta[a]phenanthren-17-yl]-1-pentanol
> <PUBCHEM_IUPAC_NAME_MARKUP>
(4<I>R</I>)-4-[(3<I>R</I>,7<I>R</I>,9<I>S</I>,10<I>S</I>,12<I>S</I>,13<I>R</I>,14<I>S</I>,17<I>R</I>)-3,7,12-tris(3-aminopropoxy)-10,13-dimethyl-2,3,4,5,6,7,8,9,11,12,14,15,16,17-tetradecahydro-1<I>H</I>-cyclopenta[a]phenanthren-17-yl]pentan-1-ol
> <PUBCHEM_IUPAC_NAME>
(4R)-4-[(3R,7R,9S,10S,12S,13R,14S,17R)-3,7,12-tris(3-aminopropoxy)-10,13-dimethyl-2,3,4,5,6,7,8,9,11,12,14,15,16,17-tetradecahydro-1H-cyclopenta[a]phenanthren-17-yl]pentan-1-ol
> <PUBCHEM_IUPAC_SYSTEMATIC_NAME>
(4R)-4-[(3R,7R,9S,10S,12S,13R,14S,17R)-3,7,12-tris(3-azanylpropoxy)-10,13-dimethyl-2,3,4,5,6,7,8,9,11,12,14,15,16,17-tetradecahydro-1H-cyclopenta[a]phenanthren-17-yl]pentan-1-ol
> <PUBCHEM_IUPAC_TRADITIONAL_NAME>
(4R)-4-[(3R,7R,9S,10S,12S,13R,14S,17R)-3,7,12-tris(3-aminopropoxy)-10,13-dimethyl-2,3,4,5,6,7,8,9,11,12,14,15,16,17-tetradecahydro-1H-cyclopenta[a]phenanthren-17-yl]pentan-1-ol
> <PUBCHEM_IUPAC_INCHI>
InChI=1S/C33H63N3O4/c1-23(8-4-16-37)26-9-10-27-31-28(22-30(33(26,27)3)40-19-7-15-36)32(2)12-11-25(38-17-5-13-34)20-24(32)21-29(31)39-18-6-14-35/h23-31,37H,4-22,34-36H2,1-3H3/t23-,24?,25-,26-,27+,28+,29-,30+,31?,32+,33-/m1/s1
> <PUBCHEM_IUPAC_INCHIKEY>
KJHKUNPRTTYLNC-RNIIZGTMSA-N
> <PUBCHEM_XLOGP3_AA>
3.6
> <PUBCHEM_EXACT_MASS>
565.48185750
> <PUBCHEM_MOLECULAR_FORMULA>
C33H63N3O4
> <PUBCHEM_MOLECULAR_WEIGHT>
565.9
> <PUBCHEM_OPENEYE_CAN_SMILES>
CC(CCCO)C1CCC2C1(C(CC3C2C(CC4C3(CCC(C4)OCCCN)C)OCCCN)OCCCN)C
> <PUBCHEM_OPENEYE_ISO_SMILES>
C[C@H](CCCO)[C@H]1CC[C@@H]2[C@@]1([C@H](C[C@H]3C2[C@@H](CC4[C@@]3(CC[C@H](C4)OCCCN)C)OCCCN)OCCCN)C
> <PUBCHEM_CACTVS_TPSA>
126
> <PUBCHEM_MONOISOTOPIC_WEIGHT>
565.48185750
> <PUBCHEM_TOTAL_CHARGE>
0
> <PUBCHEM_HEAVY_ATOM_COUNT>
40
> <PUBCHEM_ATOM_DEF_STEREO_COUNT>
9
> <PUBCHEM_ATOM_UDEF_STEREO_COUNT>
2
> <PUBCHEM_BOND_DEF_STEREO_COUNT>
0
> <PUBCHEM_BOND_UDEF_STEREO_COUNT>
0
> <PUBCHEM_ISOTOPIC_ATOM_COUNT>
0
> <PUBCHEM_COMPONENT_COUNT>
1
> <PUBCHEM_CACTVS_TAUTO_COUNT>
-1
> <PUBCHEM_COORDINATE_TYPE>
1
5
255
> <PUBCHEM_BONDANNOTATIONS>
14  1  6
10  17  3
11  43  6
12  25  5
13  44  6
16  24  3
23  29  6
27  3  6
8  22  5
9  41  6
$$$$
