516725
  -OEChem-10302200292D
135139  0     1  0  0  0  0  0999 V2000
   12.2589    2.2573    0.0000 O   0  0  0  0  0  0  0  0  0  0  0  0
   13.1467   -2.2742    0.0000 O   0  0  0  0  0  0  0  0  0  0  0  0
    7.7318   -2.2950    0.0000 O   0  0  0  0  0  0  0  0  0  0  0  0
   16.9602    4.3260    0.0000 N   0  0  3  0  0  0  0  0  0  0  0  0
   10.5269    5.2573    0.0000 N   0  0  0  0  0  0  0  0  0  0  0  0
   14.9133   -5.2539    0.0000 N   0  0  0  0  0  0  0  0  0  0  0  0
    4.2678   -2.2817    0.0000 N   0  0  0  0  0  0  0  0  0  0  0  0
    9.6608    6.7573    0.0000 N   0  0  0  0  0  0  0  0  0  0  0  0
    8.7948    5.2573    0.0000 N   0  0  0  0  0  0  0  0  0  0  0  0
   15.7967   -6.7438    0.0000 N   0  0  0  0  0  0  0  0  0  0  0  0
   14.0647   -6.7638    0.0000 N   0  0  0  0  0  0  0  0  0  0  0  0
    2.5357   -2.2750    0.0000 N   0  0  0  0  0  0  0  0  0  0  0  0
    3.4075   -0.7784    0.0000 N   0  0  0  0  0  0  0  0  0  0  0  0
   13.1249    0.7573    0.0000 C   0  0  1  0  0  0  0  0  0  0  0  0
   13.1249   -0.2427    0.0000 C   0  0  2  0  0  0  0  0  0  0  0  0
   12.2589   -0.7427    0.0000 C   0  0  3  0  0  0  0  0  0  0  0  0
   11.3929   -0.2427    0.0000 C   0  0  1  0  0  0  0  0  0  0  0  0
   10.4829   -0.7496    0.0000 C   0  0  2  0  0  0  0  0  0  0  0  0
   14.0712    1.0620    0.0000 C   0  0  2  0  0  0  0  0  0  0  0  0
   12.2589    1.2573    0.0000 C   0  0  2  0  0  0  0  0  0  0  0  0
   11.3929    0.7573    0.0000 C   0  0  0  0  0  0  0  0  0  0  0  0
   10.4749   -1.7912    0.0000 C   0  0  3  0  0  0  0  0  0  0  0  0
   12.2750   -1.7842    0.0000 C   0  0  1  0  0  0  0  0  0  0  0  0
   14.0712   -0.5474    0.0000 C   0  0  0  0  0  0  0  0  0  0  0  0
   14.6548    0.2573    0.0000 C   0  0  0  0  0  0  0  0  0  0  0  0
   11.3769   -2.3120    0.0000 C   0  0  0  0  0  0  0  0  0  0  0  0
    9.5561   -0.1855    0.0000 C   0  0  0  0  0  0  0  0  0  0  0  0
   13.1249    1.7573    0.0000 C   0  0  0  0  0  0  0  0  0  0  0  0
   14.3818    2.0126    0.0000 C   0  0  1  0  0  0  0  0  0  0  0  0
    9.5394   -2.3409    0.0000 C   0  0  0  0  0  0  0  0  0  0  0  0
   10.4906    0.2504    0.0000 C   0  0  0  0  0  0  0  0  0  0  0  0
    8.6082   -0.7134    0.0000 C   0  0  0  0  0  0  0  0  0  0  0  0
    8.5998   -1.7984    0.0000 C   0  0  1  0  0  0  0  0  0  0  0  0
   15.3603    2.2188    0.0000 C   0  0  0  0  0  0  0  0  0  0  0  0
   13.7140    2.7568    0.0000 C   0  0  0  0  0  0  0  0  0  0  0  0
   11.3929    2.7573    0.0000 C   0  0  0  0  0  0  0  0  0  0  0  0
   13.1583   -3.2741    0.0000 C   0  0  0  0  0  0  0  0  0  0  0  0
   15.6710    3.1693    0.0000 C   0  0  0  0  0  0  0  0  0  0  0  0
   11.3929    3.7573    0.0000 C   0  0  0  0  0  0  0  0  0  0  0  0
   14.0300   -3.7640    0.0000 C   0  0  0  0  0  0  0  0  0  0  0  0
    6.8678   -1.7917    0.0000 C   0  0  0  0  0  0  0  0  0  0  0  0
   16.6495    3.3755    0.0000 C   0  0  0  0  0  0  0  0  0  0  0  0
   10.5269    4.2573    0.0000 C   0  0  0  0  0  0  0  0  0  0  0  0
    5.9998   -2.2884    0.0000 C   0  0  0  0  0  0  0  0  0  0  0  0
   14.0416   -4.7640    0.0000 C   0  0  0  0  0  0  0  0  0  0  0  0
    5.1357   -1.7850    0.0000 C   0  0  0  0  0  0  0  0  0  0  0  0
   17.9387    4.5322    0.0000 C   0  0  0  0  0  0  0  0  0  0  0  0
   16.2923    5.0703    0.0000 C   0  0  0  0  0  0  0  0  0  0  0  0
   18.2493    5.4828    0.0000 C   0  0  0  0  0  0  0  0  0  0  0  0
    9.6608    5.7573    0.0000 C   0  0  0  0  0  0  0  0  0  0  0  0
   14.9249   -6.2539    0.0000 C   0  0  0  0  0  0  0  0  0  0  0  0
   17.5815    6.2271    0.0000 C   0  0  0  0  0  0  0  0  0  0  0  0
   19.2278    5.6890    0.0000 C   0  0  0  0  0  0  0  0  0  0  0  0
    3.4037   -1.7784    0.0000 C   0  0  0  0  0  0  0  0  0  0  0  0
   17.8921    7.1776    0.0000 C   0  0  0  0  0  0  0  0  0  0  0  0
   19.5385    6.6395    0.0000 C   0  0  0  0  0  0  0  0  0  0  0  0
   18.8706    7.3838    0.0000 C   0  0  0  0  0  0  0  0  0  0  0  0
   13.2149   -1.0879    0.0000 H   0  0  0  0  0  0  0  0  0  0  0  0
   12.7982   -1.0486    0.0000 H   0  0  0  0  0  0  0  0  0  0  0  0
   12.1290    0.1823    0.0000 H   0  0  0  0  0  0  0  0  0  0  0  0
   14.9109    1.1939    0.0000 H   0  0  0  0  0  0  0  0  0  0  0  0
   11.7220    1.5673    0.0000 H   0  0  0  0  0  0  0  0  0  0  0  0
   11.1808    1.3399    0.0000 H   0  0  0  0  0  0  0  0  0  0  0  0
   10.7823    0.6496    0.0000 H   0  0  0  0  0  0  0  0  0  0  0  0
   10.4772   -2.4111    0.0000 H   0  0  0  0  0  0  0  0  0  0  0  0
   12.8077   -1.4670    0.0000 H   0  0  0  0  0  0  0  0  0  0  0  0
   13.8201   -1.1143    0.0000 H   0  0  0  0  0  0  0  0  0  0  0  0
   14.6085   -0.8567    0.0000 H   0  0  0  0  0  0  0  0  0  0  0  0
   15.1156   -0.1574    0.0000 H   0  0  0  0  0  0  0  0  0  0  0  0
   15.1156    0.6720    0.0000 H   0  0  0  0  0  0  0  0  0  0  0  0
   10.9796   -2.7879    0.0000 H   0  0  0  0  0  0  0  0  0  0  0  0
   11.7779   -2.7849    0.0000 H   0  0  0  0  0  0  0  0  0  0  0  0
    9.9642    0.2812    0.0000 H   0  0  0  0  0  0  0  0  0  0  0  0
    9.1661    0.2966    0.0000 H   0  0  0  0  0  0  0  0  0  0  0  0
   13.7449    1.7573    0.0000 H   0  0  0  0  0  0  0  0  0  0  0  0
   13.1249    2.3773    0.0000 H   0  0  0  0  0  0  0  0  0  0  0  0
   12.5049    1.7573    0.0000 H   0  0  0  0  0  0  0  0  0  0  0  0
   14.5744    2.6019    0.0000 H   0  0  0  0  0  0  0  0  0  0  0  0
    9.1421   -2.8168    0.0000 H   0  0  0  0  0  0  0  0  0  0  0  0
    9.9404   -2.8138    0.0000 H   0  0  0  0  0  0  0  0  0  0  0  0
   11.1106    0.2456    0.0000 H   0  0  0  0  0  0  0  0  0  0  0  0
   10.4954    0.8704    0.0000 H   0  0  0  0  0  0  0  0  0  0  0  0
    9.8706    0.2552    0.0000 H   0  0  0  0  0  0  0  0  0  0  0  0
    8.4036   -0.1281    0.0000 H   0  0  0  0  0  0  0  0  0  0  0  0
    7.9965   -0.8148    0.0000 H   0  0  0  0  0  0  0  0  0  0  0  0
    8.5986   -2.4184    0.0000 H   0  0  0  0  0  0  0  0  0  0  0  0
   15.3809    1.5991    0.0000 H   0  0  0  0  0  0  0  0  0  0  0  0
   15.9741    2.1314    0.0000 H   0  0  0  0  0  0  0  0  0  0  0  0
   14.1754    3.1709    0.0000 H   0  0  0  0  0  0  0  0  0  0  0  0
   13.2999    3.2183    0.0000 H   0  0  0  0  0  0  0  0  0  0  0  0
   13.2525    2.3428    0.0000 H   0  0  0  0  0  0  0  0  0  0  0  0
   10.7823    2.8650    0.0000 H   0  0  0  0  0  0  0  0  0  0  0  0
   11.1808    2.1747    0.0000 H   0  0  0  0  0  0  0  0  0  0  0  0
   12.5465   -3.1735    0.0000 H   0  0  0  0  0  0  0  0  0  0  0  0
   12.9530   -3.8591    0.0000 H   0  0  0  0  0  0  0  0  0  0  0  0
   15.6504    3.7890    0.0000 H   0  0  0  0  0  0  0  0  0  0  0  0
   15.0572    3.2566    0.0000 H   0  0  0  0  0  0  0  0  0  0  0  0
   12.0035    3.6496    0.0000 H   0  0  0  0  0  0  0  0  0  0  0  0
   11.6049    4.3399    0.0000 H   0  0  0  0  0  0  0  0  0  0  0  0
   14.6418   -3.8646    0.0000 H   0  0  0  0  0  0  0  0  0  0  0  0
   14.2353   -3.1790    0.0000 H   0  0  0  0  0  0  0  0  0  0  0  0
    7.2681   -1.3183    0.0000 H   0  0  0  0  0  0  0  0  0  0  0  0
    6.4711   -1.3152    0.0000 H   0  0  0  0  0  0  0  0  0  0  0  0
   16.6701    2.7558    0.0000 H   0  0  0  0  0  0  0  0  0  0  0  0
   17.2633    3.2882    0.0000 H   0  0  0  0  0  0  0  0  0  0  0  0
    9.9163    4.3650    0.0000 H   0  0  0  0  0  0  0  0  0  0  0  0
   10.3148    3.6747    0.0000 H   0  0  0  0  0  0  0  0  0  0  0  0
    5.5995   -2.7618    0.0000 H   0  0  0  0  0  0  0  0  0  0  0  0
    6.3965   -2.7648    0.0000 H   0  0  0  0  0  0  0  0  0  0  0  0
   13.4298   -4.6634    0.0000 H   0  0  0  0  0  0  0  0  0  0  0  0
   13.8363   -5.3490    0.0000 H   0  0  0  0  0  0  0  0  0  0  0  0
    5.5361   -1.3116    0.0000 H   0  0  0  0  0  0  0  0  0  0  0  0
    4.7390   -1.3085    0.0000 H   0  0  0  0  0  0  0  0  0  0  0  0
   17.9592    3.9126    0.0000 H   0  0  0  0  0  0  0  0  0  0  0  0
   18.5525    4.4449    0.0000 H   0  0  0  0  0  0  0  0  0  0  0  0
   16.7538    5.4844    0.0000 H   0  0  0  0  0  0  0  0  0  0  0  0
   15.8782    5.5318    0.0000 H   0  0  0  0  0  0  0  0  0  0  0  0
   15.8308    4.6563    0.0000 H   0  0  0  0  0  0  0  0  0  0  0  0
   16.9748    6.0992    0.0000 H   0  0  0  0  0  0  0  0  0  0  0  0
   19.6419    5.2275    0.0000 H   0  0  0  0  0  0  0  0  0  0  0  0
    9.1239    7.0673    0.0000 H   0  0  0  0  0  0  0  0  0  0  0  0
   10.1978    7.0673    0.0000 H   0  0  0  0  0  0  0  0  0  0  0  0
    8.2579    5.5673    0.0000 H   0  0  0  0  0  0  0  0  0  0  0  0
    8.7948    4.6373    0.0000 H   0  0  0  0  0  0  0  0  0  0  0  0
   15.8038   -7.3638    0.0000 H   0  0  0  0  0  0  0  0  0  0  0  0
   16.3300   -6.4276    0.0000 H   0  0  0  0  0  0  0  0  0  0  0  0
   14.0719   -7.3838    0.0000 H   0  0  0  0  0  0  0  0  0  0  0  0
   13.5242   -6.4601    0.0000 H   0  0  0  0  0  0  0  0  0  0  0  0
   17.4781    7.6391    0.0000 H   0  0  0  0  0  0  0  0  0  0  0  0
   20.1452    6.7674    0.0000 H   0  0  0  0  0  0  0  0  0  0  0  0
    2.0000   -1.9629    0.0000 H   0  0  0  0  0  0  0  0  0  0  0  0
    2.5334   -2.8950    0.0000 H   0  0  0  0  0  0  0  0  0  0  0  0
    2.8718   -0.4663    0.0000 H   0  0  0  0  0  0  0  0  0  0  0  0
    3.9457   -0.4704    0.0000 H   0  0  0  0  0  0  0  0  0  0  0  0
   19.0633    7.9731    0.0000 H   0  0  0  0  0  0  0  0  0  0  0  0
 20  1  1  6  0  0  0
  1 36  1  0  0  0  0
  2 23  1  0  0  0  0
  2 37  1  0  0  0  0
 33  3  1  6  0  0  0
  3 41  1  0  0  0  0
  4 42  1  0  0  0  0
  4 47  1  0  0  0  0
  4 48  1  0  0  0  0
  5 43  1  0  0  0  0
  5 50  2  0  0  0  0
  6 45  1  0  0  0  0
  6 51  2  0  0  0  0
  7 46  1  0  0  0  0
  7 54  2  0  0  0  0
  8 50  1  0  0  0  0
  8121  1  0  0  0  0
  8122  1  0  0  0  0
  9 50  1  0  0  0  0
  9123  1  0  0  0  0
  9124  1  0  0  0  0
 10 51  1  0  0  0  0
 10125  1  0  0  0  0
 10126  1  0  0  0  0
 11 51  1  0  0  0  0
 11127  1  0  0  0  0
 11128  1  0  0  0  0
 12 54  1  0  0  0  0
 12131  1  0  0  0  0
 12132  1  0  0  0  0
 13 54  1  0  0  0  0
 13133  1  0  0  0  0
 13134  1  0  0  0  0
 14 15  1  0  0  0  0
 14 19  1  0  0  0  0
 14 20  1  0  0  0  0
 14 28  1  1  0  0  0
 15 16  1  0  0  0  0
 15 24  1  0  0  0  0
 15 58  1  6  0  0  0
 16 17  1  0  0  0  0
 16 23  1  0  0  0  0
 16 59  1  0  0  0  0
 17 18  1  0  0  0  0
 17 21  1  0  0  0  0
 17 60  1  6  0  0  0
 18 22  1  0  0  0  0
 18 27  1  0  0  0  0
 18 31  1  1  0  0  0
 19 25  1  0  0  0  0
 19 29  1  0  0  0  0
 19 61  1  6  0  0  0
 20 21  1  0  0  0  0
 20 62  1  0  0  0  0
 21 63  1  0  0  0  0
 21 64  1  0  0  0  0
 22 26  1  0  0  0  0
 22 30  1  0  0  0  0
 22 65  1  0  0  0  0
 23 26  1  0  0  0  0
 23 66  1  0  0  0  0
 24 25  1  0  0  0  0
 24 67  1  0  0  0  0
 24 68  1  0  0  0  0
 25 69  1  0  0  0  0
 25 70  1  0  0  0  0
 26 71  1  0  0  0  0
 26 72  1  0  0  0  0
 27 32  1  0  0  0  0
 27 73  1  0  0  0  0
 27 74  1  0  0  0  0
 28 75  1  0  0  0  0
 28 76  1  0  0  0  0
 28 77  1  0  0  0  0
 29 34  1  0  0  0  0
 29 35  1  6  0  0  0
 29 78  1  0  0  0  0
 30 33  1  0  0  0  0
 30 79  1  0  0  0  0
 30 80  1  0  0  0  0
 31 81  1  0  0  0  0
 31 82  1  0  0  0  0
 31 83  1  0  0  0  0
 32 33  1  0  0  0  0
 32 84  1  0  0  0  0
 32 85  1  0  0  0  0
 33 86  1  0  0  0  0
 34 38  1  0  0  0  0
 34 87  1  0  0  0  0
 34 88  1  0  0  0  0
 35 89  1  0  0  0  0
 35 90  1  0  0  0  0
 35 91  1  0  0  0  0
 36 39  1  0  0  0  0
 36 92  1  0  0  0  0
 36 93  1  0  0  0  0
 37 40  1  0  0  0  0
 37 94  1  0  0  0  0
 37 95  1  0  0  0  0
 38 42  1  0  0  0  0
 38 96  1  0  0  0  0
 38 97  1  0  0  0  0
 39 43  1  0  0  0  0
 39 98  1  0  0  0  0
 39 99  1  0  0  0  0
 40 45  1  0  0  0  0
 40100  1  0  0  0  0
 40101  1  0  0  0  0
 41 44  1  0  0  0  0
 41102  1  0  0  0  0
 41103  1  0  0  0  0
 42104  1  0  0  0  0
 42105  1  0  0  0  0
 43106  1  0  0  0  0
 43107  1  0  0  0  0
 44 46  1  0  0  0  0
 44108  1  0  0  0  0
 44109  1  0  0  0  0
 45110  1  0  0  0  0
 45111  1  0  0  0  0
 46112  1  0  0  0  0
 46113  1  0  0  0  0
 47 49  1  0  0  0  0
 47114  1  0  0  0  0
 47115  1  0  0  0  0
 48116  1  0  0  0  0
 48117  1  0  0  0  0
 48118  1  0  0  0  0
 49 52  2  0  0  0  0
 49 53  1  0  0  0  0
 52 55  1  0  0  0  0
 52119  1  0  0  0  0
 53 56  2  0  0  0  0
 53120  1  0  0  0  0
 55 57  2  0  0  0  0
 55129  1  0  0  0  0
 56 57  1  0  0  0  0
 56130  1  0  0  0  0
 57135  1  0  0  0  0
M  END
> <PUBCHEM_COMPOUND_CID>
516725
> <PUBCHEM_COMPOUND_CANONICALIZED>
1
> <PUBCHEM_CACTVS_COMPLEXITY>
1300
> <PUBCHEM_CACTVS_HBOND_ACCEPTOR>
7
> <PUBCHEM_CACTVS_HBOND_DONOR>
6
> <PUBCHEM_CACTVS_ROTATABLE_BOND>
22
> <PUBCHEM_CACTVS_SUBSKEYS>
AAADcfB/8AAAAAAAAAAAAAAAAAAAAYAAAAAwYMGAAAAAAGDBAAAAHgAQAAAADxThmAYzAINABACgAiBCJACCAAEgAAAIiAAIBIgIICKAkRGGIAhmgACIiAeQ4PwPgAAAAAAAAADAAAYAADAAAQAACAAAAA==
> <PUBCHEM_IUPAC_OPENEYE_NAME>
2-[3-[[(3R,7R,9S,10S,12S,13R,14S,17R)-17-[(1R)-4-[benzyl(methyl)amino]-1-methyl-butyl]-3,7-bis(3-guanidinopropoxy)-10,13-dimethyl-2,3,4,5,6,7,8,9,11,12,14,15,16,17-tetradecahydro-1H-cyclopenta[a]phenanthren-12-yl]oxy]propyl]guanidine
> <PUBCHEM_IUPAC_CAS_NAME>
2-[3-[[(3R,7R,9S,10S,12S,13R,14S,17R)-3,7-bis[3-(diaminomethylideneamino)propoxy]-10,13-dimethyl-17-[(2R)-5-[methyl-(phenylmethyl)amino]pentan-2-yl]-2,3,4,5,6,7,8,9,11,12,14,15,16,17-tetradecahydro-1H-cyclopenta[a]phenanthren-12-yl]oxy]propyl]guanidine
> <PUBCHEM_IUPAC_NAME_MARKUP>
2-[3-[[(3<I>R</I>,7<I>R</I>,9<I>S</I>,10<I>S</I>,12<I>S</I>,13<I>R</I>,14<I>S</I>,17<I>R</I>)-17-[(2<I>R</I>)-5-[benzyl(methyl)amino]pentan-2-yl]-3,7-bis[3-(diaminomethylideneamino)propoxy]-10,13-dimethyl-2,3,4,5,6,7,8,9,11,12,14,15,16,17-tetradecahydro-1<I>H</I>-cyclopenta[a]phenanthren-12-yl]oxy]propyl]guanidine
> <PUBCHEM_IUPAC_NAME>
2-[3-[[(3R,7R,9S,10S,12S,13R,14S,17R)-17-[(2R)-5-[benzyl(methyl)amino]pentan-2-yl]-3,7-bis[3-(diaminomethylideneamino)propoxy]-10,13-dimethyl-2,3,4,5,6,7,8,9,11,12,14,15,16,17-tetradecahydro-1H-cyclopenta[a]phenanthren-12-yl]oxy]propyl]guanidine
> <PUBCHEM_IUPAC_SYSTEMATIC_NAME>
2-[3-[[(3R,7R,9S,10S,12S,13R,14S,17R)-3,7-bis[3-[bis(azanyl)methylideneamino]propoxy]-10,13-dimethyl-17-[(2R)-5-[methyl-(phenylmethyl)amino]pentan-2-yl]-2,3,4,5,6,7,8,9,11,12,14,15,16,17-tetradecahydro-1H-cyclopenta[a]phenanthren-12-yl]oxy]propyl]guanidine
> <PUBCHEM_IUPAC_TRADITIONAL_NAME>
2-[3-[[(3R,7R,9S,10S,12S,13R,14S,17R)-17-[(1R)-4-[benzyl(methyl)amino]-1-methyl-butyl]-3,7-bis(3-guanidinopropoxy)-10,13-dimethyl-2,3,4,5,6,7,8,9,11,12,14,15,16,17-tetradecahydro-1H-cyclopenta[a]phenanthren-12-yl]oxy]propyl]guanidine
> <PUBCHEM_IUPAC_INCHI>
InChI=1S/C44H78N10O3/c1-30(12-8-22-54(4)29-31-13-6-5-7-14-31)34-15-16-35-39-36(28-38(44(34,35)3)57-25-11-21-53-42(49)50)43(2)18-17-33(55-23-9-19-51-40(45)46)26-32(43)27-37(39)56-24-10-20-52-41(47)48/h5-7,13-14,30,32-39H,8-12,15-29H2,1-4H3,(H4,45,46,51)(H4,47,48,52)(H4,49,50,53)/t30-,32?,33-,34-,35+,36+,37-,38+,39?,43+,44-/m1/s1
> <PUBCHEM_IUPAC_INCHIKEY>
QRDHQYSRNBZTEQ-PVZTUBLISA-N
> <PUBCHEM_XLOGP3_AA>
4
> <PUBCHEM_EXACT_MASS>
794.62583639
> <PUBCHEM_MOLECULAR_FORMULA>
C44H78N10O3
> <PUBCHEM_MOLECULAR_WEIGHT>
795.2
> <PUBCHEM_OPENEYE_CAN_SMILES>
CC(CCCN(C)CC1=CC=CC=C1)C2CCC3C2(C(CC4C3C(CC5C4(CCC(C5)OCCCN=C(N)N)C)OCCCN=C(N)N)OCCCN=C(N)N)C
> <PUBCHEM_OPENEYE_ISO_SMILES>
C[C@H](CCCN(C)CC1=CC=CC=C1)[C@H]2CC[C@@H]3[C@@]2([C@H](C[C@H]4C3[C@@H](CC5[C@@]4(CC[C@H](C5)OCCCN=C(N)N)C)OCCCN=C(N)N)OCCCN=C(N)N)C
> <PUBCHEM_CACTVS_TPSA>
224
> <PUBCHEM_MONOISOTOPIC_WEIGHT>
794.62583639
> <PUBCHEM_TOTAL_CHARGE>
0
> <PUBCHEM_HEAVY_ATOM_COUNT>
57
> <PUBCHEM_ATOM_DEF_STEREO_COUNT>
9
> <PUBCHEM_ATOM_UDEF_STEREO_COUNT>
2
> <PUBCHEM_BOND_DEF_STEREO_COUNT>
0
> <PUBCHEM_BOND_UDEF_STEREO_COUNT>
0
> <PUBCHEM_ISOTOPIC_ATOM_COUNT>
0
> <PUBCHEM_COMPONENT_COUNT>
1
> <PUBCHEM_CACTVS_TAUTO_COUNT>
-1
> <PUBCHEM_COORDINATE_TYPE>
1
5
255
> <PUBCHEM_BONDANNOTATIONS>
20  1  6
14  28  5
15  58  6
16  23  3
17  60  6
18  31  5
19  61  6
22  30  3
29  35  6
33  3  6
49  52  8
49  53  8
52  55  8
53  56  8
55  57  8
56  57  8
$$$$
