516783
  -OEChem-10302200292D
 30 31  0     1  0  0  0  0  0999 V2000
    4.6660    0.7500    0.0000 O   0  0  0  0  0  0  0  0  0  0  0  0
    4.6660   -2.2500    0.0000 O   0  0  0  0  0  0  0  0  0  0  0  0
    5.5321   -0.7500    0.0000 N   0  0  0  0  0  0  0  0  0  0  0  0
    6.3981    0.7500    0.0000 C   0  0  0  0  0  0  0  0  0  0  0  0
    6.3981    1.7500    0.0000 C   0  0  0  0  0  0  0  0  0  0  0  0
    5.5321    0.2500    0.0000 C   0  0  3  0  0  0  0  0  0  0  0  0
    7.2641    2.2500    0.0000 C   0  0  0  0  0  0  0  0  0  0  0  0
    5.5321    2.2500    0.0000 C   0  0  0  0  0  0  0  0  0  0  0  0
    3.8000    0.2500    0.0000 C   0  0  0  0  0  0  0  0  0  0  0  0
    3.8000   -0.7500    0.0000 C   0  0  0  0  0  0  0  0  0  0  0  0
    4.6660   -1.2500    0.0000 C   0  0  0  0  0  0  0  0  0  0  0  0
    2.9061    0.7847    0.0000 C   0  0  0  0  0  0  0  0  0  0  0  0
    2.9061   -1.2847    0.0000 C   0  0  0  0  0  0  0  0  0  0  0  0
    2.0000    0.2708    0.0000 C   0  0  0  0  0  0  0  0  0  0  0  0
    2.0000   -0.7708    0.0000 C   0  0  0  0  0  0  0  0  0  0  0  0
    6.6101    0.1674    0.0000 H   0  0  0  0  0  0  0  0  0  0  0  0
    7.0087    0.8577    0.0000 H   0  0  0  0  0  0  0  0  0  0  0  0
    6.3981    2.3700    0.0000 H   0  0  0  0  0  0  0  0  0  0  0  0
    5.5321    0.8700    0.0000 H   0  0  0  0  0  0  0  0  0  0  0  0
    6.0690   -1.0600    0.0000 H   0  0  0  0  0  0  0  0  0  0  0  0
    7.5741    1.7131    0.0000 H   0  0  0  0  0  0  0  0  0  0  0  0
    7.8010    2.5600    0.0000 H   0  0  0  0  0  0  0  0  0  0  0  0
    6.9541    2.7869    0.0000 H   0  0  0  0  0  0  0  0  0  0  0  0
    5.8421    2.7869    0.0000 H   0  0  0  0  0  0  0  0  0  0  0  0
    4.9951    2.5600    0.0000 H   0  0  0  0  0  0  0  0  0  0  0  0
    5.2221    1.7131    0.0000 H   0  0  0  0  0  0  0  0  0  0  0  0
    2.9132    1.4046    0.0000 H   0  0  0  0  0  0  0  0  0  0  0  0
    2.9132   -1.9046    0.0000 H   0  0  0  0  0  0  0  0  0  0  0  0
    1.4643    0.5829    0.0000 H   0  0  0  0  0  0  0  0  0  0  0  0
    1.4643   -1.0829    0.0000 H   0  0  0  0  0  0  0  0  0  0  0  0
  1  6  1  0  0  0  0
  1  9  1  0  0  0  0
  2 11  2  0  0  0  0
  3  6  1  0  0  0  0
  3 11  1  0  0  0  0
  3 20  1  0  0  0  0
  4  5  1  0  0  0  0
  4  6  1  0  0  0  0
  4 16  1  0  0  0  0
  4 17  1  0  0  0  0
  5  7  1  0  0  0  0
  5  8  1  0  0  0  0
  5 18  1  0  0  0  0
  6 19  1  0  0  0  0
  7 21  1  0  0  0  0
  7 22  1  0  0  0  0
  7 23  1  0  0  0  0
  8 24  1  0  0  0  0
  8 25  1  0  0  0  0
  8 26  1  0  0  0  0
  9 10  1  0  0  0  0
  9 12  2  0  0  0  0
 10 11  1  0  0  0  0
 10 13  2  0  0  0  0
 12 14  1  0  0  0  0
 12 27  1  0  0  0  0
 13 15  1  0  0  0  0
 13 28  1  0  0  0  0
 14 15  2  0  0  0  0
 14 29  1  0  0  0  0
 15 30  1  0  0  0  0
M  END
> <PUBCHEM_COMPOUND_CID>
516783
> <PUBCHEM_COMPOUND_CANONICALIZED>
1
> <PUBCHEM_CACTVS_COMPLEXITY>
240
> <PUBCHEM_CACTVS_HBOND_ACCEPTOR>
2
> <PUBCHEM_CACTVS_HBOND_DONOR>
1
> <PUBCHEM_CACTVS_ROTATABLE_BOND>
2
> <PUBCHEM_CACTVS_SUBSKEYS>
AAADccByMAAAAAAAAAAAAAAAAAAAAAAAAAA8QAAAAAAAAACxAAAAHgAQAAAADQThmAYyBoLABACIAiFSEACCCAAkIAAIiIEODMkMJjaEtRuOOWjm9hGIqYeYyCCOAAAAAAAIAAAAAAAAABAAAAAAAAAAAA==
> <PUBCHEM_IUPAC_OPENEYE_NAME>
2-isobutyl-2,3-dihydro-1,3-benzoxazin-4-one
> <PUBCHEM_IUPAC_CAS_NAME>
2-(2-methylpropyl)-2,3-dihydro-1,3-benzoxazin-4-one
> <PUBCHEM_IUPAC_NAME_MARKUP>
2-(2-methylpropyl)-2,3-dihydro-1,3-benzoxazin-4-one
> <PUBCHEM_IUPAC_NAME>
2-(2-methylpropyl)-2,3-dihydro-1,3-benzoxazin-4-one
> <PUBCHEM_IUPAC_SYSTEMATIC_NAME>
2-(2-methylpropyl)-2,3-dihydro-1,3-benzoxazin-4-one
> <PUBCHEM_IUPAC_TRADITIONAL_NAME>
2-isobutyl-2,3-dihydro-1,3-benzoxazin-4-one
> <PUBCHEM_IUPAC_INCHI>
InChI=1S/C12H15NO2/c1-8(2)7-11-13-12(14)9-5-3-4-6-10(9)15-11/h3-6,8,11H,7H2,1-2H3,(H,13,14)
> <PUBCHEM_IUPAC_INCHIKEY>
XPBPOARBCZQXPO-UHFFFAOYSA-N
> <PUBCHEM_XLOGP3_AA>
2.8
> <PUBCHEM_EXACT_MASS>
205.110278721
> <PUBCHEM_MOLECULAR_FORMULA>
C12H15NO2
> <PUBCHEM_MOLECULAR_WEIGHT>
205.25
> <PUBCHEM_OPENEYE_CAN_SMILES>
CC(C)CC1NC(=O)C2=CC=CC=C2O1
> <PUBCHEM_OPENEYE_ISO_SMILES>
CC(C)CC1NC(=O)C2=CC=CC=C2O1
> <PUBCHEM_CACTVS_TPSA>
38.3
> <PUBCHEM_MONOISOTOPIC_WEIGHT>
205.110278721
> <PUBCHEM_TOTAL_CHARGE>
0
> <PUBCHEM_HEAVY_ATOM_COUNT>
15
> <PUBCHEM_ATOM_DEF_STEREO_COUNT>
0
> <PUBCHEM_ATOM_UDEF_STEREO_COUNT>
1
> <PUBCHEM_BOND_DEF_STEREO_COUNT>
0
> <PUBCHEM_BOND_UDEF_STEREO_COUNT>
0
> <PUBCHEM_ISOTOPIC_ATOM_COUNT>
0
> <PUBCHEM_COMPONENT_COUNT>
1
> <PUBCHEM_CACTVS_TAUTO_COUNT>
-1
> <PUBCHEM_COORDINATE_TYPE>
1
5
255
> <PUBCHEM_BONDANNOTATIONS>
10  13  8
12  14  8
13  15  8
14  15  8
6  4  3
9  10  8
9  12  8
$$$$
