516812
  -OEChem-10302200292D
 74 78  0     1  0  0  0  0  0999 V2000
   10.6560    6.4176    0.0000 O   0  0  0  0  0  0  0  0  0  0  0  0
    4.0061    2.1100    0.0000 O   0  0  0  0  0  0  0  0  0  0  0  0
   12.3024    5.8795    0.0000 O   0  0  0  0  0  0  0  0  0  0  0  0
    3.1458    3.6133    0.0000 O   0  0  0  0  0  0  0  0  0  0  0  0
    9.3991    5.1623    0.0000 C   0  0  3  0  0  0  0  0  0  0  0  0
    9.3991    4.1623    0.0000 C   0  0  3  0  0  0  0  0  0  0  0  0
    8.5331    3.6623    0.0000 C   0  0  3  0  0  0  0  0  0  0  0  0
    7.6671    4.1623    0.0000 C   0  0  3  0  0  0  0  0  0  0  0  0
   10.3454    5.4670    0.0000 C   0  0  3  0  0  0  0  0  0  0  0  0
    8.5331    5.6623    0.0000 C   0  0  0  0  0  0  0  0  0  0  0  0
   10.3454    3.8576    0.0000 C   0  0  0  0  0  0  0  0  0  0  0  0
    7.6671    5.1623    0.0000 C   0  0  0  0  0  0  0  0  0  0  0  0
   10.9290    4.6623    0.0000 C   0  0  0  0  0  0  0  0  0  0  0  0
    8.5492    2.6208    0.0000 C   0  0  0  0  0  0  0  0  0  0  0  0
    9.3991    6.1623    0.0000 C   0  0  0  0  0  0  0  0  0  0  0  0
    6.7571    3.6555    0.0000 C   0  0  0  0  0  0  0  0  0  0  0  0
    7.6511    2.0930    0.0000 C   0  0  0  0  0  0  0  0  0  0  0  0
    6.7491    2.6139    0.0000 C   0  0  0  0  0  0  0  0  0  0  0  0
    5.8303    4.2195    0.0000 C   0  0  0  0  0  0  0  0  0  0  0  0
    5.8136    2.0641    0.0000 C   0  0  0  0  0  0  0  0  0  0  0  0
   11.6345    6.6238    0.0000 C   0  0  0  0  0  0  0  0  0  0  0  0
    4.8824    3.6916    0.0000 C   0  0  0  0  0  0  0  0  0  0  0  0
    4.8740    2.6066    0.0000 C   0  0  0  0  0  0  0  0  0  0  0  0
   11.9452    7.5743    0.0000 C   0  0  0  0  0  0  0  0  0  0  0  0
   12.9237    7.7805    0.0000 C   0  0  0  0  0  0  0  0  0  0  0  0
   11.2773    8.3186    0.0000 C   0  0  0  0  0  0  0  0  0  0  0  0
    3.1420    2.6133    0.0000 C   0  0  0  0  0  0  0  0  0  0  0  0
   13.2344    8.7310    0.0000 C   0  0  0  0  0  0  0  0  0  0  0  0
   11.5880    9.2691    0.0000 C   0  0  0  0  0  0  0  0  0  0  0  0
   12.5665    9.4753    0.0000 C   0  0  0  0  0  0  0  0  0  0  0  0
    2.2740    2.1166    0.0000 C   0  0  0  0  0  0  0  0  0  0  0  0
    2.2702    1.1166    0.0000 C   0  0  0  0  0  0  0  0  0  0  0  0
    1.4099    2.6200    0.0000 C   0  0  0  0  0  0  0  0  0  0  0  0
    1.4022    0.6200    0.0000 C   0  0  0  0  0  0  0  0  0  0  0  0
    0.5420    2.1233    0.0000 C   0  0  0  0  0  0  0  0  0  0  0  0
    0.5381    1.1233    0.0000 C   0  0  0  0  0  0  0  0  0  0  0  0
    6.4205   12.6306    0.0000 C   0  0  0  0  0  0  0  0  0  0  0  0
    7.4205   12.6306    0.0000 C   0  0  0  0  0  0  0  0  0  0  0  0
    9.4648    3.5458    0.0000 H   0  0  0  0  0  0  0  0  0  0  0  0
    9.0724    3.3564    0.0000 H   0  0  0  0  0  0  0  0  0  0  0  0
    8.2040    4.4723    0.0000 H   0  0  0  0  0  0  0  0  0  0  0  0
   10.9579    5.5632    0.0000 H   0  0  0  0  0  0  0  0  0  0  0  0
    8.9316    6.1372    0.0000 H   0  0  0  0  0  0  0  0  0  0  0  0
    8.1346    6.1372    0.0000 H   0  0  0  0  0  0  0  0  0  0  0  0
   10.0943    3.2907    0.0000 H   0  0  0  0  0  0  0  0  0  0  0  0
   10.8827    3.5483    0.0000 H   0  0  0  0  0  0  0  0  0  0  0  0
    7.4550    5.7449    0.0000 H   0  0  0  0  0  0  0  0  0  0  0  0
    7.0565    5.0546    0.0000 H   0  0  0  0  0  0  0  0  0  0  0  0
   11.3898    4.2476    0.0000 H   0  0  0  0  0  0  0  0  0  0  0  0
   11.3898    5.0770    0.0000 H   0  0  0  0  0  0  0  0  0  0  0  0
    8.7672    2.0404    0.0000 H   0  0  0  0  0  0  0  0  0  0  0  0
    9.1583    2.7363    0.0000 H   0  0  0  0  0  0  0  0  0  0  0  0
   10.0191    6.1623    0.0000 H   0  0  0  0  0  0  0  0  0  0  0  0
    9.3991    6.7823    0.0000 H   0  0  0  0  0  0  0  0  0  0  0  0
    8.7791    6.1623    0.0000 H   0  0  0  0  0  0  0  0  0  0  0  0
    7.2538    1.6171    0.0000 H   0  0  0  0  0  0  0  0  0  0  0  0
    8.0521    1.6202    0.0000 H   0  0  0  0  0  0  0  0  0  0  0  0
    5.8422    4.8394    0.0000 H   0  0  0  0  0  0  0  0  0  0  0  0
    5.8160    1.4441    0.0000 H   0  0  0  0  0  0  0  0  0  0  0  0
    4.3490    4.0078    0.0000 H   0  0  0  0  0  0  0  0  0  0  0  0
   13.3378    7.3190    0.0000 H   0  0  0  0  0  0  0  0  0  0  0  0
   10.6707    8.1907    0.0000 H   0  0  0  0  0  0  0  0  0  0  0  0
   13.8410    8.8589    0.0000 H   0  0  0  0  0  0  0  0  0  0  0  0
   11.1739    9.7306    0.0000 H   0  0  0  0  0  0  0  0  0  0  0  0
   12.7591   10.0647    0.0000 H   0  0  0  0  0  0  0  0  0  0  0  0
    2.8059    0.8046    0.0000 H   0  0  0  0  0  0  0  0  0  0  0  0
    1.4123    3.2400    0.0000 H   0  0  0  0  0  0  0  0  0  0  0  0
    1.3998    0.0000    0.0000 H   0  0  0  0  0  0  0  0  0  0  0  0
    0.0062    2.4354    0.0000 H   0  0  0  0  0  0  0  0  0  0  0  0
    0.0000    0.8154    0.0000 H   0  0  0  0  0  0  0  0  0  0  0  0
    6.1105   13.1675    0.0000 H   0  0  0  0  0  0  0  0  0  0  0  0
    6.1105   12.0937    0.0000 H   0  0  0  0  0  0  0  0  0  0  0  0
    7.7305   12.0937    0.0000 H   0  0  0  0  0  0  0  0  0  0  0  0
    7.7305   13.1675    0.0000 H   0  0  0  0  0  0  0  0  0  0  0  0
  1  9  1  0  0  0  0
  1 21  1  0  0  0  0
  2 23  1  0  0  0  0
  2 27  1  0  0  0  0
  3 21  2  0  0  0  0
  4 27  2  0  0  0  0
  5  6  1  0  0  0  0
  5  9  1  0  0  0  0
  5 10  1  0  0  0  0
  5 15  1  0  0  0  0
  6  7  1  0  0  0  0
  6 11  1  0  0  0  0
  6 39  1  0  0  0  0
  7  8  1  0  0  0  0
  7 14  1  0  0  0  0
  7 40  1  0  0  0  0
  8 12  1  0  0  0  0
  8 16  1  0  0  0  0
  8 41  1  0  0  0  0
  9 13  1  0  0  0  0
  9 42  1  0  0  0  0
 10 12  1  0  0  0  0
 10 43  1  0  0  0  0
 10 44  1  0  0  0  0
 11 13  1  0  0  0  0
 11 45  1  0  0  0  0
 11 46  1  0  0  0  0
 12 47  1  0  0  0  0
 12 48  1  0  0  0  0
 13 49  1  0  0  0  0
 13 50  1  0  0  0  0
 14 17  1  0  0  0  0
 14 51  1  0  0  0  0
 14 52  1  0  0  0  0
 15 53  1  0  0  0  0
 15 54  1  0  0  0  0
 15 55  1  0  0  0  0
 16 18  2  0  0  0  0
 16 19  1  0  0  0  0
 17 18  1  0  0  0  0
 17 56  1  0  0  0  0
 17 57  1  0  0  0  0
 18 20  1  0  0  0  0
 19 22  2  0  0  0  0
 19 58  1  0  0  0  0
 20 23  2  0  0  0  0
 20 59  1  0  0  0  0
 21 24  1  0  0  0  0
 22 23  1  0  0  0  0
 22 60  1  0  0  0  0
 24 25  2  0  0  0  0
 24 26  1  0  0  0  0
 25 28  1  0  0  0  0
 25 61  1  0  0  0  0
 26 29  2  0  0  0  0
 26 62  1  0  0  0  0
 27 31  1  0  0  0  0
 28 30  2  0  0  0  0
 28 63  1  0  0  0  0
 29 30  1  0  0  0  0
 29 64  1  0  0  0  0
 30 65  1  0  0  0  0
 31 32  2  0  0  0  0
 31 33  1  0  0  0  0
 32 34  1  0  0  0  0
 32 66  1  0  0  0  0
 33 35  2  0  0  0  0
 33 67  1  0  0  0  0
 34 36  2  0  0  0  0
 34 68  1  0  0  0  0
 35 36  1  0  0  0  0
 35 69  1  0  0  0  0
 36 70  1  0  0  0  0
 37 38  2  0  0  0  0
 37 71  1  0  0  0  0
 37 72  1  0  0  0  0
 38 73  1  0  0  0  0
 38 74  1  0  0  0  0
M  END
> <PUBCHEM_COMPOUND_CID>
516812
> <PUBCHEM_COMPOUND_CANONICALIZED>
1
> <PUBCHEM_CACTVS_COMPLEXITY>
796
> <PUBCHEM_CACTVS_HBOND_ACCEPTOR>
4
> <PUBCHEM_CACTVS_HBOND_DONOR>
0
> <PUBCHEM_CACTVS_ROTATABLE_BOND>
6
> <PUBCHEM_CACTVS_SUBSKEYS>
AAADcfB8OAAAAAAAAAAAAAAAAAAAAYAAAAAwYMGDAAAAAGDBUAAAGgAAAAAADxSgmAIyDoAABACIAiDSCAACCAAkIAAIiAEGCMgMJjKENRqCOyCkwBEIqYeIyPCPoAABAAAQAADAAAYAACAAAIAADAAAAA==
> <PUBCHEM_IUPAC_OPENEYE_NAME>
(3-benzoyloxy-13-methyl-6,7,8,9,11,12,14,15,16,17-decahydrocyclopenta[a]phenanthren-17-yl) benzoate;ethylene
> <PUBCHEM_IUPAC_CAS_NAME>
benzoic acid (3-benzoyloxy-13-methyl-6,7,8,9,11,12,14,15,16,17-decahydrocyclopenta[a]phenanthren-17-yl) ester;ethene
> <PUBCHEM_IUPAC_NAME_MARKUP>
(3-benzoyloxy-13-methyl-6,7,8,9,11,12,14,15,16,17-decahydrocyclopenta[a]phenanthren-17-yl) benzoate;ethene
> <PUBCHEM_IUPAC_NAME>
(3-benzoyloxy-13-methyl-6,7,8,9,11,12,14,15,16,17-decahydrocyclopenta[a]phenanthren-17-yl) benzoate;ethene
> <PUBCHEM_IUPAC_SYSTEMATIC_NAME>
ethene;[13-methyl-3-(phenylcarbonyloxy)-6,7,8,9,11,12,14,15,16,17-decahydrocyclopenta[a]phenanthren-17-yl] benzoate
> <PUBCHEM_IUPAC_TRADITIONAL_NAME>
benzoic acid (3-benzoyloxy-13-methyl-6,7,8,9,11,12,14,15,16,17-decahydrocyclopenta[a]phenanthren-17-yl) ester;ethylene
> <PUBCHEM_IUPAC_INCHI>
InChI=1S/C32H32O4.C2H4/c1-32-19-18-26-25-15-13-24(35-30(33)21-8-4-2-5-9-21)20-23(25)12-14-27(26)28(32)16-17-29(32)36-31(34)22-10-6-3-7-11-22;1-2/h2-11,13,15,20,26-29H,12,14,16-19H2,1H3;1-2H2
> <PUBCHEM_IUPAC_INCHIKEY>
QWBKLWMFSMHQRX-UHFFFAOYSA-N
> <PUBCHEM_EXACT_MASS>
508.26135963
> <PUBCHEM_MOLECULAR_FORMULA>
C34H36O4
> <PUBCHEM_MOLECULAR_WEIGHT>
508.6
> <PUBCHEM_OPENEYE_CAN_SMILES>
CC12CCC3C(C1CCC2OC(=O)C4=CC=CC=C4)CCC5=C3C=CC(=C5)OC(=O)C6=CC=CC=C6.C=C
> <PUBCHEM_OPENEYE_ISO_SMILES>
CC12CCC3C(C1CCC2OC(=O)C4=CC=CC=C4)CCC5=C3C=CC(=C5)OC(=O)C6=CC=CC=C6.C=C
> <PUBCHEM_CACTVS_TPSA>
52.6
> <PUBCHEM_MONOISOTOPIC_WEIGHT>
508.26135963
> <PUBCHEM_TOTAL_CHARGE>
0
> <PUBCHEM_HEAVY_ATOM_COUNT>
38
> <PUBCHEM_ATOM_DEF_STEREO_COUNT>
0
> <PUBCHEM_ATOM_UDEF_STEREO_COUNT>
5
> <PUBCHEM_BOND_DEF_STEREO_COUNT>
0
> <PUBCHEM_BOND_UDEF_STEREO_COUNT>
0
> <PUBCHEM_ISOTOPIC_ATOM_COUNT>
0
> <PUBCHEM_COMPONENT_COUNT>
2
> <PUBCHEM_CACTVS_TAUTO_COUNT>
-1
> <PUBCHEM_COORDINATE_TYPE>
1
5
255
> <PUBCHEM_BONDANNOTATIONS>
9  1  3
16  18  8
16  19  8
18  20  8
19  22  8
20  23  8
22  23  8
24  25  8
24  26  8
25  28  8
26  29  8
28  30  8
29  30  8
31  32  8
31  33  8
32  34  8
33  35  8
34  36  8
35  36  8
5  15  3
6  11  3
7  14  3
8  12  3
$$$$
