516814
  -OEChem-10302200292D
118125  0     1  0  0  0  0  0999 V2000
   11.3528    4.9734    0.0000 O   0  0  0  0  0  0  0  0  0  0  0  0
   14.3135   17.0756    0.0000 O   0  0  0  0  0  0  0  0  0  0  0  0
   12.9991    4.4353    0.0000 O   0  0  0  0  0  0  0  0  0  0  0  0
    7.6636   12.7680    0.0000 O   0  0  0  0  0  0  0  0  0  0  0  0
    4.7028    0.6658    0.0000 O   0  0  0  0  0  0  0  0  0  0  0  0
    6.8033   14.2713    0.0000 O   0  0  0  0  0  0  0  0  0  0  0  0
   10.0959    3.7182    0.0000 C   0  0  3  0  0  0  0  0  0  0  0  0
   10.0959    2.7182    0.0000 C   0  0  3  0  0  0  0  0  0  0  0  0
   13.0566   15.8203    0.0000 C   0  0  3  0  0  0  0  0  0  0  0  0
   13.0566   14.8203    0.0000 C   0  0  3  0  0  0  0  0  0  0  0  0
    9.2299    2.2182    0.0000 C   0  0  3  0  0  0  0  0  0  0  0  0
   12.1906   14.3203    0.0000 C   0  0  3  0  0  0  0  0  0  0  0  0
    8.3638    2.7182    0.0000 C   0  0  3  0  0  0  0  0  0  0  0  0
   11.0421    4.0229    0.0000 C   0  0  3  0  0  0  0  0  0  0  0  0
    9.2299    4.2182    0.0000 C   0  0  0  0  0  0  0  0  0  0  0  0
   11.3246   14.8203    0.0000 C   0  0  3  0  0  0  0  0  0  0  0  0
   11.0421    2.4134    0.0000 C   0  0  0  0  0  0  0  0  0  0  0  0
   14.0029   16.1251    0.0000 C   0  0  3  0  0  0  0  0  0  0  0  0
   12.1906   16.3203    0.0000 C   0  0  0  0  0  0  0  0  0  0  0  0
   14.0029   14.5156    0.0000 C   0  0  0  0  0  0  0  0  0  0  0  0
    8.3638    3.7182    0.0000 C   0  0  0  0  0  0  0  0  0  0  0  0
   11.6257    3.2182    0.0000 C   0  0  0  0  0  0  0  0  0  0  0  0
   11.3246   15.8203    0.0000 C   0  0  0  0  0  0  0  0  0  0  0  0
   14.5865   15.3203    0.0000 C   0  0  0  0  0  0  0  0  0  0  0  0
    9.2459    1.1767    0.0000 C   0  0  0  0  0  0  0  0  0  0  0  0
   12.2067   13.2788    0.0000 C   0  0  0  0  0  0  0  0  0  0  0  0
   10.0959    4.7182    0.0000 C   0  0  0  0  0  0  0  0  0  0  0  0
   13.0566   16.8203    0.0000 C   0  0  0  0  0  0  0  0  0  0  0  0
    7.4538    2.2113    0.0000 C   0  0  0  0  0  0  0  0  0  0  0  0
   10.4146   14.3135    0.0000 C   0  0  0  0  0  0  0  0  0  0  0  0
    8.3479    0.6489    0.0000 C   0  0  0  0  0  0  0  0  0  0  0  0
   11.3086   12.7511    0.0000 C   0  0  0  0  0  0  0  0  0  0  0  0
    7.4458    1.1697    0.0000 C   0  0  0  0  0  0  0  0  0  0  0  0
   10.4066   13.2719    0.0000 C   0  0  0  0  0  0  0  0  0  0  0  0
    6.5270    2.7754    0.0000 C   0  0  0  0  0  0  0  0  0  0  0  0
    9.4878   14.8776    0.0000 C   0  0  0  0  0  0  0  0  0  0  0  0
    6.5104    0.6200    0.0000 C   0  0  0  0  0  0  0  0  0  0  0  0
    9.4711   12.7222    0.0000 C   0  0  0  0  0  0  0  0  0  0  0  0
   12.3313    5.1796    0.0000 C   0  0  0  0  0  0  0  0  0  0  0  0
    5.5791    2.2475    0.0000 C   0  0  0  0  0  0  0  0  0  0  0  0
    8.5399   14.3496    0.0000 C   0  0  0  0  0  0  0  0  0  0  0  0
    5.5708    1.1625    0.0000 C   0  0  0  0  0  0  0  0  0  0  0  0
    8.5315   13.2647    0.0000 C   0  0  0  0  0  0  0  0  0  0  0  0
   12.6419    6.1302    0.0000 C   0  0  0  0  0  0  0  0  0  0  0  0
   11.9741    6.8745    0.0000 C   0  0  0  0  0  0  0  0  0  0  0  0
   13.6204    6.3364    0.0000 C   0  0  0  0  0  0  0  0  0  0  0  0
    6.7995   13.2713    0.0000 C   0  0  0  0  0  0  0  0  0  0  0  0
   12.2848    7.8250    0.0000 C   0  0  0  0  0  0  0  0  0  0  0  0
   13.9311    7.2869    0.0000 C   0  0  0  0  0  0  0  0  0  0  0  0
   13.2633    8.0312    0.0000 C   0  0  0  0  0  0  0  0  0  0  0  0
    5.9315   12.7747    0.0000 C   0  0  0  0  0  0  0  0  0  0  0  0
    5.9277   11.7747    0.0000 C   0  0  0  0  0  0  0  0  0  0  0  0
    5.0674   13.2780    0.0000 C   0  0  0  0  0  0  0  0  0  0  0  0
    5.0597   11.2780    0.0000 C   0  0  0  0  0  0  0  0  0  0  0  0
    4.1995   12.7813    0.0000 C   0  0  0  0  0  0  0  0  0  0  0  0
    4.1956   11.7814    0.0000 C   0  0  0  0  0  0  0  0  0  0  0  0
    1.3100    8.7202    0.0000 C   0  0  0  0  0  0  0  0  0  0  0  0
    0.3100    8.7202    0.0000 C   0  0  0  0  0  0  0  0  0  0  0  0
   10.1615    2.1016    0.0000 H   0  0  0  0  0  0  0  0  0  0  0  0
   13.1223   14.2038    0.0000 H   0  0  0  0  0  0  0  0  0  0  0  0
    9.7692    1.9123    0.0000 H   0  0  0  0  0  0  0  0  0  0  0  0
   12.7299   14.0145    0.0000 H   0  0  0  0  0  0  0  0  0  0  0  0
    8.9008    3.0282    0.0000 H   0  0  0  0  0  0  0  0  0  0  0  0
   11.6546    4.1191    0.0000 H   0  0  0  0  0  0  0  0  0  0  0  0
    9.6284    4.6931    0.0000 H   0  0  0  0  0  0  0  0  0  0  0  0
    8.8313    4.6931    0.0000 H   0  0  0  0  0  0  0  0  0  0  0  0
   11.8615   15.1303    0.0000 H   0  0  0  0  0  0  0  0  0  0  0  0
   10.7911    1.8465    0.0000 H   0  0  0  0  0  0  0  0  0  0  0  0
   11.5795    2.1042    0.0000 H   0  0  0  0  0  0  0  0  0  0  0  0
   13.5654   16.5644    0.0000 H   0  0  0  0  0  0  0  0  0  0  0  0
   12.5891   16.7953    0.0000 H   0  0  0  0  0  0  0  0  0  0  0  0
   11.7921   16.7953    0.0000 H   0  0  0  0  0  0  0  0  0  0  0  0
   13.7518   13.9487    0.0000 H   0  0  0  0  0  0  0  0  0  0  0  0
   14.5402   14.2064    0.0000 H   0  0  0  0  0  0  0  0  0  0  0  0
    8.1518    4.3008    0.0000 H   0  0  0  0  0  0  0  0  0  0  0  0
    7.7532    3.6105    0.0000 H   0  0  0  0  0  0  0  0  0  0  0  0
   12.0866    2.8034    0.0000 H   0  0  0  0  0  0  0  0  0  0  0  0
   12.0866    3.6329    0.0000 H   0  0  0  0  0  0  0  0  0  0  0  0
   11.1125   16.4029    0.0000 H   0  0  0  0  0  0  0  0  0  0  0  0
   10.7140   15.7127    0.0000 H   0  0  0  0  0  0  0  0  0  0  0  0
   15.0473   14.9056    0.0000 H   0  0  0  0  0  0  0  0  0  0  0  0
   15.0473   15.7351    0.0000 H   0  0  0  0  0  0  0  0  0  0  0  0
    9.4640    0.5963    0.0000 H   0  0  0  0  0  0  0  0  0  0  0  0
    9.8551    1.2922    0.0000 H   0  0  0  0  0  0  0  0  0  0  0  0
   12.4247   12.6984    0.0000 H   0  0  0  0  0  0  0  0  0  0  0  0
   12.8158   13.3943    0.0000 H   0  0  0  0  0  0  0  0  0  0  0  0
   10.7159    4.7182    0.0000 H   0  0  0  0  0  0  0  0  0  0  0  0
   10.0959    5.3382    0.0000 H   0  0  0  0  0  0  0  0  0  0  0  0
    9.4759    4.7182    0.0000 H   0  0  0  0  0  0  0  0  0  0  0  0
   13.6766   16.8203    0.0000 H   0  0  0  0  0  0  0  0  0  0  0  0
   13.0566   17.4403    0.0000 H   0  0  0  0  0  0  0  0  0  0  0  0
   12.4366   16.8203    0.0000 H   0  0  0  0  0  0  0  0  0  0  0  0
    7.9506    0.1729    0.0000 H   0  0  0  0  0  0  0  0  0  0  0  0
    8.7488    0.1760    0.0000 H   0  0  0  0  0  0  0  0  0  0  0  0
   10.9113   12.2751    0.0000 H   0  0  0  0  0  0  0  0  0  0  0  0
   11.7096   12.2782    0.0000 H   0  0  0  0  0  0  0  0  0  0  0  0
   14.9202   17.2034    0.0000 H   0  0  0  0  0  0  0  0  0  0  0  0
    6.5390    3.3953    0.0000 H   0  0  0  0  0  0  0  0  0  0  0  0
    9.4997   15.4974    0.0000 H   0  0  0  0  0  0  0  0  0  0  0  0
    6.5128    0.0000    0.0000 H   0  0  0  0  0  0  0  0  0  0  0  0
    9.4735   12.1022    0.0000 H   0  0  0  0  0  0  0  0  0  0  0  0
    5.0458    2.5636    0.0000 H   0  0  0  0  0  0  0  0  0  0  0  0
    8.0066   14.6658    0.0000 H   0  0  0  0  0  0  0  0  0  0  0  0
    4.1671    0.9779    0.0000 H   0  0  0  0  0  0  0  0  0  0  0  0
   11.3674    6.7466    0.0000 H   0  0  0  0  0  0  0  0  0  0  0  0
   14.0345    5.8749    0.0000 H   0  0  0  0  0  0  0  0  0  0  0  0
   11.8707    8.2864    0.0000 H   0  0  0  0  0  0  0  0  0  0  0  0
   14.5378    7.4148    0.0000 H   0  0  0  0  0  0  0  0  0  0  0  0
   13.4559    8.6205    0.0000 H   0  0  0  0  0  0  0  0  0  0  0  0
    6.4634   11.4626    0.0000 H   0  0  0  0  0  0  0  0  0  0  0  0
    5.0698   13.8980    0.0000 H   0  0  0  0  0  0  0  0  0  0  0  0
    5.0573   10.6580    0.0000 H   0  0  0  0  0  0  0  0  0  0  0  0
    3.6638   13.0934    0.0000 H   0  0  0  0  0  0  0  0  0  0  0  0
    3.6575   11.4734    0.0000 H   0  0  0  0  0  0  0  0  0  0  0  0
    1.6200    8.1832    0.0000 H   0  0  0  0  0  0  0  0  0  0  0  0
    1.6200    9.2571    0.0000 H   0  0  0  0  0  0  0  0  0  0  0  0
    0.0000    9.2571    0.0000 H   0  0  0  0  0  0  0  0  0  0  0  0
    0.0000    8.1832    0.0000 H   0  0  0  0  0  0  0  0  0  0  0  0
  1 14  1  0  0  0  0
  1 39  1  0  0  0  0
  2 18  1  0  0  0  0
  2 97  1  0  0  0  0
  3 39  2  0  0  0  0
  4 43  1  0  0  0  0
  4 47  1  0  0  0  0
  5 42  1  0  0  0  0
  5104  1  0  0  0  0
  6 47  2  0  0  0  0
  7  8  1  0  0  0  0
  7 14  1  0  0  0  0
  7 15  1  0  0  0  0
  7 27  1  0  0  0  0
  8 11  1  0  0  0  0
  8 17  1  0  0  0  0
  8 59  1  0  0  0  0
  9 10  1  0  0  0  0
  9 18  1  0  0  0  0
  9 19  1  0  0  0  0
  9 28  1  0  0  0  0
 10 12  1  0  0  0  0
 10 20  1  0  0  0  0
 10 60  1  0  0  0  0
 11 13  1  0  0  0  0
 11 25  1  0  0  0  0
 11 61  1  0  0  0  0
 12 16  1  0  0  0  0
 12 26  1  0  0  0  0
 12 62  1  0  0  0  0
 13 21  1  0  0  0  0
 13 29  1  0  0  0  0
 13 63  1  0  0  0  0
 14 22  1  0  0  0  0
 14 64  1  0  0  0  0
 15 21  1  0  0  0  0
 15 65  1  0  0  0  0
 15 66  1  0  0  0  0
 16 23  1  0  0  0  0
 16 30  1  0  0  0  0
 16 67  1  0  0  0  0
 17 22  1  0  0  0  0
 17 68  1  0  0  0  0
 17 69  1  0  0  0  0
 18 24  1  0  0  0  0
 18 70  1  0  0  0  0
 19 23  1  0  0  0  0
 19 71  1  0  0  0  0
 19 72  1  0  0  0  0
 20 24  1  0  0  0  0
 20 73  1  0  0  0  0
 20 74  1  0  0  0  0
 21 75  1  0  0  0  0
 21 76  1  0  0  0  0
 22 77  1  0  0  0  0
 22 78  1  0  0  0  0
 23 79  1  0  0  0  0
 23 80  1  0  0  0  0
 24 81  1  0  0  0  0
 24 82  1  0  0  0  0
 25 31  1  0  0  0  0
 25 83  1  0  0  0  0
 25 84  1  0  0  0  0
 26 32  1  0  0  0  0
 26 85  1  0  0  0  0
 26 86  1  0  0  0  0
 27 87  1  0  0  0  0
 27 88  1  0  0  0  0
 27 89  1  0  0  0  0
 28 90  1  0  0  0  0
 28 91  1  0  0  0  0
 28 92  1  0  0  0  0
 29 33  2  0  0  0  0
 29 35  1  0  0  0  0
 30 34  2  0  0  0  0
 30 36  1  0  0  0  0
 31 33  1  0  0  0  0
 31 93  1  0  0  0  0
 31 94  1  0  0  0  0
 32 34  1  0  0  0  0
 32 95  1  0  0  0  0
 32 96  1  0  0  0  0
 33 37  1  0  0  0  0
 34 38  1  0  0  0  0
 35 40  2  0  0  0  0
 35 98  1  0  0  0  0
 36 41  2  0  0  0  0
 36 99  1  0  0  0  0
 37 42  2  0  0  0  0
 37100  1  0  0  0  0
 38 43  2  0  0  0  0
 38101  1  0  0  0  0
 39 44  1  0  0  0  0
 40 42  1  0  0  0  0
 40102  1  0  0  0  0
 41 43  1  0  0  0  0
 41103  1  0  0  0  0
 44 45  2  0  0  0  0
 44 46  1  0  0  0  0
 45 48  1  0  0  0  0
 45105  1  0  0  0  0
 46 49  2  0  0  0  0
 46106  1  0  0  0  0
 47 51  1  0  0  0  0
 48 50  2  0  0  0  0
 48107  1  0  0  0  0
 49 50  1  0  0  0  0
 49108  1  0  0  0  0
 50109  1  0  0  0  0
 51 52  2  0  0  0  0
 51 53  1  0  0  0  0
 52 54  1  0  0  0  0
 52110  1  0  0  0  0
 53 55  2  0  0  0  0
 53111  1  0  0  0  0
 54 56  2  0  0  0  0
 54112  1  0  0  0  0
 55 56  1  0  0  0  0
 55113  1  0  0  0  0
 56114  1  0  0  0  0
 57 58  2  0  0  0  0
 57115  1  0  0  0  0
 57116  1  0  0  0  0
 58117  1  0  0  0  0
 58118  1  0  0  0  0
M  END
> <PUBCHEM_COMPOUND_CID>
516814
> <PUBCHEM_COMPOUND_CANONICALIZED>
1
> <PUBCHEM_CACTVS_COMPLEXITY>
1160
> <PUBCHEM_CACTVS_HBOND_ACCEPTOR>
6
> <PUBCHEM_CACTVS_HBOND_DONOR>
2
> <PUBCHEM_CACTVS_ROTATABLE_BOND>
6
> <PUBCHEM_CACTVS_SUBSKEYS>
AAADcfB8OAAAAAAAAAAAAAAAAAAAAYMAAAAwYMGDAAAAAGDBVAAAGgAACAAADxSgmAIyDoAABgCIAiDSCAACCAAkIAAIiAEGCMgMNjKGNRqCeyCkwBEIuYeIyPCPoAABAAAQAADAAAYAACAAAIAADAAAAA==
> <PUBCHEM_IUPAC_OPENEYE_NAME>
ethylene;(3-hydroxy-13-methyl-6,7,8,9,11,12,14,15,16,17-decahydrocyclopenta[a]phenanthren-17-yl) benzoate;(17-hydroxy-13-methyl-6,7,8,9,11,12,14,15,16,17-decahydrocyclopenta[a]phenanthren-3-yl) benzoate
> <PUBCHEM_IUPAC_CAS_NAME>
benzoic acid (3-hydroxy-13-methyl-6,7,8,9,11,12,14,15,16,17-decahydrocyclopenta[a]phenanthren-17-yl) ester;benzoic acid (17-hydroxy-13-methyl-6,7,8,9,11,12,14,15,16,17-decahydrocyclopenta[a]phenanthren-3-yl) ester;ethene
> <PUBCHEM_IUPAC_NAME_MARKUP>
ethene;(3-hydroxy-13-methyl-6,7,8,9,11,12,14,15,16,17-decahydrocyclopenta[a]phenanthren-17-yl) benzoate;(17-hydroxy-13-methyl-6,7,8,9,11,12,14,15,16,17-decahydrocyclopenta[a]phenanthren-3-yl) benzoate
> <PUBCHEM_IUPAC_NAME>
ethene;(3-hydroxy-13-methyl-6,7,8,9,11,12,14,15,16,17-decahydrocyclopenta[a]phenanthren-17-yl) benzoate;(17-hydroxy-13-methyl-6,7,8,9,11,12,14,15,16,17-decahydrocyclopenta[a]phenanthren-3-yl) benzoate
> <PUBCHEM_IUPAC_SYSTEMATIC_NAME>
ethene;(13-methyl-3-oxidanyl-6,7,8,9,11,12,14,15,16,17-decahydrocyclopenta[a]phenanthren-17-yl) benzoate;(13-methyl-17-oxidanyl-6,7,8,9,11,12,14,15,16,17-decahydrocyclopenta[a]phenanthren-3-yl) benzoate
> <PUBCHEM_IUPAC_TRADITIONAL_NAME>
benzoic acid (3-hydroxy-13-methyl-6,7,8,9,11,12,14,15,16,17-decahydrocyclopenta[a]phenanthren-17-yl) ester;benzoic acid (17-hydroxy-13-methyl-6,7,8,9,11,12,14,15,16,17-decahydrocyclopenta[a]phenanthren-3-yl) ester;ethylene
> <PUBCHEM_IUPAC_INCHI>
InChI=1S/2C25H28O3.C2H4/c1-25-14-13-20-19-10-8-18(28-24(27)16-5-3-2-4-6-16)15-17(19)7-9-21(20)22(25)11-12-23(25)26;1-25-14-13-20-19-10-8-18(26)15-17(19)7-9-21(20)22(25)11-12-23(25)28-24(27)16-5-3-2-4-6-16;1-2/h2*2-6,8,10,15,20-23,26H,7,9,11-14H2,1H3;1-2H2
> <PUBCHEM_IUPAC_INCHIKEY>
WFIITTDORKHPFO-UHFFFAOYSA-N
> <PUBCHEM_EXACT_MASS>
780.43898963
> <PUBCHEM_MOLECULAR_FORMULA>
C52H60O6
> <PUBCHEM_MOLECULAR_WEIGHT>
781.0
> <PUBCHEM_OPENEYE_CAN_SMILES>
CC12CCC3C(C1CCC2O)CCC4=C3C=CC(=C4)OC(=O)C5=CC=CC=C5.CC12CCC3C(C1CCC2OC(=O)C4=CC=CC=C4)CCC5=C3C=CC(=C5)O.C=C
> <PUBCHEM_OPENEYE_ISO_SMILES>
CC12CCC3C(C1CCC2O)CCC4=C3C=CC(=C4)OC(=O)C5=CC=CC=C5.CC12CCC3C(C1CCC2OC(=O)C4=CC=CC=C4)CCC5=C3C=CC(=C5)O.C=C
> <PUBCHEM_CACTVS_TPSA>
93.1
> <PUBCHEM_MONOISOTOPIC_WEIGHT>
780.43898963
> <PUBCHEM_TOTAL_CHARGE>
0
> <PUBCHEM_HEAVY_ATOM_COUNT>
58
> <PUBCHEM_ATOM_DEF_STEREO_COUNT>
0
> <PUBCHEM_ATOM_UDEF_STEREO_COUNT>
10
> <PUBCHEM_BOND_DEF_STEREO_COUNT>
0
> <PUBCHEM_BOND_UDEF_STEREO_COUNT>
0
> <PUBCHEM_ISOTOPIC_ATOM_COUNT>
0
> <PUBCHEM_COMPONENT_COUNT>
3
> <PUBCHEM_CACTVS_TAUTO_COUNT>
-1
> <PUBCHEM_COORDINATE_TYPE>
1
5
255
> <PUBCHEM_BONDANNOTATIONS>
14  1  3
10  20  3
11  25  3
12  26  3
13  21  3
16  23  3
18  2  3
29  33  8
29  35  8
30  34  8
30  36  8
33  37  8
34  38  8
35  40  8
36  41  8
37  42  8
38  43  8
40  42  8
41  43  8
44  45  8
44  46  8
45  48  8
46  49  8
48  50  8
49  50  8
51  52  8
51  53  8
52  54  8
53  55  8
54  56  8
55  56  8
7  27  3
8  17  3
9  28  3
$$$$
