516810
  -OEChem-10302200292D
 44 45  0     1  0  0  0  0  0999 V2000
    6.0010   -1.4050    0.0000 O   0  0  0  0  0  0  0  0  0  0  0  0
    7.7331    0.5950    0.0000 O   0  0  0  0  0  0  0  0  0  0  0  0
    5.1350    0.0950    0.0000 O   0  0  0  0  0  0  0  0  0  0  0  0
    7.7331   -2.4050    0.0000 O   0  0  0  0  0  0  0  0  0  0  0  0
    9.4651   -1.4050    0.0000 O   0  0  0  0  0  0  0  0  0  0  0  0
    4.2690   -2.4050    0.0000 O   0  0  0  0  0  0  0  0  0  0  0  0
    2.5369    0.5950    0.0000 O   0  0  0  0  0  0  0  0  0  0  0  0
    9.4651    0.5950    0.0000 O   0  0  0  0  0  0  0  0  0  0  0  0
    6.0010    1.5950    0.0000 O   0  0  0  0  0  0  0  0  0  0  0  0
    3.4030    2.0950    0.0000 O   0  0  0  0  0  0  0  0  0  0  0  0
    6.8671   -0.9050    0.0000 C   0  0  3  0  0  0  0  0  0  0  0  0
    7.7331   -1.4050    0.0000 C   0  0  3  0  0  0  0  0  0  0  0  0
    6.8671    0.0950    0.0000 C   0  0  3  0  0  0  0  0  0  0  0  0
    5.1350   -0.9050    0.0000 C   0  0  3  0  0  0  0  0  0  0  0  0
    8.5991   -0.9050    0.0000 C   0  0  3  0  0  0  0  0  0  0  0  0
    4.2690   -1.4050    0.0000 C   0  0  3  0  0  0  0  0  0  0  0  0
    3.4030   -0.9050    0.0000 C   0  0  0  0  0  0  0  0  0  0  0  0
    3.4030    0.0950    0.0000 C   0  0  3  0  0  0  0  0  0  0  0  0
    4.2690    0.5950    0.0000 C   0  0  3  0  0  0  0  0  0  0  0  0
    8.5991    0.0950    0.0000 C   0  0  3  0  0  0  0  0  0  0  0  0
    6.0010    0.5950    0.0000 C   0  0  0  0  0  0  0  0  0  0  0  0
    4.2690    1.5950    0.0000 C   0  0  0  0  0  0  0  0  0  0  0  0
    6.3301   -0.5950    0.0000 H   0  0  0  0  0  0  0  0  0  0  0  0
    7.1962   -1.7150    0.0000 H   0  0  0  0  0  0  0  0  0  0  0  0
    6.8671    0.7150    0.0000 H   0  0  0  0  0  0  0  0  0  0  0  0
    5.1350   -1.5250    0.0000 H   0  0  0  0  0  0  0  0  0  0  0  0
    8.5991   -1.5250    0.0000 H   0  0  0  0  0  0  0  0  0  0  0  0
    3.7320   -1.7150    0.0000 H   0  0  0  0  0  0  0  0  0  0  0  0
    2.7924   -0.7973    0.0000 H   0  0  0  0  0  0  0  0  0  0  0  0
    3.1909   -1.4876    0.0000 H   0  0  0  0  0  0  0  0  0  0  0  0
    3.4030    0.7150    0.0000 H   0  0  0  0  0  0  0  0  0  0  0  0
    4.8059    0.9050    0.0000 H   0  0  0  0  0  0  0  0  0  0  0  0
    8.5991    0.7150    0.0000 H   0  0  0  0  0  0  0  0  0  0  0  0
    5.3905    0.7027    0.0000 H   0  0  0  0  0  0  0  0  0  0  0  0
    5.7890    0.0124    0.0000 H   0  0  0  0  0  0  0  0  0  0  0  0
    4.8796    1.4873    0.0000 H   0  0  0  0  0  0  0  0  0  0  0  0
    4.4810    2.1776    0.0000 H   0  0  0  0  0  0  0  0  0  0  0  0
    8.2700   -2.7150    0.0000 H   0  0  0  0  0  0  0  0  0  0  0  0
   10.0021   -1.0950    0.0000 H   0  0  0  0  0  0  0  0  0  0  0  0
    3.7320   -2.7150    0.0000 H   0  0  0  0  0  0  0  0  0  0  0  0
    2.0000    0.2850    0.0000 H   0  0  0  0  0  0  0  0  0  0  0  0
    9.4651    1.2150    0.0000 H   0  0  0  0  0  0  0  0  0  0  0  0
    5.4641    1.9050    0.0000 H   0  0  0  0  0  0  0  0  0  0  0  0
    3.4030    2.7150    0.0000 H   0  0  0  0  0  0  0  0  0  0  0  0
  1 11  1  0  0  0  0
  1 14  1  0  0  0  0
  2 13  1  0  0  0  0
  2 20  1  0  0  0  0
  3 14  1  0  0  0  0
  3 19  1  0  0  0  0
  4 12  1  0  0  0  0
  4 38  1  0  0  0  0
  5 15  1  0  0  0  0
  5 39  1  0  0  0  0
  6 16  1  0  0  0  0
  6 40  1  0  0  0  0
  7 18  1  0  0  0  0
  7 41  1  0  0  0  0
  8 20  1  0  0  0  0
  8 42  1  0  0  0  0
  9 21  1  0  0  0  0
  9 43  1  0  0  0  0
 10 22  1  0  0  0  0
 10 44  1  0  0  0  0
 11 12  1  0  0  0  0
 11 13  1  0  0  0  0
 11 23  1  0  0  0  0
 12 15  1  0  0  0  0
 12 24  1  0  0  0  0
 13 21  1  0  0  0  0
 13 25  1  0  0  0  0
 14 16  1  0  0  0  0
 14 26  1  0  0  0  0
 15 20  1  0  0  0  0
 15 27  1  0  0  0  0
 16 17  1  0  0  0  0
 16 28  1  0  0  0  0
 17 18  1  0  0  0  0
 17 29  1  0  0  0  0
 17 30  1  0  0  0  0
 18 19  1  0  0  0  0
 18 31  1  0  0  0  0
 19 22  1  0  0  0  0
 19 32  1  0  0  0  0
 20 33  1  0  0  0  0
 21 34  1  0  0  0  0
 21 35  1  0  0  0  0
 22 36  1  0  0  0  0
 22 37  1  0  0  0  0
M  END
> <PUBCHEM_COMPOUND_CID>
516810
> <PUBCHEM_COMPOUND_CANONICALIZED>
1
> <PUBCHEM_CACTVS_COMPLEXITY>
355
> <PUBCHEM_CACTVS_HBOND_ACCEPTOR>
10
> <PUBCHEM_CACTVS_HBOND_DONOR>
7
> <PUBCHEM_CACTVS_ROTATABLE_BOND>
4
> <PUBCHEM_CACTVS_SUBSKEYS>
AAADceBwPAAAAAAAAAAAAAAAAAAAAAAAAAAkSAAAAAAAAAAAAAAAGgAACAAACBSwgAMACAAABgAAAAAAAAAAAAAAAAAAAAAAAAAREAIAAAAiQAAFAAAHAAHAYAwAAAAAAAAAAAAAAAAAAAAAAAAAAAAAAA==
> <PUBCHEM_IUPAC_OPENEYE_NAME>
5-[3,5-dihydroxy-6-(hydroxymethyl)tetrahydropyran-2-yl]oxy-6-(hydroxymethyl)tetrahydropyran-2,3,4-triol
> <PUBCHEM_IUPAC_CAS_NAME>
5-[[3,5-dihydroxy-6-(hydroxymethyl)-2-oxanyl]oxy]-6-(hydroxymethyl)oxane-2,3,4-triol
> <PUBCHEM_IUPAC_NAME_MARKUP>
5-[3,5-dihydroxy-6-(hydroxymethyl)oxan-2-yl]oxy-6-(hydroxymethyl)oxane-2,3,4-triol
> <PUBCHEM_IUPAC_NAME>
5-[3,5-dihydroxy-6-(hydroxymethyl)oxan-2-yl]oxy-6-(hydroxymethyl)oxane-2,3,4-triol
> <PUBCHEM_IUPAC_SYSTEMATIC_NAME>
6-(hydroxymethyl)-5-[6-(hydroxymethyl)-3,5-bis(oxidanyl)oxan-2-yl]oxy-oxane-2,3,4-triol
> <PUBCHEM_IUPAC_TRADITIONAL_NAME>
5-(3,5-dihydroxy-6-methylol-tetrahydropyran-2-yl)oxy-6-methylol-tetrahydropyran-2,3,4-triol
> <PUBCHEM_IUPAC_INCHI>
InChI=1S/C12H22O10/c13-2-6-4(15)1-5(16)12(21-6)22-10-7(3-14)20-11(19)9(18)8(10)17/h4-19H,1-3H2
> <PUBCHEM_IUPAC_INCHIKEY>
VFEUYSDFKYYTHL-UHFFFAOYSA-N
> <PUBCHEM_XLOGP3_AA>
-3.8
> <PUBCHEM_EXACT_MASS>
326.12129689
> <PUBCHEM_MOLECULAR_FORMULA>
C12H22O10
> <PUBCHEM_MOLECULAR_WEIGHT>
326.30
> <PUBCHEM_OPENEYE_CAN_SMILES>
C1C(C(OC(C1O)OC2C(OC(C(C2O)O)O)CO)CO)O
> <PUBCHEM_OPENEYE_ISO_SMILES>
C1C(C(OC(C1O)OC2C(OC(C(C2O)O)O)CO)CO)O
> <PUBCHEM_CACTVS_TPSA>
169
> <PUBCHEM_MONOISOTOPIC_WEIGHT>
326.12129689
> <PUBCHEM_TOTAL_CHARGE>
0
> <PUBCHEM_HEAVY_ATOM_COUNT>
22
> <PUBCHEM_ATOM_DEF_STEREO_COUNT>
0
> <PUBCHEM_ATOM_UDEF_STEREO_COUNT>
9
> <PUBCHEM_BOND_DEF_STEREO_COUNT>
0
> <PUBCHEM_BOND_UDEF_STEREO_COUNT>
0
> <PUBCHEM_ISOTOPIC_ATOM_COUNT>
0
> <PUBCHEM_COMPONENT_COUNT>
1
> <PUBCHEM_CACTVS_TAUTO_COUNT>
-1
> <PUBCHEM_COORDINATE_TYPE>
1
5
255
> <PUBCHEM_BONDANNOTATIONS>
11  1  3
14  1  3
13  21  3
19  22  3
12  4  3
15  5  3
16  6  3
18  7  3
20  8  3
$$$$
