516959
  -OEChem-10302200292D
 38 39  0     1  0  0  0  0  0999 V2000
    4.6660    0.5000    0.0000 O   0  0  0  0  0  0  0  0  0  0  0  0
    4.6660   -2.5000    0.0000 O   0  0  0  0  0  0  0  0  0  0  0  0
    7.2641    2.0000    0.0000 N   0  0  0  0  0  0  0  0  0  0  0  0
    5.5321   -1.0000    0.0000 N   0  0  0  0  0  0  0  0  0  0  0  0
    6.3981    0.5000    0.0000 C   0  0  0  0  0  0  0  0  0  0  0  0
    5.5321   -0.0000    0.0000 C   0  0  3  0  0  0  0  0  0  0  0  0
    7.2641    1.0000    0.0000 C   0  0  0  0  0  0  0  0  0  0  0  0
    5.8981    1.3660    0.0000 C   0  0  0  0  0  0  0  0  0  0  0  0
    6.8981   -0.3660    0.0000 C   0  0  0  0  0  0  0  0  0  0  0  0
    3.8000   -0.0000    0.0000 C   0  0  0  0  0  0  0  0  0  0  0  0
    4.6660   -1.5000    0.0000 C   0  0  0  0  0  0  0  0  0  0  0  0
    3.8000   -1.0000    0.0000 C   0  0  0  0  0  0  0  0  0  0  0  0
    8.1301    2.5000    0.0000 C   0  0  0  0  0  0  0  0  0  0  0  0
    6.3981    2.5000    0.0000 C   0  0  0  0  0  0  0  0  0  0  0  0
    2.9061    0.5347    0.0000 C   0  0  0  0  0  0  0  0  0  0  0  0
    2.9061   -1.5347    0.0000 C   0  0  0  0  0  0  0  0  0  0  0  0
    2.0000    0.0208    0.0000 C   0  0  0  0  0  0  0  0  0  0  0  0
    2.0000   -1.0208    0.0000 C   0  0  0  0  0  0  0  0  0  0  0  0
    6.0690   -0.3100    0.0000 H   0  0  0  0  0  0  0  0  0  0  0  0
    7.4762    0.4174    0.0000 H   0  0  0  0  0  0  0  0  0  0  0  0
    7.8747    1.1077    0.0000 H   0  0  0  0  0  0  0  0  0  0  0  0
    6.4350    1.6760    0.0000 H   0  0  0  0  0  0  0  0  0  0  0  0
    5.5881    1.9030    0.0000 H   0  0  0  0  0  0  0  0  0  0  0  0
    5.3612    1.0560    0.0000 H   0  0  0  0  0  0  0  0  0  0  0  0
    6.3612   -0.6760    0.0000 H   0  0  0  0  0  0  0  0  0  0  0  0
    7.2081   -0.9030    0.0000 H   0  0  0  0  0  0  0  0  0  0  0  0
    7.4350   -0.0560    0.0000 H   0  0  0  0  0  0  0  0  0  0  0  0
    6.0690   -1.3100    0.0000 H   0  0  0  0  0  0  0  0  0  0  0  0
    8.4401    1.9631    0.0000 H   0  0  0  0  0  0  0  0  0  0  0  0
    8.6671    2.8100    0.0000 H   0  0  0  0  0  0  0  0  0  0  0  0
    7.8201    3.0369    0.0000 H   0  0  0  0  0  0  0  0  0  0  0  0
    6.7081    3.0369    0.0000 H   0  0  0  0  0  0  0  0  0  0  0  0
    5.8612    2.8100    0.0000 H   0  0  0  0  0  0  0  0  0  0  0  0
    6.0881    1.9631    0.0000 H   0  0  0  0  0  0  0  0  0  0  0  0
    2.9132    1.1546    0.0000 H   0  0  0  0  0  0  0  0  0  0  0  0
    2.9132   -2.1546    0.0000 H   0  0  0  0  0  0  0  0  0  0  0  0
    1.4643    0.3329    0.0000 H   0  0  0  0  0  0  0  0  0  0  0  0
    1.4643   -1.3329    0.0000 H   0  0  0  0  0  0  0  0  0  0  0  0
  1  6  1  0  0  0  0
  1 10  1  0  0  0  0
  2 11  2  0  0  0  0
  3  7  1  0  0  0  0
  3 13  1  0  0  0  0
  3 14  1  0  0  0  0
  4  6  1  0  0  0  0
  4 11  1  0  0  0  0
  4 28  1  0  0  0  0
  5  6  1  0  0  0  0
  5  7  1  0  0  0  0
  5  8  1  0  0  0  0
  5  9  1  0  0  0  0
  6 19  1  0  0  0  0
  7 20  1  0  0  0  0
  7 21  1  0  0  0  0
  8 22  1  0  0  0  0
  8 23  1  0  0  0  0
  8 24  1  0  0  0  0
  9 25  1  0  0  0  0
  9 26  1  0  0  0  0
  9 27  1  0  0  0  0
 10 12  1  0  0  0  0
 10 15  2  0  0  0  0
 11 12  1  0  0  0  0
 12 16  2  0  0  0  0
 13 29  1  0  0  0  0
 13 30  1  0  0  0  0
 13 31  1  0  0  0  0
 14 32  1  0  0  0  0
 14 33  1  0  0  0  0
 14 34  1  0  0  0  0
 15 17  1  0  0  0  0
 15 35  1  0  0  0  0
 16 18  1  0  0  0  0
 16 36  1  0  0  0  0
 17 18  2  0  0  0  0
 17 37  1  0  0  0  0
 18 38  1  0  0  0  0
M  END
> <PUBCHEM_COMPOUND_CID>
516959
> <PUBCHEM_COMPOUND_CANONICALIZED>
1
> <PUBCHEM_CACTVS_COMPLEXITY>
315
> <PUBCHEM_CACTVS_HBOND_ACCEPTOR>
3
> <PUBCHEM_CACTVS_HBOND_DONOR>
1
> <PUBCHEM_CACTVS_ROTATABLE_BOND>
3
> <PUBCHEM_CACTVS_SUBSKEYS>
AAADceBzMAAAAAAAAAAAAAAAAAAAAAAAAAA8QAAAAAAAAACxAAAAHgAQAAAADgThmAYyBoPABACIAiFSEACCCAAkIAAIiIEODMkMJjaE9RuOOWjm5hGIqYeYyCCOAAAAAAAIAAAAAAAAABAAAAAAAAAAAA==
> <PUBCHEM_IUPAC_OPENEYE_NAME>
2-[2-(dimethylamino)-1,1-dimethyl-ethyl]-2,3-dihydro-1,3-benzoxazin-4-one
> <PUBCHEM_IUPAC_CAS_NAME>
2-[1-(dimethylamino)-2-methylpropan-2-yl]-2,3-dihydro-1,3-benzoxazin-4-one
> <PUBCHEM_IUPAC_NAME_MARKUP>
2-[1-(dimethylamino)-2-methylpropan-2-yl]-2,3-dihydro-1,3-benzoxazin-4-one
> <PUBCHEM_IUPAC_NAME>
2-[1-(dimethylamino)-2-methylpropan-2-yl]-2,3-dihydro-1,3-benzoxazin-4-one
> <PUBCHEM_IUPAC_SYSTEMATIC_NAME>
2-[1-(dimethylamino)-2-methyl-propan-2-yl]-2,3-dihydro-1,3-benzoxazin-4-one
> <PUBCHEM_IUPAC_TRADITIONAL_NAME>
2-[2-(dimethylamino)-1,1-dimethyl-ethyl]-2,3-dihydro-1,3-benzoxazin-4-one
> <PUBCHEM_IUPAC_INCHI>
InChI=1S/C14H20N2O2/c1-14(2,9-16(3)4)13-15-12(17)10-7-5-6-8-11(10)18-13/h5-8,13H,9H2,1-4H3,(H,15,17)
> <PUBCHEM_IUPAC_INCHIKEY>
HRIYSWRBGZMFCC-UHFFFAOYSA-N
> <PUBCHEM_XLOGP3_AA>
2.3
> <PUBCHEM_EXACT_MASS>
248.152477885
> <PUBCHEM_MOLECULAR_FORMULA>
C14H20N2O2
> <PUBCHEM_MOLECULAR_WEIGHT>
248.32
> <PUBCHEM_OPENEYE_CAN_SMILES>
CC(C)(CN(C)C)C1NC(=O)C2=CC=CC=C2O1
> <PUBCHEM_OPENEYE_ISO_SMILES>
CC(C)(CN(C)C)C1NC(=O)C2=CC=CC=C2O1
> <PUBCHEM_CACTVS_TPSA>
41.6
> <PUBCHEM_MONOISOTOPIC_WEIGHT>
248.152477885
> <PUBCHEM_TOTAL_CHARGE>
0
> <PUBCHEM_HEAVY_ATOM_COUNT>
18
> <PUBCHEM_ATOM_DEF_STEREO_COUNT>
0
> <PUBCHEM_ATOM_UDEF_STEREO_COUNT>
1
> <PUBCHEM_BOND_DEF_STEREO_COUNT>
0
> <PUBCHEM_BOND_UDEF_STEREO_COUNT>
0
> <PUBCHEM_ISOTOPIC_ATOM_COUNT>
0
> <PUBCHEM_COMPONENT_COUNT>
1
> <PUBCHEM_CACTVS_TAUTO_COUNT>
-1
> <PUBCHEM_COORDINATE_TYPE>
1
5
255
> <PUBCHEM_BONDANNOTATIONS>
10  12  8
10  15  8
12  16  8
15  17  8
16  18  8
17  18  8
6  5  3
$$$$
