517082
  -OEChem-10302200292D
 64 62  0     1  0  0  0  0  0999 V2000
    3.4641    5.1200    0.0000 O   0  0  0  0  0  0  0  0  0  0  0  0
    4.3301    3.6200    0.0000 O   0  0  0  0  0  0  0  0  0  0  0  0
    0.0000    2.1200    0.0000 O   0  5  0  0  0  0  0  0  0  0  0  0
    0.8660    3.6200    0.0000 O   0  0  0  0  0  0  0  0  0  0  0  0
    2.5981    3.6200    0.0000 N   0  0  0  0  0  0  0  0  0  0  0  0
    0.8660    2.6200    0.0000 N   0  3  0  0  0  0  0  0  0  0  0  0
    5.1962    7.1200    0.0000 C   0  0  3  0  0  0  0  0  0  0  0  0
    5.1962    8.1200    0.0000 C   0  0  0  0  0  0  0  0  0  0  0  0
    4.3301    6.6200    0.0000 C   0  0  0  0  0  0  0  0  0  0  0  0
    6.0622    8.6200    0.0000 C   0  0  0  0  0  0  0  0  0  0  0  0
    6.0622    6.6200    0.0000 C   0  0  0  0  0  0  0  0  0  0  0  0
    4.3301    5.6200    0.0000 C   0  0  0  0  0  0  0  0  0  0  0  0
    6.0622    9.6200    0.0000 C   0  0  0  0  0  0  0  0  0  0  0  0
    3.4641    4.1200    0.0000 C   0  0  0  0  0  0  0  0  0  0  0  0
    2.5981    2.6200    0.0000 C   0  0  0  0  0  0  0  0  0  0  0  0
    1.7320    2.1200    0.0000 C   0  0  0  0  0  0  0  0  0  0  0  0
    3.4641    2.1200    0.0000 C   0  0  0  0  0  0  0  0  0  0  0  0
    1.7320    1.1200    0.0000 C   0  0  0  0  0  0  0  0  0  0  0  0
    3.4641    1.1200    0.0000 C   0  0  0  0  0  0  0  0  0  0  0  0
    2.5981    0.6200    0.0000 C   0  0  0  0  0  0  0  0  0  0  0  0
   10.0851    7.4300    0.0000 C   0  0  0  0  0  0  0  0  0  0  0  0
   10.0851    3.0831    0.0000 C   0  0  0  0  0  0  0  0  0  0  0  0
   10.9512    7.9300    0.0000 C   0  0  0  0  0  0  0  0  0  0  0  0
    9.2191    7.9300    0.0000 C   0  0  0  0  0  0  0  0  0  0  0  0
   10.9512    3.5831    0.0000 C   0  0  0  0  0  0  0  0  0  0  0  0
    9.2191    3.5831    0.0000 C   0  0  0  0  0  0  0  0  0  0  0  0
   10.0851    6.4300    0.0000 C   0  0  0  0  0  0  0  0  0  0  0  0
   10.0851    2.0831    0.0000 C   0  0  0  0  0  0  0  0  0  0  0  0
    5.7331    7.4300    0.0000 H   0  0  0  0  0  0  0  0  0  0  0  0
    4.9841    8.7026    0.0000 H   0  0  0  0  0  0  0  0  0  0  0  0
    4.5856    8.0123    0.0000 H   0  0  0  0  0  0  0  0  0  0  0  0
    4.1181    7.2026    0.0000 H   0  0  0  0  0  0  0  0  0  0  0  0
    3.7196    6.5123    0.0000 H   0  0  0  0  0  0  0  0  0  0  0  0
    6.2742    8.0374    0.0000 H   0  0  0  0  0  0  0  0  0  0  0  0
    6.6728    8.7277    0.0000 H   0  0  0  0  0  0  0  0  0  0  0  0
    5.7522    6.0831    0.0000 H   0  0  0  0  0  0  0  0  0  0  0  0
    6.5991    6.3100    0.0000 H   0  0  0  0  0  0  0  0  0  0  0  0
    6.3722    7.1569    0.0000 H   0  0  0  0  0  0  0  0  0  0  0  0
    4.5422    5.0374    0.0000 H   0  0  0  0  0  0  0  0  0  0  0  0
    4.9407    5.7277    0.0000 H   0  0  0  0  0  0  0  0  0  0  0  0
    6.6822    9.6200    0.0000 H   0  0  0  0  0  0  0  0  0  0  0  0
    6.0622   10.2400    0.0000 H   0  0  0  0  0  0  0  0  0  0  0  0
    5.4422    9.6200    0.0000 H   0  0  0  0  0  0  0  0  0  0  0  0
    2.0611    3.9300    0.0000 H   0  0  0  0  0  0  0  0  0  0  0  0
    4.0010    2.4300    0.0000 H   0  0  0  0  0  0  0  0  0  0  0  0
    1.1951    0.8100    0.0000 H   0  0  0  0  0  0  0  0  0  0  0  0
    4.0010    0.8100    0.0000 H   0  0  0  0  0  0  0  0  0  0  0  0
    2.5981    0.0000    0.0000 H   0  0  0  0  0  0  0  0  0  0  0  0
   11.2612    7.3931    0.0000 H   0  0  0  0  0  0  0  0  0  0  0  0
   11.4881    8.2400    0.0000 H   0  0  0  0  0  0  0  0  0  0  0  0
   10.6412    8.4669    0.0000 H   0  0  0  0  0  0  0  0  0  0  0  0
    9.5291    8.4669    0.0000 H   0  0  0  0  0  0  0  0  0  0  0  0
    8.6822    8.2400    0.0000 H   0  0  0  0  0  0  0  0  0  0  0  0
    8.9091    7.3931    0.0000 H   0  0  0  0  0  0  0  0  0  0  0  0
   11.2612    3.0461    0.0000 H   0  0  0  0  0  0  0  0  0  0  0  0
   11.4881    3.8931    0.0000 H   0  0  0  0  0  0  0  0  0  0  0  0
   10.6412    4.1200    0.0000 H   0  0  0  0  0  0  0  0  0  0  0  0
    9.5291    4.1200    0.0000 H   0  0  0  0  0  0  0  0  0  0  0  0
    8.6822    3.8931    0.0000 H   0  0  0  0  0  0  0  0  0  0  0  0
    8.9091    3.0461    0.0000 H   0  0  0  0  0  0  0  0  0  0  0  0
    9.5482    6.1200    0.0000 H   0  0  0  0  0  0  0  0  0  0  0  0
   10.6221    6.1200    0.0000 H   0  0  0  0  0  0  0  0  0  0  0  0
    9.5482    1.7731    0.0000 H   0  0  0  0  0  0  0  0  0  0  0  0
   10.6221    1.7731    0.0000 H   0  0  0  0  0  0  0  0  0  0  0  0
  1 12  1  0  0  0  0
  1 14  1  0  0  0  0
  2 14  2  0  0  0  0
  3  6  1  0  0  0  0
  4  6  2  0  0  0  0
  5 14  1  0  0  0  0
  5 15  1  0  0  0  0
  5 44  1  0  0  0  0
  6 16  1  0  0  0  0
  7  8  1  0  0  0  0
  7  9  1  0  0  0  0
  7 11  1  0  0  0  0
  7 29  1  0  0  0  0
  8 10  1  0  0  0  0
  8 30  1  0  0  0  0
  8 31  1  0  0  0  0
  9 12  1  0  0  0  0
  9 32  1  0  0  0  0
  9 33  1  0  0  0  0
 10 13  1  0  0  0  0
 10 34  1  0  0  0  0
 10 35  1  0  0  0  0
 11 36  1  0  0  0  0
 11 37  1  0  0  0  0
 11 38  1  0  0  0  0
 12 39  1  0  0  0  0
 12 40  1  0  0  0  0
 13 41  1  0  0  0  0
 13 42  1  0  0  0  0
 13 43  1  0  0  0  0
 15 16  1  0  0  0  0
 15 17  2  0  0  0  0
 16 18  2  0  0  0  0
 17 19  1  0  0  0  0
 17 45  1  0  0  0  0
 18 20  1  0  0  0  0
 18 46  1  0  0  0  0
 19 20  2  0  0  0  0
 19 47  1  0  0  0  0
 20 48  1  0  0  0  0
 21 23  1  0  0  0  0
 21 24  1  0  0  0  0
 21 27  2  0  0  0  0
 22 25  1  0  0  0  0
 22 26  1  0  0  0  0
 22 28  2  0  0  0  0
 23 49  1  0  0  0  0
 23 50  1  0  0  0  0
 23 51  1  0  0  0  0
 24 52  1  0  0  0  0
 24 53  1  0  0  0  0
 24 54  1  0  0  0  0
 25 55  1  0  0  0  0
 25 56  1  0  0  0  0
 25 57  1  0  0  0  0
 26 58  1  0  0  0  0
 26 59  1  0  0  0  0
 26 60  1  0  0  0  0
 27 61  1  0  0  0  0
 27 62  1  0  0  0  0
 28 63  1  0  0  0  0
 28 64  1  0  0  0  0
M  CHG  2   3  -1   6   1
M  END
> <PUBCHEM_COMPOUND_CID>
517082
> <PUBCHEM_COMPOUND_CANONICALIZED>
1
> <PUBCHEM_CACTVS_COMPLEXITY>
340
> <PUBCHEM_CACTVS_HBOND_ACCEPTOR>
4
> <PUBCHEM_CACTVS_HBOND_DONOR>
1
> <PUBCHEM_CACTVS_ROTATABLE_BOND>
7
> <PUBCHEM_CACTVS_SUBSKEYS>
AAADcfB7OAAAAAAAAAAAAAAAAAAAAAAAAAAwAAAAAAAAAAABAAAAHgAUAAAADQihkAIyyILQRACJAiRCWwCCAAAhAgAoiAAAdIsIYCLAkZGcIAhklIBIyAeQQAAOAAAAAAAAACAAAAAAAAAAQAAAAAAAAA==
> <PUBCHEM_IUPAC_OPENEYE_NAME>
3-methylhexyl N-(2-nitrophenyl)carbamate;2-methylprop-1-ene
> <PUBCHEM_IUPAC_CAS_NAME>
2-methyl-1-propene;N-(2-nitrophenyl)carbamic acid 3-methylhexyl ester
> <PUBCHEM_IUPAC_NAME_MARKUP>
3-methylhexyl <I>N</I>-(2-nitrophenyl)carbamate;2-methylprop-1-ene
> <PUBCHEM_IUPAC_NAME>
3-methylhexyl N-(2-nitrophenyl)carbamate;2-methylprop-1-ene
> <PUBCHEM_IUPAC_SYSTEMATIC_NAME>
3-methylhexyl N-(2-nitrophenyl)carbamate;2-methylprop-1-ene
> <PUBCHEM_IUPAC_TRADITIONAL_NAME>
isobutylene;N-(2-nitrophenyl)carbamic acid 3-methylhexyl ester
> <PUBCHEM_IUPAC_INCHI>
InChI=1S/C14H20N2O4.2C4H8/c1-3-6-11(2)9-10-20-14(17)15-12-7-4-5-8-13(12)16(18)19;2*1-4(2)3/h4-5,7-8,11H,3,6,9-10H2,1-2H3,(H,15,17);2*1H2,2-3H3
> <PUBCHEM_IUPAC_INCHIKEY>
RCKIZQYTHUJAKM-UHFFFAOYSA-N
> <PUBCHEM_EXACT_MASS>
392.26750763
> <PUBCHEM_MOLECULAR_FORMULA>
C22H36N2O4
> <PUBCHEM_MOLECULAR_WEIGHT>
392.5
> <PUBCHEM_OPENEYE_CAN_SMILES>
CCCC(C)CCOC(=O)NC1=CC=CC=C1[N+](=O)[O-].CC(=C)C.CC(=C)C
> <PUBCHEM_OPENEYE_ISO_SMILES>
CCCC(C)CCOC(=O)NC1=CC=CC=C1[N+](=O)[O-].CC(=C)C.CC(=C)C
> <PUBCHEM_CACTVS_TPSA>
84.2
> <PUBCHEM_MONOISOTOPIC_WEIGHT>
392.26750763
> <PUBCHEM_TOTAL_CHARGE>
0
> <PUBCHEM_HEAVY_ATOM_COUNT>
28
> <PUBCHEM_ATOM_DEF_STEREO_COUNT>
0
> <PUBCHEM_ATOM_UDEF_STEREO_COUNT>
1
> <PUBCHEM_BOND_DEF_STEREO_COUNT>
0
> <PUBCHEM_BOND_UDEF_STEREO_COUNT>
0
> <PUBCHEM_ISOTOPIC_ATOM_COUNT>
0
> <PUBCHEM_COMPONENT_COUNT>
3
> <PUBCHEM_CACTVS_TAUTO_COUNT>
-1
> <PUBCHEM_COORDINATE_TYPE>
1
5
255
> <PUBCHEM_BONDANNOTATIONS>
15  16  8
15  17  8
16  18  8
17  19  8
18  20  8
19  20  8
7  11  3
$$$$
