517065
  -OEChem-10302200292D
 66 64  0     1  0  0  0  0  0999 V2000
   11.5263    4.0000    0.0000 S   0  0  0  0  0  0  0  0  0  0  0  0
   13.2583    4.0000    0.0000 Na  0  3  0  0  0  0  0  0  0  0  0  0
    8.9282    3.5000    0.0000 O   0  0  0  0  0  0  0  0  0  0  0  0
    9.7942    1.0000    0.0000 O   0  0  0  0  0  0  0  0  0  0  0  0
   12.3923    4.5000    0.0000 O   0  5  0  0  0  0  0  0  0  0  0  0
    9.7942    5.0000    0.0000 O   0  0  0  0  0  0  0  0  0  0  0  0
   12.0263    3.1340    0.0000 O   0  0  0  0  0  0  0  0  0  0  0  0
   11.0263    4.8660    0.0000 O   0  0  0  0  0  0  0  0  0  0  0  0
    8.9282    2.5000    0.0000 O   0  0  0  0  0  0  0  0  0  0  0  0
    5.4641    3.5000    0.0000 C   0  0  0  0  0  0  0  0  0  0  0  0
    8.0622   -2.0000    0.0000 C   0  0  0  0  0  0  0  0  0  0  0  0
    6.3301    4.0000    0.0000 C   0  0  0  0  0  0  0  0  0  0  0  0
    4.5981    4.0000    0.0000 C   0  0  0  0  0  0  0  0  0  0  0  0
    7.1962   -2.5000    0.0000 C   0  0  0  0  0  0  0  0  0  0  0  0
    8.0622   -1.0000    0.0000 C   0  0  0  0  0  0  0  0  0  0  0  0
    7.1962    3.5000    0.0000 C   0  0  0  0  0  0  0  0  0  0  0  0
    3.7320    3.5000    0.0000 C   0  0  0  0  0  0  0  0  0  0  0  0
    7.1962   -3.5000    0.0000 C   0  0  0  0  0  0  0  0  0  0  0  0
    8.9282   -0.5000    0.0000 C   0  0  0  0  0  0  0  0  0  0  0  0
    8.0622    4.0000    0.0000 C   0  0  0  0  0  0  0  0  0  0  0  0
    2.8660    4.0000    0.0000 C   0  0  0  0  0  0  0  0  0  0  0  0
   10.6603    3.5000    0.0000 C   0  0  3  0  0  0  0  0  0  0  0  0
    6.3301   -4.0000    0.0000 C   0  0  0  0  0  0  0  0  0  0  0  0
    8.9282    0.5000    0.0000 C   0  0  0  0  0  0  0  0  0  0  0  0
   10.6603    2.5000    0.0000 C   0  0  0  0  0  0  0  0  0  0  0  0
    9.7942    4.0000    0.0000 C   0  0  0  0  0  0  0  0  0  0  0  0
    2.0000    3.5000    0.0000 C   0  0  0  0  0  0  0  0  0  0  0  0
    9.7942    2.0000    0.0000 C   0  0  0  0  0  0  0  0  0  0  0  0
    6.3301   -5.0000    0.0000 C   0  0  0  0  0  0  0  0  0  0  0  0
    5.0656    3.0250    0.0000 H   0  0  0  0  0  0  0  0  0  0  0  0
    5.8626    3.0250    0.0000 H   0  0  0  0  0  0  0  0  0  0  0  0
    8.2742   -2.5826    0.0000 H   0  0  0  0  0  0  0  0  0  0  0  0
    8.6728   -1.8923    0.0000 H   0  0  0  0  0  0  0  0  0  0  0  0
    6.7287    4.4750    0.0000 H   0  0  0  0  0  0  0  0  0  0  0  0
    5.9316    4.4750    0.0000 H   0  0  0  0  0  0  0  0  0  0  0  0
    4.9966    4.4750    0.0000 H   0  0  0  0  0  0  0  0  0  0  0  0
    4.1996    4.4750    0.0000 H   0  0  0  0  0  0  0  0  0  0  0  0
    6.9841   -1.9174    0.0000 H   0  0  0  0  0  0  0  0  0  0  0  0
    6.5856   -2.6077    0.0000 H   0  0  0  0  0  0  0  0  0  0  0  0
    7.8501   -0.4174    0.0000 H   0  0  0  0  0  0  0  0  0  0  0  0
    7.4516   -1.1077    0.0000 H   0  0  0  0  0  0  0  0  0  0  0  0
    6.7976    3.0250    0.0000 H   0  0  0  0  0  0  0  0  0  0  0  0
    7.5947    3.0250    0.0000 H   0  0  0  0  0  0  0  0  0  0  0  0
    3.3335    3.0250    0.0000 H   0  0  0  0  0  0  0  0  0  0  0  0
    4.1306    3.0250    0.0000 H   0  0  0  0  0  0  0  0  0  0  0  0
    7.4082   -4.0826    0.0000 H   0  0  0  0  0  0  0  0  0  0  0  0
    7.8067   -3.3923    0.0000 H   0  0  0  0  0  0  0  0  0  0  0  0
    9.1403   -1.0826    0.0000 H   0  0  0  0  0  0  0  0  0  0  0  0
    9.5388   -0.3923    0.0000 H   0  0  0  0  0  0  0  0  0  0  0  0
    8.4607    4.4750    0.0000 H   0  0  0  0  0  0  0  0  0  0  0  0
    7.6636    4.4750    0.0000 H   0  0  0  0  0  0  0  0  0  0  0  0
    3.2646    4.4750    0.0000 H   0  0  0  0  0  0  0  0  0  0  0  0
    2.4675    4.4750    0.0000 H   0  0  0  0  0  0  0  0  0  0  0  0
   11.3964    3.0750    0.0000 H   0  0  0  0  0  0  0  0  0  0  0  0
    6.1181   -3.4174    0.0000 H   0  0  0  0  0  0  0  0  0  0  0  0
    5.7196   -4.1077    0.0000 H   0  0  0  0  0  0  0  0  0  0  0  0
    8.7162    1.0826    0.0000 H   0  0  0  0  0  0  0  0  0  0  0  0
    8.3176    0.3923    0.0000 H   0  0  0  0  0  0  0  0  0  0  0  0
   10.8723    1.9174    0.0000 H   0  0  0  0  0  0  0  0  0  0  0  0
   11.2708    2.6077    0.0000 H   0  0  0  0  0  0  0  0  0  0  0  0
    1.6900    4.0369    0.0000 H   0  0  0  0  0  0  0  0  0  0  0  0
    1.4631    3.1900    0.0000 H   0  0  0  0  0  0  0  0  0  0  0  0
    2.3100    2.9631    0.0000 H   0  0  0  0  0  0  0  0  0  0  0  0
    5.7101   -5.0000    0.0000 H   0  0  0  0  0  0  0  0  0  0  0  0
    6.3301   -5.6200    0.0000 H   0  0  0  0  0  0  0  0  0  0  0  0
    6.9501   -5.0000    0.0000 H   0  0  0  0  0  0  0  0  0  0  0  0
  1  5  1  0  0  0  0
  1  7  2  0  0  0  0
  1  8  2  0  0  0  0
  1 22  1  0  0  0  0
  3 20  1  0  0  0  0
  3 26  1  0  0  0  0
  4 24  1  0  0  0  0
  4 28  1  0  0  0  0
  6 26  2  0  0  0  0
  9 28  2  0  0  0  0
 10 12  1  0  0  0  0
 10 13  1  0  0  0  0
 10 30  1  0  0  0  0
 10 31  1  0  0  0  0
 11 14  1  0  0  0  0
 11 15  1  0  0  0  0
 11 32  1  0  0  0  0
 11 33  1  0  0  0  0
 12 16  1  0  0  0  0
 12 34  1  0  0  0  0
 12 35  1  0  0  0  0
 13 17  1  0  0  0  0
 13 36  1  0  0  0  0
 13 37  1  0  0  0  0
 14 18  1  0  0  0  0
 14 38  1  0  0  0  0
 14 39  1  0  0  0  0
 15 19  1  0  0  0  0
 15 40  1  0  0  0  0
 15 41  1  0  0  0  0
 16 20  1  0  0  0  0
 16 42  1  0  0  0  0
 16 43  1  0  0  0  0
 17 21  1  0  0  0  0
 17 44  1  0  0  0  0
 17 45  1  0  0  0  0
 18 23  1  0  0  0  0
 18 46  1  0  0  0  0
 18 47  1  0  0  0  0
 19 24  1  0  0  0  0
 19 48  1  0  0  0  0
 19 49  1  0  0  0  0
 20 50  1  0  0  0  0
 20 51  1  0  0  0  0
 21 27  1  0  0  0  0
 21 52  1  0  0  0  0
 21 53  1  0  0  0  0
 22 25  1  0  0  0  0
 22 26  1  0  0  0  0
 22 54  1  0  0  0  0
 23 29  1  0  0  0  0
 23 55  1  0  0  0  0
 23 56  1  0  0  0  0
 24 57  1  0  0  0  0
 24 58  1  0  0  0  0
 25 28  1  0  0  0  0
 25 59  1  0  0  0  0
 25 60  1  0  0  0  0
 27 61  1  0  0  0  0
 27 62  1  0  0  0  0
 27 63  1  0  0  0  0
 29 64  1  0  0  0  0
 29 65  1  0  0  0  0
 29 66  1  0  0  0  0
M  CHG  2   2   1   5  -1
M  END
> <PUBCHEM_COMPOUND_CID>
517065
> <PUBCHEM_COMPOUND_CANONICALIZED>
1
> <PUBCHEM_CACTVS_COMPLEXITY>
517
> <PUBCHEM_CACTVS_HBOND_ACCEPTOR>
7
> <PUBCHEM_CACTVS_HBOND_DONOR>
0
> <PUBCHEM_CACTVS_ROTATABLE_BOND>
20
> <PUBCHEM_CACTVS_SUBSKEYS>
AAADcfB4OCBAAAAAAAAAAAAAAAAAAAAAAAAAAAAAAAAAAAAAAAAAGgQAAAAACACkwAKCCAAABAIIAACQCHBAAAAAAAAAAAEAAAAAABIAAAACAAAEAAAAAAHDwKAAAAAAAAAAAAAAAAAAAAAAAAAAAAAAAA==
> <PUBCHEM_IUPAC_OPENEYE_NAME>
sodium;1,4-dioctoxy-1,4-dioxo-butane-2-sulfonate
> <PUBCHEM_IUPAC_CAS_NAME>
sodium;1,4-dioctoxy-1,4-dioxo-2-butanesulfonate
> <PUBCHEM_IUPAC_NAME_MARKUP>
sodium;1,4-dioctoxy-1,4-dioxobutane-2-sulfonate
> <PUBCHEM_IUPAC_NAME>
sodium;1,4-dioctoxy-1,4-dioxobutane-2-sulfonate
> <PUBCHEM_IUPAC_SYSTEMATIC_NAME>
sodium;1,4-dioctoxy-1,4-bis(oxidanylidene)butane-2-sulfonate
> <PUBCHEM_IUPAC_TRADITIONAL_NAME>
sodium;1,4-diketo-1,4-dioctoxy-butane-2-sulfonate
> <PUBCHEM_IUPAC_INCHI>
InChI=1S/C20H38O7S.Na/c1-3-5-7-9-11-13-15-26-19(21)17-18(28(23,24)25)20(22)27-16-14-12-10-8-6-4-2;/h18H,3-17H2,1-2H3,(H,23,24,25);/q;+1/p-1
> <PUBCHEM_IUPAC_INCHIKEY>
RCIJACVHOIKRAP-UHFFFAOYSA-M
> <PUBCHEM_EXACT_MASS>
444.21576897
> <PUBCHEM_MOLECULAR_FORMULA>
C20H37NaO7S
> <PUBCHEM_MOLECULAR_WEIGHT>
444.6
> <PUBCHEM_OPENEYE_CAN_SMILES>
CCCCCCCCOC(=O)CC(C(=O)OCCCCCCCC)S(=O)(=O)[O-].[Na+]
> <PUBCHEM_OPENEYE_ISO_SMILES>
CCCCCCCCOC(=O)CC(C(=O)OCCCCCCCC)S(=O)(=O)[O-].[Na+]
> <PUBCHEM_CACTVS_TPSA>
118
> <PUBCHEM_MONOISOTOPIC_WEIGHT>
444.21576897
> <PUBCHEM_TOTAL_CHARGE>
0
> <PUBCHEM_HEAVY_ATOM_COUNT>
29
> <PUBCHEM_ATOM_DEF_STEREO_COUNT>
0
> <PUBCHEM_ATOM_UDEF_STEREO_COUNT>
1
> <PUBCHEM_BOND_DEF_STEREO_COUNT>
0
> <PUBCHEM_BOND_UDEF_STEREO_COUNT>
0
> <PUBCHEM_ISOTOPIC_ATOM_COUNT>
0
> <PUBCHEM_COMPONENT_COUNT>
2
> <PUBCHEM_CACTVS_TAUTO_COUNT>
1
> <PUBCHEM_NONSTANDARDBOND>
2  5  7
> <PUBCHEM_COORDINATE_TYPE>
1
5
255
> <PUBCHEM_BONDANNOTATIONS>
22  54  3
$$$$
