517034
  -OEChem-10302200292D
 23 23  0     1  0  0  0  0  0999 V2000
    2.0000   -0.3100    0.0000 Cl  0  0  0  0  0  0  0  0  0  0  0  0
    5.4641   -2.3100    0.0000 Cl  0  0  0  0  0  0  0  0  0  0  0  0
    3.7320   -3.3100    0.0000 Cl  0  0  0  0  0  0  0  0  0  0  0  0
    3.7320    0.6900    0.0000 O   0  0  0  0  0  0  0  0  0  0  0  0
    5.4641    2.6900    0.0000 O   0  0  0  0  0  0  0  0  0  0  0  0
    4.5981    1.1900    0.0000 C   0  0  3  0  0  0  0  0  0  0  0  0
    4.5981    2.1900    0.0000 C   0  0  0  0  0  0  0  0  0  0  0  0
    5.4641    0.6900    0.0000 C   0  0  0  0  0  0  0  0  0  0  0  0
    3.7320   -0.3100    0.0000 C   0  0  0  0  0  0  0  0  0  0  0  0
    2.8660   -0.8100    0.0000 C   0  0  0  0  0  0  0  0  0  0  0  0
    4.5981   -0.8100    0.0000 C   0  0  0  0  0  0  0  0  0  0  0  0
    4.5981   -1.8100    0.0000 C   0  0  0  0  0  0  0  0  0  0  0  0
    2.8660   -1.8100    0.0000 C   0  0  0  0  0  0  0  0  0  0  0  0
    3.7320   -2.3100    0.0000 C   0  0  0  0  0  0  0  0  0  0  0  0
    4.0611    1.5000    0.0000 H   0  0  0  0  0  0  0  0  0  0  0  0
    4.3860    2.7726    0.0000 H   0  0  0  0  0  0  0  0  0  0  0  0
    3.9875    2.0823    0.0000 H   0  0  0  0  0  0  0  0  0  0  0  0
    5.1541    0.1531    0.0000 H   0  0  0  0  0  0  0  0  0  0  0  0
    6.0010    0.3800    0.0000 H   0  0  0  0  0  0  0  0  0  0  0  0
    5.7741    1.2269    0.0000 H   0  0  0  0  0  0  0  0  0  0  0  0
    5.1350   -0.5000    0.0000 H   0  0  0  0  0  0  0  0  0  0  0  0
    2.3291   -2.1200    0.0000 H   0  0  0  0  0  0  0  0  0  0  0  0
    5.4641    3.3100    0.0000 H   0  0  0  0  0  0  0  0  0  0  0  0
  1 10  1  0  0  0  0
  2 12  1  0  0  0  0
  3 14  1  0  0  0  0
  4  6  1  0  0  0  0
  4  9  1  0  0  0  0
  5  7  1  0  0  0  0
  5 23  1  0  0  0  0
  6  7  1  0  0  0  0
  6  8  1  0  0  0  0
  6 15  1  0  0  0  0
  7 16  1  0  0  0  0
  7 17  1  0  0  0  0
  8 18  1  0  0  0  0
  8 19  1  0  0  0  0
  8 20  1  0  0  0  0
  9 10  1  0  0  0  0
  9 11  2  0  0  0  0
 10 13  2  0  0  0  0
 11 12  1  0  0  0  0
 11 21  1  0  0  0  0
 12 14  2  0  0  0  0
 13 14  1  0  0  0  0
 13 22  1  0  0  0  0
M  END
> <PUBCHEM_COMPOUND_CID>
517034
> <PUBCHEM_COMPOUND_CANONICALIZED>
1
> <PUBCHEM_CACTVS_COMPLEXITY>
179
> <PUBCHEM_CACTVS_HBOND_ACCEPTOR>
2
> <PUBCHEM_CACTVS_HBOND_DONOR>
1
> <PUBCHEM_CACTVS_ROTATABLE_BOND>
3
> <PUBCHEM_CACTVS_SUBSKEYS>
AAADccBwMAAGAAAAAAAAAAAAAAAAAAAAAAAwAAAAAAAAAAABAAAAGgIACAAACBagkCIyBoAABgCAACBCAAACCAAgJUAAikAGC4gNNiOFMhqCeCCkwBELqAeAQAAAACAQAQCACAQAQCACAQAQCAAAAAAAAA==
> <PUBCHEM_IUPAC_OPENEYE_NAME>
2-(2,4,5-trichlorophenoxy)propan-1-ol
> <PUBCHEM_IUPAC_CAS_NAME>
2-(2,4,5-trichlorophenoxy)-1-propanol
> <PUBCHEM_IUPAC_NAME_MARKUP>
2-(2,4,5-trichlorophenoxy)propan-1-ol
> <PUBCHEM_IUPAC_NAME>
2-(2,4,5-trichlorophenoxy)propan-1-ol
> <PUBCHEM_IUPAC_SYSTEMATIC_NAME>
2-[2,4,5-tris(chloranyl)phenoxy]propan-1-ol
> <PUBCHEM_IUPAC_TRADITIONAL_NAME>
2-(2,4,5-trichlorophenoxy)propan-1-ol
> <PUBCHEM_IUPAC_INCHI>
InChI=1S/C9H9Cl3O2/c1-5(4-13)14-9-3-7(11)6(10)2-8(9)12/h2-3,5,13H,4H2,1H3
> <PUBCHEM_IUPAC_INCHIKEY>
LYJSRGNYLMKMOP-UHFFFAOYSA-N
> <PUBCHEM_XLOGP3_AA>
3.5
> <PUBCHEM_EXACT_MASS>
253.966813
> <PUBCHEM_MOLECULAR_FORMULA>
C9H9Cl3O2
> <PUBCHEM_MOLECULAR_WEIGHT>
255.5
> <PUBCHEM_OPENEYE_CAN_SMILES>
CC(CO)OC1=CC(=C(C=C1Cl)Cl)Cl
> <PUBCHEM_OPENEYE_ISO_SMILES>
CC(CO)OC1=CC(=C(C=C1Cl)Cl)Cl
> <PUBCHEM_CACTVS_TPSA>
29.5
> <PUBCHEM_MONOISOTOPIC_WEIGHT>
253.966813
> <PUBCHEM_TOTAL_CHARGE>
0
> <PUBCHEM_HEAVY_ATOM_COUNT>
14
> <PUBCHEM_ATOM_DEF_STEREO_COUNT>
0
> <PUBCHEM_ATOM_UDEF_STEREO_COUNT>
1
> <PUBCHEM_BOND_DEF_STEREO_COUNT>
0
> <PUBCHEM_BOND_UDEF_STEREO_COUNT>
0
> <PUBCHEM_ISOTOPIC_ATOM_COUNT>
0
> <PUBCHEM_COMPONENT_COUNT>
1
> <PUBCHEM_CACTVS_TAUTO_COUNT>
-1
> <PUBCHEM_COORDINATE_TYPE>
1
5
255
> <PUBCHEM_BONDANNOTATIONS>
10  13  8
11  12  8
12  14  8
13  14  8
6  8  3
9  10  8
9  11  8
$$$$
