517178
  -OEChem-10302200292D
 12 10  0     1  0  0  0  0  0999 V2000
    5.4641   -0.3170    0.0000 Cl  0  0  0  0  0  0  0  0  0  0  0  0
    3.7320   -0.3170    0.0000 S   0  0  0  0  0  0  0  0  0  0  0  0
    2.0000   -0.3170    0.0000 Na  0  3  0  0  0  0  0  0  0  0  0  0
    2.8660   -0.8170    0.0000 O   0  5  0  0  0  0  0  0  0  0  0  0
    3.2320    0.5490    0.0000 O   0  0  0  0  0  0  0  0  0  0  0  0
    4.2320   -1.1830    0.0000 O   0  0  0  0  0  0  0  0  0  0  0  0
    4.5981    0.1830    0.0000 C   0  0  3  0  0  0  0  0  0  0  0  0
    4.5981    1.1830    0.0000 C   0  0  0  0  0  0  0  0  0  0  0  0
    4.5981   -0.4370    0.0000 H   0  0  0  0  0  0  0  0  0  0  0  0
    5.2181    1.1830    0.0000 H   0  0  0  0  0  0  0  0  0  0  0  0
    4.5981    1.8030    0.0000 H   0  0  0  0  0  0  0  0  0  0  0  0
    3.9781    1.1830    0.0000 H   0  0  0  0  0  0  0  0  0  0  0  0
  1  7  1  0  0  0  0
  2  4  1  0  0  0  0
  2  5  2  0  0  0  0
  2  6  2  0  0  0  0
  2  7  1  0  0  0  0
  7  8  1  0  0  0  0
  7  9  1  0  0  0  0
  8 10  1  0  0  0  0
  8 11  1  0  0  0  0
  8 12  1  0  0  0  0
M  CHG  2   3   1   4  -1
M  END
> <PUBCHEM_COMPOUND_CID>
517178
> <PUBCHEM_COMPOUND_CANONICALIZED>
1
> <PUBCHEM_CACTVS_COMPLEXITY>
136
> <PUBCHEM_CACTVS_HBOND_ACCEPTOR>
3
> <PUBCHEM_CACTVS_HBOND_DONOR>
0
> <PUBCHEM_CACTVS_ROTATABLE_BOND>
1
> <PUBCHEM_CACTVS_SUBSKEYS>
AAADcYBAMCBEAAAAAAAAAAAAAAAAAAAAAAAAAAAAAAAAAAAAAAAAGAYAAAAAAAOEQECCAAAAAAIAAAAAAHBAAAAAAAAAAAAAAAAAAAAAAAAAAAAAAAAAAAAAAAAAAAAAAAAAAAAAAAAAAAAAAAAAAAAAAA==
> <PUBCHEM_IUPAC_OPENEYE_NAME>
sodium;1-chloroethanesulfonate
> <PUBCHEM_IUPAC_CAS_NAME>
sodium;1-chloroethanesulfonate
> <PUBCHEM_IUPAC_NAME_MARKUP>
sodium;1-chloroethanesulfonate
> <PUBCHEM_IUPAC_NAME>
sodium;1-chloroethanesulfonate
> <PUBCHEM_IUPAC_SYSTEMATIC_NAME>
sodium;1-chloranylethanesulfonate
> <PUBCHEM_IUPAC_TRADITIONAL_NAME>
sodium;1-chloroethanesulfonate
> <PUBCHEM_IUPAC_INCHI>
InChI=1S/C2H5ClO3S.Na/c1-2(3)7(4,5)6;/h2H,1H3,(H,4,5,6);/q;+1/p-1
> <PUBCHEM_IUPAC_INCHIKEY>
AKTHLFYZKHPYBY-UHFFFAOYSA-M
> <PUBCHEM_EXACT_MASS>
165.9467371
> <PUBCHEM_MOLECULAR_FORMULA>
C2H4ClNaO3S
> <PUBCHEM_MOLECULAR_WEIGHT>
166.56
> <PUBCHEM_OPENEYE_CAN_SMILES>
CC(S(=O)(=O)[O-])Cl.[Na+]
> <PUBCHEM_OPENEYE_ISO_SMILES>
CC(S(=O)(=O)[O-])Cl.[Na+]
> <PUBCHEM_CACTVS_TPSA>
65.6
> <PUBCHEM_MONOISOTOPIC_WEIGHT>
165.9467371
> <PUBCHEM_TOTAL_CHARGE>
0
> <PUBCHEM_HEAVY_ATOM_COUNT>
8
> <PUBCHEM_ATOM_DEF_STEREO_COUNT>
0
> <PUBCHEM_ATOM_UDEF_STEREO_COUNT>
1
> <PUBCHEM_BOND_DEF_STEREO_COUNT>
0
> <PUBCHEM_BOND_UDEF_STEREO_COUNT>
0
> <PUBCHEM_ISOTOPIC_ATOM_COUNT>
0
> <PUBCHEM_COMPONENT_COUNT>
2
> <PUBCHEM_CACTVS_TAUTO_COUNT>
-1
> <PUBCHEM_NONSTANDARDBOND>
3  4  7
> <PUBCHEM_COORDINATE_TYPE>
1
5
255
> <PUBCHEM_BONDANNOTATIONS>
7  1  3
$$$$
