517263
  -OEChem-10302200292D
 32 29  0     1  0  0  0  0  0999 V2000
    3.5010    0.0000    0.0000 Cl  0  0  0  0  0  0  0  0  0  0  0  0
    3.5010    2.5000    0.0000 Cl  0  0  0  0  0  0  0  0  0  0  0  0
    4.8671    6.5000    0.0000 S   0  0  0  0  0  0  0  0  0  0  0  0
    3.1350    6.5000    0.0000 S   0  0  0  0  0  0  0  0  0  0  0  0
    4.0010    5.0000    0.0000 O   0  0  0  0  0  0  0  0  0  0  0  0
    7.4651    6.0000    0.0000 N   0  0  0  0  0  0  0  0  0  0  0  0
    0.5369    6.0000    0.0000 N   0  0  0  0  0  0  0  0  0  0  0  0
    6.5991    6.5000    0.0000 C   0  0  3  0  0  0  0  0  0  0  0  0
    1.4030    6.5000    0.0000 C   0  0  3  0  0  0  0  0  0  0  0  0
    5.7331    6.0000    0.0000 C   0  0  0  0  0  0  0  0  0  0  0  0
    2.2690    6.0000    0.0000 C   0  0  0  0  0  0  0  0  0  0  0  0
    6.5991    7.5000    0.0000 C   0  0  0  0  0  0  0  0  0  0  0  0
    1.4030    7.5000    0.0000 C   0  0  0  0  0  0  0  0  0  0  0  0
    4.0010    6.0000    0.0000 C   0  0  0  0  0  0  0  0  0  0  0  0
    6.5991    5.8800    0.0000 H   0  0  0  0  0  0  0  0  0  0  0  0
    0.8660    6.8100    0.0000 H   0  0  0  0  0  0  0  0  0  0  0  0
    5.3346    5.5250    0.0000 H   0  0  0  0  0  0  0  0  0  0  0  0
    6.1316    5.5250    0.0000 H   0  0  0  0  0  0  0  0  0  0  0  0
    1.8705    5.5250    0.0000 H   0  0  0  0  0  0  0  0  0  0  0  0
    2.6675    5.5250    0.0000 H   0  0  0  0  0  0  0  0  0  0  0  0
    7.2191    7.5000    0.0000 H   0  0  0  0  0  0  0  0  0  0  0  0
    6.5991    8.1200    0.0000 H   0  0  0  0  0  0  0  0  0  0  0  0
    5.9791    7.5000    0.0000 H   0  0  0  0  0  0  0  0  0  0  0  0
    2.0230    7.5000    0.0000 H   0  0  0  0  0  0  0  0  0  0  0  0
    1.4030    8.1200    0.0000 H   0  0  0  0  0  0  0  0  0  0  0  0
    0.7830    7.5000    0.0000 H   0  0  0  0  0  0  0  0  0  0  0  0
    8.0021    6.3100    0.0000 H   0  0  0  0  0  0  0  0  0  0  0  0
    7.4651    5.3800    0.0000 H   0  0  0  0  0  0  0  0  0  0  0  0
    0.0000    6.3100    0.0000 H   0  0  0  0  0  0  0  0  0  0  0  0
    0.5369    5.3800    0.0000 H   0  0  0  0  0  0  0  0  0  0  0  0
    4.5010    0.0000    0.0000 H   0  0  0  0  0  0  0  0  0  0  0  0
    4.5010    2.5000    0.0000 H   0  0  0  0  0  0  0  0  0  0  0  0
  1 31  1  0  0  0  0
  2 32  1  0  0  0  0
  3 10  1  0  0  0  0
  3 14  1  0  0  0  0
  4 11  1  0  0  0  0
  4 14  1  0  0  0  0
  5 14  2  0  0  0  0
  6  8  1  0  0  0  0
  6 27  1  0  0  0  0
  6 28  1  0  0  0  0
  7  9  1  0  0  0  0
  7 29  1  0  0  0  0
  7 30  1  0  0  0  0
  8 10  1  0  0  0  0
  8 12  1  0  0  0  0
  8 15  1  0  0  0  0
  9 11  1  0  0  0  0
  9 13  1  0  0  0  0
  9 16  1  0  0  0  0
 10 17  1  0  0  0  0
 10 18  1  0  0  0  0
 11 19  1  0  0  0  0
 11 20  1  0  0  0  0
 12 21  1  0  0  0  0
 12 22  1  0  0  0  0
 12 23  1  0  0  0  0
 13 24  1  0  0  0  0
 13 25  1  0  0  0  0
 13 26  1  0  0  0  0
M  END
> <PUBCHEM_COMPOUND_CID>
517263
> <PUBCHEM_COMPOUND_CANONICALIZED>
1
> <PUBCHEM_CACTVS_COMPLEXITY>
129
> <PUBCHEM_CACTVS_HBOND_ACCEPTOR>
5
> <PUBCHEM_CACTVS_HBOND_DONOR>
4
> <PUBCHEM_CACTVS_ROTATABLE_BOND>
6
> <PUBCHEM_CACTVS_SUBSKEYS>
AAADceBjIABmAAAAAAAAAAAAAAAAAAAAAAAAAAAAAAAAAAAAAAAAHgQQAAAACCjFQASCAABAAAgIAAAAAAAAAQAAABAAAIAAAAAAAAAgAAAAAAAAEAAAAAAAAAAAAAAAAAAAAAAAAAAAAAAAAAAAAAAAAA==
> <PUBCHEM_IUPAC_OPENEYE_NAME>
bis(2-aminopropylsulfanyl)methanone;dihydrochloride
> <PUBCHEM_IUPAC_CAS_NAME>
bis(2-aminopropylthio)methanone;dihydrochloride
> <PUBCHEM_IUPAC_NAME_MARKUP>
bis(2-aminopropylsulfanyl)methanone;dihydrochloride
> <PUBCHEM_IUPAC_NAME>
bis(2-aminopropylsulfanyl)methanone;dihydrochloride
> <PUBCHEM_IUPAC_SYSTEMATIC_NAME>
bis(2-azanylpropylsulfanyl)methanone;dihydrochloride
> <PUBCHEM_IUPAC_TRADITIONAL_NAME>
bis(2-aminopropylthio)methanone;dihydrochloride
> <PUBCHEM_IUPAC_INCHI>
InChI=1S/C7H16N2OS2.2ClH/c1-5(8)3-11-7(10)12-4-6(2)9;;/h5-6H,3-4,8-9H2,1-2H3;2*1H
> <PUBCHEM_IUPAC_INCHIKEY>
PNRUSQOOZMFJAT-UHFFFAOYSA-N
> <PUBCHEM_EXACT_MASS>
280.0237609
> <PUBCHEM_MOLECULAR_FORMULA>
C7H18Cl2N2OS2
> <PUBCHEM_MOLECULAR_WEIGHT>
281.3
> <PUBCHEM_OPENEYE_CAN_SMILES>
CC(CSC(=O)SCC(C)N)N.Cl.Cl
> <PUBCHEM_OPENEYE_ISO_SMILES>
CC(CSC(=O)SCC(C)N)N.Cl.Cl
> <PUBCHEM_CACTVS_TPSA>
120
> <PUBCHEM_MONOISOTOPIC_WEIGHT>
280.0237609
> <PUBCHEM_TOTAL_CHARGE>
0
> <PUBCHEM_HEAVY_ATOM_COUNT>
14
> <PUBCHEM_ATOM_DEF_STEREO_COUNT>
0
> <PUBCHEM_ATOM_UDEF_STEREO_COUNT>
2
> <PUBCHEM_BOND_DEF_STEREO_COUNT>
0
> <PUBCHEM_BOND_UDEF_STEREO_COUNT>
0
> <PUBCHEM_ISOTOPIC_ATOM_COUNT>
0
> <PUBCHEM_COMPONENT_COUNT>
3
> <PUBCHEM_CACTVS_TAUTO_COUNT>
-1
> <PUBCHEM_COORDINATE_TYPE>
1
5
255
> <PUBCHEM_BONDANNOTATIONS>
8  6  3
9  7  3
$$$$
