517201
  -OEChem-10302200292D
 40 34  0     1  0  0  0  0  0999 V2000
    5.7845   -0.8316    0.0000 Zr  0  0  0  0  0  0  0  0  0  0  0  0
    6.2328   -2.5046    0.0000 Na  0  3  0  0  0  0  0  0  0  0  0  0
    6.4916   -0.1245    0.0000 O   0  0  0  0  0  0  0  0  0  0  0  0
    5.0774   -1.5387    0.0000 O   0  0  0  0  0  0  0  0  0  0  0  0
    5.0774   -0.1245    0.0000 O   0  0  0  0  0  0  0  0  0  0  0  0
    6.4916   -1.5387    0.0000 O   0  5  0  0  0  0  0  0  0  0  0  0
    9.1305    0.0650    0.0000 O   0  0  0  0  0  0  0  0  0  0  0  0
    2.4384   -1.7282    0.0000 O   0  0  0  0  0  0  0  0  0  0  0  0
    4.8879    2.5145    0.0000 O   0  0  0  0  0  0  0  0  0  0  0  0
    7.7163   -1.3492    0.0000 O   0  0  0  0  0  0  0  0  0  0  0  0
    3.8526   -0.3139    0.0000 O   0  0  0  0  0  0  0  0  0  0  0  0
    6.3021    1.1003    0.0000 O   0  0  0  0  0  0  0  0  0  0  0  0
    7.4575   -0.3833    0.0000 C   0  0  0  0  0  0  0  0  0  0  0  0
    4.1114   -1.2799    0.0000 C   0  0  0  0  0  0  0  0  0  0  0  0
    5.3362    0.8415    0.0000 C   0  0  0  0  0  0  0  0  0  0  0  0
    8.1646    0.3238    0.0000 C   0  0  3  0  0  0  0  0  0  0  0  0
    3.4043   -1.9870    0.0000 C   0  0  3  0  0  0  0  0  0  0  0  0
    4.6291    1.5486    0.0000 C   0  0  3  0  0  0  0  0  0  0  0  0
    7.9058    1.2897    0.0000 C   0  0  0  0  0  0  0  0  0  0  0  0
    3.6632   -2.9529    0.0000 C   0  0  0  0  0  0  0  0  0  0  0  0
    3.6632    1.2897    0.0000 C   0  0  0  0  0  0  0  0  0  0  0  0
    6.3311    0.4744    0.0000 H   0  0  0  0  0  0  0  0  0  0  0  0
    5.2378   -2.1376    0.0000 H   0  0  0  0  0  0  0  0  0  0  0  0
    4.4785   -0.2849    0.0000 H   0  0  0  0  0  0  0  0  0  0  0  0
    7.0904   -1.3782    0.0000 H   0  0  0  0  0  0  0  0  0  0  0  0
    8.3251   -0.2751    0.0000 H   0  0  0  0  0  0  0  0  0  0  0  0
    2.9659   -2.4254    0.0000 H   0  0  0  0  0  0  0  0  0  0  0  0
    5.2280    1.7090    0.0000 H   0  0  0  0  0  0  0  0  0  0  0  0
    8.5047    1.4502    0.0000 H   0  0  0  0  0  0  0  0  0  0  0  0
    7.7453    1.8886    0.0000 H   0  0  0  0  0  0  0  0  0  0  0  0
    7.3069    1.1293    0.0000 H   0  0  0  0  0  0  0  0  0  0  0  0
    3.0643   -3.1134    0.0000 H   0  0  0  0  0  0  0  0  0  0  0  0
    3.8236   -3.5518    0.0000 H   0  0  0  0  0  0  0  0  0  0  0  0
    4.2620   -2.7924    0.0000 H   0  0  0  0  0  0  0  0  0  0  0  0
    3.5027    1.8886    0.0000 H   0  0  0  0  0  0  0  0  0  0  0  0
    3.0643    1.1293    0.0000 H   0  0  0  0  0  0  0  0  0  0  0  0
    3.8236    0.6909    0.0000 H   0  0  0  0  0  0  0  0  0  0  0  0
    9.5689    0.5034    0.0000 H   0  0  0  0  0  0  0  0  0  0  0  0
    2.0000   -2.1666    0.0000 H   0  0  0  0  0  0  0  0  0  0  0  0
    4.4495    2.9529    0.0000 H   0  0  0  0  0  0  0  0  0  0  0  0
  3 13  1  0  0  0  0
  3 22  1  0  0  0  0
  4 14  1  0  0  0  0
  4 23  1  0  0  0  0
  5 15  1  0  0  0  0
  5 24  1  0  0  0  0
  6 25  1  0  0  0  0
  7 16  1  0  0  0  0
  7 38  1  0  0  0  0
  8 17  1  0  0  0  0
  8 39  1  0  0  0  0
  9 18  1  0  0  0  0
  9 40  1  0  0  0  0
 10 13  2  0  0  0  0
 11 14  2  0  0  0  0
 12 15  2  0  0  0  0
 13 16  1  0  0  0  0
 14 17  1  0  0  0  0
 15 18  1  0  0  0  0
 16 19  1  0  0  0  0
 16 26  1  0  0  0  0
 17 20  1  0  0  0  0
 17 27  1  0  0  0  0
 18 21  1  0  0  0  0
 18 28  1  0  0  0  0
 19 29  1  0  0  0  0
 19 30  1  0  0  0  0
 19 31  1  0  0  0  0
 20 32  1  0  0  0  0
 20 33  1  0  0  0  0
 20 34  1  0  0  0  0
 21 35  1  0  0  0  0
 21 36  1  0  0  0  0
 21 37  1  0  0  0  0
M  CHG  2   2   1   6  -1
M  END
> <PUBCHEM_COMPOUND_CID>
517201
> <PUBCHEM_COMPOUND_CANONICALIZED>
1
> <PUBCHEM_CACTVS_COMPLEXITY>
233
> <PUBCHEM_CACTVS_HBOND_ACCEPTOR>
10
> <PUBCHEM_CACTVS_HBOND_DONOR>
7
> <PUBCHEM_CACTVS_ROTATABLE_BOND>
3
> <PUBCHEM_CACTVS_SUBSKEYS>
AAADceBwPCAAAAAAAQAAAAAAAAAAAAAAAAAAAAAAAAAAAAAAAAAAGgAACAAACBSggAICCAAAAgAIAACQCAIAAAAAAAAAAAFAAAABEAAAAAAAQAAAAAABAAAAAAAAAAAAAAAAAAAAAAAAAAAAAAAAAAAAAA==
> <PUBCHEM_IUPAC_OPENEYE_NAME>
sodium;2-hydroxypropanoic acid;zirconium;hydroxide
> <PUBCHEM_IUPAC_CAS_NAME>
sodium;2-hydroxypropanoic acid;zirconium;hydroxide
> <PUBCHEM_IUPAC_NAME_MARKUP>
sodium;2-hydroxypropanoic acid;zirconium;hydroxide
> <PUBCHEM_IUPAC_NAME>
sodium;2-hydroxypropanoic acid;zirconium;hydroxide
> <PUBCHEM_IUPAC_SYSTEMATIC_NAME>
sodium;2-oxidanylpropanoic acid;zirconium;hydroxide
> <PUBCHEM_IUPAC_TRADITIONAL_NAME>
sodium;lactic acid;zirconium;hydroxide
> <PUBCHEM_IUPAC_INCHI>
InChI=1S/3C3H6O3.Na.H2O.Zr/c3*1-2(4)3(5)6;;;/h3*2,4H,1H3,(H,5,6);;1H2;/q;;;+1;;/p-1
> <PUBCHEM_IUPAC_INCHIKEY>
ZVHSYYNIDPMSRE-UHFFFAOYSA-M
> <PUBCHEM_EXACT_MASS>
399.992290
> <PUBCHEM_MOLECULAR_FORMULA>
C9H19NaO10Zr
> <PUBCHEM_MOLECULAR_WEIGHT>
401.45
> <PUBCHEM_OPENEYE_CAN_SMILES>
CC(C(=O)O)O.CC(C(=O)O)O.CC(C(=O)O)O.[OH-].[Na+].[Zr]
> <PUBCHEM_OPENEYE_ISO_SMILES>
CC(C(=O)O)O.CC(C(=O)O)O.CC(C(=O)O)O.[OH-].[Na+].[Zr]
> <PUBCHEM_CACTVS_TPSA>
174
> <PUBCHEM_MONOISOTOPIC_WEIGHT>
399.992290
> <PUBCHEM_TOTAL_CHARGE>
0
> <PUBCHEM_HEAVY_ATOM_COUNT>
21
> <PUBCHEM_ATOM_DEF_STEREO_COUNT>
0
> <PUBCHEM_ATOM_UDEF_STEREO_COUNT>
3
> <PUBCHEM_BOND_DEF_STEREO_COUNT>
0
> <PUBCHEM_BOND_UDEF_STEREO_COUNT>
0
> <PUBCHEM_ISOTOPIC_ATOM_COUNT>
0
> <PUBCHEM_COMPONENT_COUNT>
6
> <PUBCHEM_CACTVS_TAUTO_COUNT>
-1
> <PUBCHEM_NONSTANDARDBOND>
1  3  6
1  4  6
1  5  6
1  6  6
2  6  7
> <PUBCHEM_COORDINATE_TYPE>
1
5
255
> <PUBCHEM_BONDANNOTATIONS>
16  7  3
17  8  3
18  9  3
$$$$
