517256
  -OEChem-10302200292D
 40 39  0     1  0  0  0  0  0999 V2000
    4.2690   -1.2500    0.0000 S   0  0  0  0  0  0  0  0  0  0  0  0
   10.3312    1.2500    0.0000 S   0  0  0  0  0  0  0  0  0  0  0  0
    6.0010   -1.2500    0.0000 O   0  0  0  0  0  0  0  0  0  0  0  0
    8.5991    1.2500    0.0000 O   0  0  0  0  0  0  0  0  0  0  0  0
    2.5369   -0.2500    0.0000 O   0  0  0  0  0  0  0  0  0  0  0  0
   12.0632    0.2500    0.0000 O   0  0  0  0  0  0  0  0  0  0  0  0
    3.4030    1.2500    0.0000 O   0  0  0  0  0  0  0  0  0  0  0  0
   11.1972   -1.2500    0.0000 O   0  0  0  0  0  0  0  0  0  0  0  0
    2.5369   -1.2500    0.0000 O   0  0  0  0  0  0  0  0  0  0  0  0
   12.0632    1.2500    0.0000 O   0  0  0  0  0  0  0  0  0  0  0  0
    6.8671    0.2500    0.0000 N   0  0  0  0  0  0  0  0  0  0  0  0
    7.7331   -0.2500    0.0000 N   0  0  0  0  0  0  0  0  0  0  0  0
    5.1350    0.2500    0.0000 C   0  0  0  0  0  0  0  0  0  0  0  0
    9.4651   -0.2500    0.0000 C   0  0  0  0  0  0  0  0  0  0  0  0
    4.2690   -0.2500    0.0000 C   0  0  3  0  0  0  0  0  0  0  0  0
   10.3312    0.2500    0.0000 C   0  0  3  0  0  0  0  0  0  0  0  0
    6.0010   -0.2500    0.0000 C   0  0  0  0  0  0  0  0  0  0  0  0
    8.5991    0.2500    0.0000 C   0  0  0  0  0  0  0  0  0  0  0  0
    3.4030    0.2500    0.0000 C   0  0  0  0  0  0  0  0  0  0  0  0
   11.1972   -0.2500    0.0000 C   0  0  0  0  0  0  0  0  0  0  0  0
    3.4030   -1.7500    0.0000 C   0  0  0  0  0  0  0  0  0  0  0  0
   11.1972    1.7500    0.0000 C   0  0  0  0  0  0  0  0  0  0  0  0
    3.4030   -2.7500    0.0000 C   0  0  0  0  0  0  0  0  0  0  0  0
   11.1972    2.7500    0.0000 C   0  0  0  0  0  0  0  0  0  0  0  0
    5.5335    0.7249    0.0000 H   0  0  0  0  0  0  0  0  0  0  0  0
    4.7365    0.7249    0.0000 H   0  0  0  0  0  0  0  0  0  0  0  0
    9.0666   -0.7249    0.0000 H   0  0  0  0  0  0  0  0  0  0  0  0
    9.8637   -0.7249    0.0000 H   0  0  0  0  0  0  0  0  0  0  0  0
    4.8059   -0.5600    0.0000 H   0  0  0  0  0  0  0  0  0  0  0  0
   10.8681    0.5600    0.0000 H   0  0  0  0  0  0  0  0  0  0  0  0
    6.8671    0.8700    0.0000 H   0  0  0  0  0  0  0  0  0  0  0  0
    7.7331   -0.8700    0.0000 H   0  0  0  0  0  0  0  0  0  0  0  0
    2.7830   -2.7500    0.0000 H   0  0  0  0  0  0  0  0  0  0  0  0
    3.4030   -3.3700    0.0000 H   0  0  0  0  0  0  0  0  0  0  0  0
    4.0230   -2.7500    0.0000 H   0  0  0  0  0  0  0  0  0  0  0  0
   11.8172    2.7500    0.0000 H   0  0  0  0  0  0  0  0  0  0  0  0
   11.1972    3.3700    0.0000 H   0  0  0  0  0  0  0  0  0  0  0  0
   10.5772    2.7500    0.0000 H   0  0  0  0  0  0  0  0  0  0  0  0
    2.0000    0.0600    0.0000 H   0  0  0  0  0  0  0  0  0  0  0  0
   12.6002   -0.0600    0.0000 H   0  0  0  0  0  0  0  0  0  0  0  0
  1 15  1  0  0  0  0
  1 21  1  0  0  0  0
  2 16  1  0  0  0  0
  2 22  1  0  0  0  0
  3 17  2  0  0  0  0
  4 18  2  0  0  0  0
  5 19  1  0  0  0  0
  5 39  1  0  0  0  0
  6 20  1  0  0  0  0
  6 40  1  0  0  0  0
  7 19  2  0  0  0  0
  8 20  2  0  0  0  0
  9 21  2  0  0  0  0
 10 22  2  0  0  0  0
 11 12  1  0  0  0  0
 11 17  1  0  0  0  0
 11 31  1  0  0  0  0
 12 18  1  0  0  0  0
 12 32  1  0  0  0  0
 13 15  1  0  0  0  0
 13 17  1  0  0  0  0
 13 25  1  0  0  0  0
 13 26  1  0  0  0  0
 14 16  1  0  0  0  0
 14 18  1  0  0  0  0
 14 27  1  0  0  0  0
 14 28  1  0  0  0  0
 15 19  1  0  0  0  0
 15 29  1  0  0  0  0
 16 20  1  0  0  0  0
 16 30  1  0  0  0  0
 21 23  1  0  0  0  0
 22 24  1  0  0  0  0
 23 33  1  0  0  0  0
 23 34  1  0  0  0  0
 23 35  1  0  0  0  0
 24 36  1  0  0  0  0
 24 37  1  0  0  0  0
 24 38  1  0  0  0  0
M  END
> <PUBCHEM_COMPOUND_CID>
517256
> <PUBCHEM_COMPOUND_CANONICALIZED>
1
> <PUBCHEM_CACTVS_COMPLEXITY>
503
> <PUBCHEM_CACTVS_HBOND_ACCEPTOR>
10
> <PUBCHEM_CACTVS_HBOND_DONOR>
4
> <PUBCHEM_CACTVS_ROTATABLE_BOND>
10
> <PUBCHEM_CACTVS_SUBSKEYS>
AAADceBzPABgAAAAAAAAAAAAAAAAAAAAAAAAAAAAAAAAAAAAAAAAHgQYCAAACACFwACCCABiAggIAAGQGAAAAAAAABISIAEAAAAAABAggAAAQAAEEAAgAAAnAAAAAAAAAAAAAAAAAAAAAAAAAAAAAAAAAA==
> <PUBCHEM_IUPAC_OPENEYE_NAME>
2-acetylsulfanyl-4-[2-(3-acetylsulfanyl-3-carboxy-propanoyl)hydrazino]-4-oxo-butanoic acid
> <PUBCHEM_IUPAC_CAS_NAME>
2-(acetylthio)-4-[[3-(acetylthio)-3-carboxy-1-oxopropyl]hydrazo]-4-oxobutanoic acid
> <PUBCHEM_IUPAC_NAME_MARKUP>
2-acetylsulfanyl-4-[2-(3-acetylsulfanyl-3-carboxypropanoyl)hydrazinyl]-4-oxobutanoic acid
> <PUBCHEM_IUPAC_NAME>
2-acetylsulfanyl-4-[2-(3-acetylsulfanyl-3-carboxypropanoyl)hydrazinyl]-4-oxobutanoic acid
> <PUBCHEM_IUPAC_SYSTEMATIC_NAME>
2-ethanoylsulfanyl-4-[2-(3-ethanoylsulfanyl-4-oxidanyl-4-oxidanylidene-butanoyl)hydrazinyl]-4-oxidanylidene-butanoic acid
> <PUBCHEM_IUPAC_TRADITIONAL_NAME>
2-(acetylthio)-4-[N'-[3-(acetylthio)-3-carboxy-propanoyl]hydrazino]-4-keto-butyric acid
> <PUBCHEM_IUPAC_INCHI>
InChI=1S/C12H16N2O8S2/c1-5(15)23-7(11(19)20)3-9(17)13-14-10(18)4-8(12(21)22)24-6(2)16/h7-8H,3-4H2,1-2H3,(H,13,17)(H,14,18)(H,19,20)(H,21,22)
> <PUBCHEM_IUPAC_INCHIKEY>
VWPKDMBFEGDPTO-UHFFFAOYSA-N
> <PUBCHEM_XLOGP3_AA>
-1
> <PUBCHEM_EXACT_MASS>
380.03480782
> <PUBCHEM_MOLECULAR_FORMULA>
C12H16N2O8S2
> <PUBCHEM_MOLECULAR_WEIGHT>
380.4
> <PUBCHEM_OPENEYE_CAN_SMILES>
CC(=O)SC(CC(=O)NNC(=O)CC(C(=O)O)SC(=O)C)C(=O)O
> <PUBCHEM_OPENEYE_ISO_SMILES>
CC(=O)SC(CC(=O)NNC(=O)CC(C(=O)O)SC(=O)C)C(=O)O
> <PUBCHEM_CACTVS_TPSA>
218
> <PUBCHEM_MONOISOTOPIC_WEIGHT>
380.03480782
> <PUBCHEM_TOTAL_CHARGE>
0
> <PUBCHEM_HEAVY_ATOM_COUNT>
24
> <PUBCHEM_ATOM_DEF_STEREO_COUNT>
0
> <PUBCHEM_ATOM_UDEF_STEREO_COUNT>
2
> <PUBCHEM_BOND_DEF_STEREO_COUNT>
0
> <PUBCHEM_BOND_UDEF_STEREO_COUNT>
0
> <PUBCHEM_ISOTOPIC_ATOM_COUNT>
0
> <PUBCHEM_COMPONENT_COUNT>
1
> <PUBCHEM_CACTVS_TAUTO_COUNT>
-1
> <PUBCHEM_COORDINATE_TYPE>
1
5
255
> <PUBCHEM_BONDANNOTATIONS>
15  13  3
16  14  3
$$$$
