517287
  -OEChem-10302200292D
108110  0     1  0  0  0  0  0999 V2000
    2.9579    4.0000    0.0000 S   0  0  0  0  0  0  0  0  0  0  0  0
    8.7671    3.0750    0.0000 O   0  0  0  0  0  0  0  0  0  0  0  0
    0.8514    9.9410    0.0000 O   0  0  0  0  0  0  0  0  0  0  0  0
    8.5357    0.6200    0.0000 O   0  0  0  0  0  0  0  0  0  0  0  0
    0.6200    7.4860    0.0000 O   0  0  0  0  0  0  0  0  0  0  0  0
    8.5357    5.4243    0.0000 O   0  0  0  0  0  0  0  0  0  0  0  0
    0.6200   12.2903    0.0000 O   0  0  0  0  0  0  0  0  0  0  0  0
    3.8239    4.5000    0.0000 O   0  0  0  0  0  0  0  0  0  0  0  0
    2.0918    3.5000    0.0000 O   0  0  0  0  0  0  0  0  0  0  0  0
    2.4579    4.8660    0.0000 O   0  0  0  0  0  0  0  0  0  0  0  0
    3.4579    3.1340    0.0000 O   0  0  0  0  0  0  0  0  0  0  0  0
   10.8736    9.0443    0.0000 O   0  0  0  0  0  0  0  0  0  0  0  0
   16.3684    8.2722    0.0000 O   0  0  0  0  0  0  0  0  0  0  0  0
   10.8736   16.5443    0.0000 O   0  0  0  0  0  0  0  0  0  0  0  0
   10.8736   14.0443    0.0000 O   0  0  0  0  0  0  0  0  0  0  0  0
   10.8736   11.5443    0.0000 O   0  0  0  0  0  0  0  0  0  0  0  0
   12.6964    2.0711    0.0000 N   0  0  3  0  0  0  0  0  0  0  0  0
    4.7806    8.9371    0.0000 N   0  0  3  0  0  0  0  0  0  0  0  0
   10.2254    2.5466    0.0000 C   0  0  3  0  0  0  0  0  0  0  0  0
    2.3097    9.4126    0.0000 C   0  0  3  0  0  0  0  0  0  0  0  0
   11.0491    2.0711    0.0000 C   0  0  3  0  0  0  0  0  0  0  0  0
    3.1333    8.9371    0.0000 C   0  0  3  0  0  0  0  0  0  0  0  0
   11.8727    2.5466    0.0000 C   0  0  3  0  0  0  0  0  0  0  0  0
    3.9570    9.4126    0.0000 C   0  0  3  0  0  0  0  0  0  0  0  0
    9.4018    2.0711    0.0000 C   0  0  3  0  0  0  0  0  0  0  0  0
    1.4860    8.9371    0.0000 C   0  0  3  0  0  0  0  0  0  0  0  0
   10.7749    3.2441    0.0000 C   0  0  0  0  0  0  0  0  0  0  0  0
    2.8592   10.1101    0.0000 C   0  0  0  0  0  0  0  0  0  0  0  0
   10.2254    3.4977    0.0000 C   0  0  0  0  0  0  0  0  0  0  0  0
    2.3097   10.3637    0.0000 C   0  0  0  0  0  0  0  0  0  0  0  0
   11.8727    3.4977    0.0000 C   0  0  0  0  0  0  0  0  0  0  0  0
    3.9570   10.3637    0.0000 C   0  0  0  0  0  0  0  0  0  0  0  0
   12.1276    3.2441    0.0000 C   0  0  0  0  0  0  0  0  0  0  0  0
    4.2118   10.1101    0.0000 C   0  0  0  0  0  0  0  0  0  0  0  0
   11.0491    3.9732    0.0000 C   0  0  0  0  0  0  0  0  0  0  0  0
    3.1333   10.8392    0.0000 C   0  0  0  0  0  0  0  0  0  0  0  0
    9.4018    1.1200    0.0000 C   0  0  3  0  0  0  0  0  0  0  0  0
    1.4860    7.9860    0.0000 C   0  0  3  0  0  0  0  0  0  0  0  0
   11.0491    1.1200    0.0000 C   0  0  0  0  0  0  0  0  0  0  0  0
    3.1333    7.9860    0.0000 C   0  0  0  0  0  0  0  0  0  0  0  0
    9.4018    3.9732    0.0000 C   0  0  0  0  0  0  0  0  0  0  0  0
    1.4860   10.8392    0.0000 C   0  0  0  0  0  0  0  0  0  0  0  0
   10.2254    0.6445    0.0000 C   0  0  0  0  0  0  0  0  0  0  0  0
    2.3097    7.5105    0.0000 C   0  0  0  0  0  0  0  0  0  0  0  0
   13.3775    1.3389    0.0000 C   0  0  0  0  0  0  0  0  0  0  0  0
    5.4618    8.2050    0.0000 C   0  0  0  0  0  0  0  0  0  0  0  0
   11.0491    4.9243    0.0000 C   0  0  0  0  0  0  0  0  0  0  0  0
    3.1333   11.7903    0.0000 C   0  0  0  0  0  0  0  0  0  0  0  0
    9.4018    4.9243    0.0000 C   0  0  0  0  0  0  0  0  0  0  0  0
    1.4860   11.7903    0.0000 C   0  0  0  0  0  0  0  0  0  0  0  0
   10.2254    5.3998    0.0000 C   0  0  0  0  0  0  0  0  0  0  0  0
    2.3097   12.2659    0.0000 C   0  0  0  0  0  0  0  0  0  0  0  0
    8.5357    6.4243    0.0000 C   0  0  0  0  0  0  0  0  0  0  0  0
    0.6200   13.2903    0.0000 C   0  0  0  0  0  0  0  0  0  0  0  0
   11.5860    1.7611    0.0000 H   0  0  0  0  0  0  0  0  0  0  0  0
    3.6703    8.6271    0.0000 H   0  0  0  0  0  0  0  0  0  0  0  0
   12.4097    2.8566    0.0000 H   0  0  0  0  0  0  0  0  0  0  0  0
    4.4939    9.7226    0.0000 H   0  0  0  0  0  0  0  0  0  0  0  0
    8.8062    1.8986    0.0000 H   0  0  0  0  0  0  0  0  0  0  0  0
    0.8905    8.7646    0.0000 H   0  0  0  0  0  0  0  0  0  0  0  0
   10.9117    3.8488    0.0000 H   0  0  0  0  0  0  0  0  0  0  0  0
   10.2153    3.5109    0.0000 H   0  0  0  0  0  0  0  0  0  0  0  0
    2.9960   10.7148    0.0000 H   0  0  0  0  0  0  0  0  0  0  0  0
    2.2995   10.3769    0.0000 H   0  0  0  0  0  0  0  0  0  0  0  0
   12.4833    3.3900    0.0000 H   0  0  0  0  0  0  0  0  0  0  0  0
   12.0848    4.0803    0.0000 H   0  0  0  0  0  0  0  0  0  0  0  0
    4.5676   10.2560    0.0000 H   0  0  0  0  0  0  0  0  0  0  0  0
    4.1690   10.9463    0.0000 H   0  0  0  0  0  0  0  0  0  0  0  0
   12.7197    3.4279    0.0000 H   0  0  0  0  0  0  0  0  0  0  0  0
   12.0346    3.8570    0.0000 H   0  0  0  0  0  0  0  0  0  0  0  0
    4.8040   10.2939    0.0000 H   0  0  0  0  0  0  0  0  0  0  0  0
    4.1189   10.7231    0.0000 H   0  0  0  0  0  0  0  0  0  0  0  0
    9.4018    0.5000    0.0000 H   0  0  0  0  0  0  0  0  0  0  0  0
    1.4860    7.3660    0.0000 H   0  0  0  0  0  0  0  0  0  0  0  0
   11.5860    0.8100    0.0000 H   0  0  0  0  0  0  0  0  0  0  0  0
    3.6703    7.6760    0.0000 H   0  0  0  0  0  0  0  0  0  0  0  0
   10.2254    0.0245    0.0000 H   0  0  0  0  0  0  0  0  0  0  0  0
    2.3097    6.8905    0.0000 H   0  0  0  0  0  0  0  0  0  0  0  0
   12.9236    0.9166    0.0000 H   0  0  0  0  0  0  0  0  0  0  0  0
   13.7999    0.8850    0.0000 H   0  0  0  0  0  0  0  0  0  0  0  0
   13.8315    1.7613    0.0000 H   0  0  0  0  0  0  0  0  0  0  0  0
    5.0079    7.7826    0.0000 H   0  0  0  0  0  0  0  0  0  0  0  0
    5.8841    7.7510    0.0000 H   0  0  0  0  0  0  0  0  0  0  0  0
    5.9157    8.6273    0.0000 H   0  0  0  0  0  0  0  0  0  0  0  0
   11.5860    5.2343    0.0000 H   0  0  0  0  0  0  0  0  0  0  0  0
    3.6703   12.1003    0.0000 H   0  0  0  0  0  0  0  0  0  0  0  0
   10.2254    6.0198    0.0000 H   0  0  0  0  0  0  0  0  0  0  0  0
    2.3097   12.8859    0.0000 H   0  0  0  0  0  0  0  0  0  0  0  0
    8.5357    0.0000    0.0000 H   0  0  0  0  0  0  0  0  0  0  0  0
    0.6200    6.8660    0.0000 H   0  0  0  0  0  0  0  0  0  0  0  0
    9.1557    6.4243    0.0000 H   0  0  0  0  0  0  0  0  0  0  0  0
    8.5357    7.0443    0.0000 H   0  0  0  0  0  0  0  0  0  0  0  0
    7.9157    6.4243    0.0000 H   0  0  0  0  0  0  0  0  0  0  0  0
    1.2400   13.2903    0.0000 H   0  0  0  0  0  0  0  0  0  0  0  0
    0.6200   13.9103    0.0000 H   0  0  0  0  0  0  0  0  0  0  0  0
    0.0000   13.2903    0.0000 H   0  0  0  0  0  0  0  0  0  0  0  0
    4.3608    4.1900    0.0000 H   0  0  0  0  0  0  0  0  0  0  0  0
    1.5549    3.8100    0.0000 H   0  0  0  0  0  0  0  0  0  0  0  0
   11.4105    9.3543    0.0000 H   0  0  0  0  0  0  0  0  0  0  0  0
   10.3367    9.3543    0.0000 H   0  0  0  0  0  0  0  0  0  0  0  0
   16.9053    8.5822    0.0000 H   0  0  0  0  0  0  0  0  0  0  0  0
   15.8315    8.5822    0.0000 H   0  0  0  0  0  0  0  0  0  0  0  0
   11.4105   16.8543    0.0000 H   0  0  0  0  0  0  0  0  0  0  0  0
   10.3367   16.8543    0.0000 H   0  0  0  0  0  0  0  0  0  0  0  0
   11.4105   14.3543    0.0000 H   0  0  0  0  0  0  0  0  0  0  0  0
   10.3367   14.3543    0.0000 H   0  0  0  0  0  0  0  0  0  0  0  0
   11.4105   11.8543    0.0000 H   0  0  0  0  0  0  0  0  0  0  0  0
   10.3367   11.8543    0.0000 H   0  0  0  0  0  0  0  0  0  0  0  0
  1  8  1  0  0  0  0
  1  9  1  0  0  0  0
  1 10  2  0  0  0  0
  1 11  2  0  0  0  0
  2 25  1  0  0  0  0
  2 41  1  0  0  0  0
  3 26  1  0  0  0  0
  3 42  1  0  0  0  0
  4 37  1  0  0  0  0
  4 89  1  0  0  0  0
  5 38  1  0  0  0  0
  5 90  1  0  0  0  0
  6 49  1  0  0  0  0
  6 53  1  0  0  0  0
  7 50  1  0  0  0  0
  7 54  1  0  0  0  0
  8 97  1  0  0  0  0
  9 98  1  0  0  0  0
 12 99  1  0  0  0  0
 12100  1  0  0  0  0
 13101  1  0  0  0  0
 13102  1  0  0  0  0
 14103  1  0  0  0  0
 14104  1  0  0  0  0
 15105  1  0  0  0  0
 15106  1  0  0  0  0
 16107  1  0  0  0  0
 16108  1  0  0  0  0
 17 23  1  0  0  0  0
 17 33  1  0  0  0  0
 17 45  1  0  0  0  0
 18 24  1  0  0  0  0
 18 34  1  0  0  0  0
 18 46  1  0  0  0  0
 19 21  1  0  0  0  0
 19 25  1  0  0  0  0
 19 27  1  0  0  0  0
 19 29  1  0  0  0  0
 20 22  1  0  0  0  0
 20 26  1  0  0  0  0
 20 28  1  0  0  0  0
 20 30  1  0  0  0  0
 21 23  1  0  0  0  0
 21 39  1  0  0  0  0
 21 55  1  0  0  0  0
 22 24  1  0  0  0  0
 22 40  1  0  0  0  0
 22 56  1  0  0  0  0
 23 31  1  0  0  0  0
 23 57  1  0  0  0  0
 24 32  1  0  0  0  0
 24 58  1  0  0  0  0
 25 37  1  0  0  0  0
 25 59  1  0  0  0  0
 26 38  1  0  0  0  0
 26 60  1  0  0  0  0
 27 33  1  0  0  0  0
 27 61  1  0  0  0  0
 27 62  1  0  0  0  0
 28 34  1  0  0  0  0
 28 63  1  0  0  0  0
 28 64  1  0  0  0  0
 29 35  2  0  0  0  0
 29 41  1  0  0  0  0
 30 36  2  0  0  0  0
 30 42  1  0  0  0  0
 31 35  1  0  0  0  0
 31 65  1  0  0  0  0
 31 66  1  0  0  0  0
 32 36  1  0  0  0  0
 32 67  1  0  0  0  0
 32 68  1  0  0  0  0
 33 69  1  0  0  0  0
 33 70  1  0  0  0  0
 34 71  1  0  0  0  0
 34 72  1  0  0  0  0
 35 47  1  0  0  0  0
 36 48  1  0  0  0  0
 37 43  1  0  0  0  0
 37 73  1  0  0  0  0
 38 44  1  0  0  0  0
 38 74  1  0  0  0  0
 39 43  2  0  0  0  0
 39 75  1  0  0  0  0
 40 44  2  0  0  0  0
 40 76  1  0  0  0  0
 41 49  2  0  0  0  0
 42 50  2  0  0  0  0
 43 77  1  0  0  0  0
 44 78  1  0  0  0  0
 45 79  1  0  0  0  0
 45 80  1  0  0  0  0
 45 81  1  0  0  0  0
 46 82  1  0  0  0  0
 46 83  1  0  0  0  0
 46 84  1  0  0  0  0
 47 51  2  0  0  0  0
 47 85  1  0  0  0  0
 48 52  2  0  0  0  0
 48 86  1  0  0  0  0
 49 51  1  0  0  0  0
 50 52  1  0  0  0  0
 51 87  1  0  0  0  0
 52 88  1  0  0  0  0
 53 91  1  0  0  0  0
 53 92  1  0  0  0  0
 53 93  1  0  0  0  0
 54 94  1  0  0  0  0
 54 95  1  0  0  0  0
 54 96  1  0  0  0  0
M  END
> <PUBCHEM_COMPOUND_CID>
517287
> <PUBCHEM_COMPOUND_CANONICALIZED>
1
> <PUBCHEM_CACTVS_COMPLEXITY>
590
> <PUBCHEM_CACTVS_HBOND_ACCEPTOR>
17
> <PUBCHEM_CACTVS_HBOND_DONOR>
9
> <PUBCHEM_CACTVS_ROTATABLE_BOND>
2
> <PUBCHEM_CACTVS_SUBSKEYS>
AAADcfB/PABAAAAAAAAAAAAAAAAAASJAAAA8eMGCAAAWLEjBQAAAHgAACAAADzzhmAYyBoMABoCAAiBCADACCAAgIAAIiAAOiIgNNiKEsRuGeCKkwBGLuAew8P8PoAABAAAYQADQAAaAADSAAAAAAAAAAA==
> <PUBCHEM_IUPAC_OPENEYE_NAME>
9-methoxy-3-methyl-2,4,4a,7,7a,13-hexahydro-1H-4,12-methanobenzofuro[3,2-e]isoquinolin-7-ol;sulfuric acid;pentahydrate
> <PUBCHEM_IUPAC_CAS_NAME>
9-methoxy-3-methyl-2,4,4a,7,7a,13-hexahydro-1H-4,12-methanobenzofuro[3,2-e]isoquinolin-7-ol;sulfuric acid;pentahydrate
> <PUBCHEM_IUPAC_NAME_MARKUP>
9-methoxy-3-methyl-2,4,4<I>a</I>,7,7<I>a</I>,13-hexahydro-1<I>H</I>-4,12-methanobenzofuro[3,2-e]isoquinolin-7-ol;sulfuric acid;pentahydrate
> <PUBCHEM_IUPAC_NAME>
9-methoxy-3-methyl-2,4,4a,7,7a,13-hexahydro-1H-4,12-methanobenzofuro[3,2-e]isoquinolin-7-ol;sulfuric acid;pentahydrate
> <PUBCHEM_IUPAC_SYSTEMATIC_NAME>
9-methoxy-3-methyl-2,4,4a,7,7a,13-hexahydro-1H-4,12-methanobenzofuro[3,2-e]isoquinolin-7-ol;sulfuric acid;pentahydrate
> <PUBCHEM_IUPAC_TRADITIONAL_NAME>
9-methoxy-3-methyl-2,4,4a,7,7a,13-hexahydro-1H-4,12-methanobenzofuro[3,2-e]isoquinolin-7-ol;sulfuric acid;pentahydrate
> <PUBCHEM_IUPAC_INCHI>
InChI=1S/2C18H21NO3.H2O4S.5H2O/c2*1-19-8-7-18-11-4-5-13(20)17(18)22-16-14(21-2)6-3-10(15(16)18)9-12(11)19;1-5(2,3)4;;;;;/h2*3-6,11-13,17,20H,7-9H2,1-2H3;(H2,1,2,3,4);5*1H2
> <PUBCHEM_IUPAC_INCHIKEY>
ILEFSAGTSNBVFS-UHFFFAOYSA-N
> <PUBCHEM_EXACT_MASS>
786.32449019
> <PUBCHEM_MOLECULAR_FORMULA>
C36H54N2O15S
> <PUBCHEM_MOLECULAR_WEIGHT>
786.9
> <PUBCHEM_OPENEYE_CAN_SMILES>
CN1CCC23C4C1CC5=C2C(=C(C=C5)OC)OC3C(C=C4)O.CN1CCC23C4C1CC5=C2C(=C(C=C5)OC)OC3C(C=C4)O.O.O.O.O.O.OS(=O)(=O)O
> <PUBCHEM_OPENEYE_ISO_SMILES>
CN1CCC23C4C1CC5=C2C(=C(C=C5)OC)OC3C(C=C4)O.CN1CCC23C4C1CC5=C2C(=C(C=C5)OC)OC3C(C=C4)O.O.O.O.O.O.OS(=O)(=O)O
> <PUBCHEM_CACTVS_TPSA>
172
> <PUBCHEM_MONOISOTOPIC_WEIGHT>
786.32449019
> <PUBCHEM_TOTAL_CHARGE>
0
> <PUBCHEM_HEAVY_ATOM_COUNT>
54
> <PUBCHEM_ATOM_DEF_STEREO_COUNT>
0
> <PUBCHEM_ATOM_UDEF_STEREO_COUNT>
10
> <PUBCHEM_BOND_DEF_STEREO_COUNT>
0
> <PUBCHEM_BOND_UDEF_STEREO_COUNT>
0
> <PUBCHEM_ISOTOPIC_ATOM_COUNT>
0
> <PUBCHEM_COMPONENT_COUNT>
8
> <PUBCHEM_CACTVS_TAUTO_COUNT>
-1
> <PUBCHEM_COORDINATE_TYPE>
1
5
255
> <PUBCHEM_BONDANNOTATIONS>
19  27  3
25  2  3
20  28  3
21  39  3
22  40  3
23  31  3
24  32  3
29  35  8
29  41  8
26  3  3
30  36  8
30  42  8
35  47  8
36  48  8
37  4  3
41  49  8
42  50  8
47  51  8
48  52  8
49  51  8
38  5  3
50  52  8
$$$$
