517244
  -OEChem-10302200292D
 91 90  0     1  0  0  0  0  0999 V2000
    4.8671    9.0230    0.0000 S   0  0  0  0  0  0  0  0  0  0  0  0
    9.6302    4.6200    0.0000 S   0  0  0  0  0  0  0  0  0  0  0  0
    3.1350    8.0230    0.0000 O   0  0  0  0  0  0  0  0  0  0  0  0
    9.6302    5.6200    0.0000 O   0  5  0  0  0  0  0  0  0  0  0  0
   10.6302    4.6200    0.0000 O   0  0  0  0  0  0  0  0  0  0  0  0
    8.6302    4.6200    0.0000 O   0  0  0  0  0  0  0  0  0  0  0  0
    1.4030    9.0230    0.0000 N   0  3  0  0  0  0  0  0  0  0  0  0
    2.2690    9.5230    0.0000 C   0  0  0  0  0  0  0  0  0  0  0  0
    3.1350    9.0230    0.0000 C   0  0  3  0  0  0  0  0  0  0  0  0
   10.9292    9.5230    0.0000 C   0  0  0  0  0  0  0  0  0  0  0  0
   11.7953    9.0230    0.0000 C   0  0  0  0  0  0  0  0  0  0  0  0
   10.0632    9.0230    0.0000 C   0  0  0  0  0  0  0  0  0  0  0  0
   12.6613    9.5230    0.0000 C   0  0  0  0  0  0  0  0  0  0  0  0
    0.5369    8.5230    0.0000 C   0  0  0  0  0  0  0  0  0  0  0  0
    0.9030    9.8890    0.0000 C   0  0  0  0  0  0  0  0  0  0  0  0
    1.9030    8.1569    0.0000 C   0  0  0  0  0  0  0  0  0  0  0  0
    9.1972    9.5230    0.0000 C   0  0  0  0  0  0  0  0  0  0  0  0
   13.5273    9.0230    0.0000 C   0  0  0  0  0  0  0  0  0  0  0  0
    8.3312    9.0230    0.0000 C   0  0  0  0  0  0  0  0  0  0  0  0
    4.0010    9.5230    0.0000 C   0  0  0  0  0  0  0  0  0  0  0  0
   14.3933    9.5230    0.0000 C   0  0  0  0  0  0  0  0  0  0  0  0
    7.4651    9.5230    0.0000 C   0  0  0  0  0  0  0  0  0  0  0  0
   15.2594    9.0230    0.0000 C   0  0  0  0  0  0  0  0  0  0  0  0
    6.5991    9.0230    0.0000 C   0  0  0  0  0  0  0  0  0  0  0  0
    5.7331    9.5230    0.0000 C   0  0  0  0  0  0  0  0  0  0  0  0
   16.1254    9.5230    0.0000 C   0  0  0  0  0  0  0  0  0  0  0  0
   16.9914    9.0230    0.0000 C   0  0  0  0  0  0  0  0  0  0  0  0
   17.8574    9.5230    0.0000 C   0  0  0  0  0  0  0  0  0  0  0  0
   18.7235    9.0230    0.0000 C   0  0  0  0  0  0  0  0  0  0  0  0
    9.6302    3.6200    0.0000 C   0  0  0  0  0  0  0  0  0  0  0  0
    9.6302    1.6200    0.0000 C   0  0  0  0  0  0  0  0  0  0  0  0
    8.7642    3.1200    0.0000 C   0  0  0  0  0  0  0  0  0  0  0  0
   10.4962    3.1200    0.0000 C   0  0  0  0  0  0  0  0  0  0  0  0
    8.7642    2.1200    0.0000 C   0  0  0  0  0  0  0  0  0  0  0  0
   10.4962    2.1200    0.0000 C   0  0  0  0  0  0  0  0  0  0  0  0
    9.6302    0.6200    0.0000 C   0  0  0  0  0  0  0  0  0  0  0  0
    2.6675    9.9979    0.0000 H   0  0  0  0  0  0  0  0  0  0  0  0
    1.8705    9.9979    0.0000 H   0  0  0  0  0  0  0  0  0  0  0  0
    2.5981    8.7130    0.0000 H   0  0  0  0  0  0  0  0  0  0  0  0
   11.3278    9.9979    0.0000 H   0  0  0  0  0  0  0  0  0  0  0  0
   10.5307    9.9979    0.0000 H   0  0  0  0  0  0  0  0  0  0  0  0
   11.3967    8.5480    0.0000 H   0  0  0  0  0  0  0  0  0  0  0  0
   12.1938    8.5480    0.0000 H   0  0  0  0  0  0  0  0  0  0  0  0
    9.6647    8.5480    0.0000 H   0  0  0  0  0  0  0  0  0  0  0  0
   10.4617    8.5480    0.0000 H   0  0  0  0  0  0  0  0  0  0  0  0
   13.0598    9.9979    0.0000 H   0  0  0  0  0  0  0  0  0  0  0  0
   12.2628    9.9979    0.0000 H   0  0  0  0  0  0  0  0  0  0  0  0
    0.2269    9.0599    0.0000 H   0  0  0  0  0  0  0  0  0  0  0  0
    0.0000    8.2130    0.0000 H   0  0  0  0  0  0  0  0  0  0  0  0
    0.8469    7.9860    0.0000 H   0  0  0  0  0  0  0  0  0  0  0  0
    1.4399   10.1990    0.0000 H   0  0  0  0  0  0  0  0  0  0  0  0
    0.5930   10.4259    0.0000 H   0  0  0  0  0  0  0  0  0  0  0  0
    0.3660    9.5790    0.0000 H   0  0  0  0  0  0  0  0  0  0  0  0
    1.3660    7.8469    0.0000 H   0  0  0  0  0  0  0  0  0  0  0  0
    2.2130    7.6200    0.0000 H   0  0  0  0  0  0  0  0  0  0  0  0
    2.4399    8.4669    0.0000 H   0  0  0  0  0  0  0  0  0  0  0  0
    9.5957    9.9979    0.0000 H   0  0  0  0  0  0  0  0  0  0  0  0
    8.7987    9.9979    0.0000 H   0  0  0  0  0  0  0  0  0  0  0  0
   13.1288    8.5480    0.0000 H   0  0  0  0  0  0  0  0  0  0  0  0
   13.9258    8.5480    0.0000 H   0  0  0  0  0  0  0  0  0  0  0  0
    7.9326    8.5480    0.0000 H   0  0  0  0  0  0  0  0  0  0  0  0
    8.7297    8.5480    0.0000 H   0  0  0  0  0  0  0  0  0  0  0  0
    4.3996    9.9979    0.0000 H   0  0  0  0  0  0  0  0  0  0  0  0
    3.6025    9.9979    0.0000 H   0  0  0  0  0  0  0  0  0  0  0  0
   14.7919    9.9979    0.0000 H   0  0  0  0  0  0  0  0  0  0  0  0
   13.9948    9.9979    0.0000 H   0  0  0  0  0  0  0  0  0  0  0  0
    7.8637    9.9979    0.0000 H   0  0  0  0  0  0  0  0  0  0  0  0
    7.0666    9.9979    0.0000 H   0  0  0  0  0  0  0  0  0  0  0  0
   14.8608    8.5480    0.0000 H   0  0  0  0  0  0  0  0  0  0  0  0
   15.6579    8.5480    0.0000 H   0  0  0  0  0  0  0  0  0  0  0  0
    6.2006    8.5480    0.0000 H   0  0  0  0  0  0  0  0  0  0  0  0
    6.9976    8.5480    0.0000 H   0  0  0  0  0  0  0  0  0  0  0  0
    6.1316    9.9979    0.0000 H   0  0  0  0  0  0  0  0  0  0  0  0
    5.3346    9.9979    0.0000 H   0  0  0  0  0  0  0  0  0  0  0  0
   16.5239    9.9979    0.0000 H   0  0  0  0  0  0  0  0  0  0  0  0
   15.7269    9.9979    0.0000 H   0  0  0  0  0  0  0  0  0  0  0  0
   16.5929    8.5480    0.0000 H   0  0  0  0  0  0  0  0  0  0  0  0
   17.3899    8.5480    0.0000 H   0  0  0  0  0  0  0  0  0  0  0  0
    3.6720    7.7130    0.0000 H   0  0  0  0  0  0  0  0  0  0  0  0
   18.2560    9.9979    0.0000 H   0  0  0  0  0  0  0  0  0  0  0  0
   17.4589    9.9979    0.0000 H   0  0  0  0  0  0  0  0  0  0  0  0
   18.4135    8.4860    0.0000 H   0  0  0  0  0  0  0  0  0  0  0  0
   19.2604    8.7130    0.0000 H   0  0  0  0  0  0  0  0  0  0  0  0
   19.0335    9.5599    0.0000 H   0  0  0  0  0  0  0  0  0  0  0  0
    8.2272    3.4300    0.0000 H   0  0  0  0  0  0  0  0  0  0  0  0
   11.0332    3.4300    0.0000 H   0  0  0  0  0  0  0  0  0  0  0  0
    8.2272    1.8100    0.0000 H   0  0  0  0  0  0  0  0  0  0  0  0
   11.0332    1.8100    0.0000 H   0  0  0  0  0  0  0  0  0  0  0  0
    9.0102    0.6200    0.0000 H   0  0  0  0  0  0  0  0  0  0  0  0
    9.6302    0.0000    0.0000 H   0  0  0  0  0  0  0  0  0  0  0  0
   10.2502    0.6200    0.0000 H   0  0  0  0  0  0  0  0  0  0  0  0
  1 20  1  0  0  0  0
  1 25  1  0  0  0  0
  2  4  1  0  0  0  0
  2  5  2  0  0  0  0
  2  6  2  0  0  0  0
  2 30  1  0  0  0  0
  3  9  1  0  0  0  0
  3 79  1  0  0  0  0
  7  8  1  0  0  0  0
  7 14  1  0  0  0  0
  7 15  1  0  0  0  0
  7 16  1  0  0  0  0
  8  9  1  0  0  0  0
  8 37  1  0  0  0  0
  8 38  1  0  0  0  0
  9 20  1  0  0  0  0
  9 39  1  0  0  0  0
 10 11  1  0  0  0  0
 10 12  1  0  0  0  0
 10 40  1  0  0  0  0
 10 41  1  0  0  0  0
 11 13  1  0  0  0  0
 11 42  1  0  0  0  0
 11 43  1  0  0  0  0
 12 17  1  0  0  0  0
 12 44  1  0  0  0  0
 12 45  1  0  0  0  0
 13 18  1  0  0  0  0
 13 46  1  0  0  0  0
 13 47  1  0  0  0  0
 14 48  1  0  0  0  0
 14 49  1  0  0  0  0
 14 50  1  0  0  0  0
 15 51  1  0  0  0  0
 15 52  1  0  0  0  0
 15 53  1  0  0  0  0
 16 54  1  0  0  0  0
 16 55  1  0  0  0  0
 16 56  1  0  0  0  0
 17 19  1  0  0  0  0
 17 57  1  0  0  0  0
 17 58  1  0  0  0  0
 18 21  1  0  0  0  0
 18 59  1  0  0  0  0
 18 60  1  0  0  0  0
 19 22  1  0  0  0  0
 19 61  1  0  0  0  0
 19 62  1  0  0  0  0
 20 63  1  0  0  0  0
 20 64  1  0  0  0  0
 21 23  1  0  0  0  0
 21 65  1  0  0  0  0
 21 66  1  0  0  0  0
 22 24  1  0  0  0  0
 22 67  1  0  0  0  0
 22 68  1  0  0  0  0
 23 26  1  0  0  0  0
 23 69  1  0  0  0  0
 23 70  1  0  0  0  0
 24 25  1  0  0  0  0
 24 71  1  0  0  0  0
 24 72  1  0  0  0  0
 25 73  1  0  0  0  0
 25 74  1  0  0  0  0
 26 27  1  0  0  0  0
 26 75  1  0  0  0  0
 26 76  1  0  0  0  0
 27 28  1  0  0  0  0
 27 77  1  0  0  0  0
 27 78  1  0  0  0  0
 28 29  1  0  0  0  0
 28 80  1  0  0  0  0
 28 81  1  0  0  0  0
 29 82  1  0  0  0  0
 29 83  1  0  0  0  0
 29 84  1  0  0  0  0
 30 32  2  0  0  0  0
 30 33  1  0  0  0  0
 31 34  2  0  0  0  0
 31 35  1  0  0  0  0
 31 36  1  0  0  0  0
 32 34  1  0  0  0  0
 32 85  1  0  0  0  0
 33 35  2  0  0  0  0
 33 86  1  0  0  0  0
 34 87  1  0  0  0  0
 35 88  1  0  0  0  0
 36 89  1  0  0  0  0
 36 90  1  0  0  0  0
 36 91  1  0  0  0  0
M  CHG  2   4  -1   7   1
M  END
> <PUBCHEM_COMPOUND_CID>
517244
> <PUBCHEM_COMPOUND_CANONICALIZED>
1
> <PUBCHEM_CACTVS_COMPLEXITY>
458
> <PUBCHEM_CACTVS_HBOND_ACCEPTOR>
5
> <PUBCHEM_CACTVS_HBOND_DONOR>
1
> <PUBCHEM_CACTVS_ROTATABLE_BOND>
19
> <PUBCHEM_CACTVS_SUBSKEYS>
AAADcfB6OABgAAAAAAAAAAAAAAAAAAAAAAAwAAAAAAAAAAABAAAAHgQACAAADBTl2AayAYMAAgqAAiBCAHBCAEAgABAIiBgIAIgKMCKgERCEIAAggAA4iAcAgIAOEAAAAAAAAAAgAAAAAAAAAAAAAAAAAA==
> <PUBCHEM_IUPAC_OPENEYE_NAME>
(3-hexadecylsulfanyl-2-hydroxy-propyl)-trimethyl-ammonium;4-methylbenzenesulfonate
> <PUBCHEM_IUPAC_CAS_NAME>
[3-(hexadecylthio)-2-hydroxypropyl]-trimethylammonium;4-methylbenzenesulfonate
> <PUBCHEM_IUPAC_NAME_MARKUP>
(3-hexadecylsulfanyl-2-hydroxypropyl)-trimethylazanium;4-methylbenzenesulfonate
> <PUBCHEM_IUPAC_NAME>
(3-hexadecylsulfanyl-2-hydroxypropyl)-trimethylazanium;4-methylbenzenesulfonate
> <PUBCHEM_IUPAC_SYSTEMATIC_NAME>
(3-hexadecylsulfanyl-2-oxidanyl-propyl)-trimethyl-azanium;4-methylbenzenesulfonate
> <PUBCHEM_IUPAC_TRADITIONAL_NAME>
[3-(cetylthio)-2-hydroxy-propyl]-trimethyl-ammonium;tosylate
> <PUBCHEM_IUPAC_INCHI>
InChI=1S/C22H48NOS.C7H8O3S/c1-5-6-7-8-9-10-11-12-13-14-15-16-17-18-19-25-21-22(24)20-23(2,3)4;1-6-2-4-7(5-3-6)11(8,9)10/h22,24H,5-21H2,1-4H3;2-5H,1H3,(H,8,9,10)/q+1;/p-1
> <PUBCHEM_IUPAC_INCHIKEY>
ANNPDLMIHDCFPG-UHFFFAOYSA-M
> <PUBCHEM_EXACT_MASS>
545.35725158
> <PUBCHEM_MOLECULAR_FORMULA>
C29H55NO4S2
> <PUBCHEM_MOLECULAR_WEIGHT>
545.9
> <PUBCHEM_OPENEYE_CAN_SMILES>
CCCCCCCCCCCCCCCCSCC(C[N+](C)(C)C)O.CC1=CC=C(C=C1)S(=O)(=O)[O-]
> <PUBCHEM_OPENEYE_ISO_SMILES>
CCCCCCCCCCCCCCCCSCC(C[N+](C)(C)C)O.CC1=CC=C(C=C1)S(=O)(=O)[O-]
> <PUBCHEM_CACTVS_TPSA>
111
> <PUBCHEM_MONOISOTOPIC_WEIGHT>
545.35725158
> <PUBCHEM_TOTAL_CHARGE>
0
> <PUBCHEM_HEAVY_ATOM_COUNT>
36
> <PUBCHEM_ATOM_DEF_STEREO_COUNT>
0
> <PUBCHEM_ATOM_UDEF_STEREO_COUNT>
1
> <PUBCHEM_BOND_DEF_STEREO_COUNT>
0
> <PUBCHEM_BOND_UDEF_STEREO_COUNT>
0
> <PUBCHEM_ISOTOPIC_ATOM_COUNT>
0
> <PUBCHEM_COMPONENT_COUNT>
2
> <PUBCHEM_CACTVS_TAUTO_COUNT>
-1
> <PUBCHEM_COORDINATE_TYPE>
1
5
255
> <PUBCHEM_BONDANNOTATIONS>
9  3  3
30  32  8
30  33  8
31  34  8
31  35  8
32  34  8
33  35  8
$$$$
