517257
  -OEChem-10302200292D
 19 17  0     1  0  0  0  0  0999 V2000
    1.7690    0.0000    0.0000 Cl  0  0  0  0  0  0  0  0  0  0  0  0
    0.5369    3.1200    0.0000 S   0  0  0  0  0  0  0  0  0  0  0  0
    2.2690    6.1200    0.0000 O   0  0  0  0  0  0  0  0  0  0  0  0
    0.5369    5.1200    0.0000 N   0  0  0  0  0  0  0  0  0  0  0  0
    3.1350    4.6200    0.0000 N   0  0  0  0  0  0  0  0  0  0  0  0
    4.0010    5.1200    0.0000 N   0  0  0  0  0  0  0  0  0  0  0  0
    1.4030    4.6200    0.0000 C   0  0  3  0  0  0  0  0  0  0  0  0
    1.4030    3.6200    0.0000 C   0  0  0  0  0  0  0  0  0  0  0  0
    2.2690    5.1200    0.0000 C   0  0  0  0  0  0  0  0  0  0  0  0
    1.4030    5.2400    0.0000 H   0  0  0  0  0  0  0  0  0  0  0  0
    1.6150    3.0374    0.0000 H   0  0  0  0  0  0  0  0  0  0  0  0
    2.0135    3.7277    0.0000 H   0  0  0  0  0  0  0  0  0  0  0  0
    0.0000    4.8100    0.0000 H   0  0  0  0  0  0  0  0  0  0  0  0
    0.5369    5.7400    0.0000 H   0  0  0  0  0  0  0  0  0  0  0  0
    3.1350    4.0000    0.0000 H   0  0  0  0  0  0  0  0  0  0  0  0
    0.5369    2.5000    0.0000 H   0  0  0  0  0  0  0  0  0  0  0  0
    4.5380    4.8100    0.0000 H   0  0  0  0  0  0  0  0  0  0  0  0
    4.0010    5.7400    0.0000 H   0  0  0  0  0  0  0  0  0  0  0  0
    2.7690    0.0000    0.0000 H   0  0  0  0  0  0  0  0  0  0  0  0
  1 19  1  0  0  0  0
  2  8  1  0  0  0  0
  2 16  1  0  0  0  0
  3  9  2  0  0  0  0
  4  7  1  0  0  0  0
  4 13  1  0  0  0  0
  4 14  1  0  0  0  0
  5  6  1  0  0  0  0
  5  9  1  0  0  0  0
  5 15  1  0  0  0  0
  6 17  1  0  0  0  0
  6 18  1  0  0  0  0
  7  8  1  0  0  0  0
  7  9  1  0  0  0  0
  7 10  1  0  0  0  0
  8 11  1  0  0  0  0
  8 12  1  0  0  0  0
M  END
> <PUBCHEM_COMPOUND_CID>
517257
> <PUBCHEM_COMPOUND_CANONICALIZED>
1
> <PUBCHEM_CACTVS_COMPLEXITY>
86.6
> <PUBCHEM_CACTVS_HBOND_ACCEPTOR>
4
> <PUBCHEM_CACTVS_HBOND_DONOR>
5
> <PUBCHEM_CACTVS_ROTATABLE_BOND>
2
> <PUBCHEM_CACTVS_SUBSKEYS>
AAADccBDIABEAAAAAAAAAAAAAAAAAAAAAAAAAAAAAAAAAAAAAAAAHgQYAAAACCjFwASAAABiAAQIAAEQEAAAAAAAAAISIIGAAAAAQAAAAAAAAAAAEAAAAAAAAAAAAAAAAAAAAAAAAAAAAAAAAAAAAAAAAA==
> <PUBCHEM_IUPAC_OPENEYE_NAME>
2-amino-3-sulfanyl-propanehydrazide;hydrochloride
> <PUBCHEM_IUPAC_CAS_NAME>
2-amino-3-mercaptopropanehydrazide;hydrochloride
> <PUBCHEM_IUPAC_NAME_MARKUP>
2-amino-3-sulfanylpropanehydrazide;hydrochloride
> <PUBCHEM_IUPAC_NAME>
2-amino-3-sulfanylpropanehydrazide;hydrochloride
> <PUBCHEM_IUPAC_SYSTEMATIC_NAME>
2-azanyl-3-sulfanyl-propanehydrazide;hydrochloride
> <PUBCHEM_IUPAC_TRADITIONAL_NAME>
2-amino-3-mercapto-propionohydrazide;hydrochloride
> <PUBCHEM_IUPAC_INCHI>
InChI=1S/C3H9N3OS.ClH/c4-2(1-8)3(7)6-5;/h2,8H,1,4-5H2,(H,6,7);1H
> <PUBCHEM_IUPAC_INCHIKEY>
YAEQKLFCLPLYKF-UHFFFAOYSA-N
> <PUBCHEM_EXACT_MASS>
171.0233108
> <PUBCHEM_MOLECULAR_FORMULA>
C3H10ClN3OS
> <PUBCHEM_MOLECULAR_WEIGHT>
171.65
> <PUBCHEM_OPENEYE_CAN_SMILES>
C(C(C(=O)NN)N)S.Cl
> <PUBCHEM_OPENEYE_ISO_SMILES>
C(C(C(=O)NN)N)S.Cl
> <PUBCHEM_CACTVS_TPSA>
82.1
> <PUBCHEM_MONOISOTOPIC_WEIGHT>
171.0233108
> <PUBCHEM_TOTAL_CHARGE>
0
> <PUBCHEM_HEAVY_ATOM_COUNT>
9
> <PUBCHEM_ATOM_DEF_STEREO_COUNT>
0
> <PUBCHEM_ATOM_UDEF_STEREO_COUNT>
1
> <PUBCHEM_BOND_DEF_STEREO_COUNT>
0
> <PUBCHEM_BOND_UDEF_STEREO_COUNT>
0
> <PUBCHEM_ISOTOPIC_ATOM_COUNT>
0
> <PUBCHEM_COMPONENT_COUNT>
2
> <PUBCHEM_CACTVS_TAUTO_COUNT>
-1
> <PUBCHEM_COORDINATE_TYPE>
1
5
255
> <PUBCHEM_BONDANNOTATIONS>
7  4  3
$$$$
