517351
  -OEChem-10302200292D
 22 17  0     1  0  0  0  0  0999 V2000
    6.0622    1.3100    0.0000 Na  0  3  0  0  0  0  0  0  0  0  0  0
    0.0000    1.8100    0.0000 Na  0  3  0  0  0  0  0  0  0  0  0  0
    3.4641    2.8100    0.0000 O   0  0  0  0  0  0  0  0  0  0  0  0
    2.5981    0.3100    0.0000 O   0  0  0  0  0  0  0  0  0  0  0  0
    5.1962    1.8100    0.0000 O   0  5  0  0  0  0  0  0  0  0  0  0
    0.8660    1.3100    0.0000 O   0  5  0  0  0  0  0  0  0  0  0  0
    4.3301    0.3100    0.0000 O   0  0  0  0  0  0  0  0  0  0  0  0
    1.7320    2.8100    0.0000 O   0  0  0  0  0  0  0  0  0  0  0  0
    3.0311    5.1200    0.0000 O   0  0  0  0  0  0  0  0  0  0  0  0
    3.0311    7.6200    0.0000 O   0  0  0  0  0  0  0  0  0  0  0  0
    3.4641    1.8100    0.0000 C   0  0  3  0  0  0  0  0  0  0  0  0
    2.5981    1.3100    0.0000 C   0  0  3  0  0  0  0  0  0  0  0  0
    4.3301    1.3100    0.0000 C   0  0  0  0  0  0  0  0  0  0  0  0
    1.7320    1.8100    0.0000 C   0  0  0  0  0  0  0  0  0  0  0  0
    4.0010    2.1200    0.0000 H   0  0  0  0  0  0  0  0  0  0  0  0
    3.1350    1.0000    0.0000 H   0  0  0  0  0  0  0  0  0  0  0  0
    4.0010    3.1200    0.0000 H   0  0  0  0  0  0  0  0  0  0  0  0
    2.0611    0.0000    0.0000 H   0  0  0  0  0  0  0  0  0  0  0  0
    3.5680    5.4300    0.0000 H   0  0  0  0  0  0  0  0  0  0  0  0
    2.4942    5.4300    0.0000 H   0  0  0  0  0  0  0  0  0  0  0  0
    3.5680    7.9300    0.0000 H   0  0  0  0  0  0  0  0  0  0  0  0
    2.4942    7.9300    0.0000 H   0  0  0  0  0  0  0  0  0  0  0  0
  3 11  1  0  0  0  0
  3 17  1  0  0  0  0
  4 12  1  0  0  0  0
  4 18  1  0  0  0  0
  5 13  1  0  0  0  0
  6 14  1  0  0  0  0
  7 13  2  0  0  0  0
  8 14  2  0  0  0  0
  9 19  1  0  0  0  0
  9 20  1  0  0  0  0
 10 21  1  0  0  0  0
 10 22  1  0  0  0  0
 11 12  1  0  0  0  0
 11 13  1  0  0  0  0
 11 15  1  0  0  0  0
 12 14  1  0  0  0  0
 12 16  1  0  0  0  0
M  CHG  4   1   1   2   1   5  -1   6  -1
M  END
> <PUBCHEM_COMPOUND_CID>
517351
> <PUBCHEM_COMPOUND_CANONICALIZED>
1
> <PUBCHEM_CACTVS_COMPLEXITY>
123
> <PUBCHEM_CACTVS_HBOND_ACCEPTOR>
8
> <PUBCHEM_CACTVS_HBOND_DONOR>
4
> <PUBCHEM_CACTVS_ROTATABLE_BOND>
1
> <PUBCHEM_CACTVS_SUBSKEYS>
AAADccBgPDAAAAAAAAAAAAAAAAAAAAAAAAAAAAAAAAAAAAAAAAAAGgAACAAACBSggAIACAAAAgAIAACQCAIAAAAAAAAAAAFAAAABEBQAAAAAQAAFIAABAABDAAAAAAAAAAAAAAAAAAAAAAAAAAAAAAAAAA==
> <PUBCHEM_IUPAC_OPENEYE_NAME>
disodium;2,3-dihydroxybutanedioate;dihydrate
> <PUBCHEM_IUPAC_CAS_NAME>
disodium;2,3-dihydroxybutanedioate;dihydrate
> <PUBCHEM_IUPAC_NAME_MARKUP>
disodium;2,3-dihydroxybutanedioate;dihydrate
> <PUBCHEM_IUPAC_NAME>
disodium;2,3-dihydroxybutanedioate;dihydrate
> <PUBCHEM_IUPAC_SYSTEMATIC_NAME>
disodium;2,3-bis(oxidanyl)butanedioate;dihydrate
> <PUBCHEM_IUPAC_TRADITIONAL_NAME>
disodium;tartrate;dihydrate
> <PUBCHEM_IUPAC_INCHI>
InChI=1S/C4H6O6.2Na.2H2O/c5-1(3(7)8)2(6)4(9)10;;;;/h1-2,5-6H,(H,7,8)(H,9,10);;;2*1H2/q;2*+1;;/p-2
> <PUBCHEM_IUPAC_INCHIKEY>
FGJLAJMGHXGFDE-UHFFFAOYSA-L
> <PUBCHEM_EXACT_MASS>
230.00145577
> <PUBCHEM_MOLECULAR_FORMULA>
C4H8Na2O8
> <PUBCHEM_MOLECULAR_WEIGHT>
230.08
> <PUBCHEM_OPENEYE_CAN_SMILES>
C(C(C(=O)[O-])O)(C(=O)[O-])O.O.O.[Na+].[Na+]
> <PUBCHEM_OPENEYE_ISO_SMILES>
C(C(C(=O)[O-])O)(C(=O)[O-])O.O.O.[Na+].[Na+]
> <PUBCHEM_CACTVS_TPSA>
123
> <PUBCHEM_MONOISOTOPIC_WEIGHT>
230.00145577
> <PUBCHEM_TOTAL_CHARGE>
0
> <PUBCHEM_HEAVY_ATOM_COUNT>
14
> <PUBCHEM_ATOM_DEF_STEREO_COUNT>
0
> <PUBCHEM_ATOM_UDEF_STEREO_COUNT>
2
> <PUBCHEM_BOND_DEF_STEREO_COUNT>
0
> <PUBCHEM_BOND_UDEF_STEREO_COUNT>
0
> <PUBCHEM_ISOTOPIC_ATOM_COUNT>
0
> <PUBCHEM_COMPONENT_COUNT>
5
> <PUBCHEM_CACTVS_TAUTO_COUNT>
1
> <PUBCHEM_COORDINATE_TYPE>
1
5
255
> <PUBCHEM_BONDANNOTATIONS>
11  3  3
12  4  3
$$$$
