517366
  -OEChem-10302200292D
 28 28  0     1  0  0  0  0  0999 V2000
    2.8660    0.1900    0.0000 O   0  0  0  0  0  0  0  0  0  0  0  0
    4.5981    2.1900    0.0000 O   0  0  0  0  0  0  0  0  0  0  0  0
    4.5981    0.1900    0.0000 O   0  0  0  0  0  0  0  0  0  0  0  0
    2.8660   -0.8100    0.0000 C   0  0  0  0  0  0  0  0  0  0  0  0
    2.0000   -1.3100    0.0000 C   0  0  0  0  0  0  0  0  0  0  0  0
    3.7320   -1.3100    0.0000 C   0  0  0  0  0  0  0  0  0  0  0  0
    2.0000   -2.3100    0.0000 C   0  0  0  0  0  0  0  0  0  0  0  0
    3.7320   -2.3100    0.0000 C   0  0  0  0  0  0  0  0  0  0  0  0
    2.8660   -2.8100    0.0000 C   0  0  0  0  0  0  0  0  0  0  0  0
    3.7320    0.6900    0.0000 C   0  0  0  0  0  0  0  0  0  0  0  0
    3.7320    1.6900    0.0000 C   0  0  3  0  0  0  0  0  0  0  0  0
    2.8660    2.1900    0.0000 C   0  0  0  0  0  0  0  0  0  0  0  0
    3.4030   -0.5000    0.0000 H   0  0  0  0  0  0  0  0  0  0  0  0
    1.7880   -0.7274    0.0000 H   0  0  0  0  0  0  0  0  0  0  0  0
    1.3894   -1.4177    0.0000 H   0  0  0  0  0  0  0  0  0  0  0  0
    4.3426   -1.4177    0.0000 H   0  0  0  0  0  0  0  0  0  0  0  0
    3.9441   -0.7274    0.0000 H   0  0  0  0  0  0  0  0  0  0  0  0
    1.3894   -2.2023    0.0000 H   0  0  0  0  0  0  0  0  0  0  0  0
    1.7880   -2.8926    0.0000 H   0  0  0  0  0  0  0  0  0  0  0  0
    3.9441   -2.8926    0.0000 H   0  0  0  0  0  0  0  0  0  0  0  0
    4.3426   -2.2023    0.0000 H   0  0  0  0  0  0  0  0  0  0  0  0
    2.4675   -3.2850    0.0000 H   0  0  0  0  0  0  0  0  0  0  0  0
    3.2646   -3.2850    0.0000 H   0  0  0  0  0  0  0  0  0  0  0  0
    3.7320    2.3100    0.0000 H   0  0  0  0  0  0  0  0  0  0  0  0
    3.1760    2.7269    0.0000 H   0  0  0  0  0  0  0  0  0  0  0  0
    2.3291    2.5000    0.0000 H   0  0  0  0  0  0  0  0  0  0  0  0
    2.5560    1.6531    0.0000 H   0  0  0  0  0  0  0  0  0  0  0  0
    4.5981    2.8100    0.0000 H   0  0  0  0  0  0  0  0  0  0  0  0
  1  4  1  0  0  0  0
  1 10  1  0  0  0  0
  2 11  1  0  0  0  0
  2 28  1  0  0  0  0
  3 10  2  0  0  0  0
  4  5  1  0  0  0  0
  4  6  1  0  0  0  0
  4 13  1  0  0  0  0
  5  7  1  0  0  0  0
  5 14  1  0  0  0  0
  5 15  1  0  0  0  0
  6  8  1  0  0  0  0
  6 16  1  0  0  0  0
  6 17  1  0  0  0  0
  7  9  1  0  0  0  0
  7 18  1  0  0  0  0
  7 19  1  0  0  0  0
  8  9  1  0  0  0  0
  8 20  1  0  0  0  0
  8 21  1  0  0  0  0
  9 22  1  0  0  0  0
  9 23  1  0  0  0  0
 10 11  1  0  0  0  0
 11 12  1  0  0  0  0
 11 24  1  0  0  0  0
 12 25  1  0  0  0  0
 12 26  1  0  0  0  0
 12 27  1  0  0  0  0
M  END
> <PUBCHEM_COMPOUND_CID>
517366
> <PUBCHEM_COMPOUND_CANONICALIZED>
1
> <PUBCHEM_CACTVS_COMPLEXITY>
150
> <PUBCHEM_CACTVS_HBOND_ACCEPTOR>
3
> <PUBCHEM_CACTVS_HBOND_DONOR>
1
> <PUBCHEM_CACTVS_ROTATABLE_BOND>
3
> <PUBCHEM_CACTVS_SUBSKEYS>
AAADceBwMAAAAAAAAAAAAAAAAAAAAAAAAAAwAAAAAAAAAAAAAAAAGgAACAAACBSggAICCAAABgAIAACQCAIAAAAAAAAAAAFAAAABEAIAAAACAAAEAAADAAGAQAAAAAAAAAAAAAAAAAAAAAAAAAAAAAAAAA==
> <PUBCHEM_IUPAC_OPENEYE_NAME>
cyclohexyl 2-hydroxypropanoate
> <PUBCHEM_IUPAC_CAS_NAME>
2-hydroxypropanoic acid cyclohexyl ester
> <PUBCHEM_IUPAC_NAME_MARKUP>
cyclohexyl 2-hydroxypropanoate
> <PUBCHEM_IUPAC_NAME>
cyclohexyl 2-hydroxypropanoate
> <PUBCHEM_IUPAC_SYSTEMATIC_NAME>
cyclohexyl 2-oxidanylpropanoate
> <PUBCHEM_IUPAC_TRADITIONAL_NAME>
2-hydroxypropionic acid cyclohexyl ester
> <PUBCHEM_IUPAC_INCHI>
InChI=1S/C9H16O3/c1-7(10)9(11)12-8-5-3-2-4-6-8/h7-8,10H,2-6H2,1H3
> <PUBCHEM_IUPAC_INCHIKEY>
MLXVQJMYSKICMT-UHFFFAOYSA-N
> <PUBCHEM_XLOGP3_AA>
1.7
> <PUBCHEM_EXACT_MASS>
172.109944368
> <PUBCHEM_MOLECULAR_FORMULA>
C9H16O3
> <PUBCHEM_MOLECULAR_WEIGHT>
172.22
> <PUBCHEM_OPENEYE_CAN_SMILES>
CC(C(=O)OC1CCCCC1)O
> <PUBCHEM_OPENEYE_ISO_SMILES>
CC(C(=O)OC1CCCCC1)O
> <PUBCHEM_CACTVS_TPSA>
46.5
> <PUBCHEM_MONOISOTOPIC_WEIGHT>
172.109944368
> <PUBCHEM_TOTAL_CHARGE>
0
> <PUBCHEM_HEAVY_ATOM_COUNT>
12
> <PUBCHEM_ATOM_DEF_STEREO_COUNT>
0
> <PUBCHEM_ATOM_UDEF_STEREO_COUNT>
1
> <PUBCHEM_BOND_DEF_STEREO_COUNT>
0
> <PUBCHEM_BOND_UDEF_STEREO_COUNT>
0
> <PUBCHEM_ISOTOPIC_ATOM_COUNT>
0
> <PUBCHEM_COMPONENT_COUNT>
1
> <PUBCHEM_CACTVS_TAUTO_COUNT>
-1
> <PUBCHEM_COORDINATE_TYPE>
1
5
255
> <PUBCHEM_BONDANNOTATIONS>
11  2  3
$$$$
