517310
  -OEChem-10302200292D
 92 96  0     1  0  0  0  0  0999 V2000
   10.1278    6.4755    0.0000 I   0  5  0  0  0  0  0  0  0  0  0  0
   10.1278    3.9755    0.0000 I   0  5  0  0  0  0  0  0  0  0  0  0
    4.1844    7.3819    0.0000 O   0  0  0  0  0  0  0  0  0  0  0  0
    5.8917    3.7504    0.0000 O   0  0  0  0  0  0  0  0  0  0  0  0
    2.2012    8.3378    0.0000 O   0  0  0  0  0  0  0  0  0  0  0  0
    6.0944    1.5963    0.0000 O   0  0  0  0  0  0  0  0  0  0  0  0
    2.2012   10.3311    0.0000 O   0  0  0  0  0  0  0  0  0  0  0  0
    7.3804    3.9354    0.0000 O   0  0  0  0  0  0  0  0  0  0  0  0
    6.5078    8.8378    0.0000 N   0  3  0  0  0  0  0  0  0  0  0  0
    1.5963    2.3332    0.0000 N   0  3  0  0  0  0  0  0  0  0  0  0
    5.6477    8.3412    0.0000 C   0  0  3  0  0  0  0  0  0  0  0  0
    2.3591    2.9692    0.0000 C   0  0  3  0  0  0  0  0  0  0  0  0
    6.5078    9.8311    0.0000 C   0  0  0  0  0  0  0  0  0  0  0  0
    1.7656    1.3546    0.0000 C   0  0  0  0  0  0  0  0  0  0  0  0
    4.7875    8.8378    0.0000 C   0  0  0  0  0  0  0  0  0  0  0  0
    5.6477   10.3277    0.0000 C   0  0  0  0  0  0  0  0  0  0  0  0
    3.2914    2.6266    0.0000 C   0  0  0  0  0  0  0  0  0  0  0  0
    5.3906    7.3819    0.0000 C   0  0  0  0  0  0  0  0  0  0  0  0
    2.6979    1.0119    0.0000 C   0  0  0  0  0  0  0  0  0  0  0  0
    4.7875    9.8311    0.0000 C   0  0  0  0  0  0  0  0  0  0  0  0
    2.1980    3.9413    0.0000 C   0  0  0  0  0  0  0  0  0  0  0  0
    7.5078    8.8378    0.0000 C   0  0  0  0  0  0  0  0  0  0  0  0
    7.0078    7.9718    0.0000 C   0  0  0  0  0  0  0  0  0  0  0  0
    3.4607    1.6479    0.0000 C   0  0  0  0  0  0  0  0  0  0  0  0
    0.6109    2.1627    0.0000 C   0  0  0  0  0  0  0  0  0  0  0  0
    0.9559    3.1013    0.0000 C   0  0  0  0  0  0  0  0  0  0  0  0
    3.9274    8.3412    0.0000 C   0  0  0  0  0  0  0  0  0  0  0  0
    4.0542    3.2626    0.0000 C   0  0  0  0  0  0  0  0  0  0  0  0
    5.8872    6.5217    0.0000 C   0  0  0  0  0  0  0  0  0  0  0  0
    2.6946    4.8014    0.0000 C   0  0  0  0  0  0  0  0  0  0  0  0
    3.9274   10.3277    0.0000 C   0  0  0  0  0  0  0  0  0  0  0  0
    4.3930    1.3053    0.0000 C   0  0  0  0  0  0  0  0  0  0  0  0
    3.0672    8.8378    0.0000 C   0  0  0  0  0  0  0  0  0  0  0  0
    4.9864    2.9199    0.0000 C   0  0  0  0  0  0  0  0  0  0  0  0
    3.0672    9.8311    0.0000 C   0  0  0  0  0  0  0  0  0  0  0  0
    5.1558    1.9413    0.0000 C   0  0  0  0  0  0  0  0  0  0  0  0
    5.3906    5.6616    0.0000 C   0  0  0  0  0  0  0  0  0  0  0  0
    2.1980    5.6616    0.0000 C   0  0  0  0  0  0  0  0  0  0  0  0
    3.6878    4.8014    0.0000 C   0  0  0  0  0  0  0  0  0  0  0  0
    6.8804    6.5217    0.0000 C   0  0  0  0  0  0  0  0  0  0  0  0
    3.6878    6.5217    0.0000 C   0  0  0  0  0  0  0  0  0  0  0  0
    5.8872    4.8014    0.0000 C   0  0  0  0  0  0  0  0  0  0  0  0
    2.6946    6.5217    0.0000 C   0  0  0  0  0  0  0  0  0  0  0  0
    4.1844    5.6616    0.0000 C   0  0  0  0  0  0  0  0  0  0  0  0
    7.3770    5.6616    0.0000 C   0  0  0  0  0  0  0  0  0  0  0  0
    6.8804    4.8014    0.0000 C   0  0  0  0  0  0  0  0  0  0  0  0
    1.3352    8.8378    0.0000 C   0  0  0  0  0  0  0  0  0  0  0  0
    6.2649    0.6109    0.0000 C   0  0  0  0  0  0  0  0  0  0  0  0
    6.1396    7.9638    0.0000 H   0  0  0  0  0  0  0  0  0  0  0  0
    1.7780    3.1852    0.0000 H   0  0  0  0  0  0  0  0  0  0  0  0
    7.1184    9.7234    0.0000 H   0  0  0  0  0  0  0  0  0  0  0  0
    6.7199   10.4137    0.0000 H   0  0  0  0  0  0  0  0  0  0  0  0
    1.1456    1.3566    0.0000 H   0  0  0  0  0  0  0  0  0  0  0  0
    1.6560    0.7443    0.0000 H   0  0  0  0  0  0  0  0  0  0  0  0
    6.0462   10.8026    0.0000 H   0  0  0  0  0  0  0  0  0  0  0  0
    5.2492   10.8026    0.0000 H   0  0  0  0  0  0  0  0  0  0  0  0
    4.8537    7.6919    0.0000 H   0  0  0  0  0  0  0  0  0  0  0  0
    4.9522    6.9435    0.0000 H   0  0  0  0  0  0  0  0  0  0  0  0
    2.3862    0.4760    0.0000 H   0  0  0  0  0  0  0  0  0  0  0  0
    3.1716    0.6119    0.0000 H   0  0  0  0  0  0  0  0  0  0  0  0
    1.7741    4.3937    0.0000 H   0  0  0  0  0  0  0  0  0  0  0  0
    1.6421    3.6669    0.0000 H   0  0  0  0  0  0  0  0  0  0  0  0
    7.5078    8.2178    0.0000 H   0  0  0  0  0  0  0  0  0  0  0  0
    8.1278    8.8379    0.0000 H   0  0  0  0  0  0  0  0  0  0  0  0
    7.5078    9.4578    0.0000 H   0  0  0  0  0  0  0  0  0  0  0  0
    6.4709    7.6618    0.0000 H   0  0  0  0  0  0  0  0  0  0  0  0
    7.3178    7.4349    0.0000 H   0  0  0  0  0  0  0  0  0  0  0  0
    7.5448    8.2818    0.0000 H   0  0  0  0  0  0  0  0  0  0  0  0
    0.5052    2.7736    0.0000 H   0  0  0  0  0  0  0  0  0  0  0  0
    0.0000    2.0570    0.0000 H   0  0  0  0  0  0  0  0  0  0  0  0
    0.7166    1.5518    0.0000 H   0  0  0  0  0  0  0  0  0  0  0  0
    1.4321    3.4984    0.0000 H   0  0  0  0  0  0  0  0  0  0  0  0
    0.5589    3.5775    0.0000 H   0  0  0  0  0  0  0  0  0  0  0  0
    0.4797    2.7043    0.0000 H   0  0  0  0  0  0  0  0  0  0  0  0
    3.9485    3.8735    0.0000 H   0  0  0  0  0  0  0  0  0  0  0  0
    3.9274   10.9477    0.0000 H   0  0  0  0  0  0  0  0  0  0  0  0
    4.4987    0.6944    0.0000 H   0  0  0  0  0  0  0  0  0  0  0  0
    4.7706    5.6616    0.0000 H   0  0  0  0  0  0  0  0  0  0  0  0
    1.5780    5.6616    0.0000 H   0  0  0  0  0  0  0  0  0  0  0  0
    3.9978    4.2645    0.0000 H   0  0  0  0  0  0  0  0  0  0  0  0
    7.1904    7.0587    0.0000 H   0  0  0  0  0  0  0  0  0  0  0  0
    2.3846    7.0587    0.0000 H   0  0  0  0  0  0  0  0  0  0  0  0
    4.8044    5.6616    0.0000 H   0  0  0  0  0  0  0  0  0  0  0  0
    7.9970    5.6616    0.0000 H   0  0  0  0  0  0  0  0  0  0  0  0
    2.2012   10.9511    0.0000 H   0  0  0  0  0  0  0  0  0  0  0  0
    1.6452    9.3748    0.0000 H   0  0  0  0  0  0  0  0  0  0  0  0
    0.7983    9.1478    0.0000 H   0  0  0  0  0  0  0  0  0  0  0  0
    1.0252    8.3009    0.0000 H   0  0  0  0  0  0  0  0  0  0  0  0
    5.6540    0.5052    0.0000 H   0  0  0  0  0  0  0  0  0  0  0  0
    6.3707    0.0000    0.0000 H   0  0  0  0  0  0  0  0  0  0  0  0
    6.8759    0.7166    0.0000 H   0  0  0  0  0  0  0  0  0  0  0  0
    8.0004    3.9354    0.0000 H   0  0  0  0  0  0  0  0  0  0  0  0
  3 27  1  0  0  0  0
  3 41  1  0  0  0  0
  4 34  1  0  0  0  0
  4 42  1  0  0  0  0
  5 33  1  0  0  0  0
  5 47  1  0  0  0  0
  6 36  1  0  0  0  0
  6 48  1  0  0  0  0
  7 35  1  0  0  0  0
  7 85  1  0  0  0  0
  8 46  1  0  0  0  0
  8 92  1  0  0  0  0
  9 11  1  0  0  0  0
  9 13  1  0  0  0  0
  9 22  1  0  0  0  0
  9 23  1  0  0  0  0
 10 12  1  0  0  0  0
 10 14  1  0  0  0  0
 10 25  1  0  0  0  0
 10 26  1  0  0  0  0
 11 15  1  0  0  0  0
 11 18  1  0  0  0  0
 11 49  1  0  0  0  0
 12 17  1  0  0  0  0
 12 21  1  0  0  0  0
 12 50  1  0  0  0  0
 13 16  1  0  0  0  0
 13 51  1  0  0  0  0
 13 52  1  0  0  0  0
 14 19  1  0  0  0  0
 14 53  1  0  0  0  0
 14 54  1  0  0  0  0
 15 20  1  0  0  0  0
 15 27  2  0  0  0  0
 16 20  1  0  0  0  0
 16 55  1  0  0  0  0
 16 56  1  0  0  0  0
 17 24  1  0  0  0  0
 17 28  2  0  0  0  0
 18 29  1  0  0  0  0
 18 57  1  0  0  0  0
 18 58  1  0  0  0  0
 19 24  1  0  0  0  0
 19 59  1  0  0  0  0
 19 60  1  0  0  0  0
 20 31  2  0  0  0  0
 21 30  1  0  0  0  0
 21 61  1  0  0  0  0
 21 62  1  0  0  0  0
 22 63  1  0  0  0  0
 22 64  1  0  0  0  0
 22 65  1  0  0  0  0
 23 66  1  0  0  0  0
 23 67  1  0  0  0  0
 23 68  1  0  0  0  0
 24 32  2  0  0  0  0
 25 69  1  0  0  0  0
 25 70  1  0  0  0  0
 25 71  1  0  0  0  0
 26 72  1  0  0  0  0
 26 73  1  0  0  0  0
 26 74  1  0  0  0  0
 27 33  1  0  0  0  0
 28 34  1  0  0  0  0
 28 75  1  0  0  0  0
 29 37  2  0  0  0  0
 29 40  1  0  0  0  0
 30 38  2  0  0  0  0
 30 39  1  0  0  0  0
 31 35  1  0  0  0  0
 31 76  1  0  0  0  0
 32 36  1  0  0  0  0
 32 77  1  0  0  0  0
 33 35  2  0  0  0  0
 34 36  2  0  0  0  0
 37 42  1  0  0  0  0
 37 78  1  0  0  0  0
 38 43  1  0  0  0  0
 38 79  1  0  0  0  0
 39 44  2  0  0  0  0
 39 80  1  0  0  0  0
 40 45  2  0  0  0  0
 40 81  1  0  0  0  0
 41 43  2  0  0  0  0
 41 44  1  0  0  0  0
 42 46  2  0  0  0  0
 43 82  1  0  0  0  0
 44 83  1  0  0  0  0
 45 46  1  0  0  0  0
 45 84  1  0  0  0  0
 47 86  1  0  0  0  0
 47 87  1  0  0  0  0
 47 88  1  0  0  0  0
 48 89  1  0  0  0  0
 48 90  1  0  0  0  0
 48 91  1  0  0  0  0
M  CHG  4   1  -1   2  -1   9   1  10   1
M  END
> <PUBCHEM_COMPOUND_CID>
517310
> <PUBCHEM_COMPOUND_CANONICALIZED>
1
> <PUBCHEM_CACTVS_COMPLEXITY>
1030
> <PUBCHEM_CACTVS_HBOND_ACCEPTOR>
8
> <PUBCHEM_CACTVS_HBOND_DONOR>
2
> <PUBCHEM_CACTVS_ROTATABLE_BOND>
2
> <PUBCHEM_CACTVS_SUBSKEYS>
AAADcfB/OAAAAwAAAAAAAAAAAAAAAAAAAAA8eMGCAAAAAACxVAAAHgAACAAADCzBmAYyBoMABgCAAiBCAACCCAAgIAAIiAAOjIgNJyKGsRuGeCvnwBWLuAew8P8OoAABCAAYQABAAAIQADCAAAAAAAAAAA==
> <PUBCHEM_IUPAC_OPENEYE_NAME>
9,25-dimethoxy-15,15,30,30-tetramethyl-7,23-dioxa-15,30-diazoniaheptacyclo[22.6.2.23,6.18,12.118,22.027,31.016,34]hexatriaconta-3(36),4,6(35),8(34),9,11,18(33),19,21,24,26,31-dodecaene-10,21-diol;diiodide
> <PUBCHEM_IUPAC_CAS_NAME>
9,25-dimethoxy-15,15,30,30-tetramethyl-7,23-dioxa-15,30-diazoniaheptacyclo[22.6.2.23,6.18,12.118,22.027,31.016,34]hexatriaconta-3(36),4,6(35),8(34),9,11,18(33),19,21,24,26,31-dodecaene-10,21-diol;diiodide
> <PUBCHEM_IUPAC_NAME_MARKUP>
9,25-dimethoxy-15,15,30,30-tetramethyl-7,23-dioxa-15,30-diazoniaheptacyclo[22.6.2.2<SUP>3,6</SUP>.1<SUP>8,12</SUP>.1<SUP>18,22</SUP>.0<SUP>27,31</SUP>.0<SUP>16,34</SUP>]hexatriaconta-3(36),4,6(35),8(34),9,11,18(33),19,21,24,26,31-dodecaene-10,21-diol;diiodide
> <PUBCHEM_IUPAC_NAME>
9,25-dimethoxy-15,15,30,30-tetramethyl-7,23-dioxa-15,30-diazoniaheptacyclo[22.6.2.23,6.18,12.118,22.027,31.016,34]hexatriaconta-3(36),4,6(35),8(34),9,11,18(33),19,21,24,26,31-dodecaene-10,21-diol;diiodide
> <PUBCHEM_IUPAC_SYSTEMATIC_NAME>
9,25-dimethoxy-15,15,30,30-tetramethyl-7,23-dioxa-15,30-diazoniaheptacyclo[22.6.2.23,6.18,12.118,22.027,31.016,34]hexatriaconta-3(36),4,6(35),8(34),9,11,18(33),19,21,24,26,31-dodecaene-10,21-diol;diiodide
> <PUBCHEM_IUPAC_TRADITIONAL_NAME>
9,25-dimethoxy-15,15,30,30-tetramethyl-7,23-dioxa-15,30-diazoniaheptacyclo[22.6.2.23,6.18,12.118,22.027,31.016,34]hexatriaconta-3(36),4,6(35),8(34),9,11,18(33),19,21,24,26,31-dodecaene-10,21-diol;diiodide
> <PUBCHEM_IUPAC_INCHI>
InChI=1S/C38H42N2O6.2HI/c1-39(2)15-13-25-21-34(43-5)35-22-28(25)29(39)17-23-7-10-27(11-8-23)45-38-36-26(20-32(42)37(38)44-6)14-16-40(3,4)30(36)18-24-9-12-31(41)33(19-24)46-35;;/h7-12,19-22,29-30H,13-18H2,1-6H3;2*1H
> <PUBCHEM_IUPAC_INCHIKEY>
VNSCOGPAFNOTJU-UHFFFAOYSA-N
> <PUBCHEM_EXACT_MASS>
878.12888
> <PUBCHEM_MOLECULAR_FORMULA>
C38H44I2N2O6
> <PUBCHEM_MOLECULAR_WEIGHT>
878.6
> <PUBCHEM_OPENEYE_CAN_SMILES>
C[N+]1(CCC2=CC(=C3C=C2C1CC4=CC=C(C=C4)OC5=C6C(CC7=CC(=C(C=C7)O)O3)[N+](CCC6=CC(=C5OC)O)(C)C)OC)C.[I-].[I-]
> <PUBCHEM_OPENEYE_ISO_SMILES>
C[N+]1(CCC2=CC(=C3C=C2C1CC4=CC=C(C=C4)OC5=C6C(CC7=CC(=C(C=C7)O)O3)[N+](CCC6=CC(=C5OC)O)(C)C)OC)C.[I-].[I-]
> <PUBCHEM_CACTVS_TPSA>
77.4
> <PUBCHEM_MONOISOTOPIC_WEIGHT>
878.12888
> <PUBCHEM_TOTAL_CHARGE>
0
> <PUBCHEM_HEAVY_ATOM_COUNT>
48
> <PUBCHEM_ATOM_DEF_STEREO_COUNT>
0
> <PUBCHEM_ATOM_UDEF_STEREO_COUNT>
2
> <PUBCHEM_BOND_DEF_STEREO_COUNT>
0
> <PUBCHEM_BOND_UDEF_STEREO_COUNT>
0
> <PUBCHEM_ISOTOPIC_ATOM_COUNT>
0
> <PUBCHEM_COMPONENT_COUNT>
3
> <PUBCHEM_CACTVS_TAUTO_COUNT>
-1
> <PUBCHEM_COORDINATE_TYPE>
1
5
255
> <PUBCHEM_BONDANNOTATIONS>
11  18  3
12  21  3
15  20  8
15  27  8
17  24  8
17  28  8
20  31  8
24  32  8
27  33  8
28  34  8
29  37  8
29  40  8
30  38  8
30  39  8
31  35  8
32  36  8
33  35  8
34  36  8
37  42  8
38  43  8
39  44  8
40  45  8
41  43  8
41  44  8
42  46  8
45  46  8
$$$$
