517319
  -OEChem-10302200292D
 78 80  0     1  0  0  0  0  0999 V2000
    7.8357    3.9019    0.0000 S   0  0  0  0  0  0  0  0  0  0  0  0
    5.1707    1.8802    0.0000 O   0  0  0  0  0  0  0  0  0  0  0  0
    7.4756    0.5897    0.0000 O   0  0  0  0  0  0  0  0  0  0  0  0
    9.1228    1.1249    0.0000 O   0  0  0  0  0  0  0  0  0  0  0  0
    3.9434    3.0833    0.0000 O   0  0  0  0  0  0  0  0  0  0  0  0
    4.8255   12.6188    0.0000 O   0  0  0  0  0  0  0  0  0  0  0  0
    3.0934   12.6188    0.0000 O   0  0  0  0  0  0  0  0  0  0  0  0
    6.8846    2.5929    0.0000 N   0  0  0  0  0  0  0  0  0  0  0  0
    5.1707    4.3056    0.0000 N   0  0  0  0  0  0  0  0  0  0  0  0
    5.6915   15.1188    0.0000 N   0  0  0  0  0  0  0  0  0  0  0  0
    3.9595    8.1188    0.0000 N   0  0  0  0  0  0  0  0  0  0  0  0
    6.8846    3.5929    0.0000 C   0  0  3  0  0  0  0  0  0  0  0  0
    8.4235    3.0929    0.0000 C   0  0  0  0  0  0  0  0  0  0  0  0
    7.8357    2.2839    0.0000 C   0  0  3  0  0  0  0  0  0  0  0  0
    5.8763    3.5970    0.0000 C   0  0  3  0  0  0  0  0  0  0  0  0
    5.8763    2.5887    0.0000 C   0  0  0  0  0  0  0  0  0  0  0  0
    9.2325    3.6807    0.0000 C   0  0  0  0  0  0  0  0  0  0  0  0
    9.2325    2.5051    0.0000 C   0  0  0  0  0  0  0  0  0  0  0  0
    8.1447    1.3328    0.0000 C   0  0  0  0  0  0  0  0  0  0  0  0
    4.2042    4.0487    0.0000 C   0  0  0  0  0  0  0  0  0  0  0  0
    3.4986    4.7573    0.0000 C   0  0  0  0  0  0  0  0  0  0  0  0
    2.5321    4.5005    0.0000 C   0  0  0  0  0  0  0  0  0  0  0  0
    2.2713    3.5351    0.0000 C   0  0  0  0  0  0  0  0  0  0  0  0
    1.8265    5.2090    0.0000 C   0  0  0  0  0  0  0  0  0  0  0  0
    1.3048    3.2782    0.0000 C   0  0  0  0  0  0  0  0  0  0  0  0
    0.8600    4.9522    0.0000 C   0  0  0  0  0  0  0  0  0  0  0  0
    0.5992    3.9868    0.0000 C   0  0  0  0  0  0  0  0  0  0  0  0
    5.6915   14.1188    0.0000 C   0  0  0  0  0  0  0  0  0  0  0  0
    6.5576   15.6188    0.0000 C   0  0  0  0  0  0  0  0  0  0  0  0
    4.8255   15.6188    0.0000 C   0  0  0  0  0  0  0  0  0  0  0  0
    4.8255   13.6188    0.0000 C   0  0  0  0  0  0  0  0  0  0  0  0
    6.5576   16.6188    0.0000 C   0  0  0  0  0  0  0  0  0  0  0  0
    4.8255   16.6188    0.0000 C   0  0  0  0  0  0  0  0  0  0  0  0
    3.9595   12.1188    0.0000 C   0  0  0  0  0  0  0  0  0  0  0  0
    3.9595   11.1188    0.0000 C   0  0  0  0  0  0  0  0  0  0  0  0
    4.8255   10.6188    0.0000 C   0  0  0  0  0  0  0  0  0  0  0  0
    3.0934   10.6188    0.0000 C   0  0  0  0  0  0  0  0  0  0  0  0
    4.8255    9.6188    0.0000 C   0  0  0  0  0  0  0  0  0  0  0  0
    3.0934    9.6188    0.0000 C   0  0  0  0  0  0  0  0  0  0  0  0
    3.9595    9.1188    0.0000 C   0  0  0  0  0  0  0  0  0  0  0  0
    6.7889    4.2054    0.0000 H   0  0  0  0  0  0  0  0  0  0  0  0
    7.3973    1.8454    0.0000 H   0  0  0  0  0  0  0  0  0  0  0  0
    5.3033    3.3603    0.0000 H   0  0  0  0  0  0  0  0  0  0  0  0
    9.5969    3.1791    0.0000 H   0  0  0  0  0  0  0  0  0  0  0  0
    9.7341    4.0451    0.0000 H   0  0  0  0  0  0  0  0  0  0  0  0
    8.8680    4.1822    0.0000 H   0  0  0  0  0  0  0  0  0  0  0  0
    8.8680    2.0035    0.0000 H   0  0  0  0  0  0  0  0  0  0  0  0
    9.7341    2.1407    0.0000 H   0  0  0  0  0  0  0  0  0  0  0  0
    9.5969    3.0067    0.0000 H   0  0  0  0  0  0  0  0  0  0  0  0
    5.3324    4.9041    0.0000 H   0  0  0  0  0  0  0  0  0  0  0  0
    7.6671    0.0000    0.0000 H   0  0  0  0  0  0  0  0  0  0  0  0
    4.0072    5.1119    0.0000 H   0  0  0  0  0  0  0  0  0  0  0  0
    3.2377    5.3198    0.0000 H   0  0  0  0  0  0  0  0  0  0  0  0
    2.7088    3.0958    0.0000 H   0  0  0  0  0  0  0  0  0  0  0  0
    1.9882    5.8076    0.0000 H   0  0  0  0  0  0  0  0  0  0  0  0
    1.1432    2.6797    0.0000 H   0  0  0  0  0  0  0  0  0  0  0  0
    0.4225    5.3915    0.0000 H   0  0  0  0  0  0  0  0  0  0  0  0
    0.0000    3.8276    0.0000 H   0  0  0  0  0  0  0  0  0  0  0  0
    5.9036   13.5361    0.0000 H   0  0  0  0  0  0  0  0  0  0  0  0
    6.3021   14.2264    0.0000 H   0  0  0  0  0  0  0  0  0  0  0  0
    6.7696   15.0361    0.0000 H   0  0  0  0  0  0  0  0  0  0  0  0
    7.1681   15.7264    0.0000 H   0  0  0  0  0  0  0  0  0  0  0  0
    4.2149   15.7264    0.0000 H   0  0  0  0  0  0  0  0  0  0  0  0
    4.6134   15.0361    0.0000 H   0  0  0  0  0  0  0  0  0  0  0  0
    4.6134   14.2014    0.0000 H   0  0  0  0  0  0  0  0  0  0  0  0
    4.2149   13.5111    0.0000 H   0  0  0  0  0  0  0  0  0  0  0  0
    7.1776   16.6188    0.0000 H   0  0  0  0  0  0  0  0  0  0  0  0
    6.5576   17.2388    0.0000 H   0  0  0  0  0  0  0  0  0  0  0  0
    5.9376   16.6188    0.0000 H   0  0  0  0  0  0  0  0  0  0  0  0
    5.4455   16.6188    0.0000 H   0  0  0  0  0  0  0  0  0  0  0  0
    4.8255   17.2388    0.0000 H   0  0  0  0  0  0  0  0  0  0  0  0
    4.2055   16.6188    0.0000 H   0  0  0  0  0  0  0  0  0  0  0  0
    5.3624   10.9288    0.0000 H   0  0  0  0  0  0  0  0  0  0  0  0
    2.5565   10.9288    0.0000 H   0  0  0  0  0  0  0  0  0  0  0  0
    5.3624    9.3088    0.0000 H   0  0  0  0  0  0  0  0  0  0  0  0
    2.5565    9.3088    0.0000 H   0  0  0  0  0  0  0  0  0  0  0  0
    3.4225    7.8088    0.0000 H   0  0  0  0  0  0  0  0  0  0  0  0
    4.4964    7.8088    0.0000 H   0  0  0  0  0  0  0  0  0  0  0  0
  1 12  1  0  0  0  0
  1 13  1  0  0  0  0
  2 16  2  0  0  0  0
  3 19  1  0  0  0  0
  3 51  1  0  0  0  0
  4 19  2  0  0  0  0
  5 20  2  0  0  0  0
  6 31  1  0  0  0  0
  6 34  1  0  0  0  0
  7 34  2  0  0  0  0
  8 12  1  0  0  0  0
  8 14  1  0  0  0  0
  8 16  1  0  0  0  0
  9 15  1  0  0  0  0
  9 20  1  0  0  0  0
  9 50  1  0  0  0  0
 10 28  1  0  0  0  0
 10 29  1  0  0  0  0
 10 30  1  0  0  0  0
 11 40  1  0  0  0  0
 11 77  1  0  0  0  0
 11 78  1  0  0  0  0
 12 15  1  0  0  0  0
 12 41  1  0  0  0  0
 13 14  1  0  0  0  0
 13 17  1  0  0  0  0
 13 18  1  0  0  0  0
 14 19  1  0  0  0  0
 14 42  1  0  0  0  0
 15 16  1  0  0  0  0
 15 43  1  0  0  0  0
 17 44  1  0  0  0  0
 17 45  1  0  0  0  0
 17 46  1  0  0  0  0
 18 47  1  0  0  0  0
 18 48  1  0  0  0  0
 18 49  1  0  0  0  0
 20 21  1  0  0  0  0
 21 22  1  0  0  0  0
 21 52  1  0  0  0  0
 21 53  1  0  0  0  0
 22 23  2  0  0  0  0
 22 24  1  0  0  0  0
 23 25  1  0  0  0  0
 23 54  1  0  0  0  0
 24 26  2  0  0  0  0
 24 55  1  0  0  0  0
 25 27  2  0  0  0  0
 25 56  1  0  0  0  0
 26 27  1  0  0  0  0
 26 57  1  0  0  0  0
 27 58  1  0  0  0  0
 28 31  1  0  0  0  0
 28 59  1  0  0  0  0
 28 60  1  0  0  0  0
 29 32  1  0  0  0  0
 29 61  1  0  0  0  0
 29 62  1  0  0  0  0
 30 33  1  0  0  0  0
 30 63  1  0  0  0  0
 30 64  1  0  0  0  0
 31 65  1  0  0  0  0
 31 66  1  0  0  0  0
 32 67  1  0  0  0  0
 32 68  1  0  0  0  0
 32 69  1  0  0  0  0
 33 70  1  0  0  0  0
 33 71  1  0  0  0  0
 33 72  1  0  0  0  0
 34 35  1  0  0  0  0
 35 36  2  0  0  0  0
 35 37  1  0  0  0  0
 36 38  1  0  0  0  0
 36 73  1  0  0  0  0
 37 39  2  0  0  0  0
 37 74  1  0  0  0  0
 38 40  2  0  0  0  0
 38 75  1  0  0  0  0
 39 40  1  0  0  0  0
 39 76  1  0  0  0  0
M  END
> <PUBCHEM_COMPOUND_CID>
517319
> <PUBCHEM_COMPOUND_CANONICALIZED>
1
> <PUBCHEM_CACTVS_COMPLEXITY>
752
> <PUBCHEM_CACTVS_HBOND_ACCEPTOR>
9
> <PUBCHEM_CACTVS_HBOND_DONOR>
3
> <PUBCHEM_CACTVS_ROTATABLE_BOND>
11
> <PUBCHEM_CACTVS_SUBSKEYS>
AAADcfB7uABAAAAAAAAAAAAAAABYAWAAAAAwYAAABYAAAAABQAAAHgQQCAAADCjl2AayyIPABgiIAiXSWACCAABkAhAIiIGIbMgKZjqgtbmXcQBk1gG46YeY2aGeCAAAAAAAAAAQAAAAAAAAAAAAAAAAAA==
> <PUBCHEM_IUPAC_OPENEYE_NAME>
2-(diethylamino)ethyl 4-aminobenzoate;3,3-dimethyl-7-oxo-6-[(2-phenylacetyl)amino]-4-thia-1-azabicyclo[3.2.0]heptane-2-carboxylic acid
> <PUBCHEM_IUPAC_CAS_NAME>
4-aminobenzoic acid 2-(diethylamino)ethyl ester;3,3-dimethyl-7-oxo-6-[(1-oxo-2-phenylethyl)amino]-4-thia-1-azabicyclo[3.2.0]heptane-2-carboxylic acid
> <PUBCHEM_IUPAC_NAME_MARKUP>
2-(diethylamino)ethyl 4-aminobenzoate;3,3-dimethyl-7-oxo-6-[(2-phenylacetyl)amino]-4-thia-1-azabicyclo[3.2.0]heptane-2-carboxylic acid
> <PUBCHEM_IUPAC_NAME>
2-(diethylamino)ethyl 4-aminobenzoate;3,3-dimethyl-7-oxo-6-[(2-phenylacetyl)amino]-4-thia-1-azabicyclo[3.2.0]heptane-2-carboxylic acid
> <PUBCHEM_IUPAC_SYSTEMATIC_NAME>
2-(diethylamino)ethyl 4-azanylbenzoate;3,3-dimethyl-7-oxidanylidene-6-(2-phenylethanoylamino)-4-thia-1-azabicyclo[3.2.0]heptane-2-carboxylic acid
> <PUBCHEM_IUPAC_TRADITIONAL_NAME>
4-aminobenzoic acid 2-(diethylamino)ethyl ester;7-keto-3,3-dimethyl-6-[(2-phenylacetyl)amino]-4-thia-1-azabicyclo[3.2.0]heptane-2-carboxylic acid
> <PUBCHEM_IUPAC_INCHI>
InChI=1S/C16H18N2O4S.C13H20N2O2/c1-16(2)12(15(21)22)18-13(20)11(14(18)23-16)17-10(19)8-9-6-4-3-5-7-9;1-3-15(4-2)9-10-17-13(16)11-5-7-12(14)8-6-11/h3-7,11-12,14H,8H2,1-2H3,(H,17,19)(H,21,22);5-8H,3-4,9-10,14H2,1-2H3
> <PUBCHEM_IUPAC_INCHIKEY>
WHRVRSCEWKLAHX-UHFFFAOYSA-N
> <PUBCHEM_EXACT_MASS>
570.25120612
> <PUBCHEM_MOLECULAR_FORMULA>
C29H38N4O6S
> <PUBCHEM_MOLECULAR_WEIGHT>
570.7
> <PUBCHEM_OPENEYE_CAN_SMILES>
CCN(CC)CCOC(=O)C1=CC=C(C=C1)N.CC1(C(N2C(S1)C(C2=O)NC(=O)CC3=CC=CC=C3)C(=O)O)C
> <PUBCHEM_OPENEYE_ISO_SMILES>
CCN(CC)CCOC(=O)C1=CC=C(C=C1)N.CC1(C(N2C(S1)C(C2=O)NC(=O)CC3=CC=CC=C3)C(=O)O)C
> <PUBCHEM_CACTVS_TPSA>
168
> <PUBCHEM_MONOISOTOPIC_WEIGHT>
570.25120612
> <PUBCHEM_TOTAL_CHARGE>
0
> <PUBCHEM_HEAVY_ATOM_COUNT>
40
> <PUBCHEM_ATOM_DEF_STEREO_COUNT>
0
> <PUBCHEM_ATOM_UDEF_STEREO_COUNT>
3
> <PUBCHEM_BOND_DEF_STEREO_COUNT>
0
> <PUBCHEM_BOND_UDEF_STEREO_COUNT>
0
> <PUBCHEM_ISOTOPIC_ATOM_COUNT>
0
> <PUBCHEM_COMPONENT_COUNT>
2
> <PUBCHEM_CACTVS_TAUTO_COUNT>
-1
> <PUBCHEM_COORDINATE_TYPE>
1
5
255
> <PUBCHEM_BONDANNOTATIONS>
12  1  3
14  19  3
22  23  8
22  24  8
23  25  8
24  26  8
25  27  8
26  27  8
35  36  8
35  37  8
36  38  8
37  39  8
38  40  8
39  40  8
15  9  3
$$$$
