517454
  -OEChem-10302200292D
132132  0     1  0  0  0  0  0999 V2000
    9.2387   10.1200    0.0000 O   0  0  0  0  0  0  0  0  0  0  0  0
    8.4142   23.8600    0.0000 O   0  0  0  0  0  0  0  0  0  0  0  0
    7.5067   10.1200    0.0000 O   0  0  0  0  0  0  0  0  0  0  0  0
    9.2802   22.3600    0.0000 O   0  0  0  0  0  0  0  0  0  0  0  0
    4.0841   16.3600    0.0000 C   0  0  3  0  0  0  0  0  0  0  0  0
    4.9086    3.6200    0.0000 C   0  0  3  0  0  0  0  0  0  0  0  0
    4.0426    4.1200    0.0000 C   0  0  0  0  0  0  0  0  0  0  0  0
    4.9501   16.8600    0.0000 C   0  0  0  0  0  0  0  0  0  0  0  0
    3.2181   16.8600    0.0000 C   0  0  0  0  0  0  0  0  0  0  0  0
    5.7746    4.1200    0.0000 C   0  0  0  0  0  0  0  0  0  0  0  0
    4.0426    5.1200    0.0000 C   0  0  0  0  0  0  0  0  0  0  0  0
    4.9501   17.8600    0.0000 C   0  0  0  0  0  0  0  0  0  0  0  0
    3.2181   17.8600    0.0000 C   0  0  0  0  0  0  0  0  0  0  0  0
    5.7746    5.1200    0.0000 C   0  0  0  0  0  0  0  0  0  0  0  0
    3.1765    5.6200    0.0000 C   0  0  0  0  0  0  0  0  0  0  0  0
    5.8162   18.3600    0.0000 C   0  0  0  0  0  0  0  0  0  0  0  0
    2.3521   18.3600    0.0000 C   0  0  0  0  0  0  0  0  0  0  0  0
    4.0841   15.3600    0.0000 C   0  0  0  0  0  0  0  0  0  0  0  0
    4.9086    2.6200    0.0000 C   0  0  0  0  0  0  0  0  0  0  0  0
    6.6406    5.6200    0.0000 C   0  0  0  0  0  0  0  0  0  0  0  0
    3.1765    6.6200    0.0000 C   0  0  0  0  0  0  0  0  0  0  0  0
    5.8162   19.3600    0.0000 C   0  0  0  0  0  0  0  0  0  0  0  0
    2.3521   19.3600    0.0000 C   0  0  0  0  0  0  0  0  0  0  0  0
    6.6406    6.6200    0.0000 C   0  0  0  0  0  0  0  0  0  0  0  0
    2.3105    7.1200    0.0000 C   0  0  0  0  0  0  0  0  0  0  0  0
    6.6822   19.8600    0.0000 C   0  0  0  0  0  0  0  0  0  0  0  0
    1.4860   19.8600    0.0000 C   0  0  0  0  0  0  0  0  0  0  0  0
    7.5067    7.1200    0.0000 C   0  0  0  0  0  0  0  0  0  0  0  0
    2.3105    8.1200    0.0000 C   0  0  0  0  0  0  0  0  0  0  0  0
    4.9501   14.8600    0.0000 C   0  0  0  0  0  0  0  0  0  0  0  0
    3.2181   14.8600    0.0000 C   0  0  0  0  0  0  0  0  0  0  0  0
    5.7746    2.1200    0.0000 C   0  0  0  0  0  0  0  0  0  0  0  0
    4.0426    2.1200    0.0000 C   0  0  0  0  0  0  0  0  0  0  0  0
    6.6822   20.8600    0.0000 C   0  0  0  0  0  0  0  0  0  0  0  0
    1.4860   20.8600    0.0000 C   0  0  0  0  0  0  0  0  0  0  0  0
    7.5067    8.1200    0.0000 C   0  0  0  0  0  0  0  0  0  0  0  0
    1.4445    8.6200    0.0000 C   0  0  0  0  0  0  0  0  0  0  0  0
    7.5482   21.3600    0.0000 C   0  0  0  0  0  0  0  0  0  0  0  0
    4.9501   13.8600    0.0000 C   0  0  0  0  0  0  0  0  0  0  0  0
    3.2181   13.8600    0.0000 C   0  0  0  0  0  0  0  0  0  0  0  0
    5.7746    1.1200    0.0000 C   0  0  0  0  0  0  0  0  0  0  0  0
    4.0426    1.1200    0.0000 C   0  0  0  0  0  0  0  0  0  0  0  0
    0.6200   21.3600    0.0000 C   0  0  0  0  0  0  0  0  0  0  0  0
    1.4445    9.6200    0.0000 C   0  0  0  0  0  0  0  0  0  0  0  0
    4.0841   13.3600    0.0000 C   0  0  0  0  0  0  0  0  0  0  0  0
    4.9086    0.6200    0.0000 C   0  0  0  0  0  0  0  0  0  0  0  0
    8.3727    8.6200    0.0000 C   0  0  0  0  0  0  0  0  0  0  0  0
    7.5482   22.3600    0.0000 C   0  0  0  0  0  0  0  0  0  0  0  0
    0.6200   22.3600    0.0000 C   0  0  0  0  0  0  0  0  0  0  0  0
    0.5785   10.1200    0.0000 C   0  0  0  0  0  0  0  0  0  0  0  0
    8.3727    9.6200    0.0000 C   0  0  0  0  0  0  0  0  0  0  0  0
    8.4142   22.8600    0.0000 C   0  0  0  0  0  0  0  0  0  0  0  0
    3.5472   16.0500    0.0000 H   0  0  0  0  0  0  0  0  0  0  0  0
    5.4455    3.3100    0.0000 H   0  0  0  0  0  0  0  0  0  0  0  0
    3.4320    4.2277    0.0000 H   0  0  0  0  0  0  0  0  0  0  0  0
    3.8305    3.5374    0.0000 H   0  0  0  0  0  0  0  0  0  0  0  0
    5.1622   16.2774    0.0000 H   0  0  0  0  0  0  0  0  0  0  0  0
    5.5607   16.9677    0.0000 H   0  0  0  0  0  0  0  0  0  0  0  0
    2.6075   16.9677    0.0000 H   0  0  0  0  0  0  0  0  0  0  0  0
    3.0060   16.2774    0.0000 H   0  0  0  0  0  0  0  0  0  0  0  0
    5.9867    3.5374    0.0000 H   0  0  0  0  0  0  0  0  0  0  0  0
    6.3852    4.2277    0.0000 H   0  0  0  0  0  0  0  0  0  0  0  0
    4.6532    5.0123    0.0000 H   0  0  0  0  0  0  0  0  0  0  0  0
    4.2546    5.7026    0.0000 H   0  0  0  0  0  0  0  0  0  0  0  0
    4.7381   18.4426    0.0000 H   0  0  0  0  0  0  0  0  0  0  0  0
    4.3396   17.7523    0.0000 H   0  0  0  0  0  0  0  0  0  0  0  0
    3.8287   17.7523    0.0000 H   0  0  0  0  0  0  0  0  0  0  0  0
    3.4301   18.4426    0.0000 H   0  0  0  0  0  0  0  0  0  0  0  0
    5.5626    5.7026    0.0000 H   0  0  0  0  0  0  0  0  0  0  0  0
    5.1640    5.0123    0.0000 H   0  0  0  0  0  0  0  0  0  0  0  0
    2.5660    5.7277    0.0000 H   0  0  0  0  0  0  0  0  0  0  0  0
    2.9645    5.0374    0.0000 H   0  0  0  0  0  0  0  0  0  0  0  0
    6.0282   17.7774    0.0000 H   0  0  0  0  0  0  0  0  0  0  0  0
    6.4267   18.4677    0.0000 H   0  0  0  0  0  0  0  0  0  0  0  0
    1.7415   18.4677    0.0000 H   0  0  0  0  0  0  0  0  0  0  0  0
    2.1400   17.7774    0.0000 H   0  0  0  0  0  0  0  0  0  0  0  0
    6.8527    5.0374    0.0000 H   0  0  0  0  0  0  0  0  0  0  0  0
    7.2512    5.7277    0.0000 H   0  0  0  0  0  0  0  0  0  0  0  0
    3.7871    6.5123    0.0000 H   0  0  0  0  0  0  0  0  0  0  0  0
    3.3886    7.2026    0.0000 H   0  0  0  0  0  0  0  0  0  0  0  0
    5.6041   19.9426    0.0000 H   0  0  0  0  0  0  0  0  0  0  0  0
    5.2056   19.2523    0.0000 H   0  0  0  0  0  0  0  0  0  0  0  0
    2.9626   19.2523    0.0000 H   0  0  0  0  0  0  0  0  0  0  0  0
    2.5641   19.9426    0.0000 H   0  0  0  0  0  0  0  0  0  0  0  0
    6.4286    7.2026    0.0000 H   0  0  0  0  0  0  0  0  0  0  0  0
    6.0301    6.5123    0.0000 H   0  0  0  0  0  0  0  0  0  0  0  0
    1.6999    7.2277    0.0000 H   0  0  0  0  0  0  0  0  0  0  0  0
    2.0985    6.5374    0.0000 H   0  0  0  0  0  0  0  0  0  0  0  0
    6.8942   19.2774    0.0000 H   0  0  0  0  0  0  0  0  0  0  0  0
    7.2928   19.9677    0.0000 H   0  0  0  0  0  0  0  0  0  0  0  0
    0.8754   19.9677    0.0000 H   0  0  0  0  0  0  0  0  0  0  0  0
    1.2740   19.2774    0.0000 H   0  0  0  0  0  0  0  0  0  0  0  0
    7.7187    6.5374    0.0000 H   0  0  0  0  0  0  0  0  0  0  0  0
    8.1172    7.2277    0.0000 H   0  0  0  0  0  0  0  0  0  0  0  0
    2.9211    8.0123    0.0000 H   0  0  0  0  0  0  0  0  0  0  0  0
    2.5226    8.7026    0.0000 H   0  0  0  0  0  0  0  0  0  0  0  0
    5.4871   15.1700    0.0000 H   0  0  0  0  0  0  0  0  0  0  0  0
    2.6811   15.1700    0.0000 H   0  0  0  0  0  0  0  0  0  0  0  0
    6.3116    2.4300    0.0000 H   0  0  0  0  0  0  0  0  0  0  0  0
    3.5056    2.4300    0.0000 H   0  0  0  0  0  0  0  0  0  0  0  0
    6.4701   21.4426    0.0000 H   0  0  0  0  0  0  0  0  0  0  0  0
    6.0716   20.7523    0.0000 H   0  0  0  0  0  0  0  0  0  0  0  0
    2.0966   20.7523    0.0000 H   0  0  0  0  0  0  0  0  0  0  0  0
    1.6981   21.4426    0.0000 H   0  0  0  0  0  0  0  0  0  0  0  0
    7.2946    8.7026    0.0000 H   0  0  0  0  0  0  0  0  0  0  0  0
    6.8961    8.0123    0.0000 H   0  0  0  0  0  0  0  0  0  0  0  0
    0.8339    8.7277    0.0000 H   0  0  0  0  0  0  0  0  0  0  0  0
    1.2324    8.0374    0.0000 H   0  0  0  0  0  0  0  0  0  0  0  0
    7.7603   20.7774    0.0000 H   0  0  0  0  0  0  0  0  0  0  0  0
    8.1588   21.4677    0.0000 H   0  0  0  0  0  0  0  0  0  0  0  0
    5.4871   13.5500    0.0000 H   0  0  0  0  0  0  0  0  0  0  0  0
    2.6811   13.5500    0.0000 H   0  0  0  0  0  0  0  0  0  0  0  0
    6.3116    0.8100    0.0000 H   0  0  0  0  0  0  0  0  0  0  0  0
    3.5056    0.8100    0.0000 H   0  0  0  0  0  0  0  0  0  0  0  0
    0.0094   21.4677    0.0000 H   0  0  0  0  0  0  0  0  0  0  0  0
    0.4079   20.7774    0.0000 H   0  0  0  0  0  0  0  0  0  0  0  0
    2.0551    9.5123    0.0000 H   0  0  0  0  0  0  0  0  0  0  0  0
    1.6566   10.2026    0.0000 H   0  0  0  0  0  0  0  0  0  0  0  0
    4.0841   12.7400    0.0000 H   0  0  0  0  0  0  0  0  0  0  0  0
    4.9086    0.0000    0.0000 H   0  0  0  0  0  0  0  0  0  0  0  0
    8.5848    8.0374    0.0000 H   0  0  0  0  0  0  0  0  0  0  0  0
    8.9833    8.7277    0.0000 H   0  0  0  0  0  0  0  0  0  0  0  0
    7.3362   22.9426    0.0000 H   0  0  0  0  0  0  0  0  0  0  0  0
    6.9376   22.2523    0.0000 H   0  0  0  0  0  0  0  0  0  0  0  0
    1.2400   22.3600    0.0000 H   0  0  0  0  0  0  0  0  0  0  0  0
    0.6200   22.9800    0.0000 H   0  0  0  0  0  0  0  0  0  0  0  0
    0.0000   22.3600    0.0000 H   0  0  0  0  0  0  0  0  0  0  0  0
    0.8885   10.6569    0.0000 H   0  0  0  0  0  0  0  0  0  0  0  0
    0.0415   10.4300    0.0000 H   0  0  0  0  0  0  0  0  0  0  0  0
    0.2685    9.5831    0.0000 H   0  0  0  0  0  0  0  0  0  0  0  0
    9.2387   10.7400    0.0000 H   0  0  0  0  0  0  0  0  0  0  0  0
    8.9512   24.1700    0.0000 H   0  0  0  0  0  0  0  0  0  0  0  0
  1 51  1  0  0  0  0
  1131  1  0  0  0  0
  2 52  1  0  0  0  0
  2132  1  0  0  0  0
  3 51  2  0  0  0  0
  4 52  2  0  0  0  0
  5  8  1  0  0  0  0
  5  9  1  0  0  0  0
  5 18  1  0  0  0  0
  5 53  1  0  0  0  0
  6  7  1  0  0  0  0
  6 10  1  0  0  0  0
  6 19  1  0  0  0  0
  6 54  1  0  0  0  0
  7 11  1  0  0  0  0
  7 55  1  0  0  0  0
  7 56  1  0  0  0  0
  8 12  1  0  0  0  0
  8 57  1  0  0  0  0
  8 58  1  0  0  0  0
  9 13  1  0  0  0  0
  9 59  1  0  0  0  0
  9 60  1  0  0  0  0
 10 14  1  0  0  0  0
 10 61  1  0  0  0  0
 10 62  1  0  0  0  0
 11 15  1  0  0  0  0
 11 63  1  0  0  0  0
 11 64  1  0  0  0  0
 12 16  1  0  0  0  0
 12 65  1  0  0  0  0
 12 66  1  0  0  0  0
 13 17  1  0  0  0  0
 13 67  1  0  0  0  0
 13 68  1  0  0  0  0
 14 20  1  0  0  0  0
 14 69  1  0  0  0  0
 14 70  1  0  0  0  0
 15 21  1  0  0  0  0
 15 71  1  0  0  0  0
 15 72  1  0  0  0  0
 16 22  1  0  0  0  0
 16 73  1  0  0  0  0
 16 74  1  0  0  0  0
 17 23  1  0  0  0  0
 17 75  1  0  0  0  0
 17 76  1  0  0  0  0
 18 30  2  0  0  0  0
 18 31  1  0  0  0  0
 19 32  2  0  0  0  0
 19 33  1  0  0  0  0
 20 24  1  0  0  0  0
 20 77  1  0  0  0  0
 20 78  1  0  0  0  0
 21 25  1  0  0  0  0
 21 79  1  0  0  0  0
 21 80  1  0  0  0  0
 22 26  1  0  0  0  0
 22 81  1  0  0  0  0
 22 82  1  0  0  0  0
 23 27  1  0  0  0  0
 23 83  1  0  0  0  0
 23 84  1  0  0  0  0
 24 28  1  0  0  0  0
 24 85  1  0  0  0  0
 24 86  1  0  0  0  0
 25 29  1  0  0  0  0
 25 87  1  0  0  0  0
 25 88  1  0  0  0  0
 26 34  1  0  0  0  0
 26 89  1  0  0  0  0
 26 90  1  0  0  0  0
 27 35  1  0  0  0  0
 27 91  1  0  0  0  0
 27 92  1  0  0  0  0
 28 36  1  0  0  0  0
 28 93  1  0  0  0  0
 28 94  1  0  0  0  0
 29 37  1  0  0  0  0
 29 95  1  0  0  0  0
 29 96  1  0  0  0  0
 30 39  1  0  0  0  0
 30 97  1  0  0  0  0
 31 40  2  0  0  0  0
 31 98  1  0  0  0  0
 32 41  1  0  0  0  0
 32 99  1  0  0  0  0
 33 42  2  0  0  0  0
 33100  1  0  0  0  0
 34 38  1  0  0  0  0
 34101  1  0  0  0  0
 34102  1  0  0  0  0
 35 43  1  0  0  0  0
 35103  1  0  0  0  0
 35104  1  0  0  0  0
 36 47  1  0  0  0  0
 36105  1  0  0  0  0
 36106  1  0  0  0  0
 37 44  1  0  0  0  0
 37107  1  0  0  0  0
 37108  1  0  0  0  0
 38 48  1  0  0  0  0
 38109  1  0  0  0  0
 38110  1  0  0  0  0
 39 45  2  0  0  0  0
 39111  1  0  0  0  0
 40 45  1  0  0  0  0
 40112  1  0  0  0  0
 41 46  2  0  0  0  0
 41113  1  0  0  0  0
 42 46  1  0  0  0  0
 42114  1  0  0  0  0
 43 49  1  0  0  0  0
 43115  1  0  0  0  0
 43116  1  0  0  0  0
 44 50  1  0  0  0  0
 44117  1  0  0  0  0
 44118  1  0  0  0  0
 45119  1  0  0  0  0
 46120  1  0  0  0  0
 47 51  1  0  0  0  0
 47121  1  0  0  0  0
 47122  1  0  0  0  0
 48 52  1  0  0  0  0
 48123  1  0  0  0  0
 48124  1  0  0  0  0
 49125  1  0  0  0  0
 49126  1  0  0  0  0
 49127  1  0  0  0  0
 50128  1  0  0  0  0
 50129  1  0  0  0  0
 50130  1  0  0  0  0
M  END
> <PUBCHEM_COMPOUND_CID>
517454
> <PUBCHEM_COMPOUND_CANONICALIZED>
1
> <PUBCHEM_CACTVS_COMPLEXITY>
640
> <PUBCHEM_CACTVS_HBOND_ACCEPTOR>
4
> <PUBCHEM_CACTVS_HBOND_DONOR>
2
> <PUBCHEM_CACTVS_ROTATABLE_BOND>
34
> <PUBCHEM_CACTVS_SUBSKEYS>
AAADcfB8OAAAAAAAAAAAAAAAAAAAAAAAAAAwYAAAAAAAAAABQAAAGgAACAAADQCAmAAyCIAAAgCIAiDSCAACAAAgAAAIiAEAAIgIIDKAERCAYAAkgAAIiAeIyOCOgAAAAAAAAAAAAAAAAAAAAAAAAAAAAA==
> <PUBCHEM_IUPAC_OPENEYE_NAME>
9-phenyloctadecanoic acid;10-phenyloctadecanoic acid
> <PUBCHEM_IUPAC_CAS_NAME>
9-phenyloctadecanoic acid;10-phenyloctadecanoic acid
> <PUBCHEM_IUPAC_NAME_MARKUP>
9-phenyloctadecanoic acid;10-phenyloctadecanoic acid
> <PUBCHEM_IUPAC_NAME>
9-phenyloctadecanoic acid;10-phenyloctadecanoic acid
> <PUBCHEM_IUPAC_SYSTEMATIC_NAME>
9-phenyloctadecanoic acid;10-phenyloctadecanoic acid
> <PUBCHEM_IUPAC_TRADITIONAL_NAME>
9-phenylstearic acid;10-phenylstearic acid
> <PUBCHEM_IUPAC_INCHI>
InChI=1S/2C24H40O2/c1-2-3-4-5-8-12-17-22(23-19-14-11-15-20-23)18-13-9-6-7-10-16-21-24(25)26;1-2-3-4-5-6-8-12-17-22(23-19-14-11-15-20-23)18-13-9-7-10-16-21-24(25)26/h2*11,14-15,19-20,22H,2-10,12-13,16-18,21H2,1H3,(H,25,26)
> <PUBCHEM_IUPAC_INCHIKEY>
FBWPJYHTBADHNZ-UHFFFAOYSA-N
> <PUBCHEM_EXACT_MASS>
720.60566103
> <PUBCHEM_MOLECULAR_FORMULA>
C48H80O4
> <PUBCHEM_MOLECULAR_WEIGHT>
721.1
> <PUBCHEM_OPENEYE_CAN_SMILES>
CCCCCCCCCC(CCCCCCCC(=O)O)C1=CC=CC=C1.CCCCCCCCC(CCCCCCCCC(=O)O)C1=CC=CC=C1
> <PUBCHEM_OPENEYE_ISO_SMILES>
CCCCCCCCCC(CCCCCCCC(=O)O)C1=CC=CC=C1.CCCCCCCCC(CCCCCCCCC(=O)O)C1=CC=CC=C1
> <PUBCHEM_CACTVS_TPSA>
74.6
> <PUBCHEM_MONOISOTOPIC_WEIGHT>
720.60566103
> <PUBCHEM_TOTAL_CHARGE>
0
> <PUBCHEM_HEAVY_ATOM_COUNT>
52
> <PUBCHEM_ATOM_DEF_STEREO_COUNT>
0
> <PUBCHEM_ATOM_UDEF_STEREO_COUNT>
2
> <PUBCHEM_BOND_DEF_STEREO_COUNT>
0
> <PUBCHEM_BOND_UDEF_STEREO_COUNT>
0
> <PUBCHEM_ISOTOPIC_ATOM_COUNT>
0
> <PUBCHEM_COMPONENT_COUNT>
2
> <PUBCHEM_CACTVS_TAUTO_COUNT>
-1
> <PUBCHEM_COORDINATE_TYPE>
1
5
255
> <PUBCHEM_BONDANNOTATIONS>
18  30  8
18  31  8
19  32  8
19  33  8
30  39  8
31  40  8
32  41  8
33  42  8
39  45  8
40  45  8
41  46  8
42  46  8
5  9  3
6  7  3
$$$$
