517455
  -OEChem-10302200292D
 66 66  0     1  0  0  0  0  0999 V2000
   10.6603    4.4400    0.0000 O   0  0  0  0  0  0  0  0  0  0  0  0
    8.9282    4.4400    0.0000 O   0  0  0  0  0  0  0  0  0  0  0  0
    6.3301   -2.0600    0.0000 C   0  0  3  0  0  0  0  0  0  0  0  0
    5.4641   -1.5600    0.0000 C   0  0  0  0  0  0  0  0  0  0  0  0
    7.1962   -1.5600    0.0000 C   0  0  0  0  0  0  0  0  0  0  0  0
    5.4641   -0.5600    0.0000 C   0  0  0  0  0  0  0  0  0  0  0  0
    7.1962   -0.5600    0.0000 C   0  0  0  0  0  0  0  0  0  0  0  0
    4.5981   -0.0600    0.0000 C   0  0  0  0  0  0  0  0  0  0  0  0
    8.0622   -0.0600    0.0000 C   0  0  0  0  0  0  0  0  0  0  0  0
    6.3301   -3.0600    0.0000 C   0  0  0  0  0  0  0  0  0  0  0  0
    4.5981    0.9400    0.0000 C   0  0  0  0  0  0  0  0  0  0  0  0
    8.0622    0.9400    0.0000 C   0  0  0  0  0  0  0  0  0  0  0  0
    3.7320    1.4400    0.0000 C   0  0  0  0  0  0  0  0  0  0  0  0
    8.9282    1.4400    0.0000 C   0  0  0  0  0  0  0  0  0  0  0  0
    3.7320    2.4400    0.0000 C   0  0  0  0  0  0  0  0  0  0  0  0
    7.1962   -3.5600    0.0000 C   0  0  0  0  0  0  0  0  0  0  0  0
    5.4641   -3.5600    0.0000 C   0  0  0  0  0  0  0  0  0  0  0  0
    2.8660    2.9400    0.0000 C   0  0  0  0  0  0  0  0  0  0  0  0
    8.9282    2.4400    0.0000 C   0  0  0  0  0  0  0  0  0  0  0  0
    2.8660    3.9400    0.0000 C   0  0  0  0  0  0  0  0  0  0  0  0
    7.1962   -4.5600    0.0000 C   0  0  0  0  0  0  0  0  0  0  0  0
    5.4641   -4.5600    0.0000 C   0  0  0  0  0  0  0  0  0  0  0  0
    9.7942    2.9400    0.0000 C   0  0  0  0  0  0  0  0  0  0  0  0
    6.3301   -5.0600    0.0000 C   0  0  0  0  0  0  0  0  0  0  0  0
    2.0000    4.4400    0.0000 C   0  0  0  0  0  0  0  0  0  0  0  0
    9.7942    3.9400    0.0000 C   0  0  0  0  0  0  0  0  0  0  0  0
    6.8671   -2.3700    0.0000 H   0  0  0  0  0  0  0  0  0  0  0  0
    4.8535   -1.4523    0.0000 H   0  0  0  0  0  0  0  0  0  0  0  0
    5.2520   -2.1426    0.0000 H   0  0  0  0  0  0  0  0  0  0  0  0
    7.4082   -2.1426    0.0000 H   0  0  0  0  0  0  0  0  0  0  0  0
    7.8067   -1.4523    0.0000 H   0  0  0  0  0  0  0  0  0  0  0  0
    6.0747   -0.6677    0.0000 H   0  0  0  0  0  0  0  0  0  0  0  0
    5.6762    0.0226    0.0000 H   0  0  0  0  0  0  0  0  0  0  0  0
    6.9841    0.0226    0.0000 H   0  0  0  0  0  0  0  0  0  0  0  0
    6.5856   -0.6677    0.0000 H   0  0  0  0  0  0  0  0  0  0  0  0
    3.9875    0.0477    0.0000 H   0  0  0  0  0  0  0  0  0  0  0  0
    4.3860   -0.6426    0.0000 H   0  0  0  0  0  0  0  0  0  0  0  0
    8.2742   -0.6426    0.0000 H   0  0  0  0  0  0  0  0  0  0  0  0
    8.6728    0.0477    0.0000 H   0  0  0  0  0  0  0  0  0  0  0  0
    5.2087    0.8323    0.0000 H   0  0  0  0  0  0  0  0  0  0  0  0
    4.8101    1.5226    0.0000 H   0  0  0  0  0  0  0  0  0  0  0  0
    7.8501    1.5226    0.0000 H   0  0  0  0  0  0  0  0  0  0  0  0
    7.4516    0.8323    0.0000 H   0  0  0  0  0  0  0  0  0  0  0  0
    3.1215    1.5477    0.0000 H   0  0  0  0  0  0  0  0  0  0  0  0
    3.5200    0.8574    0.0000 H   0  0  0  0  0  0  0  0  0  0  0  0
    9.1403    0.8574    0.0000 H   0  0  0  0  0  0  0  0  0  0  0  0
    9.5388    1.5477    0.0000 H   0  0  0  0  0  0  0  0  0  0  0  0
    4.3426    2.3323    0.0000 H   0  0  0  0  0  0  0  0  0  0  0  0
    3.9441    3.0226    0.0000 H   0  0  0  0  0  0  0  0  0  0  0  0
    7.7331   -3.2500    0.0000 H   0  0  0  0  0  0  0  0  0  0  0  0
    4.9272   -3.2500    0.0000 H   0  0  0  0  0  0  0  0  0  0  0  0
    2.2554    3.0477    0.0000 H   0  0  0  0  0  0  0  0  0  0  0  0
    2.6540    2.3574    0.0000 H   0  0  0  0  0  0  0  0  0  0  0  0
    8.7162    3.0226    0.0000 H   0  0  0  0  0  0  0  0  0  0  0  0
    8.3176    2.3323    0.0000 H   0  0  0  0  0  0  0  0  0  0  0  0
    3.4766    3.8323    0.0000 H   0  0  0  0  0  0  0  0  0  0  0  0
    3.0781    4.5226    0.0000 H   0  0  0  0  0  0  0  0  0  0  0  0
    7.7331   -4.8700    0.0000 H   0  0  0  0  0  0  0  0  0  0  0  0
    4.9272   -4.8700    0.0000 H   0  0  0  0  0  0  0  0  0  0  0  0
   10.0063    2.3574    0.0000 H   0  0  0  0  0  0  0  0  0  0  0  0
   10.4048    3.0477    0.0000 H   0  0  0  0  0  0  0  0  0  0  0  0
    6.3301   -5.6800    0.0000 H   0  0  0  0  0  0  0  0  0  0  0  0
    2.3100    4.9769    0.0000 H   0  0  0  0  0  0  0  0  0  0  0  0
    1.4631    4.7500    0.0000 H   0  0  0  0  0  0  0  0  0  0  0  0
    1.6900    3.9031    0.0000 H   0  0  0  0  0  0  0  0  0  0  0  0
   10.6603    5.0600    0.0000 H   0  0  0  0  0  0  0  0  0  0  0  0
  1 26  1  0  0  0  0
  1 66  1  0  0  0  0
  2 26  2  0  0  0  0
  3  4  1  0  0  0  0
  3  5  1  0  0  0  0
  3 10  1  0  0  0  0
  3 27  1  0  0  0  0
  4  6  1  0  0  0  0
  4 28  1  0  0  0  0
  4 29  1  0  0  0  0
  5  7  1  0  0  0  0
  5 30  1  0  0  0  0
  5 31  1  0  0  0  0
  6  8  1  0  0  0  0
  6 32  1  0  0  0  0
  6 33  1  0  0  0  0
  7  9  1  0  0  0  0
  7 34  1  0  0  0  0
  7 35  1  0  0  0  0
  8 11  1  0  0  0  0
  8 36  1  0  0  0  0
  8 37  1  0  0  0  0
  9 12  1  0  0  0  0
  9 38  1  0  0  0  0
  9 39  1  0  0  0  0
 10 16  2  0  0  0  0
 10 17  1  0  0  0  0
 11 13  1  0  0  0  0
 11 40  1  0  0  0  0
 11 41  1  0  0  0  0
 12 14  1  0  0  0  0
 12 42  1  0  0  0  0
 12 43  1  0  0  0  0
 13 15  1  0  0  0  0
 13 44  1  0  0  0  0
 13 45  1  0  0  0  0
 14 19  1  0  0  0  0
 14 46  1  0  0  0  0
 14 47  1  0  0  0  0
 15 18  1  0  0  0  0
 15 48  1  0  0  0  0
 15 49  1  0  0  0  0
 16 21  1  0  0  0  0
 16 50  1  0  0  0  0
 17 22  2  0  0  0  0
 17 51  1  0  0  0  0
 18 20  1  0  0  0  0
 18 52  1  0  0  0  0
 18 53  1  0  0  0  0
 19 23  1  0  0  0  0
 19 54  1  0  0  0  0
 19 55  1  0  0  0  0
 20 25  1  0  0  0  0
 20 56  1  0  0  0  0
 20 57  1  0  0  0  0
 21 24  2  0  0  0  0
 21 58  1  0  0  0  0
 22 24  1  0  0  0  0
 22 59  1  0  0  0  0
 23 26  1  0  0  0  0
 23 60  1  0  0  0  0
 23 61  1  0  0  0  0
 24 62  1  0  0  0  0
 25 63  1  0  0  0  0
 25 64  1  0  0  0  0
 25 65  1  0  0  0  0
M  END
> <PUBCHEM_COMPOUND_CID>
517455
> <PUBCHEM_COMPOUND_CANONICALIZED>
1
> <PUBCHEM_CACTVS_COMPLEXITY>
320
> <PUBCHEM_CACTVS_HBOND_ACCEPTOR>
2
> <PUBCHEM_CACTVS_HBOND_DONOR>
1
> <PUBCHEM_CACTVS_ROTATABLE_BOND>
17
> <PUBCHEM_CACTVS_SUBSKEYS>
AAADcfB4MAAAAAAAAAAAAAAAAAAAAAAAAAAwAAAAAAAAAAABAAAAGgAACAAADQCAmAAyCIAAAgCIAiDSCAACAAAgAAAIiAEAAIgIIDKAERCAYAAkgAAIiAeIyOCOgAAAAAAAAAAAAAAAAAAAAAAAAAAAAA==
> <PUBCHEM_IUPAC_OPENEYE_NAME>
9-phenyloctadecanoic acid
> <PUBCHEM_IUPAC_CAS_NAME>
9-phenyloctadecanoic acid
> <PUBCHEM_IUPAC_NAME_MARKUP>
9-phenyloctadecanoic acid
> <PUBCHEM_IUPAC_NAME>
9-phenyloctadecanoic acid
> <PUBCHEM_IUPAC_SYSTEMATIC_NAME>
9-phenyloctadecanoic acid
> <PUBCHEM_IUPAC_TRADITIONAL_NAME>
9-phenylstearic acid
> <PUBCHEM_IUPAC_INCHI>
InChI=1S/C24H40O2/c1-2-3-4-5-6-8-12-17-22(23-19-14-11-15-20-23)18-13-9-7-10-16-21-24(25)26/h11,14-15,19-20,22H,2-10,12-13,16-18,21H2,1H3,(H,25,26)
> <PUBCHEM_IUPAC_INCHIKEY>
OONMHAYXJOFQJF-UHFFFAOYSA-N
> <PUBCHEM_XLOGP3_AA>
9.4
> <PUBCHEM_EXACT_MASS>
360.302830514
> <PUBCHEM_MOLECULAR_FORMULA>
C24H40O2
> <PUBCHEM_MOLECULAR_WEIGHT>
360.6
> <PUBCHEM_OPENEYE_CAN_SMILES>
CCCCCCCCCC(CCCCCCCC(=O)O)C1=CC=CC=C1
> <PUBCHEM_OPENEYE_ISO_SMILES>
CCCCCCCCCC(CCCCCCCC(=O)O)C1=CC=CC=C1
> <PUBCHEM_CACTVS_TPSA>
37.3
> <PUBCHEM_MONOISOTOPIC_WEIGHT>
360.302830514
> <PUBCHEM_TOTAL_CHARGE>
0
> <PUBCHEM_HEAVY_ATOM_COUNT>
26
> <PUBCHEM_ATOM_DEF_STEREO_COUNT>
0
> <PUBCHEM_ATOM_UDEF_STEREO_COUNT>
1
> <PUBCHEM_BOND_DEF_STEREO_COUNT>
0
> <PUBCHEM_BOND_UDEF_STEREO_COUNT>
0
> <PUBCHEM_ISOTOPIC_ATOM_COUNT>
0
> <PUBCHEM_COMPONENT_COUNT>
1
> <PUBCHEM_CACTVS_TAUTO_COUNT>
-1
> <PUBCHEM_COORDINATE_TYPE>
1
5
255
> <PUBCHEM_BONDANNOTATIONS>
10  16  8
10  17  8
16  21  8
17  22  8
21  24  8
22  24  8
3  4  3
$$$$
