517418
  -OEChem-10302200292D
 59 55  0     1  0  0  0  0  0999 V2000
    5.5000   -0.4510    0.0000 Ti  0  0  0  0  0  0  0  0  0  0  0  0
    4.6340    0.0490    0.0000 O   0  0  0  0  0  0  0  0  0  0  0  0
    6.3660    0.0490    0.0000 O   0  0  0  0  0  0  0  0  0  0  0  0
    5.0000   -1.3170    0.0000 O   0  0  0  0  0  0  0  0  0  0  0  0
    6.0000   -1.3170    0.0000 O   0  0  0  0  0  0  0  0  0  0  0  0
    5.5000    1.5490    0.0000 C   0  0  3  0  0  0  0  0  0  0  0  0
    4.6340    1.0490    0.0000 C   0  0  3  0  0  0  0  0  0  0  0  0
    6.3660    1.0490    0.0000 C   0  0  0  0  0  0  0  0  0  0  0  0
    3.7680    1.5490    0.0000 C   0  0  0  0  0  0  0  0  0  0  0  0
    5.5000    2.5490    0.0000 C   0  0  0  0  0  0  0  0  0  0  0  0
    3.7680    2.5490    0.0000 C   0  0  0  0  0  0  0  0  0  0  0  0
    6.3660    3.0490    0.0000 C   0  0  0  0  0  0  0  0  0  0  0  0
    4.0000   -1.3170    0.0000 C   0  0  0  0  0  0  0  0  0  0  0  0
    7.0000   -1.3170    0.0000 C   0  0  0  0  0  0  0  0  0  0  0  0
    2.9019    3.0490    0.0000 C   0  0  0  0  0  0  0  0  0  0  0  0
    3.5000   -2.1830    0.0000 C   0  0  0  0  0  0  0  0  0  0  0  0
    7.5000   -2.1830    0.0000 C   0  0  0  0  0  0  0  0  0  0  0  0
    2.5000   -2.1830    0.0000 C   0  0  0  0  0  0  0  0  0  0  0  0
    8.5000   -2.1830    0.0000 C   0  0  0  0  0  0  0  0  0  0  0  0
    2.0000   -3.0490    0.0000 C   0  0  0  0  0  0  0  0  0  0  0  0
    9.0000   -3.0490    0.0000 C   0  0  0  0  0  0  0  0  0  0  0  0
    6.0369    1.8590    0.0000 H   0  0  0  0  0  0  0  0  0  0  0  0
    4.0970    0.7390    0.0000 H   0  0  0  0  0  0  0  0  0  0  0  0
    6.9766    0.9414    0.0000 H   0  0  0  0  0  0  0  0  0  0  0  0
    6.5781    1.6316    0.0000 H   0  0  0  0  0  0  0  0  0  0  0  0
    4.0970   -0.2610    0.0000 H   0  0  0  0  0  0  0  0  0  0  0  0
    3.1574    1.6567    0.0000 H   0  0  0  0  0  0  0  0  0  0  0  0
    3.5559    0.9664    0.0000 H   0  0  0  0  0  0  0  0  0  0  0  0
    6.9030   -0.2610    0.0000 H   0  0  0  0  0  0  0  0  0  0  0  0
    5.2880    3.1316    0.0000 H   0  0  0  0  0  0  0  0  0  0  0  0
    4.8894    2.4414    0.0000 H   0  0  0  0  0  0  0  0  0  0  0  0
    5.0000   -1.9370    0.0000 H   0  0  0  0  0  0  0  0  0  0  0  0
    6.0000   -1.9370    0.0000 H   0  0  0  0  0  0  0  0  0  0  0  0
    4.3785    2.4414    0.0000 H   0  0  0  0  0  0  0  0  0  0  0  0
    3.9800    3.1316    0.0000 H   0  0  0  0  0  0  0  0  0  0  0  0
    6.6760    2.5121    0.0000 H   0  0  0  0  0  0  0  0  0  0  0  0
    6.9030    3.3590    0.0000 H   0  0  0  0  0  0  0  0  0  0  0  0
    6.0560    3.5860    0.0000 H   0  0  0  0  0  0  0  0  0  0  0  0
    4.1077   -0.7064    0.0000 H   0  0  0  0  0  0  0  0  0  0  0  0
    3.4174   -1.1049    0.0000 H   0  0  0  0  0  0  0  0  0  0  0  0
    7.5826   -1.1049    0.0000 H   0  0  0  0  0  0  0  0  0  0  0  0
    6.8923   -0.7064    0.0000 H   0  0  0  0  0  0  0  0  0  0  0  0
    3.2119    3.5860    0.0000 H   0  0  0  0  0  0  0  0  0  0  0  0
    2.3650    3.3590    0.0000 H   0  0  0  0  0  0  0  0  0  0  0  0
    2.5919    2.5121    0.0000 H   0  0  0  0  0  0  0  0  0  0  0  0
    3.3923   -2.7936    0.0000 H   0  0  0  0  0  0  0  0  0  0  0  0
    4.0826   -2.3951    0.0000 H   0  0  0  0  0  0  0  0  0  0  0  0
    6.9174   -2.3951    0.0000 H   0  0  0  0  0  0  0  0  0  0  0  0
    7.6077   -2.7936    0.0000 H   0  0  0  0  0  0  0  0  0  0  0  0
    2.6077   -1.5724    0.0000 H   0  0  0  0  0  0  0  0  0  0  0  0
    1.9174   -1.9710    0.0000 H   0  0  0  0  0  0  0  0  0  0  0  0
    9.0826   -1.9710    0.0000 H   0  0  0  0  0  0  0  0  0  0  0  0
    8.3923   -1.5724    0.0000 H   0  0  0  0  0  0  0  0  0  0  0  0
    1.4631   -2.7390    0.0000 H   0  0  0  0  0  0  0  0  0  0  0  0
    1.6900   -3.5860    0.0000 H   0  0  0  0  0  0  0  0  0  0  0  0
    2.5369   -3.3590    0.0000 H   0  0  0  0  0  0  0  0  0  0  0  0
    8.4631   -3.3590    0.0000 H   0  0  0  0  0  0  0  0  0  0  0  0
    9.3100   -3.5860    0.0000 H   0  0  0  0  0  0  0  0  0  0  0  0
    9.5369   -2.7390    0.0000 H   0  0  0  0  0  0  0  0  0  0  0  0
  2  7  1  0  0  0  0
  2 26  1  0  0  0  0
  3  8  1  0  0  0  0
  3 29  1  0  0  0  0
  4 13  1  0  0  0  0
  4 32  1  0  0  0  0
  5 14  1  0  0  0  0
  5 33  1  0  0  0  0
  6  7  1  0  0  0  0
  6  8  1  0  0  0  0
  6 10  1  0  0  0  0
  6 22  1  0  0  0  0
  7  9  1  0  0  0  0
  7 23  1  0  0  0  0
  8 24  1  0  0  0  0
  8 25  1  0  0  0  0
  9 11  1  0  0  0  0
  9 27  1  0  0  0  0
  9 28  1  0  0  0  0
 10 12  1  0  0  0  0
 10 30  1  0  0  0  0
 10 31  1  0  0  0  0
 11 15  1  0  0  0  0
 11 34  1  0  0  0  0
 11 35  1  0  0  0  0
 12 36  1  0  0  0  0
 12 37  1  0  0  0  0
 12 38  1  0  0  0  0
 13 16  1  0  0  0  0
 13 39  1  0  0  0  0
 13 40  1  0  0  0  0
 14 17  1  0  0  0  0
 14 41  1  0  0  0  0
 14 42  1  0  0  0  0
 15 43  1  0  0  0  0
 15 44  1  0  0  0  0
 15 45  1  0  0  0  0
 16 18  1  0  0  0  0
 16 46  1  0  0  0  0
 16 47  1  0  0  0  0
 17 19  1  0  0  0  0
 17 48  1  0  0  0  0
 17 49  1  0  0  0  0
 18 20  1  0  0  0  0
 18 50  1  0  0  0  0
 18 51  1  0  0  0  0
 19 21  1  0  0  0  0
 19 52  1  0  0  0  0
 19 53  1  0  0  0  0
 20 54  1  0  0  0  0
 20 55  1  0  0  0  0
 20 56  1  0  0  0  0
 21 57  1  0  0  0  0
 21 58  1  0  0  0  0
 21 59  1  0  0  0  0
M  END
> <PUBCHEM_COMPOUND_CID>
517418
> <PUBCHEM_COMPOUND_CANONICALIZED>
1
> <PUBCHEM_CACTVS_COMPLEXITY>
142
> <PUBCHEM_CACTVS_HBOND_ACCEPTOR>
4
> <PUBCHEM_CACTVS_HBOND_DONOR>
4
> <PUBCHEM_CACTVS_ROTATABLE_BOND>
7
> <PUBCHEM_CACTVS_SUBSKEYS>
AAADcfB4OAAAAAIAAAAAAAAAAAAAAAAAAAAkAAAAAAAAAAAAAAAAGgAACAAADRSggAICAAAAAgAAAAAAAAAAAAAAAAAAAAAAAAAAEAIAAAAAQAAFAAAAAAGAwAAOAAAAAAAAAAAAAAAAAAAAAAAAAAAAAA==
> <PUBCHEM_IUPAC_OPENEYE_NAME>
butan-1-ol;2-ethylhexane-1,3-diol;titanium
> <PUBCHEM_IUPAC_CAS_NAME>
1-butanol;2-ethylhexane-1,3-diol;titanium
> <PUBCHEM_IUPAC_NAME_MARKUP>
butan-1-ol;2-ethylhexane-1,3-diol;titanium
> <PUBCHEM_IUPAC_NAME>
butan-1-ol;2-ethylhexane-1,3-diol;titanium
> <PUBCHEM_IUPAC_SYSTEMATIC_NAME>
butan-1-ol;2-ethylhexane-1,3-diol;titanium
> <PUBCHEM_IUPAC_TRADITIONAL_NAME>
butan-1-ol;2-ethylhexane-1,3-diol;titanium
> <PUBCHEM_IUPAC_INCHI>
InChI=1S/C8H18O2.2C4H10O.Ti/c1-3-5-8(10)7(4-2)6-9;2*1-2-3-4-5;/h7-10H,3-6H2,1-2H3;2*5H,2-4H2,1H3;
> <PUBCHEM_IUPAC_INCHIKEY>
HYHWJKAKXHNCBS-UHFFFAOYSA-N
> <PUBCHEM_EXACT_MASS>
342.2249504
> <PUBCHEM_MOLECULAR_FORMULA>
C16H38O4Ti
> <PUBCHEM_MOLECULAR_WEIGHT>
342.34
> <PUBCHEM_OPENEYE_CAN_SMILES>
CCCCO.CCCCO.CCCC(C(CC)CO)O.[Ti]
> <PUBCHEM_OPENEYE_ISO_SMILES>
CCCCO.CCCCO.CCCC(C(CC)CO)O.[Ti]
> <PUBCHEM_CACTVS_TPSA>
80.9
> <PUBCHEM_MONOISOTOPIC_WEIGHT>
342.2249504
> <PUBCHEM_TOTAL_CHARGE>
0
> <PUBCHEM_HEAVY_ATOM_COUNT>
21
> <PUBCHEM_ATOM_DEF_STEREO_COUNT>
0
> <PUBCHEM_ATOM_UDEF_STEREO_COUNT>
2
> <PUBCHEM_BOND_DEF_STEREO_COUNT>
0
> <PUBCHEM_BOND_UDEF_STEREO_COUNT>
0
> <PUBCHEM_ISOTOPIC_ATOM_COUNT>
0
> <PUBCHEM_COMPONENT_COUNT>
4
> <PUBCHEM_CACTVS_TAUTO_COUNT>
-1
> <PUBCHEM_NONSTANDARDBOND>
1  2  6
1  3  6
1  4  6
1  5  6
> <PUBCHEM_COORDINATE_TYPE>
1
5
255
> <PUBCHEM_BONDANNOTATIONS>
7  2  3
6  10  3
$$$$
