517457
  -OEChem-10302200292D
 78 78  0     1  0  0  0  0  0999 V2000
    3.4483    2.1730    0.0000 O   0  0  0  0  0  0  0  0  0  0  0  0
    3.4483   -2.1730    0.0000 O   0  0  0  0  0  0  0  0  0  0  0  0
    4.6730    0.9483    0.0000 O   0  0  0  0  0  0  0  0  0  0  0  0
    4.6730   -0.9483    0.0000 O   0  0  0  0  0  0  0  0  0  0  0  0
    3.0000    0.5000    0.0000 C   0  0  3  0  0  0  0  0  0  0  0  0
    3.0000   -0.5000    0.0000 C   0  0  3  0  0  0  0  0  0  0  0  0
    2.0000    0.5000    0.0000 C   0  0  0  0  0  0  0  0  0  0  0  0
    2.0000   -0.5000    0.0000 C   0  0  0  0  0  0  0  0  0  0  0  0
    3.7071    1.2071    0.0000 C   0  0  0  0  0  0  0  0  0  0  0  0
    3.7071   -1.2071    0.0000 C   0  0  0  0  0  0  0  0  0  0  0  0
    4.1554    2.8801    0.0000 C   0  0  0  0  0  0  0  0  0  0  0  0
    4.1554   -2.8801    0.0000 C   0  0  0  0  0  0  0  0  0  0  0  0
    3.8966    3.8461    0.0000 C   0  0  0  0  0  0  0  0  0  0  0  0
    3.8966   -3.8461    0.0000 C   0  0  0  0  0  0  0  0  0  0  0  0
    4.6037    4.5532    0.0000 C   0  0  0  0  0  0  0  0  0  0  0  0
    4.6037   -4.5532    0.0000 C   0  0  0  0  0  0  0  0  0  0  0  0
    4.3449    5.5191    0.0000 C   0  0  0  0  0  0  0  0  0  0  0  0
    4.3449   -5.5191    0.0000 C   0  0  0  0  0  0  0  0  0  0  0  0
    5.0520    6.2262    0.0000 C   0  0  0  0  0  0  0  0  0  0  0  0
    5.0520   -6.2262    0.0000 C   0  0  0  0  0  0  0  0  0  0  0  0
    4.7932    7.1921    0.0000 C   0  0  0  0  0  0  0  0  0  0  0  0
    4.7932   -7.1921    0.0000 C   0  0  0  0  0  0  0  0  0  0  0  0
    5.5003    7.8992    0.0000 C   0  0  0  0  0  0  0  0  0  0  0  0
    5.5003   -7.8992    0.0000 C   0  0  0  0  0  0  0  0  0  0  0  0
    5.2414    8.8652    0.0000 C   0  0  0  0  0  0  0  0  0  0  0  0
    5.2414   -8.8652    0.0000 C   0  0  0  0  0  0  0  0  0  0  0  0
    5.9486    9.5723    0.0000 C   0  0  0  0  0  0  0  0  0  0  0  0
    5.9486   -9.5723    0.0000 C   0  0  0  0  0  0  0  0  0  0  0  0
    5.6897   10.5382    0.0000 C   0  0  0  0  0  0  0  0  0  0  0  0
    5.6897  -10.5382    0.0000 C   0  0  0  0  0  0  0  0  0  0  0  0
    3.5728    0.2627    0.0000 H   0  0  0  0  0  0  0  0  0  0  0  0
    3.5728   -0.2627    0.0000 H   0  0  0  0  0  0  0  0  0  0  0  0
    2.0000    1.1200    0.0000 H   0  0  0  0  0  0  0  0  0  0  0  0
    1.3800    0.5000    0.0000 H   0  0  0  0  0  0  0  0  0  0  0  0
    1.3800   -0.5000    0.0000 H   0  0  0  0  0  0  0  0  0  0  0  0
    2.0000   -1.1200    0.0000 H   0  0  0  0  0  0  0  0  0  0  0  0
    4.5110    2.3723    0.0000 H   0  0  0  0  0  0  0  0  0  0  0  0
    4.7173    3.1422    0.0000 H   0  0  0  0  0  0  0  0  0  0  0  0
    4.7173   -3.1422    0.0000 H   0  0  0  0  0  0  0  0  0  0  0  0
    4.5110   -2.3723    0.0000 H   0  0  0  0  0  0  0  0  0  0  0  0
    3.5410    4.3539    0.0000 H   0  0  0  0  0  0  0  0  0  0  0  0
    3.3347    3.5840    0.0000 H   0  0  0  0  0  0  0  0  0  0  0  0
    3.3347   -3.5840    0.0000 H   0  0  0  0  0  0  0  0  0  0  0  0
    3.5410   -4.3539    0.0000 H   0  0  0  0  0  0  0  0  0  0  0  0
    4.9593    4.0453    0.0000 H   0  0  0  0  0  0  0  0  0  0  0  0
    5.1656    4.8152    0.0000 H   0  0  0  0  0  0  0  0  0  0  0  0
    5.1656   -4.8152    0.0000 H   0  0  0  0  0  0  0  0  0  0  0  0
    4.9593   -4.0453    0.0000 H   0  0  0  0  0  0  0  0  0  0  0  0
    3.9892    6.0270    0.0000 H   0  0  0  0  0  0  0  0  0  0  0  0
    3.7830    5.2571    0.0000 H   0  0  0  0  0  0  0  0  0  0  0  0
    3.7830   -5.2571    0.0000 H   0  0  0  0  0  0  0  0  0  0  0  0
    3.9892   -6.0270    0.0000 H   0  0  0  0  0  0  0  0  0  0  0  0
    5.4076    5.7183    0.0000 H   0  0  0  0  0  0  0  0  0  0  0  0
    5.6139    6.4882    0.0000 H   0  0  0  0  0  0  0  0  0  0  0  0
    5.6139   -6.4882    0.0000 H   0  0  0  0  0  0  0  0  0  0  0  0
    5.4076   -5.7183    0.0000 H   0  0  0  0  0  0  0  0  0  0  0  0
    4.4375    7.7000    0.0000 H   0  0  0  0  0  0  0  0  0  0  0  0
    4.2312    6.9301    0.0000 H   0  0  0  0  0  0  0  0  0  0  0  0
    4.2312   -6.9301    0.0000 H   0  0  0  0  0  0  0  0  0  0  0  0
    4.4375   -7.7000    0.0000 H   0  0  0  0  0  0  0  0  0  0  0  0
    5.8559    7.3914    0.0000 H   0  0  0  0  0  0  0  0  0  0  0  0
    6.0622    8.1613    0.0000 H   0  0  0  0  0  0  0  0  0  0  0  0
    6.0622   -8.1613    0.0000 H   0  0  0  0  0  0  0  0  0  0  0  0
    5.8559   -7.3914    0.0000 H   0  0  0  0  0  0  0  0  0  0  0  0
    4.8858    9.3730    0.0000 H   0  0  0  0  0  0  0  0  0  0  0  0
    4.6795    8.6031    0.0000 H   0  0  0  0  0  0  0  0  0  0  0  0
    4.6795   -8.6031    0.0000 H   0  0  0  0  0  0  0  0  0  0  0  0
    4.8858   -9.3730    0.0000 H   0  0  0  0  0  0  0  0  0  0  0  0
    6.3042    9.0644    0.0000 H   0  0  0  0  0  0  0  0  0  0  0  0
    6.5105    9.8343    0.0000 H   0  0  0  0  0  0  0  0  0  0  0  0
    6.5105   -9.8343    0.0000 H   0  0  0  0  0  0  0  0  0  0  0  0
    6.3042   -9.0644    0.0000 H   0  0  0  0  0  0  0  0  0  0  0  0
    6.2886   10.6987    0.0000 H   0  0  0  0  0  0  0  0  0  0  0  0
    5.5293   11.1371    0.0000 H   0  0  0  0  0  0  0  0  0  0  0  0
    5.0908   10.3777    0.0000 H   0  0  0  0  0  0  0  0  0  0  0  0
    5.0908  -10.3777    0.0000 H   0  0  0  0  0  0  0  0  0  0  0  0
    5.5293  -11.1371    0.0000 H   0  0  0  0  0  0  0  0  0  0  0  0
    6.2886  -10.6987    0.0000 H   0  0  0  0  0  0  0  0  0  0  0  0
  1  9  1  0  0  0  0
  1 11  1  0  0  0  0
  2 10  1  0  0  0  0
  2 12  1  0  0  0  0
  3  9  2  0  0  0  0
  4 10  2  0  0  0  0
  5  6  1  0  0  0  0
  5  7  1  0  0  0  0
  5  9  1  0  0  0  0
  5 31  1  0  0  0  0
  6  8  1  0  0  0  0
  6 10  1  0  0  0  0
  6 32  1  0  0  0  0
  7  8  1  0  0  0  0
  7 33  1  0  0  0  0
  7 34  1  0  0  0  0
  8 35  1  0  0  0  0
  8 36  1  0  0  0  0
 11 13  1  0  0  0  0
 11 37  1  0  0  0  0
 11 38  1  0  0  0  0
 12 14  1  0  0  0  0
 12 39  1  0  0  0  0
 12 40  1  0  0  0  0
 13 15  1  0  0  0  0
 13 41  1  0  0  0  0
 13 42  1  0  0  0  0
 14 16  1  0  0  0  0
 14 43  1  0  0  0  0
 14 44  1  0  0  0  0
 15 17  1  0  0  0  0
 15 45  1  0  0  0  0
 15 46  1  0  0  0  0
 16 18  1  0  0  0  0
 16 47  1  0  0  0  0
 16 48  1  0  0  0  0
 17 19  1  0  0  0  0
 17 49  1  0  0  0  0
 17 50  1  0  0  0  0
 18 20  1  0  0  0  0
 18 51  1  0  0  0  0
 18 52  1  0  0  0  0
 19 21  1  0  0  0  0
 19 53  1  0  0  0  0
 19 54  1  0  0  0  0
 20 22  1  0  0  0  0
 20 55  1  0  0  0  0
 20 56  1  0  0  0  0
 21 23  1  0  0  0  0
 21 57  1  0  0  0  0
 21 58  1  0  0  0  0
 22 24  1  0  0  0  0
 22 59  1  0  0  0  0
 22 60  1  0  0  0  0
 23 25  1  0  0  0  0
 23 61  1  0  0  0  0
 23 62  1  0  0  0  0
 24 26  1  0  0  0  0
 24 63  1  0  0  0  0
 24 64  1  0  0  0  0
 25 27  1  0  0  0  0
 25 65  1  0  0  0  0
 25 66  1  0  0  0  0
 26 28  1  0  0  0  0
 26 67  1  0  0  0  0
 26 68  1  0  0  0  0
 27 29  1  0  0  0  0
 27 69  1  0  0  0  0
 27 70  1  0  0  0  0
 28 30  1  0  0  0  0
 28 71  1  0  0  0  0
 28 72  1  0  0  0  0
 29 73  1  0  0  0  0
 29 74  1  0  0  0  0
 29 75  1  0  0  0  0
 30 76  1  0  0  0  0
 30 77  1  0  0  0  0
 30 78  1  0  0  0  0
M  END
> <PUBCHEM_COMPOUND_CID>
517457
> <PUBCHEM_COMPOUND_CANONICALIZED>
1
> <PUBCHEM_CACTVS_COMPLEXITY>
395
> <PUBCHEM_CACTVS_HBOND_ACCEPTOR>
4
> <PUBCHEM_CACTVS_HBOND_DONOR>
0
> <PUBCHEM_CACTVS_ROTATABLE_BOND>
22
> <PUBCHEM_CACTVS_SUBSKEYS>
AAADcfB4OAAAAAAAAAAAAAAAAABgAAAAAAAAAAAAAAAAAAAAAAAAGgAAAAAADQCggAICCAAABAAIAACQCAAAAAAAAAAAAAEAAAAAABIAAAACAAAEAAAAAAHLyKAKgAAAAAAAAAAAAAAAAAAAAAAAAAAAAA==
> <PUBCHEM_IUPAC_OPENEYE_NAME>
didecyl cyclobutane-1,2-dicarboxylate
> <PUBCHEM_IUPAC_CAS_NAME>
cyclobutane-1,2-dicarboxylic acid didecyl ester
> <PUBCHEM_IUPAC_NAME_MARKUP>
didecyl cyclobutane-1,2-dicarboxylate
> <PUBCHEM_IUPAC_NAME>
didecyl cyclobutane-1,2-dicarboxylate
> <PUBCHEM_IUPAC_SYSTEMATIC_NAME>
didecyl cyclobutane-1,2-dicarboxylate
> <PUBCHEM_IUPAC_TRADITIONAL_NAME>
cyclobutane-1,2-dicarboxylic acid didecyl ester
> <PUBCHEM_IUPAC_INCHI>
InChI=1S/C26H48O4/c1-3-5-7-9-11-13-15-17-21-29-25(27)23-19-20-24(23)26(28)30-22-18-16-14-12-10-8-6-4-2/h23-24H,3-22H2,1-2H3
> <PUBCHEM_IUPAC_INCHIKEY>
BPFHRPZSWWKRGS-UHFFFAOYSA-N
> <PUBCHEM_XLOGP3_AA>
9.4
> <PUBCHEM_EXACT_MASS>
424.35526001
> <PUBCHEM_MOLECULAR_FORMULA>
C26H48O4
> <PUBCHEM_MOLECULAR_WEIGHT>
424.7
> <PUBCHEM_OPENEYE_CAN_SMILES>
CCCCCCCCCCOC(=O)C1CCC1C(=O)OCCCCCCCCCC
> <PUBCHEM_OPENEYE_ISO_SMILES>
CCCCCCCCCCOC(=O)C1CCC1C(=O)OCCCCCCCCCC
> <PUBCHEM_CACTVS_TPSA>
52.6
> <PUBCHEM_MONOISOTOPIC_WEIGHT>
424.35526001
> <PUBCHEM_TOTAL_CHARGE>
0
> <PUBCHEM_HEAVY_ATOM_COUNT>
30
> <PUBCHEM_ATOM_DEF_STEREO_COUNT>
0
> <PUBCHEM_ATOM_UDEF_STEREO_COUNT>
2
> <PUBCHEM_BOND_DEF_STEREO_COUNT>
0
> <PUBCHEM_BOND_UDEF_STEREO_COUNT>
0
> <PUBCHEM_ISOTOPIC_ATOM_COUNT>
0
> <PUBCHEM_COMPONENT_COUNT>
1
> <PUBCHEM_CACTVS_TAUTO_COUNT>
-1
> <PUBCHEM_COORDINATE_TYPE>
1
5
255
> <PUBCHEM_BONDANNOTATIONS>
5  9  3
6  10  3
$$$$
