517557
  -OEChem-10302200292D
 89 95  0     1  0  0  0  0  0999 V2000
   12.9084    7.0045    0.0000 S   0  0  0  0  0  0  0  0  0  0  0  0
    2.8936    7.4331    0.0000 O   0  0  0  0  0  0  0  0  0  0  0  0
    1.8713    8.0108    0.0000 O   0  0  0  0  0  0  0  0  0  0  0  0
    3.0854   11.4058    0.0000 O   0  0  0  0  0  0  0  0  0  0  0  0
    5.3556    8.2000    0.0000 O   0  0  0  0  0  0  0  0  0  0  0  0
    3.8746    5.2310    0.0000 O   0  0  0  0  0  0  0  0  0  0  0  0
   13.7744    7.5045    0.0000 O   0  0  0  0  0  0  0  0  0  0  0  0
   12.4084    7.8705    0.0000 O   0  0  0  0  0  0  0  0  0  0  0  0
   13.4084    6.1385    0.0000 O   0  0  0  0  0  0  0  0  0  0  0  0
    3.6952    8.8313    0.0000 N   0  0  0  0  0  0  0  0  0  0  0  0
    2.0727   10.0006    0.0000 N   0  0  0  0  0  0  0  0  0  0  0  0
    7.4067    5.2308    0.0000 N   0  0  3  0  0  0  0  0  0  0  0  0
    4.7348    6.7344    0.0000 N   0  0  0  0  0  0  0  0  0  0  0  0
    8.3948    1.0406    0.0000 N   0  0  0  0  0  0  0  0  0  0  0  0
    1.9720    9.0057    0.0000 C   0  0  3  0  0  0  0  0  0  0  0  0
    2.7833    8.4210    0.0000 C   0  0  3  0  0  0  0  0  0  0  0  0
    6.5246    3.6893    0.0000 C   0  0  3  0  0  0  0  0  0  0  0  0
    0.9999    8.7978    0.0000 C   0  0  0  0  0  0  0  0  0  0  0  0
    7.3907    4.1893    0.0000 C   0  0  3  0  0  0  0  0  0  0  0  0
    3.7959    9.8262    0.0000 C   0  0  3  0  0  0  0  0  0  0  0  0
    3.8669    7.2310    0.0000 C   0  0  3  0  0  0  0  0  0  0  0  0
    5.6066    5.2377    0.0000 C   0  0  3  0  0  0  0  0  0  0  0  0
    1.1620   10.3991    0.0000 C   0  0  0  0  0  0  0  0  0  0  0  0
    5.6146    4.1961    0.0000 C   0  0  0  0  0  0  0  0  0  0  0  0
    0.5003    9.6572    0.0000 C   0  0  0  0  0  0  0  0  0  0  0  0
    2.9847   10.4109    0.0000 C   0  0  0  0  0  0  0  0  0  0  0  0
    4.3613    8.0934    0.0000 C   0  0  0  0  0  0  0  0  0  0  0  0
    6.5087    5.7585    0.0000 C   0  0  0  0  0  0  0  0  0  0  0  0
    8.2567    3.6893    0.0000 C   0  0  0  0  0  0  0  0  0  0  0  0
    6.5246    2.6893    0.0000 C   0  0  0  0  0  0  0  0  0  0  0  0
    4.7079   10.2365    0.0000 C   0  0  0  0  0  0  0  0  0  0  0  0
    4.7387    5.7344    0.0000 C   0  0  0  0  0  0  0  0  0  0  0  0
    7.3907    2.1893    0.0000 C   0  0  0  0  0  0  0  0  0  0  0  0
    8.2567    2.6893    0.0000 C   0  0  0  0  0  0  0  0  0  0  0  0
    3.6627    6.2521    0.0000 C   0  0  0  0  0  0  0  0  0  0  0  0
    8.2785    5.7207    0.0000 C   0  0  0  0  0  0  0  0  0  0  0  0
    7.4067    1.1478    0.0000 C   0  0  0  0  0  0  0  0  0  0  0  0
    5.6146    2.1824    0.0000 C   0  0  0  0  0  0  0  0  0  0  0  0
    8.8746    1.9109    0.0000 C   0  0  0  0  0  0  0  0  0  0  0  0
    4.8086   11.2314    0.0000 C   0  0  0  0  0  0  0  0  0  0  0  0
    6.5087    0.6200    0.0000 C   0  0  0  0  0  0  0  0  0  0  0  0
    5.6066    1.1408    0.0000 C   0  0  0  0  0  0  0  0  0  0  0  0
    5.7206   11.6416    0.0000 C   0  0  0  0  0  0  0  0  0  0  0  0
    3.9973   11.8160    0.0000 C   0  0  0  0  0  0  0  0  0  0  0  0
    5.8213   12.6366    0.0000 C   0  0  0  0  0  0  0  0  0  0  0  0
    4.0980   12.8110    0.0000 C   0  0  0  0  0  0  0  0  0  0  0  0
    5.0100   13.2212    0.0000 C   0  0  0  0  0  0  0  0  0  0  0  0
   12.0424    6.5045    0.0000 C   0  0  0  0  0  0  0  0  0  0  0  0
    2.7472    9.3544    0.0000 H   0  0  0  0  0  0  0  0  0  0  0  0
    5.7918    3.2586    0.0000 H   0  0  0  0  0  0  0  0  0  0  0  0
    0.4341    8.5443    0.0000 H   0  0  0  0  0  0  0  0  0  0  0  0
    1.1926    8.2085    0.0000 H   0  0  0  0  0  0  0  0  0  0  0  0
    8.1300    4.6086    0.0000 H   0  0  0  0  0  0  0  0  0  0  0  0
    4.4855    9.3292    0.0000 H   0  0  0  0  0  0  0  0  0  0  0  0
    4.8730    4.8084    0.0000 H   0  0  0  0  0  0  0  0  0  0  0  0
    5.0030    4.2975    0.0000 H   0  0  0  0  0  0  0  0  0  0  0  0
    5.4101    3.6108    0.0000 H   0  0  0  0  0  0  0  0  0  0  0  0
    1.4688   10.9378    0.0000 H   0  0  0  0  0  0  0  0  0  0  0  0
    0.6584   10.7609    0.0000 H   0  0  0  0  0  0  0  0  0  0  0  0
    0.0835   10.1162    0.0000 H   0  0  0  0  0  0  0  0  0  0  0  0
    0.0000    9.2910    0.0000 H   0  0  0  0  0  0  0  0  0  0  0  0
    6.9097    6.2314    0.0000 H   0  0  0  0  0  0  0  0  0  0  0  0
    6.1114    6.2345    0.0000 H   0  0  0  0  0  0  0  0  0  0  0  0
    8.8673    3.5816    0.0000 H   0  0  0  0  0  0  0  0  0  0  0  0
    8.4688    4.2719    0.0000 H   0  0  0  0  0  0  0  0  0  0  0  0
    5.2706    7.0464    0.0000 H   0  0  0  0  0  0  0  0  0  0  0  0
    4.8602    9.6355    0.0000 H   0  0  0  0  0  0  0  0  0  0  0  0
    5.3262   10.2821    0.0000 H   0  0  0  0  0  0  0  0  0  0  0  0
    3.0558    6.3786    0.0000 H   0  0  0  0  0  0  0  0  0  0  0  0
    3.5362    5.6451    0.0000 H   0  0  0  0  0  0  0  0  0  0  0  0
    4.2697    6.1255    0.0000 H   0  0  0  0  0  0  0  0  0  0  0  0
    1.8089    7.3939    0.0000 H   0  0  0  0  0  0  0  0  0  0  0  0
    8.5823    5.1802    0.0000 H   0  0  0  0  0  0  0  0  0  0  0  0
    8.8190    6.0245    0.0000 H   0  0  0  0  0  0  0  0  0  0  0  0
    7.9747    6.2612    0.0000 H   0  0  0  0  0  0  0  0  0  0  0  0
    5.0813    2.4986    0.0000 H   0  0  0  0  0  0  0  0  0  0  0  0
    9.4925    1.9626    0.0000 H   0  0  0  0  0  0  0  0  0  0  0  0
    8.6808    0.4905    0.0000 H   0  0  0  0  0  0  0  0  0  0  0  0
    6.5111    0.0000    0.0000 H   0  0  0  0  0  0  0  0  0  0  0  0
    5.0685    0.8329    0.0000 H   0  0  0  0  0  0  0  0  0  0  0  0
    6.2236   11.2792    0.0000 H   0  0  0  0  0  0  0  0  0  0  0  0
    3.4319   11.5617    0.0000 H   0  0  0  0  0  0  0  0  0  0  0  0
    6.3867   12.8909    0.0000 H   0  0  0  0  0  0  0  0  0  0  0  0
    3.5950   13.1735    0.0000 H   0  0  0  0  0  0  0  0  0  0  0  0
    5.0724   13.8381    0.0000 H   0  0  0  0  0  0  0  0  0  0  0  0
   11.7324    7.0414    0.0000 H   0  0  0  0  0  0  0  0  0  0  0  0
   11.5054    6.1945    0.0000 H   0  0  0  0  0  0  0  0  0  0  0  0
   12.3524    5.9676    0.0000 H   0  0  0  0  0  0  0  0  0  0  0  0
   14.3114    7.1945    0.0000 H   0  0  0  0  0  0  0  0  0  0  0  0
  1  7  1  0  0  0  0
  1  8  2  0  0  0  0
  1  9  2  0  0  0  0
  1 48  1  0  0  0  0
  2 16  1  0  0  0  0
  2 21  1  0  0  0  0
  3 16  1  0  0  0  0
  3 72  1  0  0  0  0
  4 26  2  0  0  0  0
  5 27  2  0  0  0  0
  6 32  2  0  0  0  0
  7 89  1  0  0  0  0
 10 16  1  0  0  0  0
 10 20  1  0  0  0  0
 10 27  1  0  0  0  0
 11 15  1  0  0  0  0
 11 23  1  0  0  0  0
 11 26  1  0  0  0  0
 12 19  1  0  0  0  0
 12 28  1  0  0  0  0
 12 36  1  0  0  0  0
 13 21  1  0  0  0  0
 13 32  1  0  0  0  0
 13 66  1  0  0  0  0
 14 37  1  0  0  0  0
 14 39  1  0  0  0  0
 14 78  1  0  0  0  0
 15 16  1  0  0  0  0
 15 18  1  0  0  0  0
 15 49  1  0  0  0  0
 17 19  1  0  0  0  0
 17 24  1  0  0  0  0
 17 30  1  0  0  0  0
 17 50  1  0  0  0  0
 18 25  1  0  0  0  0
 18 51  1  0  0  0  0
 18 52  1  0  0  0  0
 19 29  1  0  0  0  0
 19 53  1  0  0  0  0
 20 26  1  0  0  0  0
 20 31  1  0  0  0  0
 20 54  1  0  0  0  0
 21 27  1  0  0  0  0
 21 35  1  0  0  0  0
 22 24  1  0  0  0  0
 22 28  1  0  0  0  0
 22 32  1  0  0  0  0
 22 55  1  0  0  0  0
 23 25  1  0  0  0  0
 23 58  1  0  0  0  0
 23 59  1  0  0  0  0
 24 56  1  0  0  0  0
 24 57  1  0  0  0  0
 25 60  1  0  0  0  0
 25 61  1  0  0  0  0
 28 62  1  0  0  0  0
 28 63  1  0  0  0  0
 29 34  1  0  0  0  0
 29 64  1  0  0  0  0
 29 65  1  0  0  0  0
 30 33  2  0  0  0  0
 30 38  1  0  0  0  0
 31 40  1  0  0  0  0
 31 67  1  0  0  0  0
 31 68  1  0  0  0  0
 33 34  1  0  0  0  0
 33 37  1  0  0  0  0
 34 39  2  0  0  0  0
 35 69  1  0  0  0  0
 35 70  1  0  0  0  0
 35 71  1  0  0  0  0
 36 73  1  0  0  0  0
 36 74  1  0  0  0  0
 36 75  1  0  0  0  0
 37 41  2  0  0  0  0
 38 42  2  0  0  0  0
 38 76  1  0  0  0  0
 39 77  1  0  0  0  0
 40 43  2  0  0  0  0
 40 44  1  0  0  0  0
 41 42  1  0  0  0  0
 41 79  1  0  0  0  0
 42 80  1  0  0  0  0
 43 45  1  0  0  0  0
 43 81  1  0  0  0  0
 44 46  2  0  0  0  0
 44 82  1  0  0  0  0
 45 47  2  0  0  0  0
 45 83  1  0  0  0  0
 46 47  1  0  0  0  0
 46 84  1  0  0  0  0
 47 85  1  0  0  0  0
 48 86  1  0  0  0  0
 48 87  1  0  0  0  0
 48 88  1  0  0  0  0
M  END
> <PUBCHEM_COMPOUND_CID>
517557
> <PUBCHEM_COMPOUND_CANONICALIZED>
1
> <PUBCHEM_CACTVS_COMPLEXITY>
1260
> <PUBCHEM_CACTVS_HBOND_ACCEPTOR>
9
> <PUBCHEM_CACTVS_HBOND_DONOR>
4
> <PUBCHEM_CACTVS_ROTATABLE_BOND>
4
> <PUBCHEM_CACTVS_SUBSKEYS>
AAADcfB/vABAAAAAAAAAAAAAAAAAAWLFgAA8eMECAAAAAFjx9AAAHgQQCAAADSzBngS+yPPJloKoAzV3VHKCgCAxAiAI2aH4ZJkaYPrA0bWfYAhklgDcyAeYmcKegAAAQAASAACQAASAACQAAAAAAAAAAA==
> <PUBCHEM_IUPAC_OPENEYE_NAME>
N-(7-benzyl-2-hydroxy-4-methyl-5,8-dioxo-3-oxa-6,9-diazatricyclo[7.3.0.02,6]dodecan-4-yl)-7-methyl-6,6a,8,9,10,10a-hexahydro-4H-indolo[4,3-fg]quinoline-9-carboxamide;methanesulfonic acid
> <PUBCHEM_IUPAC_CAS_NAME>
N-[2-hydroxy-4-methyl-5,8-dioxo-7-(phenylmethyl)-3-oxa-6,9-diazatricyclo[7.3.0.02,6]dodecan-4-yl]-7-methyl-6,6a,8,9,10,10a-hexahydro-4H-indolo[4,3-fg]quinoline-9-carboxamide;methanesulfonic acid
> <PUBCHEM_IUPAC_NAME_MARKUP>
<I>N</I>-(7-benzyl-2-hydroxy-4-methyl-5,8-dioxo-3-oxa-6,9-diazatricyclo[7.3.0.0<SUP>2,6</SUP>]dodecan-4-yl)-7-methyl-6,6<I>a</I>,8,9,10,10<I>a</I>-hexahydro-4<I>H</I>-indolo[4,3-fg]quinoline-9-carboxamide;methanesulfonic acid
> <PUBCHEM_IUPAC_NAME>
N-(7-benzyl-2-hydroxy-4-methyl-5,8-dioxo-3-oxa-6,9-diazatricyclo[7.3.0.02,6]dodecan-4-yl)-7-methyl-6,6a,8,9,10,10a-hexahydro-4H-indolo[4,3-fg]quinoline-9-carboxamide;methanesulfonic acid
> <PUBCHEM_IUPAC_SYSTEMATIC_NAME>
methanesulfonic acid;7-methyl-N-[4-methyl-2-oxidanyl-5,8-bis(oxidanylidene)-7-(phenylmethyl)-3-oxa-6,9-diazatricyclo[7.3.0.02,6]dodecan-4-yl]-6,6a,8,9,10,10a-hexahydro-4H-indolo[4,3-fg]quinoline-9-carboxamide
> <PUBCHEM_IUPAC_TRADITIONAL_NAME>
N-(7-benzyl-2-hydroxy-5,8-diketo-4-methyl-3-oxa-6,9-diazatricyclo[7.3.0.02,6]dodecan-4-yl)-7-methyl-6,6a,8,9,10,10a-hexahydro-4H-indolo[4,3-fg]quinoline-9-carboxamide;mesylic acid
> <PUBCHEM_IUPAC_INCHI>
InChI=1S/C33H37N5O5.CH4O3S/c1-32(35-29(39)21-15-23-22-10-6-11-24-28(22)20(17-34-24)16-25(23)36(2)18-21)31(41)38-26(14-19-8-4-3-5-9-19)30(40)37-13-7-12-27(37)33(38,42)43-32;1-5(2,3)4/h3-6,8-11,17,21,23,25-27,34,42H,7,12-16,18H2,1-2H3,(H,35,39);1H3,(H,2,3,4)
> <PUBCHEM_IUPAC_INCHIKEY>
ADYPXRFPBQGGAH-UHFFFAOYSA-N
> <PUBCHEM_EXACT_MASS>
679.26758446
> <PUBCHEM_MOLECULAR_FORMULA>
C34H41N5O8S
> <PUBCHEM_MOLECULAR_WEIGHT>
679.8
> <PUBCHEM_OPENEYE_CAN_SMILES>
CC1(C(=O)N2C(C(=O)N3CCCC3C2(O1)O)CC4=CC=CC=C4)NC(=O)C5CC6C(CC7=CNC8=CC=CC6=C78)N(C5)C.CS(=O)(=O)O
> <PUBCHEM_OPENEYE_ISO_SMILES>
CC1(C(=O)N2C(C(=O)N3CCCC3C2(O1)O)CC4=CC=CC=C4)NC(=O)C5CC6C(CC7=CNC8=CC=CC6=C78)N(C5)C.CS(=O)(=O)O
> <PUBCHEM_CACTVS_TPSA>
181
> <PUBCHEM_MONOISOTOPIC_WEIGHT>
679.26758446
> <PUBCHEM_TOTAL_CHARGE>
0
> <PUBCHEM_HEAVY_ATOM_COUNT>
48
> <PUBCHEM_ATOM_DEF_STEREO_COUNT>
0
> <PUBCHEM_ATOM_UDEF_STEREO_COUNT>
7
> <PUBCHEM_BOND_DEF_STEREO_COUNT>
0
> <PUBCHEM_BOND_UDEF_STEREO_COUNT>
0
> <PUBCHEM_ISOTOPIC_ATOM_COUNT>
0
> <PUBCHEM_COMPONENT_COUNT>
2
> <PUBCHEM_CACTVS_TAUTO_COUNT>
4
> <PUBCHEM_COORDINATE_TYPE>
1
5
255
> <PUBCHEM_BONDANNOTATIONS>
14  37  8
14  39  8
15  49  3
17  50  3
19  53  3
20  54  3
21  35  3
22  55  3
16  3  3
30  33  8
30  38  8
33  34  8
33  37  8
34  39  8
37  41  8
38  42  8
40  43  8
40  44  8
41  42  8
43  45  8
44  46  8
45  47  8
46  47  8
$$$$
