517561
  -OEChem-10302200292D
 75 79  0     1  0  0  0  0  0999 V2000
    4.3958   -4.0197    0.0000 N   0  0  0  0  0  0  0  0  0  0  0  0
    3.5298   -2.5197    0.0000 C   0  0  3  0  0  0  0  0  0  0  0  0
    3.5298   -1.5197    0.0000 C   0  0  3  0  0  0  0  0  0  0  0  0
    2.5836   -2.8244    0.0000 C   0  0  3  0  0  0  0  0  0  0  0  0
    3.3208   -3.4920    0.0000 C   0  0  0  0  0  0  0  0  0  0  0  0
    4.3958   -1.0197    0.0000 C   0  0  3  0  0  0  0  0  0  0  0  0
    4.3958   -3.0197    0.0000 C   0  0  3  0  0  0  0  0  0  0  0  0
    5.2619   -1.5197    0.0000 C   0  0  3  0  0  0  0  0  0  0  0  0
    2.5836   -1.2149    0.0000 C   0  0  0  0  0  0  0  0  0  0  0  0
    2.0000   -2.0197    0.0000 C   0  0  0  0  0  0  0  0  0  0  0  0
    5.2619   -2.5197    0.0000 C   0  0  0  0  0  0  0  0  0  0  0  0
    6.1719   -1.0128    0.0000 C   0  0  3  0  0  0  0  0  0  0  0  0
    6.1799    0.0288    0.0000 C   0  0  3  0  0  0  0  0  0  0  0  0
    4.3798    0.0218    0.0000 C   0  0  0  0  0  0  0  0  0  0  0  0
    3.5298   -0.5197    0.0000 C   0  0  0  0  0  0  0  0  0  0  0  0
    5.2778    0.5496    0.0000 C   0  0  0  0  0  0  0  0  0  0  0  0
    7.1679    0.3386    0.0000 C   0  0  3  0  0  0  0  0  0  0  0  0
    7.1550   -1.3378    0.0000 C   0  0  0  0  0  0  0  0  0  0  0  0
    7.7694   -0.5043    0.0000 C   0  0  0  0  0  0  0  0  0  0  0  0
    6.1876    1.0288    0.0000 C   0  0  0  0  0  0  0  0  0  0  0  0
    7.4859    1.2867    0.0000 C   0  0  3  0  0  0  0  0  0  0  0  0
    8.4660    1.4854    0.0000 C   0  0  0  0  0  0  0  0  0  0  0  0
    6.8238    2.0361    0.0000 C   0  0  0  0  0  0  0  0  0  0  0  0
    8.7840    2.4335    0.0000 C   0  0  0  0  0  0  0  0  0  0  0  0
    9.7640    2.6321    0.0000 C   0  0  0  0  0  0  0  0  0  0  0  0
   10.0820    3.5802    0.0000 C   0  0  0  0  0  0  0  0  0  0  0  0
   11.0621    3.7789    0.0000 C   0  0  0  0  0  0  0  0  0  0  0  0
    9.4199    4.3297    0.0000 C   0  0  0  0  0  0  0  0  0  0  0  0
    2.1221   -3.2384    0.0000 H   0  0  0  0  0  0  0  0  0  0  0  0
    2.9908   -4.0169    0.0000 H   0  0  0  0  0  0  0  0  0  0  0  0
    3.8950   -3.7257    0.0000 H   0  0  0  0  0  0  0  0  0  0  0  0
    4.9304   -0.7055    0.0000 H   0  0  0  0  0  0  0  0  0  0  0  0
    4.9328   -3.3297    0.0000 H   0  0  0  0  0  0  0  0  0  0  0  0
    5.7964   -1.8338    0.0000 H   0  0  0  0  0  0  0  0  0  0  0  0
    2.8346   -0.6480    0.0000 H   0  0  0  0  0  0  0  0  0  0  0  0
    2.0462   -0.9057    0.0000 H   0  0  0  0  0  0  0  0  0  0  0  0
    1.5391   -1.6049    0.0000 H   0  0  0  0  0  0  0  0  0  0  0  0
    1.5391   -2.4344    0.0000 H   0  0  0  0  0  0  0  0  0  0  0  0
    5.4739   -3.1023    0.0000 H   0  0  0  0  0  0  0  0  0  0  0  0
    5.8725   -2.4120    0.0000 H   0  0  0  0  0  0  0  0  0  0  0  0
    6.2304   -1.6300    0.0000 H   0  0  0  0  0  0  0  0  0  0  0  0
    4.1618    0.6022    0.0000 H   0  0  0  0  0  0  0  0  0  0  0  0
    3.7706   -0.0936    0.0000 H   0  0  0  0  0  0  0  0  0  0  0  0
    4.1498   -0.5197    0.0000 H   0  0  0  0  0  0  0  0  0  0  0  0
    3.5298    0.1003    0.0000 H   0  0  0  0  0  0  0  0  0  0  0  0
    2.9098   -0.5197    0.0000 H   0  0  0  0  0  0  0  0  0  0  0  0
    5.6751    1.0256    0.0000 H   0  0  0  0  0  0  0  0  0  0  0  0
    4.8769    1.0225    0.0000 H   0  0  0  0  0  0  0  0  0  0  0  0
    7.7812    0.4301    0.0000 H   0  0  0  0  0  0  0  0  0  0  0  0
    6.8996   -1.9028    0.0000 H   0  0  0  0  0  0  0  0  0  0  0  0
    7.6900   -1.6512    0.0000 H   0  0  0  0  0  0  0  0  0  0  0  0
    4.9328   -4.3297    0.0000 H   0  0  0  0  0  0  0  0  0  0  0  0
    3.8589   -4.3297    0.0000 H   0  0  0  0  0  0  0  0  0  0  0  0
    8.2270   -0.9226    0.0000 H   0  0  0  0  0  0  0  0  0  0  0  0
    8.2334   -0.0931    0.0000 H   0  0  0  0  0  0  0  0  0  0  0  0
    6.8076    1.0240    0.0000 H   0  0  0  0  0  0  0  0  0  0  0  0
    6.1924    1.6487    0.0000 H   0  0  0  0  0  0  0  0  0  0  0  0
    5.5676    1.0335    0.0000 H   0  0  0  0  0  0  0  0  0  0  0  0
    6.8783    1.1635    0.0000 H   0  0  0  0  0  0  0  0  0  0  0  0
    8.4818    0.8656    0.0000 H   0  0  0  0  0  0  0  0  0  0  0  0
    9.0791    1.3933    0.0000 H   0  0  0  0  0  0  0  0  0  0  0  0
    7.2885    2.4466    0.0000 H   0  0  0  0  0  0  0  0  0  0  0  0
    6.4133    2.5008    0.0000 H   0  0  0  0  0  0  0  0  0  0  0  0
    6.3592    1.6256    0.0000 H   0  0  0  0  0  0  0  0  0  0  0  0
    8.7682    3.0533    0.0000 H   0  0  0  0  0  0  0  0  0  0  0  0
    8.1708    2.5255    0.0000 H   0  0  0  0  0  0  0  0  0  0  0  0
    9.7798    2.0123    0.0000 H   0  0  0  0  0  0  0  0  0  0  0  0
   10.3772    2.5400    0.0000 H   0  0  0  0  0  0  0  0  0  0  0  0
   10.4925    3.1156    0.0000 H   0  0  0  0  0  0  0  0  0  0  0  0
   11.1853    3.1713    0.0000 H   0  0  0  0  0  0  0  0  0  0  0  0
   11.6697    3.9021    0.0000 H   0  0  0  0  0  0  0  0  0  0  0  0
   10.9389    4.3865    0.0000 H   0  0  0  0  0  0  0  0  0  0  0  0
    9.8846    4.7402    0.0000 H   0  0  0  0  0  0  0  0  0  0  0  0
    9.0094    4.7943    0.0000 H   0  0  0  0  0  0  0  0  0  0  0  0
    8.9553    3.9192    0.0000 H   0  0  0  0  0  0  0  0  0  0  0  0
  1  7  1  0  0  0  0
  1 52  1  0  0  0  0
  1 53  1  0  0  0  0
  2  3  1  0  0  0  0
  2  4  1  0  0  0  0
  2  5  1  0  0  0  0
  2  7  1  0  0  0  0
  3  6  1  0  0  0  0
  3  9  1  0  0  0  0
  3 15  1  0  0  0  0
  4  5  1  0  0  0  0
  4 10  1  0  0  0  0
  4 29  1  0  0  0  0
  5 30  1  0  0  0  0
  5 31  1  0  0  0  0
  6  8  1  0  0  0  0
  6 14  1  0  0  0  0
  6 32  1  0  0  0  0
  7 11  1  0  0  0  0
  7 33  1  0  0  0  0
  8 11  1  0  0  0  0
  8 12  1  0  0  0  0
  8 34  1  0  0  0  0
  9 10  1  0  0  0  0
  9 35  1  0  0  0  0
  9 36  1  0  0  0  0
 10 37  1  0  0  0  0
 10 38  1  0  0  0  0
 11 39  1  0  0  0  0
 11 40  1  0  0  0  0
 12 13  1  0  0  0  0
 12 18  1  0  0  0  0
 12 41  1  0  0  0  0
 13 16  1  0  0  0  0
 13 17  1  0  0  0  0
 13 20  1  0  0  0  0
 14 16  1  0  0  0  0
 14 42  1  0  0  0  0
 14 43  1  0  0  0  0
 15 44  1  0  0  0  0
 15 45  1  0  0  0  0
 15 46  1  0  0  0  0
 16 47  1  0  0  0  0
 16 48  1  0  0  0  0
 17 19  1  0  0  0  0
 17 21  1  0  0  0  0
 17 49  1  0  0  0  0
 18 19  1  0  0  0  0
 18 50  1  0  0  0  0
 18 51  1  0  0  0  0
 19 54  1  0  0  0  0
 19 55  1  0  0  0  0
 20 56  1  0  0  0  0
 20 57  1  0  0  0  0
 20 58  1  0  0  0  0
 21 22  1  0  0  0  0
 21 23  1  0  0  0  0
 21 59  1  0  0  0  0
 22 24  1  0  0  0  0
 22 60  1  0  0  0  0
 22 61  1  0  0  0  0
 23 62  1  0  0  0  0
 23 63  1  0  0  0  0
 23 64  1  0  0  0  0
 24 25  1  0  0  0  0
 24 65  1  0  0  0  0
 24 66  1  0  0  0  0
 25 26  1  0  0  0  0
 25 67  1  0  0  0  0
 25 68  1  0  0  0  0
 26 27  1  0  0  0  0
 26 28  1  0  0  0  0
 26 69  1  0  0  0  0
 27 70  1  0  0  0  0
 27 71  1  0  0  0  0
 27 72  1  0  0  0  0
 28 73  1  0  0  0  0
 28 74  1  0  0  0  0
 28 75  1  0  0  0  0
M  END
> <PUBCHEM_COMPOUND_CID>
517561
> <PUBCHEM_COMPOUND_CANONICALIZED>
1
> <PUBCHEM_CACTVS_COMPLEXITY>
611
> <PUBCHEM_CACTVS_HBOND_ACCEPTOR>
1
> <PUBCHEM_CACTVS_HBOND_DONOR>
1
> <PUBCHEM_CACTVS_ROTATABLE_BOND>
5
> <PUBCHEM_CACTVS_SUBSKEYS>
AAADcfB6AAAAAAAAAAAAAAAAGAAAAYMAAAAwYMAAAAAAAGDAAAAAHAAQAAAADyjBAAQCAABAAAAAAAAAAAAAAAAAAAAAAIAAAAAAAAIAgAAAAAAAEAAAAAEQgMAPgAAAAAAAAACQAASAACQAAQAACAAAAA==
> <PUBCHEM_IUPAC_OPENEYE_NAME>
14-(1,5-dimethylhexyl)-2,15-dimethyl-pentacyclo[8.7.0.02,7.05,7.011,15]heptadecan-8-amine
> <PUBCHEM_IUPAC_CAS_NAME>
2,15-dimethyl-14-(6-methylheptan-2-yl)-8-pentacyclo[8.7.0.02,7.05,7.011,15]heptadecanamine
> <PUBCHEM_IUPAC_NAME_MARKUP>
2,15-dimethyl-14-(6-methylheptan-2-yl)pentacyclo[8.7.0.0<SUP>2,7</SUP>.0<SUP>5,7</SUP>.0<SUP>11,15</SUP>]heptadecan-8-amine
> <PUBCHEM_IUPAC_NAME>
2,15-dimethyl-14-(6-methylheptan-2-yl)pentacyclo[8.7.0.02,7.05,7.011,15]heptadecan-8-amine
> <PUBCHEM_IUPAC_SYSTEMATIC_NAME>
2,15-dimethyl-14-(6-methylheptan-2-yl)pentacyclo[8.7.0.02,7.05,7.011,15]heptadecan-8-amine
> <PUBCHEM_IUPAC_TRADITIONAL_NAME>
[14-(1,5-dimethylhexyl)-2,15-dimethyl-8-pentacyclo[8.7.0.02,7.05,7.011,15]heptadecanyl]amine
> <PUBCHEM_IUPAC_INCHI>
InChI=1S/C27H47N/c1-17(2)7-6-8-18(3)21-9-10-22-20-15-24(28)27-16-19(27)11-14-26(27,5)23(20)12-13-25(21,22)4/h17-24H,6-16,28H2,1-5H3
> <PUBCHEM_IUPAC_INCHIKEY>
KOZZKBRUPARIFQ-UHFFFAOYSA-N
> <PUBCHEM_XLOGP3_AA>
8.6
> <PUBCHEM_EXACT_MASS>
385.370850503
> <PUBCHEM_MOLECULAR_FORMULA>
C27H47N
> <PUBCHEM_MOLECULAR_WEIGHT>
385.7
> <PUBCHEM_OPENEYE_CAN_SMILES>
CC(C)CCCC(C)C1CCC2C1(CCC3C2CC(C45C3(CCC4C5)C)N)C
> <PUBCHEM_OPENEYE_ISO_SMILES>
CC(C)CCCC(C)C1CCC2C1(CCC3C2CC(C45C3(CCC4C5)C)N)C
> <PUBCHEM_CACTVS_TPSA>
26
> <PUBCHEM_MONOISOTOPIC_WEIGHT>
385.370850503
> <PUBCHEM_TOTAL_CHARGE>
0
> <PUBCHEM_HEAVY_ATOM_COUNT>
28
> <PUBCHEM_ATOM_DEF_STEREO_COUNT>
0
> <PUBCHEM_ATOM_UDEF_STEREO_COUNT>
10
> <PUBCHEM_BOND_DEF_STEREO_COUNT>
0
> <PUBCHEM_BOND_UDEF_STEREO_COUNT>
0
> <PUBCHEM_ISOTOPIC_ATOM_COUNT>
0
> <PUBCHEM_COMPONENT_COUNT>
1
> <PUBCHEM_CACTVS_TAUTO_COUNT>
-1
> <PUBCHEM_COORDINATE_TYPE>
1
5
255
> <PUBCHEM_BONDANNOTATIONS>
7  1  3
12  18  3
13  20  3
17  19  3
2  5  3
21  23  3
3  15  3
4  10  3
6  14  3
8  11  3
$$$$
