517558
  -OEChem-10302200292D
 59 58  0     1  0  0  0  0  0999 V2000
    8.8070    0.8660    0.0000 S   0  0  0  0  0  0  0  0  0  0  0  0
    7.9409    0.3660    0.0000 O   0  5  0  0  0  0  0  0  0  0  0  0
    8.3070    1.7320    0.0000 O   0  5  0  0  0  0  0  0  0  0  0  0
    9.6730    1.3660    0.0000 O   0  0  0  0  0  0  0  0  0  0  0  0
    9.3070    0.0000    0.0000 O   0  0  0  0  0  0  0  0  0  0  0  0
    3.1350    6.9860    0.0000 N   0  3  0  0  0  0  0  0  0  0  0  0
    9.6730    8.8520    0.0000 N   0  3  0  0  0  0  0  0  0  0  0  0
    3.1350    5.9860    0.0000 C   0  0  3  0  0  0  0  0  0  0  0  0
    9.6730    7.8520    0.0000 C   0  0  3  0  0  0  0  0  0  0  0  0
    2.2690    5.4860    0.0000 C   0  0  0  0  0  0  0  0  0  0  0  0
    8.8070    7.3520    0.0000 C   0  0  0  0  0  0  0  0  0  0  0  0
    2.2690    4.4860    0.0000 C   0  0  0  0  0  0  0  0  0  0  0  0
    8.8070    6.3520    0.0000 C   0  0  0  0  0  0  0  0  0  0  0  0
    4.0010    5.4860    0.0000 C   0  0  0  0  0  0  0  0  0  0  0  0
   10.5390    7.3520    0.0000 C   0  0  0  0  0  0  0  0  0  0  0  0
    1.4030    3.9860    0.0000 C   0  0  0  0  0  0  0  0  0  0  0  0
    7.9409    5.8520    0.0000 C   0  0  0  0  0  0  0  0  0  0  0  0
    3.1350    3.9860    0.0000 C   0  0  0  0  0  0  0  0  0  0  0  0
    9.6730    5.8520    0.0000 C   0  0  0  0  0  0  0  0  0  0  0  0
    1.4030    2.9860    0.0000 C   0  0  0  0  0  0  0  0  0  0  0  0
    7.9409    4.8520    0.0000 C   0  0  0  0  0  0  0  0  0  0  0  0
    0.5369    4.4860    0.0000 C   0  0  0  0  0  0  0  0  0  0  0  0
    7.0749    6.3520    0.0000 C   0  0  0  0  0  0  0  0  0  0  0  0
    3.1350    2.9860    0.0000 C   0  0  0  0  0  0  0  0  0  0  0  0
    9.6730    4.8520    0.0000 C   0  0  0  0  0  0  0  0  0  0  0  0
    2.2690    2.4860    0.0000 C   0  0  0  0  0  0  0  0  0  0  0  0
    8.8070    4.3520    0.0000 C   0  0  0  0  0  0  0  0  0  0  0  0
    2.5981    6.2960    0.0000 H   0  0  0  0  0  0  0  0  0  0  0  0
    9.1360    8.1620    0.0000 H   0  0  0  0  0  0  0  0  0  0  0  0
    2.0569    6.0686    0.0000 H   0  0  0  0  0  0  0  0  0  0  0  0
    1.6584    5.3784    0.0000 H   0  0  0  0  0  0  0  0  0  0  0  0
    8.5949    7.9347    0.0000 H   0  0  0  0  0  0  0  0  0  0  0  0
    8.1964    7.2444    0.0000 H   0  0  0  0  0  0  0  0  0  0  0  0
    3.1350    7.6060    0.0000 H   0  0  0  0  0  0  0  0  0  0  0  0
    3.7550    6.9860    0.0000 H   0  0  0  0  0  0  0  0  0  0  0  0
    2.5150    6.9860    0.0000 H   0  0  0  0  0  0  0  0  0  0  0  0
    9.6730    9.4720    0.0000 H   0  0  0  0  0  0  0  0  0  0  0  0
   10.2930    8.8520    0.0000 H   0  0  0  0  0  0  0  0  0  0  0  0
    9.0530    8.8520    0.0000 H   0  0  0  0  0  0  0  0  0  0  0  0
    3.6910    4.9491    0.0000 H   0  0  0  0  0  0  0  0  0  0  0  0
    4.5380    5.1760    0.0000 H   0  0  0  0  0  0  0  0  0  0  0  0
    4.3110    6.0230    0.0000 H   0  0  0  0  0  0  0  0  0  0  0  0
   10.2290    6.8151    0.0000 H   0  0  0  0  0  0  0  0  0  0  0  0
   11.0759    7.0420    0.0000 H   0  0  0  0  0  0  0  0  0  0  0  0
   10.8490    7.8890    0.0000 H   0  0  0  0  0  0  0  0  0  0  0  0
    3.6720    4.2960    0.0000 H   0  0  0  0  0  0  0  0  0  0  0  0
   10.2099    6.1620    0.0000 H   0  0  0  0  0  0  0  0  0  0  0  0
    0.8660    2.6760    0.0000 H   0  0  0  0  0  0  0  0  0  0  0  0
    7.4040    4.5420    0.0000 H   0  0  0  0  0  0  0  0  0  0  0  0
    0.8469    5.0230    0.0000 H   0  0  0  0  0  0  0  0  0  0  0  0
    0.0000    4.7960    0.0000 H   0  0  0  0  0  0  0  0  0  0  0  0
    0.2269    3.9491    0.0000 H   0  0  0  0  0  0  0  0  0  0  0  0
    7.3849    6.8890    0.0000 H   0  0  0  0  0  0  0  0  0  0  0  0
    6.5380    6.6620    0.0000 H   0  0  0  0  0  0  0  0  0  0  0  0
    6.7649    5.8151    0.0000 H   0  0  0  0  0  0  0  0  0  0  0  0
    3.6720    2.6760    0.0000 H   0  0  0  0  0  0  0  0  0  0  0  0
   10.2099    4.5420    0.0000 H   0  0  0  0  0  0  0  0  0  0  0  0
    2.2690    1.8660    0.0000 H   0  0  0  0  0  0  0  0  0  0  0  0
    8.8070    3.7320    0.0000 H   0  0  0  0  0  0  0  0  0  0  0  0
  1  2  1  0  0  0  0
  1  3  1  0  0  0  0
  1  4  2  0  0  0  0
  1  5  2  0  0  0  0
  6  8  1  0  0  0  0
  6 34  1  0  0  0  0
  6 35  1  0  0  0  0
  6 36  1  0  0  0  0
  7  9  1  0  0  0  0
  7 37  1  0  0  0  0
  7 38  1  0  0  0  0
  7 39  1  0  0  0  0
  8 10  1  0  0  0  0
  8 14  1  0  0  0  0
  8 28  1  0  0  0  0
  9 11  1  0  0  0  0
  9 15  1  0  0  0  0
  9 29  1  0  0  0  0
 10 12  1  0  0  0  0
 10 30  1  0  0  0  0
 10 31  1  0  0  0  0
 11 13  1  0  0  0  0
 11 32  1  0  0  0  0
 11 33  1  0  0  0  0
 12 16  1  0  0  0  0
 12 18  2  0  0  0  0
 13 17  1  0  0  0  0
 13 19  2  0  0  0  0
 14 40  1  0  0  0  0
 14 41  1  0  0  0  0
 14 42  1  0  0  0  0
 15 43  1  0  0  0  0
 15 44  1  0  0  0  0
 15 45  1  0  0  0  0
 16 20  2  0  0  0  0
 16 22  1  0  0  0  0
 17 21  2  0  0  0  0
 17 23  1  0  0  0  0
 18 24  1  0  0  0  0
 18 46  1  0  0  0  0
 19 25  1  0  0  0  0
 19 47  1  0  0  0  0
 20 26  1  0  0  0  0
 20 48  1  0  0  0  0
 21 27  1  0  0  0  0
 21 49  1  0  0  0  0
 22 50  1  0  0  0  0
 22 51  1  0  0  0  0
 22 52  1  0  0  0  0
 23 53  1  0  0  0  0
 23 54  1  0  0  0  0
 23 55  1  0  0  0  0
 24 26  2  0  0  0  0
 24 56  1  0  0  0  0
 25 27  2  0  0  0  0
 25 57  1  0  0  0  0
 26 58  1  0  0  0  0
 27 59  1  0  0  0  0
M  CHG  4   2  -1   3  -1   6   1   7   1
M  END
> <PUBCHEM_COMPOUND_CID>
517558
> <PUBCHEM_COMPOUND_CANONICALIZED>
1
> <PUBCHEM_CACTVS_COMPLEXITY>
174
> <PUBCHEM_CACTVS_HBOND_ACCEPTOR>
4
> <PUBCHEM_CACTVS_HBOND_DONOR>
2
> <PUBCHEM_CACTVS_ROTATABLE_BOND>
4
> <PUBCHEM_CACTVS_SUBSKEYS>
AAADcfB7OABAAAAAAAAAAAAAAAAAAAAAAAAwYAAAAAAAAAABQAAAHAAQAAAADCjBGAQyAIBAAACAAiBCADACAAAgAAAIiIAAAIgIICKAkRGAIAAgkAAIiAcQgIAOgAAAAAAQAAAAAAAAACAAAAAAAAAAAA==
> <PUBCHEM_IUPAC_OPENEYE_NAME>
[1-methyl-2-(o-tolyl)ethyl]ammonium;sulfate
> <PUBCHEM_IUPAC_CAS_NAME>
1-(2-methylphenyl)propan-2-ylammonium;sulfate
> <PUBCHEM_IUPAC_NAME_MARKUP>
1-(2-methylphenyl)propan-2-ylazanium;sulfate
> <PUBCHEM_IUPAC_NAME>
1-(2-methylphenyl)propan-2-ylazanium;sulfate
> <PUBCHEM_IUPAC_SYSTEMATIC_NAME>
1-(2-methylphenyl)propan-2-ylazanium;sulfate
> <PUBCHEM_IUPAC_TRADITIONAL_NAME>
[1-methyl-2-(o-tolyl)ethyl]ammonium;sulfate
> <PUBCHEM_IUPAC_INCHI>
InChI=1S/2C10H15N.H2O4S/c2*1-8-5-3-4-6-10(8)7-9(2)11;1-5(2,3)4/h2*3-6,9H,7,11H2,1-2H3;(H2,1,2,3,4)
> <PUBCHEM_IUPAC_INCHIKEY>
NAUSGXNUKIUWFW-UHFFFAOYSA-N
> <PUBCHEM_EXACT_MASS>
396.20827868
> <PUBCHEM_MOLECULAR_FORMULA>
C20H32N2O4S
> <PUBCHEM_MOLECULAR_WEIGHT>
396.5
> <PUBCHEM_OPENEYE_CAN_SMILES>
CC1=CC=CC=C1CC(C)[NH3+].CC1=CC=CC=C1CC(C)[NH3+].[O-]S(=O)(=O)[O-]
> <PUBCHEM_OPENEYE_ISO_SMILES>
CC1=CC=CC=C1CC(C)[NH3+].CC1=CC=CC=C1CC(C)[NH3+].[O-]S(=O)(=O)[O-]
> <PUBCHEM_CACTVS_TPSA>
144
> <PUBCHEM_MONOISOTOPIC_WEIGHT>
396.20827868
> <PUBCHEM_TOTAL_CHARGE>
0
> <PUBCHEM_HEAVY_ATOM_COUNT>
27
> <PUBCHEM_ATOM_DEF_STEREO_COUNT>
0
> <PUBCHEM_ATOM_UDEF_STEREO_COUNT>
2
> <PUBCHEM_BOND_DEF_STEREO_COUNT>
0
> <PUBCHEM_BOND_UDEF_STEREO_COUNT>
0
> <PUBCHEM_ISOTOPIC_ATOM_COUNT>
0
> <PUBCHEM_COMPONENT_COUNT>
3
> <PUBCHEM_CACTVS_TAUTO_COUNT>
-1
> <PUBCHEM_COORDINATE_TYPE>
1
5
255
> <PUBCHEM_BONDANNOTATIONS>
12  16  8
12  18  8
13  17  8
13  19  8
16  20  8
17  21  8
18  24  8
19  25  8
20  26  8
21  27  8
24  26  8
25  27  8
8  6  3
9  7  3
$$$$
