517513
  -OEChem-10302200292D
 55 57  0     1  0  0  0  0  0999 V2000
    3.4371    0.3100    0.0000 O   0  0  0  0  0  0  0  0  0  0  0  0
    4.3031    2.8100    0.0000 O   0  0  0  0  0  0  0  0  0  0  0  0
    1.7050    1.3100    0.0000 O   0  0  0  0  0  0  0  0  0  0  0  0
    2.5711    2.8100    0.0000 O   0  0  0  0  0  0  0  0  0  0  0  0
    6.0352    1.8100    0.0000 O   0  5  0  0  0  0  0  0  0  0  0  0
    5.1692    0.3100    0.0000 O   0  0  0  0  0  0  0  0  0  0  0  0
    5.6607    6.9328    0.0000 N   0  3  3  0  0  0  0  0  0  0  0  0
    3.9423    7.4692    0.0000 C   0  0  0  0  0  0  0  0  0  0  0  0
    3.1333    8.0570    0.0000 C   0  0  3  0  0  0  0  0  0  0  0  0
    4.9577    7.7015    0.0000 C   0  0  0  0  0  0  0  0  0  0  0  0
    3.6333    6.5182    0.0000 C   0  0  0  0  0  0  0  0  0  0  0  0
    5.3388    5.9421    0.0000 C   0  0  0  0  0  0  0  0  0  0  0  0
    4.3183    5.7334    0.0000 C   0  0  0  0  0  0  0  0  0  0  0  0
    2.3243    7.4692    0.0000 C   0  0  0  0  0  0  0  0  0  0  0  0
    2.6333    6.5182    0.0000 C   0  0  0  0  0  0  0  0  0  0  0  0
    6.6129    6.6274    0.0000 C   0  0  0  0  0  0  0  0  0  0  0  0
    3.1333    9.0570    0.0000 C   0  0  0  0  0  0  0  0  0  0  0  0
    1.3089    7.7015    0.0000 C   0  0  0  0  0  0  0  0  0  0  0  0
    1.9483    5.7334    0.0000 C   0  0  0  0  0  0  0  0  0  0  0  0
    2.2673    9.5570    0.0000 C   0  0  0  0  0  0  0  0  0  0  0  0
    3.9993    9.5570    0.0000 C   0  0  0  0  0  0  0  0  0  0  0  0
    0.6060    6.9328    0.0000 C   0  0  0  0  0  0  0  0  0  0  0  0
    0.9278    5.9421    0.0000 C   0  0  0  0  0  0  0  0  0  0  0  0
    2.2673   10.5570    0.0000 C   0  0  0  0  0  0  0  0  0  0  0  0
    3.9993   10.5570    0.0000 C   0  0  0  0  0  0  0  0  0  0  0  0
    3.1333   11.0570    0.0000 C   0  0  0  0  0  0  0  0  0  0  0  0
    3.4371    1.3100    0.0000 C   0  0  3  0  0  0  0  0  0  0  0  0
    4.3031    1.8100    0.0000 C   0  0  3  0  0  0  0  0  0  0  0  0
    2.5711    1.8100    0.0000 C   0  0  0  0  0  0  0  0  0  0  0  0
    5.1692    1.3100    0.0000 C   0  0  0  0  0  0  0  0  0  0  0  0
    6.1198    7.3494    0.0000 H   0  0  0  0  0  0  0  0  0  0  0  0
    3.6857    8.3385    0.0000 H   0  0  0  0  0  0  0  0  0  0  0  0
    5.4801    8.0354    0.0000 H   0  0  0  0  0  0  0  0  0  0  0  0
    4.7181    8.2733    0.0000 H   0  0  0  0  0  0  0  0  0  0  0  0
    5.3572    5.3224    0.0000 H   0  0  0  0  0  0  0  0  0  0  0  0
    5.9525    5.8543    0.0000 H   0  0  0  0  0  0  0  0  0  0  0  0
    3.7883    5.4116    0.0000 H   0  0  0  0  0  0  0  0  0  0  0  0
    4.5446    5.1562    0.0000 H   0  0  0  0  0  0  0  0  0  0  0  0
    6.4236    6.0370    0.0000 H   0  0  0  0  0  0  0  0  0  0  0  0
    7.2033    6.4381    0.0000 H   0  0  0  0  0  0  0  0  0  0  0  0
    6.8022    7.2178    0.0000 H   0  0  0  0  0  0  0  0  0  0  0  0
    1.1241    8.2933    0.0000 H   0  0  0  0  0  0  0  0  0  0  0  0
    2.1467    5.1460    0.0000 H   0  0  0  0  0  0  0  0  0  0  0  0
    1.7304    9.2470    0.0000 H   0  0  0  0  0  0  0  0  0  0  0  0
    4.5363    9.2470    0.0000 H   0  0  0  0  0  0  0  0  0  0  0  0
    0.0000    7.0640    0.0000 H   0  0  0  0  0  0  0  0  0  0  0  0
    0.5148    5.4798    0.0000 H   0  0  0  0  0  0  0  0  0  0  0  0
    1.7304   10.8670    0.0000 H   0  0  0  0  0  0  0  0  0  0  0  0
    4.5363   10.8670    0.0000 H   0  0  0  0  0  0  0  0  0  0  0  0
    3.1333   11.6770    0.0000 H   0  0  0  0  0  0  0  0  0  0  0  0
    3.9740    1.0000    0.0000 H   0  0  0  0  0  0  0  0  0  0  0  0
    4.8401    2.1200    0.0000 H   0  0  0  0  0  0  0  0  0  0  0  0
    2.9002    0.0000    0.0000 H   0  0  0  0  0  0  0  0  0  0  0  0
    4.8401    3.1200    0.0000 H   0  0  0  0  0  0  0  0  0  0  0  0
    1.1681    1.6200    0.0000 H   0  0  0  0  0  0  0  0  0  0  0  0
  1 27  1  0  0  0  0
  1 53  1  0  0  0  0
  2 28  1  0  0  0  0
  2 54  1  0  0  0  0
  3 29  1  0  0  0  0
  3 55  1  0  0  0  0
  4 29  2  0  0  0  0
  5 30  1  0  0  0  0
  6 30  2  0  0  0  0
  7 10  1  0  0  0  0
  7 12  1  0  0  0  0
  7 16  1  0  0  0  0
  7 31  1  0  0  0  0
  8  9  1  0  0  0  0
  8 10  1  0  0  0  0
  8 11  2  0  0  0  0
  9 14  1  0  0  0  0
  9 17  1  0  0  0  0
  9 32  1  0  0  0  0
 10 33  1  0  0  0  0
 10 34  1  0  0  0  0
 11 13  1  0  0  0  0
 11 15  1  0  0  0  0
 12 13  1  0  0  0  0
 12 35  1  0  0  0  0
 12 36  1  0  0  0  0
 13 37  1  0  0  0  0
 13 38  1  0  0  0  0
 14 15  1  0  0  0  0
 14 18  2  0  0  0  0
 15 19  2  0  0  0  0
 16 39  1  0  0  0  0
 16 40  1  0  0  0  0
 16 41  1  0  0  0  0
 17 20  2  0  0  0  0
 17 21  1  0  0  0  0
 18 22  1  0  0  0  0
 18 42  1  0  0  0  0
 19 23  1  0  0  0  0
 19 43  1  0  0  0  0
 20 24  1  0  0  0  0
 20 44  1  0  0  0  0
 21 25  2  0  0  0  0
 21 45  1  0  0  0  0
 22 23  2  0  0  0  0
 22 46  1  0  0  0  0
 23 47  1  0  0  0  0
 24 26  2  0  0  0  0
 24 48  1  0  0  0  0
 25 26  1  0  0  0  0
 25 49  1  0  0  0  0
 26 50  1  0  0  0  0
 27 28  1  0  0  0  0
 27 29  1  0  0  0  0
 27 51  1  0  0  0  0
 28 30  1  0  0  0  0
 28 52  1  0  0  0  0
M  CHG  2   5  -1   7   1
M  END
> <PUBCHEM_COMPOUND_CID>
517513
> <PUBCHEM_COMPOUND_CANONICALIZED>
1
> <PUBCHEM_CACTVS_COMPLEXITY>
537
> <PUBCHEM_CACTVS_HBOND_ACCEPTOR>
6
> <PUBCHEM_CACTVS_HBOND_DONOR>
4
> <PUBCHEM_CACTVS_ROTATABLE_BOND>
3
> <PUBCHEM_CACTVS_SUBSKEYS>
AAADceB6OAAAAAAAAAAAAAAAAAAAAQAAAAAwYIAAAAAAAFgBQAAAHgAQCAAADRThmAYyCIPAAgCIAiDSCAKCAAAgAAAIiIFIAIgJMDaAkRCEYAAlsACJiAdTgMAOgAAAAAAQAAAAAAAAACAAAAAAAAAAAA==
> <PUBCHEM_IUPAC_OPENEYE_NAME>
2-methyl-9-phenyl-2,3,4,9-tetrahydro-1H-indeno[2,1-c]pyridin-2-ium;2,3,4-trihydroxy-4-oxo-butanoate
> <PUBCHEM_IUPAC_CAS_NAME>
2-methyl-9-phenyl-2,3,4,9-tetrahydro-1H-indeno[2,1-c]pyridin-2-ium;2,3,4-trihydroxy-4-oxobutanoate
> <PUBCHEM_IUPAC_NAME_MARKUP>
2-methyl-9-phenyl-2,3,4,9-tetrahydro-1<I>H</I>-indeno[2,1-c]pyridin-2-ium;2,3,4-trihydroxy-4-oxobutanoate
> <PUBCHEM_IUPAC_NAME>
2-methyl-9-phenyl-2,3,4,9-tetrahydro-1H-indeno[2,1-c]pyridin-2-ium;2,3,4-trihydroxy-4-oxobutanoate
> <PUBCHEM_IUPAC_SYSTEMATIC_NAME>
2-methyl-9-phenyl-2,3,4,9-tetrahydro-1H-indeno[2,1-c]pyridin-2-ium;2,3,4-tris(oxidanyl)-4-oxidanylidene-butanoate
> <PUBCHEM_IUPAC_TRADITIONAL_NAME>
2-methyl-9-phenyl-2,3,4,9-tetrahydro-1H-indeno[2,1-c]pyridin-2-ium;2,3,4-trihydroxy-4-keto-butyrate
> <PUBCHEM_IUPAC_INCHI>
InChI=1S/C19H19N.C4H6O6/c1-20-12-11-16-15-9-5-6-10-17(15)19(18(16)13-20)14-7-3-2-4-8-14;5-1(3(7)8)2(6)4(9)10/h2-10,19H,11-13H2,1H3;1-2,5-6H,(H,7,8)(H,9,10)
> <PUBCHEM_IUPAC_INCHIKEY>
WFXURHIXPXVPGM-UHFFFAOYSA-N
> <PUBCHEM_EXACT_MASS>
411.16818752
> <PUBCHEM_MOLECULAR_FORMULA>
C23H25NO6
> <PUBCHEM_MOLECULAR_WEIGHT>
411.4
> <PUBCHEM_OPENEYE_CAN_SMILES>
C[NH+]1CCC2=C(C1)C(C3=CC=CC=C23)C4=CC=CC=C4.C(C(C(=O)[O-])O)(C(=O)O)O
> <PUBCHEM_OPENEYE_ISO_SMILES>
C[NH+]1CCC2=C(C1)C(C3=CC=CC=C23)C4=CC=CC=C4.C(C(C(=O)[O-])O)(C(=O)O)O
> <PUBCHEM_CACTVS_TPSA>
122
> <PUBCHEM_MONOISOTOPIC_WEIGHT>
411.16818752
> <PUBCHEM_TOTAL_CHARGE>
0
> <PUBCHEM_HEAVY_ATOM_COUNT>
30
> <PUBCHEM_ATOM_DEF_STEREO_COUNT>
0
> <PUBCHEM_ATOM_UDEF_STEREO_COUNT>
3
> <PUBCHEM_BOND_DEF_STEREO_COUNT>
0
> <PUBCHEM_BOND_UDEF_STEREO_COUNT>
0
> <PUBCHEM_ISOTOPIC_ATOM_COUNT>
0
> <PUBCHEM_COMPONENT_COUNT>
2
> <PUBCHEM_CACTVS_TAUTO_COUNT>
-1
> <PUBCHEM_COORDINATE_TYPE>
1
5
255
> <PUBCHEM_BONDANNOTATIONS>
27  1  3
14  15  8
14  18  8
15  19  8
17  20  8
17  21  8
18  22  8
19  23  8
28  2  3
20  24  8
21  25  8
22  23  8
24  26  8
25  26  8
9  17  3
$$$$
