517536
  -OEChem-10302200292D
 28 27  0     1  0  0  0  0  0999 V2000
    2.2388    0.0000    0.0000 Cl  0  0  0  0  0  0  0  0  0  0  0  0
    0.6106    5.8100    0.0000 O   0  0  0  0  0  0  0  0  0  0  0  0
    0.6106    2.8100    0.0000 O   0  0  0  0  0  0  0  0  0  0  0  0
    4.9407    4.3100    0.0000 O   0  0  0  0  0  0  0  0  0  0  0  0
    2.3426    3.8100    0.0000 N   0  0  0  0  0  0  0  0  0  0  0  0
    1.4766    4.3100    0.0000 C   0  0  3  0  0  0  0  0  0  0  0  0
    3.2087    4.3100    0.0000 C   0  0  3  0  0  0  0  0  0  0  0  0
    1.4766    5.3100    0.0000 C   0  0  3  0  0  0  0  0  0  0  0  0
    3.2087    5.3100    0.0000 C   0  0  0  0  0  0  0  0  0  0  0  0
    2.3426    5.8100    0.0000 C   0  0  0  0  0  0  0  0  0  0  0  0
    0.6106    3.8100    0.0000 C   0  0  0  0  0  0  0  0  0  0  0  0
    4.0747    3.8100    0.0000 C   0  0  0  0  0  0  0  0  0  0  0  0
    1.4766    3.6900    0.0000 H   0  0  0  0  0  0  0  0  0  0  0  0
    3.2087    3.6900    0.0000 H   0  0  0  0  0  0  0  0  0  0  0  0
    1.4766    5.9300    0.0000 H   0  0  0  0  0  0  0  0  0  0  0  0
    3.8192    5.2023    0.0000 H   0  0  0  0  0  0  0  0  0  0  0  0
    3.4207    5.8926    0.0000 H   0  0  0  0  0  0  0  0  0  0  0  0
    2.7412    6.2850    0.0000 H   0  0  0  0  0  0  0  0  0  0  0  0
    1.9441    6.2850    0.0000 H   0  0  0  0  0  0  0  0  0  0  0  0
    2.3426    3.1900    0.0000 H   0  0  0  0  0  0  0  0  0  0  0  0
    0.3985    4.3926    0.0000 H   0  0  0  0  0  0  0  0  0  0  0  0
    0.0000    3.7023    0.0000 H   0  0  0  0  0  0  0  0  0  0  0  0
    3.6762    3.3350    0.0000 H   0  0  0  0  0  0  0  0  0  0  0  0
    4.4732    3.3350    0.0000 H   0  0  0  0  0  0  0  0  0  0  0  0
    0.6106    6.4300    0.0000 H   0  0  0  0  0  0  0  0  0  0  0  0
    0.0736    2.5000    0.0000 H   0  0  0  0  0  0  0  0  0  0  0  0
    5.4776    4.0000    0.0000 H   0  0  0  0  0  0  0  0  0  0  0  0
    3.2388    0.0000    0.0000 H   0  0  0  0  0  0  0  0  0  0  0  0
  1 28  1  0  0  0  0
  2  8  1  0  0  0  0
  2 25  1  0  0  0  0
  3 11  1  0  0  0  0
  3 26  1  0  0  0  0
  4 12  1  0  0  0  0
  4 27  1  0  0  0  0
  5  6  1  0  0  0  0
  5  7  1  0  0  0  0
  5 20  1  0  0  0  0
  6  8  1  0  0  0  0
  6 11  1  0  0  0  0
  6 13  1  0  0  0  0
  7  9  1  0  0  0  0
  7 12  1  0  0  0  0
  7 14  1  0  0  0  0
  8 10  1  0  0  0  0
  8 15  1  0  0  0  0
  9 10  1  0  0  0  0
  9 16  1  0  0  0  0
  9 17  1  0  0  0  0
 10 18  1  0  0  0  0
 10 19  1  0  0  0  0
 11 21  1  0  0  0  0
 11 22  1  0  0  0  0
 12 23  1  0  0  0  0
 12 24  1  0  0  0  0
M  END
> <PUBCHEM_COMPOUND_CID>
517536
> <PUBCHEM_COMPOUND_CANONICALIZED>
1
> <PUBCHEM_CACTVS_COMPLEXITY>
120
> <PUBCHEM_CACTVS_HBOND_ACCEPTOR>
4
> <PUBCHEM_CACTVS_HBOND_DONOR>
5
> <PUBCHEM_CACTVS_ROTATABLE_BOND>
2
> <PUBCHEM_CACTVS_SUBSKEYS>
AAADceBiMAAEAAAAAAAAAAAAAAAAAAAAAAAsAAAAAAAAAAAAAAAAHgAQCAAACDzhgAYAAALAAgAAAAAAAAAAAAAAAAAAAIAIAAACEAIAgAAEQAAFEACQAAGw4CQAAAAAAAAAAAAAAAAAAAAAAAAAAAAAAA==
> <PUBCHEM_IUPAC_OPENEYE_NAME>
2,6-bis(hydroxymethyl)piperidin-3-ol;hydrochloride
> <PUBCHEM_IUPAC_CAS_NAME>
2,6-bis(hydroxymethyl)-3-piperidinol;hydrochloride
> <PUBCHEM_IUPAC_NAME_MARKUP>
2,6-bis(hydroxymethyl)piperidin-3-ol;hydrochloride
> <PUBCHEM_IUPAC_NAME>
2,6-bis(hydroxymethyl)piperidin-3-ol;hydrochloride
> <PUBCHEM_IUPAC_SYSTEMATIC_NAME>
2,6-bis(hydroxymethyl)piperidin-3-ol;hydrochloride
> <PUBCHEM_IUPAC_TRADITIONAL_NAME>
2,6-dimethylolpiperidin-3-ol;hydrochloride
> <PUBCHEM_IUPAC_INCHI>
InChI=1S/C7H15NO3.ClH/c9-3-5-1-2-7(11)6(4-10)8-5;/h5-11H,1-4H2;1H
> <PUBCHEM_IUPAC_INCHIKEY>
VTAWVFQJXZUCNK-UHFFFAOYSA-N
> <PUBCHEM_EXACT_MASS>
197.0818711
> <PUBCHEM_MOLECULAR_FORMULA>
C7H16ClNO3
> <PUBCHEM_MOLECULAR_WEIGHT>
197.66
> <PUBCHEM_OPENEYE_CAN_SMILES>
C1CC(C(NC1CO)CO)O.Cl
> <PUBCHEM_OPENEYE_ISO_SMILES>
C1CC(C(NC1CO)CO)O.Cl
> <PUBCHEM_CACTVS_TPSA>
72.7
> <PUBCHEM_MONOISOTOPIC_WEIGHT>
197.0818711
> <PUBCHEM_TOTAL_CHARGE>
0
> <PUBCHEM_HEAVY_ATOM_COUNT>
12
> <PUBCHEM_ATOM_DEF_STEREO_COUNT>
0
> <PUBCHEM_ATOM_UDEF_STEREO_COUNT>
3
> <PUBCHEM_BOND_DEF_STEREO_COUNT>
0
> <PUBCHEM_BOND_UDEF_STEREO_COUNT>
0
> <PUBCHEM_ISOTOPIC_ATOM_COUNT>
0
> <PUBCHEM_COMPONENT_COUNT>
2
> <PUBCHEM_CACTVS_TAUTO_COUNT>
-1
> <PUBCHEM_COORDINATE_TYPE>
1
5
255
> <PUBCHEM_BONDANNOTATIONS>
8  2  3
6  11  3
7  12  3
$$$$
