517686
  -OEChem-10302200292D
 45 44  0     1  0  0  0  0  0999 V2000
    3.4641   11.6200    0.0000 O   0  5  0  0  0  0  0  0  0  0  0  0
    2.5981   13.1200    0.0000 O   0  0  0  0  0  0  0  0  0  0  0  0
    0.8660    3.0000    0.0000 O   0  5  0  0  0  0  0  0  0  0  0  0
    0.8660    0.0000    0.0000 O   0  5  0  0  0  0  0  0  0  0  0  0
    3.4641    4.5000    0.0000 O   0  5  0  0  0  0  0  0  0  0  0  0
    0.0000    1.5000    0.0000 O   0  0  0  0  0  0  0  0  0  0  0  0
    1.7320    4.5000    0.0000 O   0  0  0  0  0  0  0  0  0  0  0  0
    4.3301    0.0000    0.0000 O   0  5  0  0  0  0  0  0  0  0  0  0
    5.1962    1.5000    0.0000 O   0  0  0  0  0  0  0  0  0  0  0  0
    0.8660   12.1200    0.0000 N   0  3  0  0  0  0  0  0  0  0  0  0
    3.4641    8.6200    0.0000 N   0  3  0  0  0  0  0  0  0  0  0  0
    4.3301    7.1200    0.0000 N   0  0  0  0  0  0  0  0  0  0  0  0
    2.5981    7.1200    0.0000 N   0  0  0  0  0  0  0  0  0  0  0  0
    0.8660    1.0000    0.0000 N   0  3  0  0  0  0  0  0  0  0  0  0
    2.5981    4.0000    0.0000 N   0  3  0  0  0  0  0  0  0  0  0  0
    4.3301    1.0000    0.0000 N   0  3  0  0  0  0  0  0  0  0  0  0
    1.7320   10.6200    0.0000 C   0  0  0  0  0  0  0  0  0  0  0  0
    1.7320   11.6200    0.0000 C   0  0  3  0  0  0  0  0  0  0  0  0
    2.5981   10.1200    0.0000 C   0  0  0  0  0  0  0  0  0  0  0  0
    2.5981    9.1200    0.0000 C   0  0  0  0  0  0  0  0  0  0  0  0
    2.5981   12.1200    0.0000 C   0  0  0  0  0  0  0  0  0  0  0  0
    3.4641    7.6200    0.0000 C   0  0  0  0  0  0  0  0  0  0  0  0
    1.7320    1.5000    0.0000 C   0  0  0  0  0  0  0  0  0  0  0  0
    2.5981    3.0000    0.0000 C   0  0  0  0  0  0  0  0  0  0  0  0
    3.4641    1.5000    0.0000 C   0  0  0  0  0  0  0  0  0  0  0  0
    1.7320    2.5000    0.0000 C   0  0  0  0  0  0  0  0  0  0  0  0
    2.5981    1.0000    0.0000 C   0  0  0  0  0  0  0  0  0  0  0  0
    3.4641    2.5000    0.0000 C   0  0  0  0  0  0  0  0  0  0  0  0
    1.1215   10.7277    0.0000 H   0  0  0  0  0  0  0  0  0  0  0  0
    1.5200   10.0374    0.0000 H   0  0  0  0  0  0  0  0  0  0  0  0
    1.1951   11.3100    0.0000 H   0  0  0  0  0  0  0  0  0  0  0  0
    3.2087   10.0123    0.0000 H   0  0  0  0  0  0  0  0  0  0  0  0
    2.8101   10.7026    0.0000 H   0  0  0  0  0  0  0  0  0  0  0  0
    1.9875    9.2277    0.0000 H   0  0  0  0  0  0  0  0  0  0  0  0
    2.3860    8.5374    0.0000 H   0  0  0  0  0  0  0  0  0  0  0  0
    0.3291   12.4300    0.0000 H   0  0  0  0  0  0  0  0  0  0  0  0
    0.5560   11.5831    0.0000 H   0  0  0  0  0  0  0  0  0  0  0  0
    1.1760   12.6569    0.0000 H   0  0  0  0  0  0  0  0  0  0  0  0
    4.0010    8.9300    0.0000 H   0  0  0  0  0  0  0  0  0  0  0  0
    2.5981    0.3800    0.0000 H   0  0  0  0  0  0  0  0  0  0  0  0
    4.0010    2.8100    0.0000 H   0  0  0  0  0  0  0  0  0  0  0  0
    4.3301    6.5000    0.0000 H   0  0  0  0  0  0  0  0  0  0  0  0
    4.8671    7.4300    0.0000 H   0  0  0  0  0  0  0  0  0  0  0  0
    2.5981    6.5000    0.0000 H   0  0  0  0  0  0  0  0  0  0  0  0
    2.0611    7.4300    0.0000 H   0  0  0  0  0  0  0  0  0  0  0  0
  1 21  1  0  0  0  0
  2 21  2  0  0  0  0
  3 26  1  0  0  0  0
  4 14  1  0  0  0  0
  5 15  1  0  0  0  0
  6 14  2  0  0  0  0
  7 15  2  0  0  0  0
  8 16  1  0  0  0  0
  9 16  2  0  0  0  0
 10 18  1  0  0  0  0
 10 36  1  0  0  0  0
 10 37  1  0  0  0  0
 10 38  1  0  0  0  0
 11 20  1  0  0  0  0
 11 22  2  0  0  0  0
 11 39  1  0  0  0  0
 12 22  1  0  0  0  0
 12 42  1  0  0  0  0
 12 43  1  0  0  0  0
 13 22  1  0  0  0  0
 13 44  1  0  0  0  0
 13 45  1  0  0  0  0
 14 23  1  0  0  0  0
 15 24  1  0  0  0  0
 16 25  1  0  0  0  0
 17 18  1  0  0  0  0
 17 19  1  0  0  0  0
 17 29  1  0  0  0  0
 17 30  1  0  0  0  0
 18 21  1  0  0  0  0
 18 31  1  0  0  0  0
 19 20  1  0  0  0  0
 19 32  1  0  0  0  0
 19 33  1  0  0  0  0
 20 34  1  0  0  0  0
 20 35  1  0  0  0  0
 23 26  2  0  0  0  0
 23 27  1  0  0  0  0
 24 26  1  0  0  0  0
 24 28  2  0  0  0  0
 25 27  2  0  0  0  0
 25 28  1  0  0  0  0
 27 40  1  0  0  0  0
 28 41  1  0  0  0  0
M  CHG  8   1  -1   3  -1   4  -1   5  -1   8  -1  10   1  11   1  14   1
M  CHG  2  15   1  16   1
M  END
> <PUBCHEM_COMPOUND_CID>
517686
> <PUBCHEM_COMPOUND_CANONICALIZED>
1
> <PUBCHEM_CACTVS_COMPLEXITY>
462
> <PUBCHEM_CACTVS_HBOND_ACCEPTOR>
9
> <PUBCHEM_CACTVS_HBOND_DONOR>
4
> <PUBCHEM_CACTVS_ROTATABLE_BOND>
4
> <PUBCHEM_CACTVS_SUBSKEYS>
AAADceBzvAAAAAAAAAAAAAAAAAAAAAAAAAAwAAAAAAAAAAABAAAAHgAUAAAACCzBkAQxzoLQQACpACTSbwCCAAGgIgAgiIGFbIoKJjKA0dOAMABk0FEIyAe4UQAAAEAAAAQAEAAAgAAACAAgAAAAAAAAAA==
> <PUBCHEM_IUPAC_OPENEYE_NAME>
2-azaniumyl-5-(diaminomethyleneammonio)pentanoate;2,4,6-trinitrophenolate
> <PUBCHEM_IUPAC_CAS_NAME>
2-ammonio-5-(diaminomethylideneammonio)pentanoate;2,4,6-trinitrophenolate
> <PUBCHEM_IUPAC_NAME_MARKUP>
2-azaniumyl-5-(diaminomethylideneazaniumyl)pentanoate;2,4,6-trinitrophenolate
> <PUBCHEM_IUPAC_NAME>
2-azaniumyl-5-(diaminomethylideneazaniumyl)pentanoate;2,4,6-trinitrophenolate
> <PUBCHEM_IUPAC_SYSTEMATIC_NAME>
2-azaniumyl-5-[bis(azanyl)methylideneazaniumyl]pentanoate;2,4,6-trinitrophenolate
> <PUBCHEM_IUPAC_TRADITIONAL_NAME>
2-ammonio-5-(diaminomethyleneammonio)valerate;picrate
> <PUBCHEM_IUPAC_INCHI>
InChI=1S/C6H14N4O2.C6H3N3O7/c7-4(5(11)12)2-1-3-10-6(8)9;10-6-4(8(13)14)1-3(7(11)12)2-5(6)9(15)16/h4H,1-3,7H2,(H,11,12)(H4,8,9,10);1-2,10H
> <PUBCHEM_IUPAC_INCHIKEY>
OJTCLAGSZOUIRS-UHFFFAOYSA-N
> <PUBCHEM_EXACT_MASS>
403.10877515
> <PUBCHEM_MOLECULAR_FORMULA>
C12H17N7O9
> <PUBCHEM_MOLECULAR_WEIGHT>
403.31
> <PUBCHEM_OPENEYE_CAN_SMILES>
C1=C(C=C(C(=C1[N+](=O)[O-])[O-])[N+](=O)[O-])[N+](=O)[O-].C(CC(C(=O)[O-])[NH3+])C[NH+]=C(N)N
> <PUBCHEM_OPENEYE_ISO_SMILES>
C1=C(C=C(C(=C1[N+](=O)[O-])[O-])[N+](=O)[O-])[N+](=O)[O-].C(CC(C(=O)[O-])[NH3+])C[NH+]=C(N)N
> <PUBCHEM_CACTVS_TPSA>
294
> <PUBCHEM_MONOISOTOPIC_WEIGHT>
403.10877515
> <PUBCHEM_TOTAL_CHARGE>
0
> <PUBCHEM_HEAVY_ATOM_COUNT>
28
> <PUBCHEM_ATOM_DEF_STEREO_COUNT>
0
> <PUBCHEM_ATOM_UDEF_STEREO_COUNT>
1
> <PUBCHEM_BOND_DEF_STEREO_COUNT>
0
> <PUBCHEM_BOND_UDEF_STEREO_COUNT>
0
> <PUBCHEM_ISOTOPIC_ATOM_COUNT>
0
> <PUBCHEM_COMPONENT_COUNT>
2
> <PUBCHEM_CACTVS_TAUTO_COUNT>
-1
> <PUBCHEM_COORDINATE_TYPE>
1
5
255
> <PUBCHEM_BONDANNOTATIONS>
18  10  3
23  26  8
23  27  8
24  26  8
24  28  8
25  27  8
25  28  8
$$$$
