517665
  -OEChem-10302200292D
 21 22  0     1  0  0  0  0  0999 V2000
    3.3660    2.2694    0.0000 N   0  0  0  0  0  0  0  0  0  0  0  0
    2.3660    2.2694    0.0000 N   0  0  0  0  0  0  0  0  0  0  0  0
    4.6261    1.0094    0.0000 N   0  0  0  0  0  0  0  0  0  0  0  0
    2.8660    0.7306    0.0000 C   0  0  3  0  0  0  0  0  0  0  0  0
    2.8660   -0.2694    0.0000 C   0  0  0  0  0  0  0  0  0  0  0  0
    3.6750    1.3184    0.0000 C   0  0  0  0  0  0  0  0  0  0  0  0
    2.0570    1.3184    0.0000 C   0  0  0  0  0  0  0  0  0  0  0  0
    2.0000   -0.7694    0.0000 C   0  0  0  0  0  0  0  0  0  0  0  0
    3.7320   -0.7694    0.0000 C   0  0  0  0  0  0  0  0  0  0  0  0
    2.0000   -1.7694    0.0000 C   0  0  0  0  0  0  0  0  0  0  0  0
    3.7320   -1.7694    0.0000 C   0  0  0  0  0  0  0  0  0  0  0  0
    2.8660   -2.2694    0.0000 C   0  0  0  0  0  0  0  0  0  0  0  0
    3.4184    0.4491    0.0000 H   0  0  0  0  0  0  0  0  0  0  0  0
    1.4674    1.1268    0.0000 H   0  0  0  0  0  0  0  0  0  0  0  0
    1.4631   -0.4594    0.0000 H   0  0  0  0  0  0  0  0  0  0  0  0
    4.2690   -0.4594    0.0000 H   0  0  0  0  0  0  0  0  0  0  0  0
    1.4631   -2.0794    0.0000 H   0  0  0  0  0  0  0  0  0  0  0  0
    4.2690   -2.0794    0.0000 H   0  0  0  0  0  0  0  0  0  0  0  0
    2.8660   -2.8894    0.0000 H   0  0  0  0  0  0  0  0  0  0  0  0
    5.0868    1.4242    0.0000 H   0  0  0  0  0  0  0  0  0  0  0  0
    4.7550    0.4029    0.0000 H   0  0  0  0  0  0  0  0  0  0  0  0
  1  2  1  0  0  0  0
  1  6  2  0  0  0  0
  2  7  2  0  0  0  0
  3  6  1  0  0  0  0
  3 20  1  0  0  0  0
  3 21  1  0  0  0  0
  4  5  1  0  0  0  0
  4  6  1  0  0  0  0
  4  7  1  0  0  0  0
  4 13  1  0  0  0  0
  5  8  2  0  0  0  0
  5  9  1  0  0  0  0
  7 14  1  0  0  0  0
  8 10  1  0  0  0  0
  8 15  1  0  0  0  0
  9 11  2  0  0  0  0
  9 16  1  0  0  0  0
 10 12  2  0  0  0  0
 10 17  1  0  0  0  0
 11 12  1  0  0  0  0
 11 18  1  0  0  0  0
 12 19  1  0  0  0  0
M  END
> <PUBCHEM_COMPOUND_CID>
517665
> <PUBCHEM_COMPOUND_CANONICALIZED>
1
> <PUBCHEM_CACTVS_COMPLEXITY>
214
> <PUBCHEM_CACTVS_HBOND_ACCEPTOR>
2
> <PUBCHEM_CACTVS_HBOND_DONOR>
1
> <PUBCHEM_CACTVS_ROTATABLE_BOND>
1
> <PUBCHEM_CACTVS_SUBSKEYS>
AAADccBzAAAAAAAAAAAAAAAAAAAAAQAAAAAwAAAAAAAAAAABAAAAHAAYAAAADQDBGAQxAIBAAACgAjJjIAACAAAgAAAIiAAwAIgIICKAkRGAIAAgkAAIiAcQgMAOgAAAAAAAAAAAAAAAAAAAAAAAAAAAAA==
> <PUBCHEM_IUPAC_OPENEYE_NAME>
4-phenyl-4H-pyrazol-3-amine
> <PUBCHEM_IUPAC_CAS_NAME>
4-phenyl-4H-pyrazol-3-amine
> <PUBCHEM_IUPAC_NAME_MARKUP>
4-phenyl-4<I>H</I>-pyrazol-3-amine
> <PUBCHEM_IUPAC_NAME>
4-phenyl-4H-pyrazol-3-amine
> <PUBCHEM_IUPAC_SYSTEMATIC_NAME>
4-phenyl-4H-pyrazol-3-amine
> <PUBCHEM_IUPAC_TRADITIONAL_NAME>
(4-phenyl-4H-pyrazol-3-yl)amine
> <PUBCHEM_IUPAC_INCHI>
InChI=1S/C9H9N3/c10-9-8(6-11-12-9)7-4-2-1-3-5-7/h1-6,8H,(H2,10,12)
> <PUBCHEM_IUPAC_INCHIKEY>
YJXZUGCZCNNGGN-UHFFFAOYSA-N
> <PUBCHEM_XLOGP3_AA>
0.6
> <PUBCHEM_EXACT_MASS>
159.079647300
> <PUBCHEM_MOLECULAR_FORMULA>
C9H9N3
> <PUBCHEM_MOLECULAR_WEIGHT>
159.19
> <PUBCHEM_OPENEYE_CAN_SMILES>
C1=CC=C(C=C1)C2C=NN=C2N
> <PUBCHEM_OPENEYE_ISO_SMILES>
C1=CC=C(C=C1)C2C=NN=C2N
> <PUBCHEM_CACTVS_TPSA>
50.7
> <PUBCHEM_MONOISOTOPIC_WEIGHT>
159.079647300
> <PUBCHEM_TOTAL_CHARGE>
0
> <PUBCHEM_HEAVY_ATOM_COUNT>
12
> <PUBCHEM_ATOM_DEF_STEREO_COUNT>
0
> <PUBCHEM_ATOM_UDEF_STEREO_COUNT>
1
> <PUBCHEM_BOND_DEF_STEREO_COUNT>
0
> <PUBCHEM_BOND_UDEF_STEREO_COUNT>
0
> <PUBCHEM_ISOTOPIC_ATOM_COUNT>
0
> <PUBCHEM_COMPONENT_COUNT>
1
> <PUBCHEM_CACTVS_TAUTO_COUNT>
-1
> <PUBCHEM_COORDINATE_TYPE>
1
5
255
> <PUBCHEM_BONDANNOTATIONS>
10  12  8
11  12  8
4  5  3
5  8  8
5  9  8
8  10  8
9  11  8
$$$$
