517662
  -OEChem-10302200292D
 60 60  0     1  0  0  0  0  0999 V2000
   10.4285    4.2633    0.0000 S   0  0  0  0  0  0  0  0  0  0  0  0
   10.3774    0.0000    0.0000 Na  0  3  0  0  0  0  0  0  0  0  0  0
    7.7635    2.2416    0.0000 O   0  0  0  0  0  0  0  0  0  0  0  0
   10.0683    0.9511    0.0000 O   0  5  0  0  0  0  0  0  0  0  0  0
   11.7156    1.4863    0.0000 O   0  0  0  0  0  0  0  0  0  0  0  0
    6.5362    3.4448    0.0000 O   0  0  0  0  0  0  0  0  0  0  0  0
    7.7012    9.3928    0.0000 O   0  0  0  0  0  0  0  0  0  0  0  0
    0.5369    4.6964    0.0000 O   0  0  0  0  0  0  0  0  0  0  0  0
    9.4774    2.9543    0.0000 N   0  0  0  0  0  0  0  0  0  0  0  0
    7.7635    4.6670    0.0000 N   0  0  0  0  0  0  0  0  0  0  0  0
    9.4774    3.9543    0.0000 C   0  0  3  0  0  0  0  0  0  0  0  0
   11.0162    3.4543    0.0000 C   0  0  0  0  0  0  0  0  0  0  0  0
   10.4285    2.6453    0.0000 C   0  0  3  0  0  0  0  0  0  0  0  0
    8.4691    3.9584    0.0000 C   0  0  3  0  0  0  0  0  0  0  0  0
    8.4691    2.9501    0.0000 C   0  0  0  0  0  0  0  0  0  0  0  0
   11.8253    4.0421    0.0000 C   0  0  0  0  0  0  0  0  0  0  0  0
   11.8253    2.8665    0.0000 C   0  0  0  0  0  0  0  0  0  0  0  0
   10.7375    1.6942    0.0000 C   0  0  0  0  0  0  0  0  0  0  0  0
    4.8641    3.8965    0.0000 C   0  0  0  0  0  0  0  0  0  0  0  0
    3.8976    3.6396    0.0000 C   0  0  0  0  0  0  0  0  0  0  0  0
    5.5698    3.1879    0.0000 C   0  0  0  0  0  0  0  0  0  0  0  0
    6.7970    4.4101    0.0000 C   0  0  0  0  0  0  0  0  0  0  0  0
    3.6368    2.6742    0.0000 C   0  0  0  0  0  0  0  0  0  0  0  0
    5.3090    2.2225    0.0000 C   0  0  0  0  0  0  0  0  0  0  0  0
    5.1249    4.8619    0.0000 C   0  0  0  0  0  0  0  0  0  0  0  0
    4.3425    1.9657    0.0000 C   0  0  0  0  0  0  0  0  0  0  0  0
    6.0914    5.1187    0.0000 C   0  0  0  0  0  0  0  0  0  0  0  0
    4.4193    5.5704    0.0000 C   0  0  0  0  0  0  0  0  0  0  0  0
    6.3522    6.0841    0.0000 C   0  0  0  0  0  0  0  0  0  0  0  0
    4.6801    6.5358    0.0000 C   0  0  0  0  0  0  0  0  0  0  0  0
    5.6465    6.7926    0.0000 C   0  0  0  0  0  0  0  0  0  0  0  0
    9.3817    4.5668    0.0000 H   0  0  0  0  0  0  0  0  0  0  0  0
    9.9901    2.2069    0.0000 H   0  0  0  0  0  0  0  0  0  0  0  0
    7.8961    3.7217    0.0000 H   0  0  0  0  0  0  0  0  0  0  0  0
   12.1897    3.5405    0.0000 H   0  0  0  0  0  0  0  0  0  0  0  0
   12.3269    4.4065    0.0000 H   0  0  0  0  0  0  0  0  0  0  0  0
   11.4608    4.5437    0.0000 H   0  0  0  0  0  0  0  0  0  0  0  0
   11.4608    2.3649    0.0000 H   0  0  0  0  0  0  0  0  0  0  0  0
   12.3269    2.5021    0.0000 H   0  0  0  0  0  0  0  0  0  0  0  0
   12.1897    3.3681    0.0000 H   0  0  0  0  0  0  0  0  0  0  0  0
    7.9252    5.2655    0.0000 H   0  0  0  0  0  0  0  0  0  0  0  0
    5.4633    4.0557    0.0000 H   0  0  0  0  0  0  0  0  0  0  0  0
    3.8449    4.2574    0.0000 H   0  0  0  0  0  0  0  0  0  0  0  0
    3.2801    3.6950    0.0000 H   0  0  0  0  0  0  0  0  0  0  0  0
    6.1311    2.9247    0.0000 H   0  0  0  0  0  0  0  0  0  0  0  0
    5.9264    3.6951    0.0000 H   0  0  0  0  0  0  0  0  0  0  0  0
    3.0755    2.9374    0.0000 H   0  0  0  0  0  0  0  0  0  0  0  0
    3.2802    2.1671    0.0000 H   0  0  0  0  0  0  0  0  0  0  0  0
    5.3617    1.6048    0.0000 H   0  0  0  0  0  0  0  0  0  0  0  0
    5.9265    2.1672    0.0000 H   0  0  0  0  0  0  0  0  0  0  0  0
    3.8339    1.6111    0.0000 H   0  0  0  0  0  0  0  0  0  0  0  0
    4.6034    1.4033    0.0000 H   0  0  0  0  0  0  0  0  0  0  0  0
    3.8201    5.4112    0.0000 H   0  0  0  0  0  0  0  0  0  0  0  0
    6.9514    6.2433    0.0000 H   0  0  0  0  0  0  0  0  0  0  0  0
    4.2426    6.9751    0.0000 H   0  0  0  0  0  0  0  0  0  0  0  0
    5.8082    7.3912    0.0000 H   0  0  0  0  0  0  0  0  0  0  0  0
    8.2381    9.7028    0.0000 H   0  0  0  0  0  0  0  0  0  0  0  0
    7.1642    9.7028    0.0000 H   0  0  0  0  0  0  0  0  0  0  0  0
    1.0739    5.0064    0.0000 H   0  0  0  0  0  0  0  0  0  0  0  0
    0.0000    5.0064    0.0000 H   0  0  0  0  0  0  0  0  0  0  0  0
  1 11  1  0  0  0  0
  1 12  1  0  0  0  0
  3 15  2  0  0  0  0
  4 18  1  0  0  0  0
  5 18  2  0  0  0  0
  6 22  2  0  0  0  0
  7 57  1  0  0  0  0
  7 58  1  0  0  0  0
  8 59  1  0  0  0  0
  8 60  1  0  0  0  0
  9 11  1  0  0  0  0
  9 13  1  0  0  0  0
  9 15  1  0  0  0  0
 10 14  1  0  0  0  0
 10 22  1  0  0  0  0
 10 41  1  0  0  0  0
 11 14  1  0  0  0  0
 11 32  1  0  0  0  0
 12 13  1  0  0  0  0
 12 16  1  0  0  0  0
 12 17  1  0  0  0  0
 13 18  1  0  0  0  0
 13 33  1  0  0  0  0
 14 15  1  0  0  0  0
 14 34  1  0  0  0  0
 16 35  1  0  0  0  0
 16 36  1  0  0  0  0
 16 37  1  0  0  0  0
 17 38  1  0  0  0  0
 17 39  1  0  0  0  0
 17 40  1  0  0  0  0
 19 20  1  0  0  0  0
 19 21  1  0  0  0  0
 19 25  1  0  0  0  0
 19 42  1  0  0  0  0
 20 23  1  0  0  0  0
 20 43  1  0  0  0  0
 20 44  1  0  0  0  0
 21 24  1  0  0  0  0
 21 45  1  0  0  0  0
 21 46  1  0  0  0  0
 22 27  1  0  0  0  0
 23 26  1  0  0  0  0
 23 47  1  0  0  0  0
 23 48  1  0  0  0  0
 24 26  1  0  0  0  0
 24 49  1  0  0  0  0
 24 50  1  0  0  0  0
 25 27  1  0  0  0  0
 25 28  2  0  0  0  0
 26 51  1  0  0  0  0
 26 52  1  0  0  0  0
 27 29  2  0  0  0  0
 28 30  1  0  0  0  0
 28 53  1  0  0  0  0
 29 31  1  0  0  0  0
 29 54  1  0  0  0  0
 30 31  2  0  0  0  0
 30 55  1  0  0  0  0
 31 56  1  0  0  0  0
M  CHG  2   2   1   4  -1
M  END
> <PUBCHEM_COMPOUND_CID>
517662
> <PUBCHEM_COMPOUND_CANONICALIZED>
1
> <PUBCHEM_CACTVS_COMPLEXITY>
667
> <PUBCHEM_CACTVS_HBOND_ACCEPTOR>
7
> <PUBCHEM_CACTVS_HBOND_DONOR>
3
> <PUBCHEM_CACTVS_ROTATABLE_BOND>
4
> <PUBCHEM_CACTVS_SUBSKEYS>
AAADceB7OCBAAAAAAAAAAAAAAABYAWAAAAAwYAAABYAAAAABAAAAHgQQCAAADSjF2ASyCIPAAAiIAiHSGACCAABkABAIiIGIBMgKYDqglTGUIQhklgC4iYcYiMCOgAAAAAAQAAAAAAAAACAAAAAAAAAAAA==
> <PUBCHEM_IUPAC_OPENEYE_NAME>
sodium;6-[(2-cyclohexylbenzoyl)amino]-3,3-dimethyl-7-oxo-4-thia-1-azabicyclo[3.2.0]heptane-2-carboxylate;dihydrate
> <PUBCHEM_IUPAC_CAS_NAME>
sodium;6-[[(2-cyclohexylphenyl)-oxomethyl]amino]-3,3-dimethyl-7-oxo-4-thia-1-azabicyclo[3.2.0]heptane-2-carboxylate;dihydrate
> <PUBCHEM_IUPAC_NAME_MARKUP>
sodium;6-[(2-cyclohexylbenzoyl)amino]-3,3-dimethyl-7-oxo-4-thia-1-azabicyclo[3.2.0]heptane-2-carboxylate;dihydrate
> <PUBCHEM_IUPAC_NAME>
sodium;6-[(2-cyclohexylbenzoyl)amino]-3,3-dimethyl-7-oxo-4-thia-1-azabicyclo[3.2.0]heptane-2-carboxylate;dihydrate
> <PUBCHEM_IUPAC_SYSTEMATIC_NAME>
sodium;6-[(2-cyclohexylphenyl)carbonylamino]-3,3-dimethyl-7-oxidanylidene-4-thia-1-azabicyclo[3.2.0]heptane-2-carboxylate;dihydrate
> <PUBCHEM_IUPAC_TRADITIONAL_NAME>
sodium;6-[(2-cyclohexylbenzoyl)amino]-7-keto-3,3-dimethyl-4-thia-1-azabicyclo[3.2.0]heptane-2-carboxylate;dihydrate
> <PUBCHEM_IUPAC_INCHI>
InChI=1S/C21H26N2O4S.Na.2H2O/c1-21(2)16(20(26)27)23-18(25)15(19(23)28-21)22-17(24)14-11-7-6-10-13(14)12-8-4-3-5-9-12;;;/h6-7,10-12,15-16,19H,3-5,8-9H2,1-2H3,(H,22,24)(H,26,27);;2*1H2/q;+1;;/p-1
> <PUBCHEM_IUPAC_INCHIKEY>
BZJGGEOXANRQCV-UHFFFAOYSA-M
> <PUBCHEM_EXACT_MASS>
460.16440210
> <PUBCHEM_MOLECULAR_FORMULA>
C21H29N2NaO6S
> <PUBCHEM_MOLECULAR_WEIGHT>
460.5
> <PUBCHEM_OPENEYE_CAN_SMILES>
CC1(C(N2C(S1)C(C2=O)NC(=O)C3=CC=CC=C3C4CCCCC4)C(=O)[O-])C.O.O.[Na+]
> <PUBCHEM_OPENEYE_ISO_SMILES>
CC1(C(N2C(S1)C(C2=O)NC(=O)C3=CC=CC=C3C4CCCCC4)C(=O)[O-])C.O.O.[Na+]
> <PUBCHEM_CACTVS_TPSA>
117
> <PUBCHEM_MONOISOTOPIC_WEIGHT>
460.16440210
> <PUBCHEM_TOTAL_CHARGE>
0
> <PUBCHEM_HEAVY_ATOM_COUNT>
31
> <PUBCHEM_ATOM_DEF_STEREO_COUNT>
0
> <PUBCHEM_ATOM_UDEF_STEREO_COUNT>
3
> <PUBCHEM_BOND_DEF_STEREO_COUNT>
0
> <PUBCHEM_BOND_UDEF_STEREO_COUNT>
0
> <PUBCHEM_ISOTOPIC_ATOM_COUNT>
0
> <PUBCHEM_COMPONENT_COUNT>
4
> <PUBCHEM_CACTVS_TAUTO_COUNT>
-1
> <PUBCHEM_NONSTANDARDBOND>
2  4  7
> <PUBCHEM_COORDINATE_TYPE>
1
5
255
> <PUBCHEM_BONDANNOTATIONS>
11  1  3
14  10  3
13  18  3
25  27  8
25  28  8
27  29  8
28  30  8
29  31  8
30  31  8
$$$$
