517697
  -OEChem-10302200292D
 22 21  0     1  0  0  0  0  0999 V2000
    1.6228    0.0000    0.0000 Cl  0  5  0  0  0  0  0  0  0  0  0  0
    2.2690    3.0369    0.0000 N   0  3  0  0  0  0  0  0  0  0  0  0
    1.4030    3.5369    0.0000 C   0  0  3  0  0  0  0  0  0  0  0  0
    1.4030    4.5369    0.0000 C   0  0  0  0  0  0  0  0  0  0  0  0
    3.1350    3.5369    0.0000 C   0  0  0  0  0  0  0  0  0  0  0  0
    2.2690    5.0369    0.0000 C   0  0  0  0  0  0  0  0  0  0  0  0
    3.1350    4.5369    0.0000 C   0  0  0  0  0  0  0  0  0  0  0  0
    0.5369    3.0369    0.0000 C   0  0  0  0  0  0  0  0  0  0  0  0
    1.4030    2.9169    0.0000 H   0  0  0  0  0  0  0  0  0  0  0  0
    1.9590    2.5000    0.0000 H   0  0  0  0  0  0  0  0  0  0  0  0
    2.5790    2.5000    0.0000 H   0  0  0  0  0  0  0  0  0  0  0  0
    1.1909    5.1195    0.0000 H   0  0  0  0  0  0  0  0  0  0  0  0
    0.7924    4.4293    0.0000 H   0  0  0  0  0  0  0  0  0  0  0  0
    3.3471    2.9543    0.0000 H   0  0  0  0  0  0  0  0  0  0  0  0
    3.7456    3.6446    0.0000 H   0  0  0  0  0  0  0  0  0  0  0  0
    2.6675    5.5119    0.0000 H   0  0  0  0  0  0  0  0  0  0  0  0
    1.8705    5.5119    0.0000 H   0  0  0  0  0  0  0  0  0  0  0  0
    3.7456    4.4293    0.0000 H   0  0  0  0  0  0  0  0  0  0  0  0
    3.3471    5.1195    0.0000 H   0  0  0  0  0  0  0  0  0  0  0  0
    0.2269    3.5739    0.0000 H   0  0  0  0  0  0  0  0  0  0  0  0
    0.0000    2.7269    0.0000 H   0  0  0  0  0  0  0  0  0  0  0  0
    0.8469    2.5000    0.0000 H   0  0  0  0  0  0  0  0  0  0  0  0
  2  3  1  0  0  0  0
  2  5  1  0  0  0  0
  2 10  1  0  0  0  0
  2 11  1  0  0  0  0
  3  4  1  0  0  0  0
  3  8  1  0  0  0  0
  3  9  1  0  0  0  0
  4  6  1  0  0  0  0
  4 12  1  0  0  0  0
  4 13  1  0  0  0  0
  5  7  1  0  0  0  0
  5 14  1  0  0  0  0
  5 15  1  0  0  0  0
  6  7  1  0  0  0  0
  6 16  1  0  0  0  0
  6 17  1  0  0  0  0
  7 18  1  0  0  0  0
  7 19  1  0  0  0  0
  8 20  1  0  0  0  0
  8 21  1  0  0  0  0
  8 22  1  0  0  0  0
M  CHG  2   1  -1   2   1
M  END
> <PUBCHEM_COMPOUND_CID>
517697
> <PUBCHEM_COMPOUND_CANONICALIZED>
1
> <PUBCHEM_CACTVS_COMPLEXITY>
52.1
> <PUBCHEM_CACTVS_HBOND_ACCEPTOR>
1
> <PUBCHEM_CACTVS_HBOND_DONOR>
1
> <PUBCHEM_CACTVS_ROTATABLE_BOND>
0
> <PUBCHEM_CACTVS_SUBSKEYS>
AAADccBiAAAEAAAAAAAAAAAAAAAAAAAAAAAsAAAAAAAAAAAAAAAAHAAQAAAACCjBAAQCAALAAAAAAAAAAAAAAAAAAAAAAIAIAAAAAAIAgAAEAAAAEACAAAEQAAAAAAAAAAAAAAAAAAAAAAAAAAAAAAAAAA==
> <PUBCHEM_IUPAC_OPENEYE_NAME>
2-methylpiperidin-1-ium;chloride
> <PUBCHEM_IUPAC_CAS_NAME>
2-methylpiperidin-1-ium;chloride
> <PUBCHEM_IUPAC_NAME_MARKUP>
2-methylpiperidin-1-ium;chloride
> <PUBCHEM_IUPAC_NAME>
2-methylpiperidin-1-ium;chloride
> <PUBCHEM_IUPAC_SYSTEMATIC_NAME>
2-methylpiperidin-1-ium;chloride
> <PUBCHEM_IUPAC_TRADITIONAL_NAME>
2-methylpiperidin-1-ium;chloride
> <PUBCHEM_IUPAC_INCHI>
InChI=1S/C6H13N.ClH/c1-6-4-2-3-5-7-6;/h6-7H,2-5H2,1H3;1H
> <PUBCHEM_IUPAC_INCHIKEY>
BILCQNXKQKRGAO-UHFFFAOYSA-N
> <PUBCHEM_EXACT_MASS>
135.0814771
> <PUBCHEM_MOLECULAR_FORMULA>
C6H14ClN
> <PUBCHEM_MOLECULAR_WEIGHT>
135.63
> <PUBCHEM_OPENEYE_CAN_SMILES>
CC1CCCC[NH2+]1.[Cl-]
> <PUBCHEM_OPENEYE_ISO_SMILES>
CC1CCCC[NH2+]1.[Cl-]
> <PUBCHEM_CACTVS_TPSA>
16.6
> <PUBCHEM_MONOISOTOPIC_WEIGHT>
135.0814771
> <PUBCHEM_TOTAL_CHARGE>
0
> <PUBCHEM_HEAVY_ATOM_COUNT>
8
> <PUBCHEM_ATOM_DEF_STEREO_COUNT>
0
> <PUBCHEM_ATOM_UDEF_STEREO_COUNT>
1
> <PUBCHEM_BOND_DEF_STEREO_COUNT>
0
> <PUBCHEM_BOND_UDEF_STEREO_COUNT>
0
> <PUBCHEM_ISOTOPIC_ATOM_COUNT>
0
> <PUBCHEM_COMPONENT_COUNT>
2
> <PUBCHEM_CACTVS_TAUTO_COUNT>
-1
> <PUBCHEM_COORDINATE_TYPE>
1
5
255
> <PUBCHEM_BONDANNOTATIONS>
3  8  3
$$$$
