517663
  -OEChem-10302200292D
 54 57  0     1  0  0  0  0  0999 V2000
    8.7916    0.6863    0.0000 S   0  0  0  0  0  0  0  0  0  0  0  0
    6.1266   -1.3355    0.0000 O   0  0  0  0  0  0  0  0  0  0  0  0
    8.4315   -2.6260    0.0000 O   0  0  0  0  0  0  0  0  0  0  0  0
   10.0788   -2.0907    0.0000 O   0  0  0  0  0  0  0  0  0  0  0  0
    4.8994   -0.1323    0.0000 O   0  0  0  0  0  0  0  0  0  0  0  0
    7.8406   -0.6228    0.0000 N   0  0  0  0  0  0  0  0  0  0  0  0
    6.1266    1.0900    0.0000 N   0  0  0  0  0  0  0  0  0  0  0  0
    7.8406    0.3772    0.0000 C   0  0  3  0  0  0  0  0  0  0  0  0
    9.3794   -0.1228    0.0000 C   0  0  0  0  0  0  0  0  0  0  0  0
    8.7916   -0.9318    0.0000 C   0  0  3  0  0  0  0  0  0  0  0  0
    6.8323    0.3814    0.0000 C   0  0  3  0  0  0  0  0  0  0  0  0
    6.8323   -0.6269    0.0000 C   0  0  0  0  0  0  0  0  0  0  0  0
   10.1884    0.4650    0.0000 C   0  0  0  0  0  0  0  0  0  0  0  0
   10.1884   -0.7105    0.0000 C   0  0  0  0  0  0  0  0  0  0  0  0
    9.1006   -1.8828    0.0000 C   0  0  0  0  0  0  0  0  0  0  0  0
    3.2273    0.3194    0.0000 C   0  0  0  0  0  0  0  0  0  0  0  0
    2.2608    0.0626    0.0000 C   0  0  0  0  0  0  0  0  0  0  0  0
    3.9329   -0.3891    0.0000 C   0  0  0  0  0  0  0  0  0  0  0  0
    2.0000   -0.9028    0.0000 C   0  0  0  0  0  0  0  0  0  0  0  0
    3.6721   -1.3545    0.0000 C   0  0  0  0  0  0  0  0  0  0  0  0
    5.1602    0.8331    0.0000 C   0  0  0  0  0  0  0  0  0  0  0  0
    3.4881    1.2848    0.0000 C   0  0  0  0  0  0  0  0  0  0  0  0
    2.7056   -1.6113    0.0000 C   0  0  0  0  0  0  0  0  0  0  0  0
    4.4545    1.5417    0.0000 C   0  0  0  0  0  0  0  0  0  0  0  0
    2.7824    1.9934    0.0000 C   0  0  0  0  0  0  0  0  0  0  0  0
    4.7153    2.5071    0.0000 C   0  0  0  0  0  0  0  0  0  0  0  0
    3.0432    2.9588    0.0000 C   0  0  0  0  0  0  0  0  0  0  0  0
    4.0097    3.2156    0.0000 C   0  0  0  0  0  0  0  0  0  0  0  0
    7.7448    0.9898    0.0000 H   0  0  0  0  0  0  0  0  0  0  0  0
    8.3532   -1.3702    0.0000 H   0  0  0  0  0  0  0  0  0  0  0  0
    6.2592    0.1447    0.0000 H   0  0  0  0  0  0  0  0  0  0  0  0
   10.5528   -0.0366    0.0000 H   0  0  0  0  0  0  0  0  0  0  0  0
   10.6900    0.8295    0.0000 H   0  0  0  0  0  0  0  0  0  0  0  0
    9.8240    0.9666    0.0000 H   0  0  0  0  0  0  0  0  0  0  0  0
    9.8240   -1.2121    0.0000 H   0  0  0  0  0  0  0  0  0  0  0  0
   10.6900   -1.0750    0.0000 H   0  0  0  0  0  0  0  0  0  0  0  0
   10.5528   -0.2089    0.0000 H   0  0  0  0  0  0  0  0  0  0  0  0
    6.2883    1.6885    0.0000 H   0  0  0  0  0  0  0  0  0  0  0  0
    3.8265    0.4787    0.0000 H   0  0  0  0  0  0  0  0  0  0  0  0
    2.2080    0.6804    0.0000 H   0  0  0  0  0  0  0  0  0  0  0  0
    1.6433    0.1179    0.0000 H   0  0  0  0  0  0  0  0  0  0  0  0
    4.4943   -0.6523    0.0000 H   0  0  0  0  0  0  0  0  0  0  0  0
    4.2896    0.1180    0.0000 H   0  0  0  0  0  0  0  0  0  0  0  0
    1.4386   -0.6396    0.0000 H   0  0  0  0  0  0  0  0  0  0  0  0
    1.6433   -1.4099    0.0000 H   0  0  0  0  0  0  0  0  0  0  0  0
    3.7249   -1.9722    0.0000 H   0  0  0  0  0  0  0  0  0  0  0  0
    4.2896   -1.4098    0.0000 H   0  0  0  0  0  0  0  0  0  0  0  0
    2.1970   -1.9659    0.0000 H   0  0  0  0  0  0  0  0  0  0  0  0
    2.9665   -2.1738    0.0000 H   0  0  0  0  0  0  0  0  0  0  0  0
    8.6231   -3.2156    0.0000 H   0  0  0  0  0  0  0  0  0  0  0  0
    2.1832    1.8342    0.0000 H   0  0  0  0  0  0  0  0  0  0  0  0
    5.3145    2.6663    0.0000 H   0  0  0  0  0  0  0  0  0  0  0  0
    2.6057    3.3981    0.0000 H   0  0  0  0  0  0  0  0  0  0  0  0
    4.1714    3.8142    0.0000 H   0  0  0  0  0  0  0  0  0  0  0  0
  1  8  1  0  0  0  0
  1  9  1  0  0  0  0
  2 12  2  0  0  0  0
  3 15  1  0  0  0  0
  3 50  1  0  0  0  0
  4 15  2  0  0  0  0
  5 21  2  0  0  0  0
  6  8  1  0  0  0  0
  6 10  1  0  0  0  0
  6 12  1  0  0  0  0
  7 11  1  0  0  0  0
  7 21  1  0  0  0  0
  7 38  1  0  0  0  0
  8 11  1  0  0  0  0
  8 29  1  0  0  0  0
  9 10  1  0  0  0  0
  9 13  1  0  0  0  0
  9 14  1  0  0  0  0
 10 15  1  0  0  0  0
 10 30  1  0  0  0  0
 11 12  1  0  0  0  0
 11 31  1  0  0  0  0
 13 32  1  0  0  0  0
 13 33  1  0  0  0  0
 13 34  1  0  0  0  0
 14 35  1  0  0  0  0
 14 36  1  0  0  0  0
 14 37  1  0  0  0  0
 16 17  1  0  0  0  0
 16 18  1  0  0  0  0
 16 22  1  0  0  0  0
 16 39  1  0  0  0  0
 17 19  1  0  0  0  0
 17 40  1  0  0  0  0
 17 41  1  0  0  0  0
 18 20  1  0  0  0  0
 18 42  1  0  0  0  0
 18 43  1  0  0  0  0
 19 23  1  0  0  0  0
 19 44  1  0  0  0  0
 19 45  1  0  0  0  0
 20 23  1  0  0  0  0
 20 46  1  0  0  0  0
 20 47  1  0  0  0  0
 21 24  1  0  0  0  0
 22 24  1  0  0  0  0
 22 25  2  0  0  0  0
 23 48  1  0  0  0  0
 23 49  1  0  0  0  0
 24 26  2  0  0  0  0
 25 27  1  0  0  0  0
 25 51  1  0  0  0  0
 26 28  1  0  0  0  0
 26 52  1  0  0  0  0
 27 28  2  0  0  0  0
 27 53  1  0  0  0  0
 28 54  1  0  0  0  0
M  END
> <PUBCHEM_COMPOUND_CID>
517663
> <PUBCHEM_COMPOUND_CANONICALIZED>
1
> <PUBCHEM_CACTVS_COMPLEXITY>
661
> <PUBCHEM_CACTVS_HBOND_ACCEPTOR>
5
> <PUBCHEM_CACTVS_HBOND_DONOR>
2
> <PUBCHEM_CACTVS_ROTATABLE_BOND>
4
> <PUBCHEM_CACTVS_SUBSKEYS>
AAADceB7OABAAAAAAAAAAAAAAABYAWAAAAAwYAAABYAAAAABAAAAHgQQCAAADSjF2ASyCIPAAgiIAiHSGACCAABkABAIiIGIBMgKYDqglTGUYQhklgC4iYcYiMCOgAAAAAAQAAAAAAAAACAAAAAAAAAAAA==
> <PUBCHEM_IUPAC_OPENEYE_NAME>
6-[(2-cyclohexylbenzoyl)amino]-3,3-dimethyl-7-oxo-4-thia-1-azabicyclo[3.2.0]heptane-2-carboxylic acid
> <PUBCHEM_IUPAC_CAS_NAME>
6-[[(2-cyclohexylphenyl)-oxomethyl]amino]-3,3-dimethyl-7-oxo-4-thia-1-azabicyclo[3.2.0]heptane-2-carboxylic acid
> <PUBCHEM_IUPAC_NAME_MARKUP>
6-[(2-cyclohexylbenzoyl)amino]-3,3-dimethyl-7-oxo-4-thia-1-azabicyclo[3.2.0]heptane-2-carboxylic acid
> <PUBCHEM_IUPAC_NAME>
6-[(2-cyclohexylbenzoyl)amino]-3,3-dimethyl-7-oxo-4-thia-1-azabicyclo[3.2.0]heptane-2-carboxylic acid
> <PUBCHEM_IUPAC_SYSTEMATIC_NAME>
6-[(2-cyclohexylphenyl)carbonylamino]-3,3-dimethyl-7-oxidanylidene-4-thia-1-azabicyclo[3.2.0]heptane-2-carboxylic acid
> <PUBCHEM_IUPAC_TRADITIONAL_NAME>
6-[(2-cyclohexylbenzoyl)amino]-7-keto-3,3-dimethyl-4-thia-1-azabicyclo[3.2.0]heptane-2-carboxylic acid
> <PUBCHEM_IUPAC_INCHI>
InChI=1S/C21H26N2O4S/c1-21(2)16(20(26)27)23-18(25)15(19(23)28-21)22-17(24)14-11-7-6-10-13(14)12-8-4-3-5-9-12/h6-7,10-12,15-16,19H,3-5,8-9H2,1-2H3,(H,22,24)(H,26,27)
> <PUBCHEM_IUPAC_INCHIKEY>
FHWNSBXHHIXVJW-UHFFFAOYSA-N
> <PUBCHEM_XLOGP3>
4.4
> <PUBCHEM_EXACT_MASS>
402.16132849
> <PUBCHEM_MOLECULAR_FORMULA>
C21H26N2O4S
> <PUBCHEM_MOLECULAR_WEIGHT>
402.5
> <PUBCHEM_OPENEYE_CAN_SMILES>
CC1(C(N2C(S1)C(C2=O)NC(=O)C3=CC=CC=C3C4CCCCC4)C(=O)O)C
> <PUBCHEM_OPENEYE_ISO_SMILES>
CC1(C(N2C(S1)C(C2=O)NC(=O)C3=CC=CC=C3C4CCCCC4)C(=O)O)C
> <PUBCHEM_CACTVS_TPSA>
112
> <PUBCHEM_MONOISOTOPIC_WEIGHT>
402.16132849
> <PUBCHEM_TOTAL_CHARGE>
0
> <PUBCHEM_HEAVY_ATOM_COUNT>
28
> <PUBCHEM_ATOM_DEF_STEREO_COUNT>
0
> <PUBCHEM_ATOM_UDEF_STEREO_COUNT>
3
> <PUBCHEM_BOND_DEF_STEREO_COUNT>
0
> <PUBCHEM_BOND_UDEF_STEREO_COUNT>
0
> <PUBCHEM_ISOTOPIC_ATOM_COUNT>
0
> <PUBCHEM_COMPONENT_COUNT>
1
> <PUBCHEM_CACTVS_TAUTO_COUNT>
-1
> <PUBCHEM_COORDINATE_TYPE>
1
5
255
> <PUBCHEM_BONDANNOTATIONS>
8  1  3
10  15  3
22  24  8
22  25  8
24  26  8
25  27  8
26  28  8
27  28  8
11  7  3
$$$$
