517705
  -OEChem-10302200292D
 28 25  0     1  0  0  0  0  0999 V2000
    0.0000    2.1200    0.0000 Br  0  0  0  0  0  0  0  0  0  0  0  0
    2.7996    4.5950    0.0000 Br  0  0  0  0  0  0  0  0  0  0  0  0
    2.7996    7.0950    0.0000 Br  0  0  0  0  0  0  0  0  0  0  0  0
    2.5981    1.6200    0.0000 N   0  0  0  0  0  0  0  0  0  0  0  0
    6.0622    1.6200    0.0000 N   0  0  0  0  0  0  0  0  0  0  0  0
    3.4641    2.1200    0.0000 C   0  0  0  0  0  0  0  0  0  0  0  0
    4.3301    1.6200    0.0000 C   0  0  0  0  0  0  0  0  0  0  0  0
    1.7320    2.1200    0.0000 C   0  0  0  0  0  0  0  0  0  0  0  0
    0.8660    1.6200    0.0000 C   0  0  3  0  0  0  0  0  0  0  0  0
    5.1962    2.1200    0.0000 C   0  0  0  0  0  0  0  0  0  0  0  0
    0.8660    0.6200    0.0000 C   0  0  0  0  0  0  0  0  0  0  0  0
    3.8626    2.5950    0.0000 H   0  0  0  0  0  0  0  0  0  0  0  0
    3.0656    2.5950    0.0000 H   0  0  0  0  0  0  0  0  0  0  0  0
    3.9316    1.1450    0.0000 H   0  0  0  0  0  0  0  0  0  0  0  0
    4.7287    1.1450    0.0000 H   0  0  0  0  0  0  0  0  0  0  0  0
    2.1306    2.5950    0.0000 H   0  0  0  0  0  0  0  0  0  0  0  0
    1.3335    2.5950    0.0000 H   0  0  0  0  0  0  0  0  0  0  0  0
    2.5981    1.0000    0.0000 H   0  0  0  0  0  0  0  0  0  0  0  0
    0.8660    2.2400    0.0000 H   0  0  0  0  0  0  0  0  0  0  0  0
    5.5947    2.5950    0.0000 H   0  0  0  0  0  0  0  0  0  0  0  0
    4.7976    2.5950    0.0000 H   0  0  0  0  0  0  0  0  0  0  0  0
    0.2460    0.6200    0.0000 H   0  0  0  0  0  0  0  0  0  0  0  0
    0.8660    0.0000    0.0000 H   0  0  0  0  0  0  0  0  0  0  0  0
    1.4860    0.6200    0.0000 H   0  0  0  0  0  0  0  0  0  0  0  0
    6.5991    1.9300    0.0000 H   0  0  0  0  0  0  0  0  0  0  0  0
    6.0622    1.0000    0.0000 H   0  0  0  0  0  0  0  0  0  0  0  0
    3.7996    4.5950    0.0000 H   0  0  0  0  0  0  0  0  0  0  0  0
    3.7996    7.0950    0.0000 H   0  0  0  0  0  0  0  0  0  0  0  0
  1  9  1  0  0  0  0
  2 27  1  0  0  0  0
  3 28  1  0  0  0  0
  4  6  1  0  0  0  0
  4  8  1  0  0  0  0
  4 18  1  0  0  0  0
  5 10  1  0  0  0  0
  5 25  1  0  0  0  0
  5 26  1  0  0  0  0
  6  7  1  0  0  0  0
  6 12  1  0  0  0  0
  6 13  1  0  0  0  0
  7 10  1  0  0  0  0
  7 14  1  0  0  0  0
  7 15  1  0  0  0  0
  8  9  1  0  0  0  0
  8 16  1  0  0  0  0
  8 17  1  0  0  0  0
  9 11  1  0  0  0  0
  9 19  1  0  0  0  0
 10 20  1  0  0  0  0
 10 21  1  0  0  0  0
 11 22  1  0  0  0  0
 11 23  1  0  0  0  0
 11 24  1  0  0  0  0
M  END
> <PUBCHEM_COMPOUND_CID>
517705
> <PUBCHEM_COMPOUND_CANONICALIZED>
1
> <PUBCHEM_CACTVS_COMPLEXITY>
59
> <PUBCHEM_CACTVS_HBOND_ACCEPTOR>
2
> <PUBCHEM_CACTVS_HBOND_DONOR>
4
> <PUBCHEM_CACTVS_ROTATABLE_BOND>
5
> <PUBCHEM_CACTVS_SUBSKEYS>
AAADceBjAAAAGAAAAAAAAAAAAAAAAAAAAAAAAAAAAAAAAAAAAAAAHABQAAAByADBAAQCAALAAAAAAAAAAAAAAAAAAAAAAIAIAAAAAAAAQAAEAAAAEACAAAAAAAAAAAAAAAAAAAAAAAAAAAAAAAAAAAAAAA==
> <PUBCHEM_IUPAC_OPENEYE_NAME>
N'-(2-bromopropyl)propane-1,3-diamine;dihydrobromide
> <PUBCHEM_IUPAC_CAS_NAME>
N'-(2-bromopropyl)propane-1,3-diamine;dihydrobromide
> <PUBCHEM_IUPAC_NAME_MARKUP>
<I>N</I>&apos;-(2-bromopropyl)propane-1,3-diamine;dihydrobromide
> <PUBCHEM_IUPAC_NAME>
N'-(2-bromopropyl)propane-1,3-diamine;dihydrobromide
> <PUBCHEM_IUPAC_SYSTEMATIC_NAME>
N'-(2-bromanylpropyl)propane-1,3-diamine;dihydrobromide
> <PUBCHEM_IUPAC_TRADITIONAL_NAME>
3-aminopropyl(2-bromopropyl)amine;dihydrobromide
> <PUBCHEM_IUPAC_INCHI>
InChI=1S/C6H15BrN2.2BrH/c1-6(7)5-9-4-2-3-8;;/h6,9H,2-5,8H2,1H3;2*1H
> <PUBCHEM_IUPAC_INCHIKEY>
OTIJJPLXARBDRE-UHFFFAOYSA-N
> <PUBCHEM_EXACT_MASS>
355.89214
> <PUBCHEM_MOLECULAR_FORMULA>
C6H17Br3N2
> <PUBCHEM_MOLECULAR_WEIGHT>
356.92
> <PUBCHEM_OPENEYE_CAN_SMILES>
CC(CNCCCN)Br.Br.Br
> <PUBCHEM_OPENEYE_ISO_SMILES>
CC(CNCCCN)Br.Br.Br
> <PUBCHEM_CACTVS_TPSA>
38
> <PUBCHEM_MONOISOTOPIC_WEIGHT>
353.89419
> <PUBCHEM_TOTAL_CHARGE>
0
> <PUBCHEM_HEAVY_ATOM_COUNT>
11
> <PUBCHEM_ATOM_DEF_STEREO_COUNT>
0
> <PUBCHEM_ATOM_UDEF_STEREO_COUNT>
1
> <PUBCHEM_BOND_DEF_STEREO_COUNT>
0
> <PUBCHEM_BOND_UDEF_STEREO_COUNT>
0
> <PUBCHEM_ISOTOPIC_ATOM_COUNT>
0
> <PUBCHEM_COMPONENT_COUNT>
3
> <PUBCHEM_CACTVS_TAUTO_COUNT>
-1
> <PUBCHEM_COORDINATE_TYPE>
1
5
255
> <PUBCHEM_BONDANNOTATIONS>
9  1  3
$$$$
