517756
  -OEChem-10302200292D
 48 51  0     1  0  0  0  0  0999 V2000
    7.7464   -2.2939    0.0000 O   0  0  0  0  0  0  0  0  0  0  0  0
    6.1628   -3.0986    0.0000 N   0  0  0  0  0  0  0  0  0  0  0  0
    4.5703    0.6236    0.0000 N   0  0  0  0  0  0  0  0  0  0  0  0
    6.1628   -1.4892    0.0000 C   0  0  3  0  0  0  0  0  0  0  0  0
    5.8555   -0.5376    0.0000 C   0  0  0  0  0  0  0  0  0  0  0  0
    5.2166   -1.7939    0.0000 C   0  0  0  0  0  0  0  0  0  0  0  0
    6.7464   -2.2939    0.0000 C   0  0  0  0  0  0  0  0  0  0  0  0
    6.9729   -0.9028    0.0000 C   0  0  0  0  0  0  0  0  0  0  0  0
    5.2166   -2.7939    0.0000 C   0  0  0  0  0  0  0  0  0  0  0  0
    4.8777   -0.3280    0.0000 C   0  0  0  0  0  0  0  0  0  0  0  0
    4.3506   -1.2939    0.0000 C   0  0  0  0  0  0  0  0  0  0  0  0
    6.8701    0.0919    0.0000 C   0  0  0  0  0  0  0  0  0  0  0  0
    7.8857   -1.3111    0.0000 C   0  0  0  0  0  0  0  0  0  0  0  0
    4.3506   -3.2939    0.0000 C   0  0  0  0  0  0  0  0  0  0  0  0
    3.4846   -1.7939    0.0000 C   0  0  0  0  0  0  0  0  0  0  0  0
    3.4846   -2.7939    0.0000 C   0  0  0  0  0  0  0  0  0  0  0  0
    3.5925    0.8332    0.0000 C   0  0  0  0  0  0  0  0  0  0  0  0
    7.6801    0.6783    0.0000 C   0  0  0  0  0  0  0  0  0  0  0  0
    8.6958   -0.7247    0.0000 C   0  0  0  0  0  0  0  0  0  0  0  0
    8.5929    0.2700    0.0000 C   0  0  0  0  0  0  0  0  0  0  0  0
    3.2852    1.7848    0.0000 C   0  0  0  0  0  0  0  0  0  0  0  0
    2.3074    1.9944    0.0000 C   0  0  0  0  0  0  0  0  0  0  0  0
    3.9556    2.5268    0.0000 C   0  0  0  0  0  0  0  0  0  0  0  0
    2.0000    2.9460    0.0000 C   0  0  0  0  0  0  0  0  0  0  0  0
    3.6482    3.4784    0.0000 C   0  0  0  0  0  0  0  0  0  0  0  0
    2.6704    3.6880    0.0000 C   0  0  0  0  0  0  0  0  0  0  0  0
    6.4696   -0.4524    0.0000 H   0  0  0  0  0  0  0  0  0  0  0  0
    5.8782    0.0820    0.0000 H   0  0  0  0  0  0  0  0  0  0  0  0
    4.2636   -0.4132    0.0000 H   0  0  0  0  0  0  0  0  0  0  0  0
    4.8550   -0.9476    0.0000 H   0  0  0  0  0  0  0  0  0  0  0  0
    6.3554   -3.6880    0.0000 H   0  0  0  0  0  0  0  0  0  0  0  0
    4.3506   -0.6739    0.0000 H   0  0  0  0  0  0  0  0  0  0  0  0
    6.3041    0.3451    0.0000 H   0  0  0  0  0  0  0  0  0  0  0  0
    7.9495   -1.9278    0.0000 H   0  0  0  0  0  0  0  0  0  0  0  0
    4.3506   -3.9139    0.0000 H   0  0  0  0  0  0  0  0  0  0  0  0
    4.9860    1.0836    0.0000 H   0  0  0  0  0  0  0  0  0  0  0  0
    2.9476   -1.4839    0.0000 H   0  0  0  0  0  0  0  0  0  0  0  0
    2.9476   -3.1039    0.0000 H   0  0  0  0  0  0  0  0  0  0  0  0
    2.9784    0.7480    0.0000 H   0  0  0  0  0  0  0  0  0  0  0  0
    3.5698    0.2136    0.0000 H   0  0  0  0  0  0  0  0  0  0  0  0
    7.6164    1.2950    0.0000 H   0  0  0  0  0  0  0  0  0  0  0  0
    9.2617   -0.9779    0.0000 H   0  0  0  0  0  0  0  0  0  0  0  0
    9.0952    0.6335    0.0000 H   0  0  0  0  0  0  0  0  0  0  0  0
    1.8917    1.5344    0.0000 H   0  0  0  0  0  0  0  0  0  0  0  0
    4.5618    2.3968    0.0000 H   0  0  0  0  0  0  0  0  0  0  0  0
    1.3938    3.0759    0.0000 H   0  0  0  0  0  0  0  0  0  0  0  0
    4.0639    3.9384    0.0000 H   0  0  0  0  0  0  0  0  0  0  0  0
    2.4798    4.2780    0.0000 H   0  0  0  0  0  0  0  0  0  0  0  0
  1  7  2  0  0  0  0
  2  7  1  0  0  0  0
  2  9  1  0  0  0  0
  2 31  1  0  0  0  0
  3 10  1  0  0  0  0
  3 17  1  0  0  0  0
  3 36  1  0  0  0  0
  4  5  1  0  0  0  0
  4  6  1  0  0  0  0
  4  7  1  0  0  0  0
  4  8  1  0  0  0  0
  5 10  1  0  0  0  0
  5 27  1  0  0  0  0
  5 28  1  0  0  0  0
  6  9  1  0  0  0  0
  6 11  2  0  0  0  0
  8 12  2  0  0  0  0
  8 13  1  0  0  0  0
  9 14  2  0  0  0  0
 10 29  1  0  0  0  0
 10 30  1  0  0  0  0
 11 15  1  0  0  0  0
 11 32  1  0  0  0  0
 12 18  1  0  0  0  0
 12 33  1  0  0  0  0
 13 19  2  0  0  0  0
 13 34  1  0  0  0  0
 14 16  1  0  0  0  0
 14 35  1  0  0  0  0
 15 16  2  0  0  0  0
 15 37  1  0  0  0  0
 16 38  1  0  0  0  0
 17 21  1  0  0  0  0
 17 39  1  0  0  0  0
 17 40  1  0  0  0  0
 18 20  2  0  0  0  0
 18 41  1  0  0  0  0
 19 20  1  0  0  0  0
 19 42  1  0  0  0  0
 20 43  1  0  0  0  0
 21 22  2  0  0  0  0
 21 23  1  0  0  0  0
 22 24  1  0  0  0  0
 22 44  1  0  0  0  0
 23 25  2  0  0  0  0
 23 45  1  0  0  0  0
 24 26  2  0  0  0  0
 24 46  1  0  0  0  0
 25 26  1  0  0  0  0
 25 47  1  0  0  0  0
 26 48  1  0  0  0  0
M  END
> <PUBCHEM_COMPOUND_CID>
517756
> <PUBCHEM_COMPOUND_CANONICALIZED>
1
> <PUBCHEM_CACTVS_COMPLEXITY>
467
> <PUBCHEM_CACTVS_HBOND_ACCEPTOR>
2
> <PUBCHEM_CACTVS_HBOND_DONOR>
2
> <PUBCHEM_CACTVS_ROTATABLE_BOND>
6
> <PUBCHEM_CACTVS_SUBSKEYS>
AAADceB7IAAAAAAAAAAAAAAAAAAAAWAAAAAwYMAAAAAAAFgBUAAAHgAQAAAADgjBmAQwwILAAACIAiVSUACCAAAhAgAIiIEIZIgIIDLAlZGEIAhglADIyAcciMCPgAAAAAACAAAAAAAAAAQAAAAAAAAAAA==
> <PUBCHEM_IUPAC_OPENEYE_NAME>
3-[2-(benzylamino)ethyl]-3-phenyl-indolin-2-one
> <PUBCHEM_IUPAC_CAS_NAME>
3-phenyl-3-[2-[(phenylmethyl)amino]ethyl]-1H-indol-2-one
> <PUBCHEM_IUPAC_NAME_MARKUP>
3-[2-(benzylamino)ethyl]-3-phenyl-1<I>H</I>-indol-2-one
> <PUBCHEM_IUPAC_NAME>
3-[2-(benzylamino)ethyl]-3-phenyl-1H-indol-2-one
> <PUBCHEM_IUPAC_SYSTEMATIC_NAME>
3-phenyl-3-[2-[(phenylmethyl)amino]ethyl]-1H-indol-2-one
> <PUBCHEM_IUPAC_TRADITIONAL_NAME>
3-[2-(benzylamino)ethyl]-3-phenyl-oxindole
> <PUBCHEM_IUPAC_INCHI>
InChI=1S/C23H22N2O/c26-22-23(19-11-5-2-6-12-19,20-13-7-8-14-21(20)25-22)15-16-24-17-18-9-3-1-4-10-18/h1-14,24H,15-17H2,(H,25,26)
> <PUBCHEM_IUPAC_INCHIKEY>
BSAVFKMKYUFQAX-UHFFFAOYSA-N
> <PUBCHEM_XLOGP3_AA>
3.7
> <PUBCHEM_EXACT_MASS>
342.173213330
> <PUBCHEM_MOLECULAR_FORMULA>
C23H22N2O
> <PUBCHEM_MOLECULAR_WEIGHT>
342.4
> <PUBCHEM_OPENEYE_CAN_SMILES>
C1=CC=C(C=C1)CNCCC2(C3=CC=CC=C3NC2=O)C4=CC=CC=C4
> <PUBCHEM_OPENEYE_ISO_SMILES>
C1=CC=C(C=C1)CNCCC2(C3=CC=CC=C3NC2=O)C4=CC=CC=C4
> <PUBCHEM_CACTVS_TPSA>
41.1
> <PUBCHEM_MONOISOTOPIC_WEIGHT>
342.173213330
> <PUBCHEM_TOTAL_CHARGE>
0
> <PUBCHEM_HEAVY_ATOM_COUNT>
26
> <PUBCHEM_ATOM_DEF_STEREO_COUNT>
0
> <PUBCHEM_ATOM_UDEF_STEREO_COUNT>
1
> <PUBCHEM_BOND_DEF_STEREO_COUNT>
0
> <PUBCHEM_BOND_UDEF_STEREO_COUNT>
0
> <PUBCHEM_ISOTOPIC_ATOM_COUNT>
0
> <PUBCHEM_COMPONENT_COUNT>
1
> <PUBCHEM_CACTVS_TAUTO_COUNT>
-1
> <PUBCHEM_COORDINATE_TYPE>
1
5
255
> <PUBCHEM_BONDANNOTATIONS>
11  15  8
12  18  8
13  19  8
14  16  8
15  16  8
18  20  8
19  20  8
21  22  8
21  23  8
22  24  8
23  25  8
24  26  8
25  26  8
4  5  3
6  11  8
6  9  8
8  12  8
8  13  8
9  14  8
$$$$
