517743
  -OEChem-10302200292D
 54 58  0     1  0  0  0  0  0999 V2000
    2.5381   -2.0958    0.0000 O   0  0  0  0  0  0  0  0  0  0  0  0
    8.4145    0.0373    0.0000 O   0  0  0  0  0  0  0  0  0  0  0  0
    6.5124   -0.5807    0.0000 N   0  0  3  0  0  0  0  0  0  0  0  0
    6.0682   -2.0716    0.0000 C   0  0  3  0  0  0  0  0  0  0  0  0
    6.9343   -1.5716    0.0000 C   0  0  3  0  0  0  0  0  0  0  0  0
    6.9343   -0.5716    0.0000 C   0  0  3  0  0  0  0  0  0  0  0  0
    5.8652   -1.7017    0.0000 C   0  0  0  0  0  0  0  0  0  0  0  0
    6.0522   -3.1131    0.0000 C   0  0  0  0  0  0  0  0  0  0  0  0
    7.8443   -2.0785    0.0000 C   0  0  0  0  0  0  0  0  0  0  0  0
    5.2022   -1.5716    0.0000 C   0  0  0  0  0  0  0  0  0  0  0  0
    6.0682   -0.0716    0.0000 C   0  0  0  0  0  0  0  0  0  0  0  0
    5.7815   -0.9061    0.0000 C   0  0  0  0  0  0  0  0  0  0  0  0
    6.9502   -3.6409    0.0000 C   0  0  0  0  0  0  0  0  0  0  0  0
    7.8523   -3.1201    0.0000 C   0  0  0  0  0  0  0  0  0  0  0  0
    5.2022   -0.5716    0.0000 C   0  0  0  0  0  0  0  0  0  0  0  0
    6.7203    0.3974    0.0000 C   0  0  0  0  0  0  0  0  0  0  0  0
    4.3083   -2.1063    0.0000 C   0  0  0  0  0  0  0  0  0  0  0  0
    4.3083   -0.0370    0.0000 C   0  0  0  0  0  0  0  0  0  0  0  0
    3.4022   -1.5924    0.0000 C   0  0  0  0  0  0  0  0  0  0  0  0
    3.4022   -0.5508    0.0000 C   0  0  0  0  0  0  0  0  0  0  0  0
    7.6713    0.7065    0.0000 C   0  0  0  0  0  0  0  0  0  0  0  0
    7.8792    1.6846    0.0000 C   0  0  0  0  0  0  0  0  0  0  0  0
    7.1361    2.3537    0.0000 C   0  0  0  0  0  0  0  0  0  0  0  0
    8.8303    1.9936    0.0000 C   0  0  0  0  0  0  0  0  0  0  0  0
    7.3440    3.3319    0.0000 C   0  0  0  0  0  0  0  0  0  0  0  0
    9.0382    2.9718    0.0000 C   0  0  0  0  0  0  0  0  0  0  0  0
    8.2951    3.6409    0.0000 C   0  0  0  0  0  0  0  0  0  0  0  0
    7.4688   -1.2575    0.0000 H   0  0  0  0  0  0  0  0  0  0  0  0
    7.4712   -0.2616    0.0000 H   0  0  0  0  0  0  0  0  0  0  0  0
    5.2704   -1.5266    0.0000 H   0  0  0  0  0  0  0  0  0  0  0  0
    6.4568   -1.5165    0.0000 H   0  0  0  0  0  0  0  0  0  0  0  0
    5.4431   -2.9976    0.0000 H   0  0  0  0  0  0  0  0  0  0  0  0
    5.8342   -3.6935    0.0000 H   0  0  0  0  0  0  0  0  0  0  0  0
    8.4559   -2.1799    0.0000 H   0  0  0  0  0  0  0  0  0  0  0  0
    8.0488   -1.4932    0.0000 H   0  0  0  0  0  0  0  0  0  0  0  0
    6.4668    0.4033    0.0000 H   0  0  0  0  0  0  0  0  0  0  0  0
    5.6697    0.4033    0.0000 H   0  0  0  0  0  0  0  0  0  0  0  0
    5.5899   -0.3164    0.0000 H   0  0  0  0  0  0  0  0  0  0  0  0
    5.1751   -1.0350    0.0000 H   0  0  0  0  0  0  0  0  0  0  0  0
    6.5493   -4.1138    0.0000 H   0  0  0  0  0  0  0  0  0  0  0  0
    7.3475   -4.1169    0.0000 H   0  0  0  0  0  0  0  0  0  0  0  0
    8.0659   -3.7021    0.0000 H   0  0  0  0  0  0  0  0  0  0  0  0
    8.4623   -3.0093    0.0000 H   0  0  0  0  0  0  0  0  0  0  0  0
    6.6340    1.0114    0.0000 H   0  0  0  0  0  0  0  0  0  0  0  0
    6.1007    0.4191    0.0000 H   0  0  0  0  0  0  0  0  0  0  0  0
    4.3154   -2.7263    0.0000 H   0  0  0  0  0  0  0  0  0  0  0  0
    4.3154    0.5830    0.0000 H   0  0  0  0  0  0  0  0  0  0  0  0
    2.8665   -0.2388    0.0000 H   0  0  0  0  0  0  0  0  0  0  0  0
    2.0000   -1.7879    0.0000 H   0  0  0  0  0  0  0  0  0  0  0  0
    6.5464    2.1621    0.0000 H   0  0  0  0  0  0  0  0  0  0  0  0
    9.2911    1.5788    0.0000 H   0  0  0  0  0  0  0  0  0  0  0  0
    6.8833    3.7467    0.0000 H   0  0  0  0  0  0  0  0  0  0  0  0
    9.6279    3.1634    0.0000 H   0  0  0  0  0  0  0  0  0  0  0  0
    8.4240    4.2474    0.0000 H   0  0  0  0  0  0  0  0  0  0  0  0
  1 19  1  0  0  0  0
  1 49  1  0  0  0  0
  2 21  2  0  0  0  0
  3  6  1  0  0  0  0
  3 12  1  0  0  0  0
  3 16  1  0  0  0  0
  4  5  1  0  0  0  0
  4  7  1  0  0  0  0
  4  8  1  0  0  0  0
  4 10  1  0  0  0  0
  5  6  1  0  0  0  0
  5  9  1  0  0  0  0
  5 28  1  0  0  0  0
  6 11  1  0  0  0  0
  6 29  1  0  0  0  0
  7 12  1  0  0  0  0
  7 30  1  0  0  0  0
  7 31  1  0  0  0  0
  8 13  1  0  0  0  0
  8 32  1  0  0  0  0
  8 33  1  0  0  0  0
  9 14  1  0  0  0  0
  9 34  1  0  0  0  0
  9 35  1  0  0  0  0
 10 15  2  0  0  0  0
 10 17  1  0  0  0  0
 11 15  1  0  0  0  0
 11 36  1  0  0  0  0
 11 37  1  0  0  0  0
 12 38  1  0  0  0  0
 12 39  1  0  0  0  0
 13 14  1  0  0  0  0
 13 40  1  0  0  0  0
 13 41  1  0  0  0  0
 14 42  1  0  0  0  0
 14 43  1  0  0  0  0
 15 18  1  0  0  0  0
 16 21  1  0  0  0  0
 16 44  1  0  0  0  0
 16 45  1  0  0  0  0
 17 19  2  0  0  0  0
 17 46  1  0  0  0  0
 18 20  2  0  0  0  0
 18 47  1  0  0  0  0
 19 20  1  0  0  0  0
 20 48  1  0  0  0  0
 21 22  1  0  0  0  0
 22 23  2  0  0  0  0
 22 24  1  0  0  0  0
 23 25  1  0  0  0  0
 23 50  1  0  0  0  0
 24 26  2  0  0  0  0
 24 51  1  0  0  0  0
 25 27  2  0  0  0  0
 25 52  1  0  0  0  0
 26 27  1  0  0  0  0
 26 53  1  0  0  0  0
 27 54  1  0  0  0  0
M  END
> <PUBCHEM_COMPOUND_CID>
517743
> <PUBCHEM_COMPOUND_CANONICALIZED>
1
> <PUBCHEM_CACTVS_COMPLEXITY>
557
> <PUBCHEM_CACTVS_HBOND_ACCEPTOR>
3
> <PUBCHEM_CACTVS_HBOND_DONOR>
1
> <PUBCHEM_CACTVS_ROTATABLE_BOND>
3
> <PUBCHEM_CACTVS_SUBSKEYS>
AAADceB6MAAAAAAAAAAAAAAAAAAAAAAAAAA8YMGCAAAWAADxQAAAHgAACAAADyzBmAQwBoMAAgCIAqBSAAACAAAkIAAIiAGOCMgIJjKClTOEcQAkwBGImYeYyPCPoAABAAAQAADQAAaAACQAAAAAAAAAAA==
> <PUBCHEM_IUPAC_OPENEYE_NAME>
2-(4-hydroxy-17-azatetracyclo[7.5.3.01,10.02,7]heptadeca-2(7),3,5-trien-17-yl)-1-phenyl-ethanone
> <PUBCHEM_IUPAC_CAS_NAME>
2-(4-hydroxy-17-azatetracyclo[7.5.3.01,10.02,7]heptadeca-2(7),3,5-trien-17-yl)-1-phenylethanone
> <PUBCHEM_IUPAC_NAME_MARKUP>
2-(4-hydroxy-17-azatetracyclo[7.5.3.0<SUP>1,10</SUP>.0<SUP>2,7</SUP>]heptadeca-2(7),3,5-trien-17-yl)-1-phenylethanone
> <PUBCHEM_IUPAC_NAME>
2-(4-hydroxy-17-azatetracyclo[7.5.3.01,10.02,7]heptadeca-2(7),3,5-trien-17-yl)-1-phenylethanone
> <PUBCHEM_IUPAC_SYSTEMATIC_NAME>
2-(4-oxidanyl-17-azatetracyclo[7.5.3.01,10.02,7]heptadeca-2(7),3,5-trien-17-yl)-1-phenyl-ethanone
> <PUBCHEM_IUPAC_TRADITIONAL_NAME>
2-(4-hydroxy-17-azatetracyclo[7.5.3.01,10.02,7]heptadeca-2(7),3,5-trien-17-yl)-1-phenyl-ethanone
> <PUBCHEM_IUPAC_INCHI>
InChI=1S/C24H27NO2/c26-19-10-9-18-14-22-20-8-4-5-11-24(20,21(18)15-19)12-13-25(22)16-23(27)17-6-2-1-3-7-17/h1-3,6-7,9-10,15,20,22,26H,4-5,8,11-14,16H2
> <PUBCHEM_IUPAC_INCHIKEY>
RCYBMSQOSGJZLO-UHFFFAOYSA-N
> <PUBCHEM_XLOGP3>
4.2
> <PUBCHEM_EXACT_MASS>
361.204179104
> <PUBCHEM_MOLECULAR_FORMULA>
C24H27NO2
> <PUBCHEM_MOLECULAR_WEIGHT>
361.5
> <PUBCHEM_OPENEYE_CAN_SMILES>
C1CCC23CCN(C(C2C1)CC4=C3C=C(C=C4)O)CC(=O)C5=CC=CC=C5
> <PUBCHEM_OPENEYE_ISO_SMILES>
C1CCC23CCN(C(C2C1)CC4=C3C=C(C=C4)O)CC(=O)C5=CC=CC=C5
> <PUBCHEM_CACTVS_TPSA>
40.5
> <PUBCHEM_MONOISOTOPIC_WEIGHT>
361.204179104
> <PUBCHEM_TOTAL_CHARGE>
0
> <PUBCHEM_HEAVY_ATOM_COUNT>
27
> <PUBCHEM_ATOM_DEF_STEREO_COUNT>
0
> <PUBCHEM_ATOM_UDEF_STEREO_COUNT>
3
> <PUBCHEM_BOND_DEF_STEREO_COUNT>
0
> <PUBCHEM_BOND_UDEF_STEREO_COUNT>
0
> <PUBCHEM_ISOTOPIC_ATOM_COUNT>
0
> <PUBCHEM_COMPONENT_COUNT>
1
> <PUBCHEM_CACTVS_TAUTO_COUNT>
-1
> <PUBCHEM_COORDINATE_TYPE>
1
5
255
> <PUBCHEM_BONDANNOTATIONS>
10  15  8
10  17  8
15  18  8
17  19  8
18  20  8
19  20  8
22  23  8
22  24  8
23  25  8
24  26  8
25  27  8
26  27  8
4  8  3
5  9  3
6  11  3
$$$$
