517730
  -OEChem-10302200292D
 24 24  0     1  0  0  0  0  0999 V2000
    4.0000   -0.0406    0.0000 O   0  0  0  0  0  0  0  0  0  0  0  0
    3.0000   -1.0406    0.0000 C   0  0  0  0  0  0  0  0  0  0  0  0
    2.1910   -1.6284    0.0000 C   0  0  0  0  0  0  0  0  0  0  0  0
    3.8090   -1.6284    0.0000 C   0  0  0  0  0  0  0  0  0  0  0  0
    2.5000   -2.5794    0.0000 C   0  0  0  0  0  0  0  0  0  0  0  0
    3.5000   -2.5794    0.0000 C   0  0  0  0  0  0  0  0  0  0  0  0
    3.0000   -0.0406    0.0000 C   0  0  3  0  0  0  0  0  0  0  0  0
    2.0000   -0.0406    0.0000 C   0  0  0  0  0  0  0  0  0  0  0  0
    3.0000    0.9594    0.0000 C   0  0  0  0  0  0  0  0  0  0  0  0
    3.0000    1.9594    0.0000 C   0  0  0  0  0  0  0  0  0  0  0  0
    3.5524   -0.7591    0.0000 H   0  0  0  0  0  0  0  0  0  0  0  0
    1.8810   -1.0914    0.0000 H   0  0  0  0  0  0  0  0  0  0  0  0
    1.6246   -1.8805    0.0000 H   0  0  0  0  0  0  0  0  0  0  0  0
    4.3754   -1.8805    0.0000 H   0  0  0  0  0  0  0  0  0  0  0  0
    4.1190   -1.0914    0.0000 H   0  0  0  0  0  0  0  0  0  0  0  0
    1.8936   -2.7083    0.0000 H   0  0  0  0  0  0  0  0  0  0  0  0
    2.5648   -3.1960    0.0000 H   0  0  0  0  0  0  0  0  0  0  0  0
    3.4352   -3.1960    0.0000 H   0  0  0  0  0  0  0  0  0  0  0  0
    4.1064   -2.7083    0.0000 H   0  0  0  0  0  0  0  0  0  0  0  0
    2.0000    0.5794    0.0000 H   0  0  0  0  0  0  0  0  0  0  0  0
    1.3800   -0.0406    0.0000 H   0  0  0  0  0  0  0  0  0  0  0  0
    2.0000   -0.6606    0.0000 H   0  0  0  0  0  0  0  0  0  0  0  0
    4.3100    0.4964    0.0000 H   0  0  0  0  0  0  0  0  0  0  0  0
    3.0000    2.5794    0.0000 H   0  0  0  0  0  0  0  0  0  0  0  0
  1  7  1  0  0  0  0
  1 23  1  0  0  0  0
  2  3  1  0  0  0  0
  2  4  1  0  0  0  0
  2  7  1  0  0  0  0
  2 11  1  0  0  0  0
  3  5  1  0  0  0  0
  3 12  1  0  0  0  0
  3 13  1  0  0  0  0
  4  6  1  0  0  0  0
  4 14  1  0  0  0  0
  4 15  1  0  0  0  0
  5  6  1  0  0  0  0
  5 16  1  0  0  0  0
  5 17  1  0  0  0  0
  6 18  1  0  0  0  0
  6 19  1  0  0  0  0
  7  8  1  0  0  0  0
  7  9  1  0  0  0  0
  8 20  1  0  0  0  0
  8 21  1  0  0  0  0
  8 22  1  0  0  0  0
  9 10  3  0  0  0  0
 10 24  1  0  0  0  0
M  END
> <PUBCHEM_COMPOUND_CID>
517730
> <PUBCHEM_COMPOUND_CANONICALIZED>
1
> <PUBCHEM_CACTVS_COMPLEXITY>
159
> <PUBCHEM_CACTVS_HBOND_ACCEPTOR>
1
> <PUBCHEM_CACTVS_HBOND_DONOR>
1
> <PUBCHEM_CACTVS_ROTATABLE_BOND>
2
> <PUBCHEM_CACTVS_SUBSKEYS>
AAADccBwIAAAAAAAAAAAAAAAAAAAAYAAAAAAAAAAAAAAAAAAAAAAGgAACAAADUSAgAACAAAAAgBAGAAAAAgAAAAAAAAAAAAAAAAAAAIAAAAAQAAEAAAAAAGAwEAOgAAAAAAAAAAAAAAAAAAAAAAAAAAAAA==
> <PUBCHEM_IUPAC_OPENEYE_NAME>
2-cyclopentylbut-3-yn-2-ol
> <PUBCHEM_IUPAC_CAS_NAME>
2-cyclopentyl-3-butyn-2-ol
> <PUBCHEM_IUPAC_NAME_MARKUP>
2-cyclopentylbut-3-yn-2-ol
> <PUBCHEM_IUPAC_NAME>
2-cyclopentylbut-3-yn-2-ol
> <PUBCHEM_IUPAC_SYSTEMATIC_NAME>
2-cyclopentylbut-3-yn-2-ol
> <PUBCHEM_IUPAC_TRADITIONAL_NAME>
2-cyclopentylbut-3-yn-2-ol
> <PUBCHEM_IUPAC_INCHI>
InChI=1S/C9H14O/c1-3-9(2,10)8-6-4-5-7-8/h1,8,10H,4-7H2,2H3
> <PUBCHEM_IUPAC_INCHIKEY>
POUOCSXBRGBQME-UHFFFAOYSA-N
> <PUBCHEM_XLOGP3_AA>
1.7
> <PUBCHEM_EXACT_MASS>
138.104465066
> <PUBCHEM_MOLECULAR_FORMULA>
C9H14O
> <PUBCHEM_MOLECULAR_WEIGHT>
138.21
> <PUBCHEM_OPENEYE_CAN_SMILES>
CC(C#C)(C1CCCC1)O
> <PUBCHEM_OPENEYE_ISO_SMILES>
CC(C#C)(C1CCCC1)O
> <PUBCHEM_CACTVS_TPSA>
20.2
> <PUBCHEM_MONOISOTOPIC_WEIGHT>
138.104465066
> <PUBCHEM_TOTAL_CHARGE>
0
> <PUBCHEM_HEAVY_ATOM_COUNT>
10
> <PUBCHEM_ATOM_DEF_STEREO_COUNT>
0
> <PUBCHEM_ATOM_UDEF_STEREO_COUNT>
1
> <PUBCHEM_BOND_DEF_STEREO_COUNT>
0
> <PUBCHEM_BOND_UDEF_STEREO_COUNT>
0
> <PUBCHEM_ISOTOPIC_ATOM_COUNT>
0
> <PUBCHEM_COMPONENT_COUNT>
1
> <PUBCHEM_CACTVS_TAUTO_COUNT>
-1
> <PUBCHEM_COORDINATE_TYPE>
1
5
255
> <PUBCHEM_BONDANNOTATIONS>
7  8  3
$$$$
