517795
  -OEChem-10302200292D
 35 35  0     1  0  0  0  0  0999 V2000
    5.5981   -2.1900    0.0000 O   0  0  0  0  0  0  0  0  0  0  0  0
    3.0000    1.3100    0.0000 O   0  0  0  0  0  0  0  0  0  0  0  0
    3.0000   -0.6900    0.0000 C   0  0  0  0  0  0  0  0  0  0  0  0
    3.0000   -1.6900    0.0000 C   0  0  0  0  0  0  0  0  0  0  0  0
    3.8660   -2.1900    0.0000 C   0  0  0  0  0  0  0  0  0  0  0  0
    3.8660   -0.1900    0.0000 C   0  0  0  0  0  0  0  0  0  0  0  0
    4.7320   -1.6900    0.0000 C   0  0  3  0  0  0  0  0  0  0  0  0
    4.7320   -0.6900    0.0000 C   0  0  0  0  0  0  0  0  0  0  0  0
    2.0000   -0.6900    0.0000 C   0  0  0  0  0  0  0  0  0  0  0  0
    2.5000    0.1760    0.0000 C   0  0  0  0  0  0  0  0  0  0  0  0
    3.8660    0.8100    0.0000 C   0  0  0  0  0  0  0  0  0  0  0  0
    5.5981   -0.1900    0.0000 C   0  0  0  0  0  0  0  0  0  0  0  0
    4.7320    1.3100    0.0000 C   0  0  0  0  0  0  0  0  0  0  0  0
    4.7320    2.3100    0.0000 C   0  0  0  0  0  0  0  0  0  0  0  0
    5.5981    2.8100    0.0000 C   0  0  0  0  0  0  0  0  0  0  0  0
    2.3894   -1.5823    0.0000 H   0  0  0  0  0  0  0  0  0  0  0  0
    2.7880   -2.2726    0.0000 H   0  0  0  0  0  0  0  0  0  0  0  0
    3.4675   -2.6650    0.0000 H   0  0  0  0  0  0  0  0  0  0  0  0
    4.2646   -2.6650    0.0000 H   0  0  0  0  0  0  0  0  0  0  0  0
    4.7320   -2.3100    0.0000 H   0  0  0  0  0  0  0  0  0  0  0  0
    2.0000   -0.0700    0.0000 H   0  0  0  0  0  0  0  0  0  0  0  0
    1.3800   -0.6900    0.0000 H   0  0  0  0  0  0  0  0  0  0  0  0
    2.0000   -1.3100    0.0000 H   0  0  0  0  0  0  0  0  0  0  0  0
    3.0369    0.4860    0.0000 H   0  0  0  0  0  0  0  0  0  0  0  0
    2.1900    0.7130    0.0000 H   0  0  0  0  0  0  0  0  0  0  0  0
    1.9631   -0.1340    0.0000 H   0  0  0  0  0  0  0  0  0  0  0  0
    5.9081   -0.7269    0.0000 H   0  0  0  0  0  0  0  0  0  0  0  0
    6.1350    0.1200    0.0000 H   0  0  0  0  0  0  0  0  0  0  0  0
    5.2881    0.3469    0.0000 H   0  0  0  0  0  0  0  0  0  0  0  0
    5.5981   -2.8100    0.0000 H   0  0  0  0  0  0  0  0  0  0  0  0
    5.2690    1.0000    0.0000 H   0  0  0  0  0  0  0  0  0  0  0  0
    4.1951    2.6200    0.0000 H   0  0  0  0  0  0  0  0  0  0  0  0
    5.9081    2.2731    0.0000 H   0  0  0  0  0  0  0  0  0  0  0  0
    6.1350    3.1200    0.0000 H   0  0  0  0  0  0  0  0  0  0  0  0
    5.2881    3.3469    0.0000 H   0  0  0  0  0  0  0  0  0  0  0  0
  1  7  1  0  0  0  0
  1 30  1  0  0  0  0
  2 11  2  0  0  0  0
  3  4  1  0  0  0  0
  3  6  1  0  0  0  0
  3  9  1  0  0  0  0
  3 10  1  0  0  0  0
  4  5  1  0  0  0  0
  4 16  1  0  0  0  0
  4 17  1  0  0  0  0
  5  7  1  0  0  0  0
  5 18  1  0  0  0  0
  5 19  1  0  0  0  0
  6  8  2  0  0  0  0
  6 11  1  0  0  0  0
  7  8  1  0  0  0  0
  7 20  1  0  0  0  0
  8 12  1  0  0  0  0
  9 21  1  0  0  0  0
  9 22  1  0  0  0  0
  9 23  1  0  0  0  0
 10 24  1  0  0  0  0
 10 25  1  0  0  0  0
 10 26  1  0  0  0  0
 11 13  1  0  0  0  0
 12 27  1  0  0  0  0
 12 28  1  0  0  0  0
 12 29  1  0  0  0  0
 13 14  2  3  0  0  0
 13 31  1  0  0  0  0
 14 15  1  0  0  0  0
 14 32  1  0  0  0  0
 15 33  1  0  0  0  0
 15 34  1  0  0  0  0
 15 35  1  0  0  0  0
M  END
> <PUBCHEM_COMPOUND_CID>
517795
> <PUBCHEM_COMPOUND_CANONICALIZED>
1
> <PUBCHEM_CACTVS_COMPLEXITY>
321
> <PUBCHEM_CACTVS_HBOND_ACCEPTOR>
2
> <PUBCHEM_CACTVS_HBOND_DONOR>
1
> <PUBCHEM_CACTVS_ROTATABLE_BOND>
2
> <PUBCHEM_CACTVS_SUBSKEYS>
AAADceBwMAAAAAAAAAAAAAAAAAAAAAAAAAAgAAAAAAAAAAAAAAAAGgAACAAADhSggAICAAAAAgCIAqBSAAAAAAAgAAAICAEAAEgAFBIAAQAAUAAEgAAIEYOIyOCPAAAAAAAAAAAAAAAAAAAAAAAAAAAAAA==
> <PUBCHEM_IUPAC_OPENEYE_NAME>
1-(3-hydroxy-2,6,6-trimethyl-cyclohexen-1-yl)but-2-en-1-one
> <PUBCHEM_IUPAC_CAS_NAME>
1-(3-hydroxy-2,6,6-trimethyl-1-cyclohexenyl)-2-buten-1-one
> <PUBCHEM_IUPAC_NAME_MARKUP>
1-(3-hydroxy-2,6,6-trimethylcyclohexen-1-yl)but-2-en-1-one
> <PUBCHEM_IUPAC_NAME>
1-(3-hydroxy-2,6,6-trimethylcyclohexen-1-yl)but-2-en-1-one
> <PUBCHEM_IUPAC_SYSTEMATIC_NAME>
1-(2,6,6-trimethyl-3-oxidanyl-cyclohexen-1-yl)but-2-en-1-one
> <PUBCHEM_IUPAC_TRADITIONAL_NAME>
1-(3-hydroxy-2,6,6-trimethyl-cyclohexen-1-yl)but-2-en-1-one
> <PUBCHEM_IUPAC_INCHI>
InChI=1S/C13H20O2/c1-5-6-11(15)12-9(2)10(14)7-8-13(12,3)4/h5-6,10,14H,7-8H2,1-4H3
> <PUBCHEM_IUPAC_INCHIKEY>
NOORESDHJXLGAO-UHFFFAOYSA-N
> <PUBCHEM_XLOGP3_AA>
2
> <PUBCHEM_EXACT_MASS>
208.146329876
> <PUBCHEM_MOLECULAR_FORMULA>
C13H20O2
> <PUBCHEM_MOLECULAR_WEIGHT>
208.30
> <PUBCHEM_OPENEYE_CAN_SMILES>
CC=CC(=O)C1=C(C(CCC1(C)C)O)C
> <PUBCHEM_OPENEYE_ISO_SMILES>
CC=CC(=O)C1=C(C(CCC1(C)C)O)C
> <PUBCHEM_CACTVS_TPSA>
37.3
> <PUBCHEM_MONOISOTOPIC_WEIGHT>
208.146329876
> <PUBCHEM_TOTAL_CHARGE>
0
> <PUBCHEM_HEAVY_ATOM_COUNT>
15
> <PUBCHEM_ATOM_DEF_STEREO_COUNT>
0
> <PUBCHEM_ATOM_UDEF_STEREO_COUNT>
1
> <PUBCHEM_BOND_DEF_STEREO_COUNT>
0
> <PUBCHEM_BOND_UDEF_STEREO_COUNT>
1
> <PUBCHEM_ISOTOPIC_ATOM_COUNT>
0
> <PUBCHEM_COMPONENT_COUNT>
1
> <PUBCHEM_CACTVS_TAUTO_COUNT>
-1
> <PUBCHEM_COORDINATE_TYPE>
1
5
255
> <PUBCHEM_BONDANNOTATIONS>
7  1  3
13  14  1
$$$$
