517811
  -OEChem-10302200292D
 71 76  0     1  0  0  0  0  0999 V2000
    3.8013   -2.5113    0.0000 O   0  0  0  0  0  0  0  0  0  0  0  0
    5.3448   -2.0259    0.0000 O   0  0  0  0  0  0  0  0  0  0  0  0
    2.6200    0.9607    0.0000 O   0  0  0  0  0  0  0  0  0  0  0  0
   11.0679    1.7160    0.0000 O   0  0  0  0  0  0  0  0  0  0  0  0
   10.2535    3.1142    0.0000 O   0  0  0  0  0  0  0  0  0  0  0  0
    5.7027   -0.4500    0.0000 C   0  0  3  0  0  0  0  0  0  0  0  0
    5.7108    0.5916    0.0000 C   0  0  3  0  0  0  0  0  0  0  0  0
    6.6208    1.0984    0.0000 C   0  0  3  0  0  0  0  0  0  0  0  0
    4.7147   -0.7598    0.0000 C   0  0  3  0  0  0  0  0  0  0  0  0
    7.4868    0.5985    0.0000 C   0  0  3  0  0  0  0  0  0  0  0  0
    4.7276    0.9166    0.0000 C   0  0  0  0  0  0  0  0  0  0  0  0
    4.1133    0.0831    0.0000 C   0  0  3  0  0  0  0  0  0  0  0  0
    6.6048   -0.9708    0.0000 C   0  0  0  0  0  0  0  0  0  0  0  0
    8.3528    1.0984    0.0000 C   0  0  3  0  0  0  0  0  0  0  0  0
    7.5028   -0.4431    0.0000 C   0  0  0  0  0  0  0  0  0  0  0  0
    6.6208    2.0984    0.0000 C   0  0  0  0  0  0  0  0  0  0  0  0
    4.3967   -1.7079    0.0000 C   0  0  0  0  0  0  0  0  0  0  0  0
    5.6950   -1.4500    0.0000 C   0  0  0  0  0  0  0  0  0  0  0  0
    8.3528    2.0984    0.0000 C   0  0  0  0  0  0  0  0  0  0  0  0
    9.2467    0.5638    0.0000 C   0  0  0  0  0  0  0  0  0  0  0  0
    7.4868    2.5984    0.0000 C   0  0  0  0  0  0  0  0  0  0  0  0
    3.1133    0.0908    0.0000 C   0  0  0  0  0  0  0  0  0  0  0  0
    8.3528    0.0985    0.0000 C   0  0  0  0  0  0  0  0  0  0  0  0
    9.2467    2.6331    0.0000 C   0  0  0  0  0  0  0  0  0  0  0  0
   10.1528    1.0776    0.0000 C   0  0  0  0  0  0  0  0  0  0  0  0
   10.1528    2.1193    0.0000 C   0  0  0  0  0  0  0  0  0  0  0  0
    3.5933   -1.1125    0.0000 C   0  0  0  0  0  0  0  0  0  0  0  0
    4.3814   -3.3259    0.0000 C   0  0  0  0  0  0  0  0  0  0  0  0
    5.3354   -3.0258    0.0000 C   0  0  0  0  0  0  0  0  0  0  0  0
   11.7342    2.4618    0.0000 C   0  0  0  0  0  0  0  0  0  0  0  0
   11.2308    3.3259    0.0000 C   0  0  0  0  0  0  0  0  0  0  0  0
    5.6523    1.2088    0.0000 H   0  0  0  0  0  0  0  0  0  0  0  0
    7.1577    1.4084    0.0000 H   0  0  0  0  0  0  0  0  0  0  0  0
    4.1015   -0.8513    0.0000 H   0  0  0  0  0  0  0  0  0  0  0  0
    8.0261    0.2926    0.0000 H   0  0  0  0  0  0  0  0  0  0  0  0
    4.9830    1.4816    0.0000 H   0  0  0  0  0  0  0  0  0  0  0  0
    4.1926    1.2300    0.0000 H   0  0  0  0  0  0  0  0  0  0  0  0
    3.8358    0.6375    0.0000 H   0  0  0  0  0  0  0  0  0  0  0  0
    6.2075   -1.4468    0.0000 H   0  0  0  0  0  0  0  0  0  0  0  0
    7.0058   -1.4437    0.0000 H   0  0  0  0  0  0  0  0  0  0  0  0
    7.7209   -1.0234    0.0000 H   0  0  0  0  0  0  0  0  0  0  0  0
    8.1120   -0.3276    0.0000 H   0  0  0  0  0  0  0  0  0  0  0  0
    6.4087    2.6811    0.0000 H   0  0  0  0  0  0  0  0  0  0  0  0
    6.0102    1.9908    0.0000 H   0  0  0  0  0  0  0  0  0  0  0  0
    5.0750   -1.4452    0.0000 H   0  0  0  0  0  0  0  0  0  0  0  0
    5.6902   -2.0700    0.0000 H   0  0  0  0  0  0  0  0  0  0  0  0
    6.3150   -1.4547    0.0000 H   0  0  0  0  0  0  0  0  0  0  0  0
    8.8421    0.0940    0.0000 H   0  0  0  0  0  0  0  0  0  0  0  0
    9.6404    0.0848    0.0000 H   0  0  0  0  0  0  0  0  0  0  0  0
    7.4868    3.2184    0.0000 H   0  0  0  0  0  0  0  0  0  0  0  0
    2.5291   -0.1168    0.0000 H   0  0  0  0  0  0  0  0  0  0  0  0
    3.2162   -0.5206    0.0000 H   0  0  0  0  0  0  0  0  0  0  0  0
    7.7328    0.0985    0.0000 H   0  0  0  0  0  0  0  0  0  0  0  0
    8.3528   -0.5215    0.0000 H   0  0  0  0  0  0  0  0  0  0  0  0
    8.9728    0.0985    0.0000 H   0  0  0  0  0  0  0  0  0  0  0  0
    9.6404    3.1121    0.0000 H   0  0  0  0  0  0  0  0  0  0  0  0
    8.8421    3.1029    0.0000 H   0  0  0  0  0  0  0  0  0  0  0  0
   10.3619    0.4939    0.0000 H   0  0  0  0  0  0  0  0  0  0  0  0
   10.7637    1.1837    0.0000 H   0  0  0  0  0  0  0  0  0  0  0  0
    3.9624   -0.6144    0.0000 H   0  0  0  0  0  0  0  0  0  0  0  0
    3.0951   -0.7434    0.0000 H   0  0  0  0  0  0  0  0  0  0  0  0
    3.2241   -1.6106    0.0000 H   0  0  0  0  0  0  0  0  0  0  0  0
    3.8416   -3.6308    0.0000 H   0  0  0  0  0  0  0  0  0  0  0  0
    4.6283   -3.8946    0.0000 H   0  0  0  0  0  0  0  0  0  0  0  0
    5.4585   -3.6335    0.0000 H   0  0  0  0  0  0  0  0  0  0  0  0
    5.9525   -2.9668    0.0000 H   0  0  0  0  0  0  0  0  0  0  0  0
    2.0000    0.9654    0.0000 H   0  0  0  0  0  0  0  0  0  0  0  0
   12.1508    2.0026    0.0000 H   0  0  0  0  0  0  0  0  0  0  0  0
   12.2344    2.8281    0.0000 H   0  0  0  0  0  0  0  0  0  0  0  0
   11.7963    3.5802    0.0000 H   0  0  0  0  0  0  0  0  0  0  0  0
   11.0370    3.9148    0.0000 H   0  0  0  0  0  0  0  0  0  0  0  0
  1 17  1  0  0  0  0
  1 28  1  0  0  0  0
  2 17  1  0  0  0  0
  2 29  1  0  0  0  0
  3 22  1  0  0  0  0
  3 67  1  0  0  0  0
  4 26  1  0  0  0  0
  4 30  1  0  0  0  0
  5 26  1  0  0  0  0
  5 31  1  0  0  0  0
  6  7  1  0  0  0  0
  6  9  1  0  0  0  0
  6 13  1  0  0  0  0
  6 18  1  0  0  0  0
  7  8  1  0  0  0  0
  7 11  1  0  0  0  0
  7 32  1  0  0  0  0
  8 10  1  0  0  0  0
  8 16  1  0  0  0  0
  8 33  1  0  0  0  0
  9 12  1  0  0  0  0
  9 17  1  0  0  0  0
  9 34  1  0  0  0  0
 10 14  1  0  0  0  0
 10 15  1  0  0  0  0
 10 35  1  0  0  0  0
 11 12  1  0  0  0  0
 11 36  1  0  0  0  0
 11 37  1  0  0  0  0
 12 22  1  0  0  0  0
 12 38  1  0  0  0  0
 13 15  1  0  0  0  0
 13 39  1  0  0  0  0
 13 40  1  0  0  0  0
 14 19  1  0  0  0  0
 14 20  1  0  0  0  0
 14 23  1  0  0  0  0
 15 41  1  0  0  0  0
 15 42  1  0  0  0  0
 16 21  1  0  0  0  0
 16 43  1  0  0  0  0
 16 44  1  0  0  0  0
 17 27  1  0  0  0  0
 18 45  1  0  0  0  0
 18 46  1  0  0  0  0
 18 47  1  0  0  0  0
 19 21  2  0  0  0  0
 19 24  1  0  0  0  0
 20 25  1  0  0  0  0
 20 48  1  0  0  0  0
 20 49  1  0  0  0  0
 21 50  1  0  0  0  0
 22 51  1  0  0  0  0
 22 52  1  0  0  0  0
 23 53  1  0  0  0  0
 23 54  1  0  0  0  0
 23 55  1  0  0  0  0
 24 26  1  0  0  0  0
 24 56  1  0  0  0  0
 24 57  1  0  0  0  0
 25 26  1  0  0  0  0
 25 58  1  0  0  0  0
 25 59  1  0  0  0  0
 27 60  1  0  0  0  0
 27 61  1  0  0  0  0
 27 62  1  0  0  0  0
 28 29  1  0  0  0  0
 28 63  1  0  0  0  0
 28 64  1  0  0  0  0
 29 65  1  0  0  0  0
 29 66  1  0  0  0  0
 30 31  1  0  0  0  0
 30 68  1  0  0  0  0
 30 69  1  0  0  0  0
 31 70  1  0  0  0  0
 31 71  1  0  0  0  0
M  END
> <PUBCHEM_COMPOUND_CID>
517811
> <PUBCHEM_COMPOUND_CANONICALIZED>
1
> <PUBCHEM_CACTVS_COMPLEXITY>
751
> <PUBCHEM_CACTVS_HBOND_ACCEPTOR>
5
> <PUBCHEM_CACTVS_HBOND_DONOR>
1
> <PUBCHEM_CACTVS_ROTATABLE_BOND>
2
> <PUBCHEM_CACTVS_SUBSKEYS>
AAADcfB4OAAAAAAAAAAAAAAAAAAAAaJEAAAwYIAAAAAAAGCAAAAAGgAACAAADwSggAICCAAABgCAAiBCAAAAAAAgAAAACAAAAAgREAIAAQAiQAAEwAAOAAPAwPAPgAAAAAAAAADAAAQAACAAAQAACAAAAA==
> <PUBCHEM_IUPAC_OPENEYE_NAME>
[10,13-dimethyl-17-(2-methyl-1,3-dioxolan-2-yl)spiro[1,2,4,7,8,9,11,12,14,15,16,17-dodecahydrocyclopenta[a]phenanthrene-3,2'-1,3-dioxolane]-16-yl]methanol
> <PUBCHEM_IUPAC_CAS_NAME>
[10,13-dimethyl-17-(2-methyl-1,3-dioxolan-2-yl)-16-spiro[1,2,4,7,8,9,11,12,14,15,16,17-dodecahydrocyclopenta[a]phenanthrene-3,2'-1,3-dioxolane]yl]methanol
> <PUBCHEM_IUPAC_NAME_MARKUP>
[10,13-dimethyl-17-(2-methyl-1,3-dioxolan-2-yl)spiro[1,2,4,7,8,9,11,12,14,15,16,17-dodecahydrocyclopenta[a]phenanthrene-3,2&apos;-1,3-dioxolane]-16-yl]methanol
> <PUBCHEM_IUPAC_NAME>
[10,13-dimethyl-17-(2-methyl-1,3-dioxolan-2-yl)spiro[1,2,4,7,8,9,11,12,14,15,16,17-dodecahydrocyclopenta[a]phenanthrene-3,2'-1,3-dioxolane]-16-yl]methanol
> <PUBCHEM_IUPAC_SYSTEMATIC_NAME>
[10,13-dimethyl-17-(2-methyl-1,3-dioxolan-2-yl)spiro[1,2,4,7,8,9,11,12,14,15,16,17-dodecahydrocyclopenta[a]phenanthrene-3,2'-1,3-dioxolane]-16-yl]methanol
> <PUBCHEM_IUPAC_TRADITIONAL_NAME>
[10,13-dimethyl-17-(2-methyl-1,3-dioxolan-2-yl)spiro[1,2,4,7,8,9,11,12,14,15,16,17-dodecahydrocyclopenta[a]phenanthrene-3,2'-1,3-dioxolane]-16-yl]methanol
> <PUBCHEM_IUPAC_INCHI>
InChI=1S/C26H40O5/c1-23-8-9-26(30-12-13-31-26)15-18(23)4-5-19-20(23)6-7-24(2)21(19)14-17(16-27)22(24)25(3)28-10-11-29-25/h4,17,19-22,27H,5-16H2,1-3H3
> <PUBCHEM_IUPAC_INCHIKEY>
SQUUQRMCBJCKEJ-UHFFFAOYSA-N
> <PUBCHEM_XLOGP3_AA>
3.5
> <PUBCHEM_EXACT_MASS>
432.28757437
> <PUBCHEM_MOLECULAR_FORMULA>
C26H40O5
> <PUBCHEM_MOLECULAR_WEIGHT>
432.6
> <PUBCHEM_OPENEYE_CAN_SMILES>
CC12CCC3(CC1=CCC4C2CCC5(C4CC(C5C6(OCCO6)C)CO)C)OCCO3
> <PUBCHEM_OPENEYE_ISO_SMILES>
CC12CCC3(CC1=CCC4C2CCC5(C4CC(C5C6(OCCO6)C)CO)C)OCCO3
> <PUBCHEM_CACTVS_TPSA>
57.2
> <PUBCHEM_MONOISOTOPIC_WEIGHT>
432.28757437
> <PUBCHEM_TOTAL_CHARGE>
0
> <PUBCHEM_HEAVY_ATOM_COUNT>
31
> <PUBCHEM_ATOM_DEF_STEREO_COUNT>
0
> <PUBCHEM_ATOM_UDEF_STEREO_COUNT>
7
> <PUBCHEM_BOND_DEF_STEREO_COUNT>
0
> <PUBCHEM_BOND_UDEF_STEREO_COUNT>
0
> <PUBCHEM_ISOTOPIC_ATOM_COUNT>
0
> <PUBCHEM_COMPONENT_COUNT>
1
> <PUBCHEM_CACTVS_TAUTO_COUNT>
-1
> <PUBCHEM_COORDINATE_TYPE>
1
5
255
> <PUBCHEM_BONDANNOTATIONS>
10  15  3
12  22  3
14  23  3
6  18  3
7  11  3
8  16  3
9  17  3
$$$$
