517851
  -OEChem-10302200292D
 43 47  0     1  0  0  0  0  0999 V2000
    5.8048   -2.7970    0.0000 O   0  0  0  0  0  0  0  0  0  0  0  0
    7.3884   -1.9923    0.0000 O   0  0  0  0  0  0  0  0  0  0  0  0
    5.7297    1.9198    0.0000 O   0  0  0  0  0  0  0  0  0  0  0  0
    3.3762   -0.6849    0.0000 O   0  0  0  0  0  0  0  0  0  0  0  0
    4.7555    0.4345    0.0000 N   0  0  0  0  0  0  0  0  0  0  0  0
    5.8048   -1.1875    0.0000 C   0  0  3  0  0  0  0  0  0  0  0  0
    5.4975   -0.2360    0.0000 C   0  0  0  0  0  0  0  0  0  0  0  0
    4.8586   -1.4923    0.0000 C   0  0  0  0  0  0  0  0  0  0  0  0
    6.6149   -0.6012    0.0000 C   0  0  0  0  0  0  0  0  0  0  0  0
    6.3884   -1.9923    0.0000 C   0  0  0  0  0  0  0  0  0  0  0  0
    4.8586   -2.4923    0.0000 C   0  0  0  0  0  0  0  0  0  0  0  0
    3.9926   -0.9923    0.0000 C   0  0  0  0  0  0  0  0  0  0  0  0
    4.8620    1.4228    0.0000 C   0  0  0  0  0  0  0  0  0  0  0  0
    3.7830    0.2287    0.0000 C   0  0  0  0  0  0  0  0  0  0  0  0
    7.5277   -1.0095    0.0000 C   0  0  0  0  0  0  0  0  0  0  0  0
    6.5121    0.3935    0.0000 C   0  0  0  0  0  0  0  0  0  0  0  0
    3.9556    1.8311    0.0000 C   0  0  0  0  0  0  0  0  0  0  0  0
    3.2852    1.0891    0.0000 C   0  0  0  0  0  0  0  0  0  0  0  0
    3.9926   -2.9923    0.0000 C   0  0  0  0  0  0  0  0  0  0  0  0
    3.1266   -1.4923    0.0000 C   0  0  0  0  0  0  0  0  0  0  0  0
    3.1266   -2.4923    0.0000 C   0  0  0  0  0  0  0  0  0  0  0  0
    8.3377   -0.4231    0.0000 C   0  0  0  0  0  0  0  0  0  0  0  0
    7.3221    0.9799    0.0000 C   0  0  0  0  0  0  0  0  0  0  0  0
    3.6482    2.7827    0.0000 C   0  0  0  0  0  0  0  0  0  0  0  0
    2.3074    1.2988    0.0000 C   0  0  0  0  0  0  0  0  0  0  0  0
    8.2349    0.5716    0.0000 C   0  0  0  0  0  0  0  0  0  0  0  0
    2.6704    2.9923    0.0000 C   0  0  0  0  0  0  0  0  0  0  0  0
    2.0000    2.2503    0.0000 C   0  0  0  0  0  0  0  0  0  0  0  0
    6.1170   -0.2587    0.0000 H   0  0  0  0  0  0  0  0  0  0  0  0
    4.9769   -0.5727    0.0000 H   0  0  0  0  0  0  0  0  0  0  0  0
    3.9926   -0.3723    0.0000 H   0  0  0  0  0  0  0  0  0  0  0  0
    7.5914   -1.6262    0.0000 H   0  0  0  0  0  0  0  0  0  0  0  0
    5.9461    0.6467    0.0000 H   0  0  0  0  0  0  0  0  0  0  0  0
    3.9926   -3.6123    0.0000 H   0  0  0  0  0  0  0  0  0  0  0  0
    2.5896   -1.1823    0.0000 H   0  0  0  0  0  0  0  0  0  0  0  0
    2.5896   -2.8023    0.0000 H   0  0  0  0  0  0  0  0  0  0  0  0
    8.9037   -0.6762    0.0000 H   0  0  0  0  0  0  0  0  0  0  0  0
    7.2584    1.5966    0.0000 H   0  0  0  0  0  0  0  0  0  0  0  0
    4.0639    3.2427    0.0000 H   0  0  0  0  0  0  0  0  0  0  0  0
    1.8918    0.8388    0.0000 H   0  0  0  0  0  0  0  0  0  0  0  0
    8.7372    0.9352    0.0000 H   0  0  0  0  0  0  0  0  0  0  0  0
    2.4798    3.5823    0.0000 H   0  0  0  0  0  0  0  0  0  0  0  0
    1.3938    2.3802    0.0000 H   0  0  0  0  0  0  0  0  0  0  0  0
  1 10  1  0  0  0  0
  1 11  1  0  0  0  0
  2 10  2  0  0  0  0
  3 13  2  0  0  0  0
  4 14  2  0  0  0  0
  5  7  1  0  0  0  0
  5 13  1  0  0  0  0
  5 14  1  0  0  0  0
  6  7  1  0  0  0  0
  6  8  1  0  0  0  0
  6  9  1  0  0  0  0
  6 10  1  0  0  0  0
  7 29  1  0  0  0  0
  7 30  1  0  0  0  0
  8 11  1  0  0  0  0
  8 12  2  0  0  0  0
  9 15  2  0  0  0  0
  9 16  1  0  0  0  0
 11 19  2  0  0  0  0
 12 20  1  0  0  0  0
 12 31  1  0  0  0  0
 13 17  1  0  0  0  0
 14 18  1  0  0  0  0
 15 22  1  0  0  0  0
 15 32  1  0  0  0  0
 16 23  2  0  0  0  0
 16 33  1  0  0  0  0
 17 18  1  0  0  0  0
 17 24  2  0  0  0  0
 18 25  2  0  0  0  0
 19 21  1  0  0  0  0
 19 34  1  0  0  0  0
 20 21  2  0  0  0  0
 20 35  1  0  0  0  0
 21 36  1  0  0  0  0
 22 26  2  0  0  0  0
 22 37  1  0  0  0  0
 23 26  1  0  0  0  0
 23 38  1  0  0  0  0
 24 27  1  0  0  0  0
 24 39  1  0  0  0  0
 25 28  1  0  0  0  0
 25 40  1  0  0  0  0
 26 41  1  0  0  0  0
 27 28  2  0  0  0  0
 27 42  1  0  0  0  0
 28 43  1  0  0  0  0
M  END
> <PUBCHEM_COMPOUND_CID>
517851
> <PUBCHEM_COMPOUND_CANONICALIZED>
1
> <PUBCHEM_CACTVS_COMPLEXITY>
646
> <PUBCHEM_CACTVS_HBOND_ACCEPTOR>
4
> <PUBCHEM_CACTVS_HBOND_DONOR>
0
> <PUBCHEM_CACTVS_ROTATABLE_BOND>
3
> <PUBCHEM_CACTVS_SUBSKEYS>
AAADccB6OAAAAAAAAAAAAAAAAAAAAWJAAAAwYMAAAAAAAFgBUAAAHgAAAAAADgTBmAQwDoMABACIAiHSGACCCAAkIAAIiAEODMgMJjqEtRuGOyjmxjGIqYe/yOCPgAAAAAAYAAAAAAAAADAAAAAAAAAAAA==
> <PUBCHEM_IUPAC_OPENEYE_NAME>
2-[(2-oxo-3-phenyl-benzofuran-3-yl)methyl]isoindoline-1,3-dione
> <PUBCHEM_IUPAC_CAS_NAME>
2-[(2-oxo-3-phenyl-3-benzofuranyl)methyl]isoindole-1,3-dione
> <PUBCHEM_IUPAC_NAME_MARKUP>
2-[(2-oxo-3-phenyl-1-benzofuran-3-yl)methyl]isoindole-1,3-dione
> <PUBCHEM_IUPAC_NAME>
2-[(2-oxo-3-phenyl-1-benzofuran-3-yl)methyl]isoindole-1,3-dione
> <PUBCHEM_IUPAC_SYSTEMATIC_NAME>
2-[(2-oxidanylidene-3-phenyl-1-benzofuran-3-yl)methyl]isoindole-1,3-dione
> <PUBCHEM_IUPAC_TRADITIONAL_NAME>
2-[(2-keto-3-phenyl-coumaran-3-yl)methyl]isoindoline-1,3-quinone
> <PUBCHEM_IUPAC_INCHI>
InChI=1S/C23H15NO4/c25-20-16-10-4-5-11-17(16)21(26)24(20)14-23(15-8-2-1-3-9-15)18-12-6-7-13-19(18)28-22(23)27/h1-13H,14H2
> <PUBCHEM_IUPAC_INCHIKEY>
WNZWSRHNHYFKEY-UHFFFAOYSA-N
> <PUBCHEM_XLOGP3_AA>
3.5
> <PUBCHEM_EXACT_MASS>
369.10010796
> <PUBCHEM_MOLECULAR_FORMULA>
C23H15NO4
> <PUBCHEM_MOLECULAR_WEIGHT>
369.4
> <PUBCHEM_OPENEYE_CAN_SMILES>
C1=CC=C(C=C1)C2(C3=CC=CC=C3OC2=O)CN4C(=O)C5=CC=CC=C5C4=O
> <PUBCHEM_OPENEYE_ISO_SMILES>
C1=CC=C(C=C1)C2(C3=CC=CC=C3OC2=O)CN4C(=O)C5=CC=CC=C5C4=O
> <PUBCHEM_CACTVS_TPSA>
63.7
> <PUBCHEM_MONOISOTOPIC_WEIGHT>
369.10010796
> <PUBCHEM_TOTAL_CHARGE>
0
> <PUBCHEM_HEAVY_ATOM_COUNT>
28
> <PUBCHEM_ATOM_DEF_STEREO_COUNT>
0
> <PUBCHEM_ATOM_UDEF_STEREO_COUNT>
1
> <PUBCHEM_BOND_DEF_STEREO_COUNT>
0
> <PUBCHEM_BOND_UDEF_STEREO_COUNT>
0
> <PUBCHEM_ISOTOPIC_ATOM_COUNT>
0
> <PUBCHEM_COMPONENT_COUNT>
1
> <PUBCHEM_CACTVS_TAUTO_COUNT>
-1
> <PUBCHEM_COORDINATE_TYPE>
1
5
255
> <PUBCHEM_BONDANNOTATIONS>
11  19  8
12  20  8
15  22  8
16  23  8
17  18  8
17  24  8
18  25  8
19  21  8
20  21  8
22  26  8
23  26  8
24  27  8
25  28  8
27  28  8
6  7  3
8  11  8
8  12  8
9  15  8
9  16  8
$$$$
