517898
  -OEChem-10302200292D
 46 49  0     1  0  0  0  0  0999 V2000
    9.9565   -0.4867    0.0000 O   0  0  0  0  0  0  0  0  0  0  0  0
   10.5525    1.4224    0.0000 O   0  0  0  0  0  0  0  0  0  0  0  0
    7.0547   -1.1776    0.0000 N   0  0  0  0  0  0  0  0  0  0  0  0
    4.5274   -0.0534    0.0000 N   0  0  0  0  0  0  0  0  0  0  0  0
    6.3518   -0.4090    0.0000 C   0  0  3  0  0  0  0  0  0  0  0  0
    5.3364   -0.6412    0.0000 C   0  0  0  0  0  0  0  0  0  0  0  0
    5.0274   -1.5923    0.0000 C   0  0  0  0  0  0  0  0  0  0  0  0
    5.7123   -2.3770    0.0000 C   0  0  0  0  0  0  0  0  0  0  0  0
    6.7328   -2.1683    0.0000 C   0  0  0  0  0  0  0  0  0  0  0  0
    6.6498    0.5456    0.0000 C   0  0  0  0  0  0  0  0  0  0  0  0
    4.0274   -1.5923    0.0000 C   0  0  0  0  0  0  0  0  0  0  0  0
    3.7183   -0.6412    0.0000 C   0  0  0  0  0  0  0  0  0  0  0  0
    7.6255    0.7648    0.0000 C   0  0  0  0  0  0  0  0  0  0  0  0
    3.3424   -2.3770    0.0000 C   0  0  0  0  0  0  0  0  0  0  0  0
    2.7029   -0.4090    0.0000 C   0  0  0  0  0  0  0  0  0  0  0  0
    8.3031    0.0295    0.0000 C   0  0  0  0  0  0  0  0  0  0  0  0
    2.3219   -2.1683    0.0000 C   0  0  0  0  0  0  0  0  0  0  0  0
    7.9235    1.7194    0.0000 C   0  0  0  0  0  0  0  0  0  0  0  0
    2.0000   -1.1776    0.0000 C   0  0  0  0  0  0  0  0  0  0  0  0
    9.2788    0.2487    0.0000 C   0  0  0  0  0  0  0  0  0  0  0  0
    8.8991    1.9386    0.0000 C   0  0  0  0  0  0  0  0  0  0  0  0
    9.5768    1.2032    0.0000 C   0  0  0  0  0  0  0  0  0  0  0  0
   10.9322   -0.2675    0.0000 C   0  0  0  0  0  0  0  0  0  0  0  0
   10.8505    2.3770    0.0000 C   0  0  0  0  0  0  0  0  0  0  0  0
    6.9570   -0.2742    0.0000 H   0  0  0  0  0  0  0  0  0  0  0  0
    5.1824   -2.6988    0.0000 H   0  0  0  0  0  0  0  0  0  0  0  0
    5.9387   -2.9542    0.0000 H   0  0  0  0  0  0  0  0  0  0  0  0
    6.7513   -2.7880    0.0000 H   0  0  0  0  0  0  0  0  0  0  0  0
    7.3466   -2.2562    0.0000 H   0  0  0  0  0  0  0  0  0  0  0  0
    7.6607   -1.0464    0.0000 H   0  0  0  0  0  0  0  0  0  0  0  0
    6.6210    1.1649    0.0000 H   0  0  0  0  0  0  0  0  0  0  0  0
    6.0349    0.6248    0.0000 H   0  0  0  0  0  0  0  0  0  0  0  0
    4.5274    0.5666    0.0000 H   0  0  0  0  0  0  0  0  0  0  0  0
    3.5408   -2.9644    0.0000 H   0  0  0  0  0  0  0  0  0  0  0  0
    2.5182    0.1829    0.0000 H   0  0  0  0  0  0  0  0  0  0  0  0
    8.1184   -0.5624    0.0000 H   0  0  0  0  0  0  0  0  0  0  0  0
    1.9088   -2.6306    0.0000 H   0  0  0  0  0  0  0  0  0  0  0  0
    7.5033    2.1753    0.0000 H   0  0  0  0  0  0  0  0  0  0  0  0
    1.3940   -1.0464    0.0000 H   0  0  0  0  0  0  0  0  0  0  0  0
    9.0839    2.5304    0.0000 H   0  0  0  0  0  0  0  0  0  0  0  0
   11.0681   -0.8724    0.0000 H   0  0  0  0  0  0  0  0  0  0  0  0
   11.5371   -0.1316    0.0000 H   0  0  0  0  0  0  0  0  0  0  0  0
   10.7963    0.3374    0.0000 H   0  0  0  0  0  0  0  0  0  0  0  0
   11.4423    2.1922    0.0000 H   0  0  0  0  0  0  0  0  0  0  0  0
   11.0353    2.9688    0.0000 H   0  0  0  0  0  0  0  0  0  0  0  0
   10.2587    2.5618    0.0000 H   0  0  0  0  0  0  0  0  0  0  0  0
  1 20  1  0  0  0  0
  1 23  1  0  0  0  0
  2 22  1  0  0  0  0
  2 24  1  0  0  0  0
  3  5  1  0  0  0  0
  3  9  1  0  0  0  0
  3 30  1  0  0  0  0
  4  6  1  0  0  0  0
  4 12  1  0  0  0  0
  4 33  1  0  0  0  0
  5  6  1  0  0  0  0
  5 10  1  0  0  0  0
  5 25  1  0  0  0  0
  6  7  2  0  0  0  0
  7  8  1  0  0  0  0
  7 11  1  0  0  0  0
  8  9  1  0  0  0  0
  8 26  1  0  0  0  0
  8 27  1  0  0  0  0
  9 28  1  0  0  0  0
  9 29  1  0  0  0  0
 10 13  1  0  0  0  0
 10 31  1  0  0  0  0
 10 32  1  0  0  0  0
 11 12  1  0  0  0  0
 11 14  2  0  0  0  0
 12 15  2  0  0  0  0
 13 16  2  0  0  0  0
 13 18  1  0  0  0  0
 14 17  1  0  0  0  0
 14 34  1  0  0  0  0
 15 19  1  0  0  0  0
 15 35  1  0  0  0  0
 16 20  1  0  0  0  0
 16 36  1  0  0  0  0
 17 19  2  0  0  0  0
 17 37  1  0  0  0  0
 18 21  2  0  0  0  0
 18 38  1  0  0  0  0
 19 39  1  0  0  0  0
 20 22  2  0  0  0  0
 21 22  1  0  0  0  0
 21 40  1  0  0  0  0
 23 41  1  0  0  0  0
 23 42  1  0  0  0  0
 23 43  1  0  0  0  0
 24 44  1  0  0  0  0
 24 45  1  0  0  0  0
 24 46  1  0  0  0  0
M  END
> <PUBCHEM_COMPOUND_CID>
517898
> <PUBCHEM_COMPOUND_CANONICALIZED>
1
> <PUBCHEM_CACTVS_COMPLEXITY>
418
> <PUBCHEM_CACTVS_HBOND_ACCEPTOR>
3
> <PUBCHEM_CACTVS_HBOND_DONOR>
2
> <PUBCHEM_CACTVS_ROTATABLE_BOND>
4
> <PUBCHEM_CACTVS_SUBSKEYS>
AAADceB7MAAAAAAAAAAAAAAAAAAAAWAAAAA8YIAAAAAAAFgB9AAAHgAQAAAADCzBngYyxvLJlACgAyRiRACCiCAhIiAImaA+7JgNZuLEsZuUMCpk0BHK6AeQ0PMOoAABAAACQABAAAIAAASAAAAAAAAAAA==
> <PUBCHEM_IUPAC_OPENEYE_NAME>
1-[(3,4-dimethoxyphenyl)methyl]-2,3,4,9-tetrahydro-1H-pyrido[3,4-b]indole
> <PUBCHEM_IUPAC_CAS_NAME>
1-[(3,4-dimethoxyphenyl)methyl]-2,3,4,9-tetrahydro-1H-pyrido[3,4-b]indole
> <PUBCHEM_IUPAC_NAME_MARKUP>
1-[(3,4-dimethoxyphenyl)methyl]-2,3,4,9-tetrahydro-1<I>H</I>-pyrido[3,4-b]indole
> <PUBCHEM_IUPAC_NAME>
1-[(3,4-dimethoxyphenyl)methyl]-2,3,4,9-tetrahydro-1H-pyrido[3,4-b]indole
> <PUBCHEM_IUPAC_SYSTEMATIC_NAME>
1-[(3,4-dimethoxyphenyl)methyl]-2,3,4,9-tetrahydro-1H-pyrido[3,4-b]indole
> <PUBCHEM_IUPAC_TRADITIONAL_NAME>
1-veratryl-2,3,4,9-tetrahydro-1H-beta-carboline
> <PUBCHEM_IUPAC_INCHI>
InChI=1S/C20H22N2O2/c1-23-18-8-7-13(12-19(18)24-2)11-17-20-15(9-10-21-17)14-5-3-4-6-16(14)22-20/h3-8,12,17,21-22H,9-11H2,1-2H3
> <PUBCHEM_IUPAC_INCHIKEY>
YTQGNJREACYOPU-UHFFFAOYSA-N
> <PUBCHEM_XLOGP3_AA>
3.4
> <PUBCHEM_EXACT_MASS>
322.168127949
> <PUBCHEM_MOLECULAR_FORMULA>
C20H22N2O2
> <PUBCHEM_MOLECULAR_WEIGHT>
322.4
> <PUBCHEM_OPENEYE_CAN_SMILES>
COC1=C(C=C(C=C1)CC2C3=C(CCN2)C4=CC=CC=C4N3)OC
> <PUBCHEM_OPENEYE_ISO_SMILES>
COC1=C(C=C(C=C1)CC2C3=C(CCN2)C4=CC=CC=C4N3)OC
> <PUBCHEM_CACTVS_TPSA>
46.3
> <PUBCHEM_MONOISOTOPIC_WEIGHT>
322.168127949
> <PUBCHEM_TOTAL_CHARGE>
0
> <PUBCHEM_HEAVY_ATOM_COUNT>
24
> <PUBCHEM_ATOM_DEF_STEREO_COUNT>
0
> <PUBCHEM_ATOM_UDEF_STEREO_COUNT>
1
> <PUBCHEM_BOND_DEF_STEREO_COUNT>
0
> <PUBCHEM_BOND_UDEF_STEREO_COUNT>
0
> <PUBCHEM_ISOTOPIC_ATOM_COUNT>
0
> <PUBCHEM_COMPONENT_COUNT>
1
> <PUBCHEM_CACTVS_TAUTO_COUNT>
-1
> <PUBCHEM_COORDINATE_TYPE>
1
5
255
> <PUBCHEM_BONDANNOTATIONS>
11  12  8
11  14  8
12  15  8
13  16  8
13  18  8
14  17  8
15  19  8
16  20  8
17  19  8
18  21  8
20  22  8
21  22  8
4  12  8
4  6  8
5  10  3
6  7  8
7  11  8
$$$$
