517911
  -OEChem-10302200292D
 25 26  0     1  0  0  0  0  0999 V2000
    3.4030   -3.0000    0.0000 Cl  0  0  0  0  0  0  0  0  0  0  0  0
    4.2690    1.5000    0.0000 O   0  0  0  0  0  0  0  0  0  0  0  0
    2.5369    1.5000    0.0000 N   0  0  0  0  0  0  0  0  0  0  0  0
    3.4030    1.0000    0.0000 C   0  0  3  0  0  0  0  0  0  0  0  0
    3.4030    3.0000    0.0000 C   0  0  0  0  0  0  0  0  0  0  0  0
    2.5369    2.5000    0.0000 C   0  0  0  0  0  0  0  0  0  0  0  0
    4.2690    2.5000    0.0000 C   0  0  0  0  0  0  0  0  0  0  0  0
    3.4030   -0.0000    0.0000 C   0  0  0  0  0  0  0  0  0  0  0  0
    2.5369   -0.5000    0.0000 C   0  0  0  0  0  0  0  0  0  0  0  0
    4.2690   -0.5000    0.0000 C   0  0  0  0  0  0  0  0  0  0  0  0
    2.5369   -1.5000    0.0000 C   0  0  0  0  0  0  0  0  0  0  0  0
    4.2690   -1.5000    0.0000 C   0  0  0  0  0  0  0  0  0  0  0  0
    3.4030   -2.0000    0.0000 C   0  0  0  0  0  0  0  0  0  0  0  0
    3.9399    0.6900    0.0000 H   0  0  0  0  0  0  0  0  0  0  0  0
    2.3249    3.0826    0.0000 H   0  0  0  0  0  0  0  0  0  0  0  0
    1.9264    2.3923    0.0000 H   0  0  0  0  0  0  0  0  0  0  0  0
    3.8015    3.4750    0.0000 H   0  0  0  0  0  0  0  0  0  0  0  0
    3.0044    3.4750    0.0000 H   0  0  0  0  0  0  0  0  0  0  0  0
    4.8796    2.3923    0.0000 H   0  0  0  0  0  0  0  0  0  0  0  0
    4.4810    3.0826    0.0000 H   0  0  0  0  0  0  0  0  0  0  0  0
    2.0000    1.1900    0.0000 H   0  0  0  0  0  0  0  0  0  0  0  0
    2.0000   -0.1900    0.0000 H   0  0  0  0  0  0  0  0  0  0  0  0
    4.8059   -0.1900    0.0000 H   0  0  0  0  0  0  0  0  0  0  0  0
    2.0000   -1.8100    0.0000 H   0  0  0  0  0  0  0  0  0  0  0  0
    4.8059   -1.8100    0.0000 H   0  0  0  0  0  0  0  0  0  0  0  0
  1 13  1  0  0  0  0
  2  4  1  0  0  0  0
  2  7  1  0  0  0  0
  3  4  1  0  0  0  0
  3  6  1  0  0  0  0
  3 21  1  0  0  0  0
  4  8  1  0  0  0  0
  4 14  1  0  0  0  0
  5  6  1  0  0  0  0
  5  7  1  0  0  0  0
  5 17  1  0  0  0  0
  5 18  1  0  0  0  0
  6 15  1  0  0  0  0
  6 16  1  0  0  0  0
  7 19  1  0  0  0  0
  7 20  1  0  0  0  0
  8  9  2  0  0  0  0
  8 10  1  0  0  0  0
  9 11  1  0  0  0  0
  9 22  1  0  0  0  0
 10 12  2  0  0  0  0
 10 23  1  0  0  0  0
 11 13  2  0  0  0  0
 11 24  1  0  0  0  0
 12 13  1  0  0  0  0
 12 25  1  0  0  0  0
M  END
> <PUBCHEM_COMPOUND_CID>
517911
> <PUBCHEM_COMPOUND_CANONICALIZED>
1
> <PUBCHEM_CACTVS_COMPLEXITY>
157
> <PUBCHEM_CACTVS_HBOND_ACCEPTOR>
2
> <PUBCHEM_CACTVS_HBOND_DONOR>
1
> <PUBCHEM_CACTVS_ROTATABLE_BOND>
1
> <PUBCHEM_CACTVS_SUBSKEYS>
AAADccByIAAEAAAAAAAAAAAAAAAAAAAAAAA8QAAAAAAAAAABAAAAHgIQAAAADALhmCYwAILABACAAiBCAACCAAAgBQAIiIAIDokIJiKBsxmOMAhm0AGIqAeQwCAOBAAAAAAAAAAIAAAAAAAAAAAAAAAAAA==
> <PUBCHEM_IUPAC_OPENEYE_NAME>
2-(4-chlorophenyl)-1,3-oxazinane
> <PUBCHEM_IUPAC_CAS_NAME>
2-(4-chlorophenyl)-1,3-oxazinane
> <PUBCHEM_IUPAC_NAME_MARKUP>
2-(4-chlorophenyl)-1,3-oxazinane
> <PUBCHEM_IUPAC_NAME>
2-(4-chlorophenyl)-1,3-oxazinane
> <PUBCHEM_IUPAC_SYSTEMATIC_NAME>
2-(4-chlorophenyl)-1,3-oxazinane
> <PUBCHEM_IUPAC_TRADITIONAL_NAME>
2-(4-chlorophenyl)-1,3-oxazinane
> <PUBCHEM_IUPAC_INCHI>
InChI=1S/C10H12ClNO/c11-9-4-2-8(3-5-9)10-12-6-1-7-13-10/h2-5,10,12H,1,6-7H2
> <PUBCHEM_IUPAC_INCHIKEY>
IUSGGJOQPVRUFH-UHFFFAOYSA-N
> <PUBCHEM_XLOGP3_AA>
2
> <PUBCHEM_EXACT_MASS>
197.0607417
> <PUBCHEM_MOLECULAR_FORMULA>
C10H12ClNO
> <PUBCHEM_MOLECULAR_WEIGHT>
197.66
> <PUBCHEM_OPENEYE_CAN_SMILES>
C1CNC(OC1)C2=CC=C(C=C2)Cl
> <PUBCHEM_OPENEYE_ISO_SMILES>
C1CNC(OC1)C2=CC=C(C=C2)Cl
> <PUBCHEM_CACTVS_TPSA>
21.3
> <PUBCHEM_MONOISOTOPIC_WEIGHT>
197.0607417
> <PUBCHEM_TOTAL_CHARGE>
0
> <PUBCHEM_HEAVY_ATOM_COUNT>
13
> <PUBCHEM_ATOM_DEF_STEREO_COUNT>
0
> <PUBCHEM_ATOM_UDEF_STEREO_COUNT>
1
> <PUBCHEM_BOND_DEF_STEREO_COUNT>
0
> <PUBCHEM_BOND_UDEF_STEREO_COUNT>
0
> <PUBCHEM_ISOTOPIC_ATOM_COUNT>
0
> <PUBCHEM_COMPONENT_COUNT>
1
> <PUBCHEM_CACTVS_TAUTO_COUNT>
-1
> <PUBCHEM_COORDINATE_TYPE>
1
5
255
> <PUBCHEM_BONDANNOTATIONS>
10  12  8
11  13  8
12  13  8
4  8  3
8  10  8
8  9  8
9  11  8
$$$$
