517932
  -OEChem-10302200292D
 43 46  0     1  0  0  0  0  0999 V2000
    5.2619   -2.5442    0.0000 O   0  0  0  0  0  0  0  0  0  0  0  0
    4.9889   -4.2995    0.0000 O   0  0  0  0  0  0  0  0  0  0  0  0
    4.9889   -0.7890    0.0000 N   0  0  0  0  0  0  0  0  0  0  0  0
   10.1456    3.8380    0.0000 N   0  0  0  0  0  0  0  0  0  0  0  0
    4.6783   -1.7395    0.0000 C   0  0  3  0  0  0  0  0  0  0  0  0
    3.7320   -2.0442    0.0000 C   0  0  0  0  0  0  0  0  0  0  0  0
    3.7320   -3.0442    0.0000 C   0  0  0  0  0  0  0  0  0  0  0  0
    5.9674   -0.5827    0.0000 C   0  0  0  0  0  0  0  0  0  0  0  0
    7.9244   -0.1703    0.0000 C   0  0  0  0  0  0  0  0  0  0  0  0
    4.6783   -3.3489    0.0000 C   0  0  0  0  0  0  0  0  0  0  0  0
    8.9030    0.0359    0.0000 C   0  0  0  0  0  0  0  0  0  0  0  0
    2.8660   -1.5442    0.0000 C   0  0  0  0  0  0  0  0  0  0  0  0
    2.8660   -3.5442    0.0000 C   0  0  0  0  0  0  0  0  0  0  0  0
    6.2781    0.3678    0.0000 C   0  0  0  0  0  0  0  0  0  0  0  0
    6.6353   -1.3270    0.0000 C   0  0  0  0  0  0  0  0  0  0  0  0
    7.2566    0.5740    0.0000 C   0  0  0  0  0  0  0  0  0  0  0  0
    7.6138   -1.1208    0.0000 C   0  0  0  0  0  0  0  0  0  0  0  0
    9.2136    0.9864    0.0000 C   0  0  0  0  0  0  0  0  0  0  0  0
    2.0000   -2.0442    0.0000 C   0  0  0  0  0  0  0  0  0  0  0  0
    2.0000   -3.0442    0.0000 C   0  0  0  0  0  0  0  0  0  0  0  0
   10.1921    1.1926    0.0000 C   0  0  0  0  0  0  0  0  0  0  0  0
    8.5458    1.7307    0.0000 C   0  0  0  0  0  0  0  0  0  0  0  0
   10.5028    2.1432    0.0000 C   0  0  0  0  0  0  0  0  0  0  0  0
    8.8564    2.6813    0.0000 C   0  0  0  0  0  0  0  0  0  0  0  0
    9.8349    2.8875    0.0000 C   0  0  0  0  0  0  0  0  0  0  0  0
    4.2408   -1.3001    0.0000 H   0  0  0  0  0  0  0  0  0  0  0  0
    4.5749   -0.3275    0.0000 H   0  0  0  0  0  0  0  0  0  0  0  0
    8.9235   -0.5837    0.0000 H   0  0  0  0  0  0  0  0  0  0  0  0
    9.5168   -0.0514    0.0000 H   0  0  0  0  0  0  0  0  0  0  0  0
    2.8660   -0.9242    0.0000 H   0  0  0  0  0  0  0  0  0  0  0  0
    2.8660   -4.1642    0.0000 H   0  0  0  0  0  0  0  0  0  0  0  0
    5.8640    0.8292    0.0000 H   0  0  0  0  0  0  0  0  0  0  0  0
    6.4427   -1.9164    0.0000 H   0  0  0  0  0  0  0  0  0  0  0  0
    7.4492    1.1633    0.0000 H   0  0  0  0  0  0  0  0  0  0  0  0
    8.0279   -1.5823    0.0000 H   0  0  0  0  0  0  0  0  0  0  0  0
    1.4631   -1.7342    0.0000 H   0  0  0  0  0  0  0  0  0  0  0  0
    1.4631   -3.3542    0.0000 H   0  0  0  0  0  0  0  0  0  0  0  0
   10.6062    0.7312    0.0000 H   0  0  0  0  0  0  0  0  0  0  0  0
    7.9391    1.6029    0.0000 H   0  0  0  0  0  0  0  0  0  0  0  0
   11.1095    2.2710    0.0000 H   0  0  0  0  0  0  0  0  0  0  0  0
    8.4424    3.1427    0.0000 H   0  0  0  0  0  0  0  0  0  0  0  0
   10.7523    3.9658    0.0000 H   0  0  0  0  0  0  0  0  0  0  0  0
    9.7315    4.2995    0.0000 H   0  0  0  0  0  0  0  0  0  0  0  0
  1  5  1  0  0  0  0
  1 10  1  0  0  0  0
  2 10  2  0  0  0  0
  3  5  1  0  0  0  0
  3  8  1  0  0  0  0
  3 27  1  0  0  0  0
  4 25  1  0  0  0  0
  4 42  1  0  0  0  0
  4 43  1  0  0  0  0
  5  6  1  0  0  0  0
  5 26  1  0  0  0  0
  6  7  1  0  0  0  0
  6 12  2  0  0  0  0
  7 10  1  0  0  0  0
  7 13  2  0  0  0  0
  8 14  2  0  0  0  0
  8 15  1  0  0  0  0
  9 11  1  0  0  0  0
  9 16  2  0  0  0  0
  9 17  1  0  0  0  0
 11 18  1  0  0  0  0
 11 28  1  0  0  0  0
 11 29  1  0  0  0  0
 12 19  1  0  0  0  0
 12 30  1  0  0  0  0
 13 20  1  0  0  0  0
 13 31  1  0  0  0  0
 14 16  1  0  0  0  0
 14 32  1  0  0  0  0
 15 17  2  0  0  0  0
 15 33  1  0  0  0  0
 16 34  1  0  0  0  0
 17 35  1  0  0  0  0
 18 21  2  0  0  0  0
 18 22  1  0  0  0  0
 19 20  2  0  0  0  0
 19 36  1  0  0  0  0
 20 37  1  0  0  0  0
 21 23  1  0  0  0  0
 21 38  1  0  0  0  0
 22 24  2  0  0  0  0
 22 39  1  0  0  0  0
 23 25  2  0  0  0  0
 23 40  1  0  0  0  0
 24 25  1  0  0  0  0
 24 41  1  0  0  0  0
M  END
> <PUBCHEM_COMPOUND_CID>
517932
> <PUBCHEM_COMPOUND_CANONICALIZED>
1
> <PUBCHEM_CACTVS_COMPLEXITY>
453
> <PUBCHEM_CACTVS_HBOND_ACCEPTOR>
4
> <PUBCHEM_CACTVS_HBOND_DONOR>
2
> <PUBCHEM_CACTVS_ROTATABLE_BOND>
4
> <PUBCHEM_CACTVS_SUBSKEYS>
AAADceB7MAAAAAAAAAAAAAAAAAAAASAAAAAwYMAAAAAAAEgBUAAAHgAQAAAADAjhmAYwyILABACIAiTSSACCAAAlAgAIiIEIbMkIJjLAtZmOMQhk0AHI6Ye+yOCOiAAAAAAQAAAQAAAAACAAAAAAAAAAAA==
> <PUBCHEM_IUPAC_OPENEYE_NAME>
3-[4-[(4-aminophenyl)methyl]anilino]-3H-isobenzofuran-1-one
> <PUBCHEM_IUPAC_CAS_NAME>
3-[4-[(4-aminophenyl)methyl]anilino]-3H-isobenzofuran-1-one
> <PUBCHEM_IUPAC_NAME_MARKUP>
3-[4-[(4-aminophenyl)methyl]anilino]-3<I>H</I>-2-benzofuran-1-one
> <PUBCHEM_IUPAC_NAME>
3-[4-[(4-aminophenyl)methyl]anilino]-3H-2-benzofuran-1-one
> <PUBCHEM_IUPAC_SYSTEMATIC_NAME>
3-[[4-[(4-aminophenyl)methyl]phenyl]amino]-3H-2-benzofuran-1-one
> <PUBCHEM_IUPAC_TRADITIONAL_NAME>
3-[4-(4-aminobenzyl)anilino]phthalide
> <PUBCHEM_IUPAC_INCHI>
InChI=1S/C21H18N2O2/c22-16-9-5-14(6-10-16)13-15-7-11-17(12-8-15)23-20-18-3-1-2-4-19(18)21(24)25-20/h1-12,20,23H,13,22H2
> <PUBCHEM_IUPAC_INCHIKEY>
OLSMFJRLHSJFQC-UHFFFAOYSA-N
> <PUBCHEM_XLOGP3>
4.1
> <PUBCHEM_EXACT_MASS>
330.136827821
> <PUBCHEM_MOLECULAR_FORMULA>
C21H18N2O2
> <PUBCHEM_MOLECULAR_WEIGHT>
330.4
> <PUBCHEM_OPENEYE_CAN_SMILES>
C1=CC=C2C(=C1)C(OC2=O)NC3=CC=C(C=C3)CC4=CC=C(C=C4)N
> <PUBCHEM_OPENEYE_ISO_SMILES>
C1=CC=C2C(=C1)C(OC2=O)NC3=CC=C(C=C3)CC4=CC=C(C=C4)N
> <PUBCHEM_CACTVS_TPSA>
64.4
> <PUBCHEM_MONOISOTOPIC_WEIGHT>
330.136827821
> <PUBCHEM_TOTAL_CHARGE>
0
> <PUBCHEM_HEAVY_ATOM_COUNT>
25
> <PUBCHEM_ATOM_DEF_STEREO_COUNT>
0
> <PUBCHEM_ATOM_UDEF_STEREO_COUNT>
1
> <PUBCHEM_BOND_DEF_STEREO_COUNT>
0
> <PUBCHEM_BOND_UDEF_STEREO_COUNT>
0
> <PUBCHEM_ISOTOPIC_ATOM_COUNT>
0
> <PUBCHEM_COMPONENT_COUNT>
1
> <PUBCHEM_CACTVS_TAUTO_COUNT>
-1
> <PUBCHEM_COORDINATE_TYPE>
1
5
255
> <PUBCHEM_BONDANNOTATIONS>
12  19  8
13  20  8
14  16  8
15  17  8
18  21  8
18  22  8
19  20  8
21  23  8
22  24  8
23  25  8
24  25  8
5  3  3
6  12  8
6  7  8
7  13  8
8  14  8
8  15  8
9  16  8
9  17  8
$$$$
