518041
  -OEChem-10302200292D
 47 50  0     1  0  0  0  0  0999 V2000
    7.0990    1.4700    0.0000 O   0  0  0  0  0  0  0  0  0  0  0  0
    8.6256   -0.2756    0.0000 O   0  0  0  0  0  0  0  0  0  0  0  0
    3.9980    1.4672    0.0000 N   0  0  0  0  0  0  0  0  0  0  0  0
    5.1336   -0.2410    0.0000 C   0  0  3  0  0  0  0  0  0  0  0  0
    5.5348    0.6682    0.0000 C   0  0  3  0  0  0  0  0  0  0  0  0
    6.0275   -0.7756    0.0000 C   0  0  0  0  0  0  0  0  0  0  0  0
    4.2275   -0.7548    0.0000 C   0  0  0  0  0  0  0  0  0  0  0  0
    4.9971    1.5114    0.0000 C   0  0  0  0  0  0  0  0  0  0  0  0
    6.8936   -0.2756    0.0000 C   0  0  0  0  0  0  0  0  0  0  0  0
    6.5284    0.6487    0.0000 C   0  0  0  0  0  0  0  0  0  0  0  0
    4.2275   -1.7965    0.0000 C   0  0  0  0  0  0  0  0  0  0  0  0
    6.0275   -1.7756    0.0000 C   0  0  0  0  0  0  0  0  0  0  0  0
    5.1336   -2.3103    0.0000 C   0  0  0  0  0  0  0  0  0  0  0  0
    3.4603    2.3103    0.0000 C   0  0  0  0  0  0  0  0  0  0  0  0
    3.5368    0.5799    0.0000 C   0  0  0  0  0  0  0  0  0  0  0  0
    2.4613    2.2662    0.0000 C   0  0  0  0  0  0  0  0  0  0  0  0
    2.5378    0.5358    0.0000 C   0  0  0  0  0  0  0  0  0  0  0  0
    7.7596   -0.7756    0.0000 C   0  0  0  0  0  0  0  0  0  0  0  0
    2.0000    1.3789    0.0000 C   0  0  0  0  0  0  0  0  0  0  0  0
    6.8936   -2.2756    0.0000 C   0  0  0  0  0  0  0  0  0  0  0  0
    7.7596   -1.7756    0.0000 C   0  0  0  0  0  0  0  0  0  0  0  0
    9.4916   -0.7756    0.0000 C   0  0  0  0  0  0  0  0  0  0  0  0
    4.6738    0.1749    0.0000 H   0  0  0  0  0  0  0  0  0  0  0  0
    4.9166    0.6211    0.0000 H   0  0  0  0  0  0  0  0  0  0  0  0
    4.0185   -0.1711    0.0000 H   0  0  0  0  0  0  0  0  0  0  0  0
    3.6167   -0.8609    0.0000 H   0  0  0  0  0  0  0  0  0  0  0  0
    5.5698    1.7489    0.0000 H   0  0  0  0  0  0  0  0  0  0  0  0
    4.8626    2.1166    0.0000 H   0  0  0  0  0  0  0  0  0  0  0  0
    3.6167   -1.6904    0.0000 H   0  0  0  0  0  0  0  0  0  0  0  0
    4.0185   -2.3802    0.0000 H   0  0  0  0  0  0  0  0  0  0  0  0
    4.7400   -2.7893    0.0000 H   0  0  0  0  0  0  0  0  0  0  0  0
    5.5382   -2.7801    0.0000 H   0  0  0  0  0  0  0  0  0  0  0  0
    4.0330    2.5479    0.0000 H   0  0  0  0  0  0  0  0  0  0  0  0
    3.3258    2.9155    0.0000 H   0  0  0  0  0  0  0  0  0  0  0  0
    3.4562   -0.0348    0.0000 H   0  0  0  0  0  0  0  0  0  0  0  0
    4.1282    0.3938    0.0000 H   0  0  0  0  0  0  0  0  0  0  0  0
    2.5419    2.8809    0.0000 H   0  0  0  0  0  0  0  0  0  0  0  0
    1.8699    2.4523    0.0000 H   0  0  0  0  0  0  0  0  0  0  0  0
    1.9651    0.2982    0.0000 H   0  0  0  0  0  0  0  0  0  0  0  0
    2.6723   -0.0694    0.0000 H   0  0  0  0  0  0  0  0  0  0  0  0
    1.5079    1.7561    0.0000 H   0  0  0  0  0  0  0  0  0  0  0  0
    1.5431    0.9598    0.0000 H   0  0  0  0  0  0  0  0  0  0  0  0
    6.8936   -2.8956    0.0000 H   0  0  0  0  0  0  0  0  0  0  0  0
    8.2965   -2.0856    0.0000 H   0  0  0  0  0  0  0  0  0  0  0  0
    9.1816   -1.3126    0.0000 H   0  0  0  0  0  0  0  0  0  0  0  0
   10.0286   -1.0856    0.0000 H   0  0  0  0  0  0  0  0  0  0  0  0
    9.8016   -0.2387    0.0000 H   0  0  0  0  0  0  0  0  0  0  0  0
  1 10  2  0  0  0  0
  2 18  1  0  0  0  0
  2 22  1  0  0  0  0
  3  8  1  0  0  0  0
  3 14  1  0  0  0  0
  3 15  1  0  0  0  0
  4  5  1  0  0  0  0
  4  6  1  0  0  0  0
  4  7  1  0  0  0  0
  4 23  1  0  0  0  0
  5  8  1  0  0  0  0
  5 10  1  0  0  0  0
  5 24  1  0  0  0  0
  6  9  1  0  0  0  0
  6 12  2  0  0  0  0
  7 11  1  0  0  0  0
  7 25  1  0  0  0  0
  7 26  1  0  0  0  0
  8 27  1  0  0  0  0
  8 28  1  0  0  0  0
  9 10  1  0  0  0  0
  9 18  2  0  0  0  0
 11 13  1  0  0  0  0
 11 29  1  0  0  0  0
 11 30  1  0  0  0  0
 12 13  1  0  0  0  0
 12 20  1  0  0  0  0
 13 31  1  0  0  0  0
 13 32  1  0  0  0  0
 14 16  1  0  0  0  0
 14 33  1  0  0  0  0
 14 34  1  0  0  0  0
 15 17  1  0  0  0  0
 15 35  1  0  0  0  0
 15 36  1  0  0  0  0
 16 19  1  0  0  0  0
 16 37  1  0  0  0  0
 16 38  1  0  0  0  0
 17 19  1  0  0  0  0
 17 39  1  0  0  0  0
 17 40  1  0  0  0  0
 18 21  1  0  0  0  0
 19 41  1  0  0  0  0
 19 42  1  0  0  0  0
 20 21  2  0  0  0  0
 20 43  1  0  0  0  0
 21 44  1  0  0  0  0
 22 45  1  0  0  0  0
 22 46  1  0  0  0  0
 22 47  1  0  0  0  0
M  END
> <PUBCHEM_COMPOUND_CID>
518041
> <PUBCHEM_COMPOUND_CANONICALIZED>
1
> <PUBCHEM_CACTVS_COMPLEXITY>
418
> <PUBCHEM_CACTVS_HBOND_ACCEPTOR>
3
> <PUBCHEM_CACTVS_HBOND_DONOR>
0
> <PUBCHEM_CACTVS_ROTATABLE_BOND>
3
> <PUBCHEM_CACTVS_SUBSKEYS>
AAADceB6MAAAAAAAAAAAAAAAAAAAAYAAAAA8YIAAAAAAAGDBAAAAHgAAAAAADQTBmAYyBoMABACIAqBSAAACCAAkIAAIiAEOCMgMJj6EtRqEMWAk4BGIqQeY2PKOoAADAAAYAABAAAYAADAAAQAACAAAAA==
> <PUBCHEM_IUPAC_OPENEYE_NAME>
8-methoxy-2-(1-piperidylmethyl)-3,3a,4,5-tetrahydro-2H-acenaphthylen-1-one
> <PUBCHEM_IUPAC_CAS_NAME>
8-methoxy-2-(1-piperidinylmethyl)-3,3a,4,5-tetrahydro-2H-acenaphthylen-1-one
> <PUBCHEM_IUPAC_NAME_MARKUP>
8-methoxy-2-(piperidin-1-ylmethyl)-3,3<I>a</I>,4,5-tetrahydro-2<I>H</I>-acenaphthylen-1-one
> <PUBCHEM_IUPAC_NAME>
8-methoxy-2-(piperidin-1-ylmethyl)-3,3a,4,5-tetrahydro-2H-acenaphthylen-1-one
> <PUBCHEM_IUPAC_SYSTEMATIC_NAME>
8-methoxy-2-(piperidin-1-ylmethyl)-3,3a,4,5-tetrahydro-2H-acenaphthylen-1-one
> <PUBCHEM_IUPAC_TRADITIONAL_NAME>
8-methoxy-2-(piperidinomethyl)-3,3a,4,5-tetrahydro-2H-acenaphthylen-1-one
> <PUBCHEM_IUPAC_INCHI>
InChI=1S/C19H25NO2/c1-22-16-9-8-13-6-5-7-14-15(19(21)18(16)17(13)14)12-20-10-3-2-4-11-20/h8-9,14-15H,2-7,10-12H2,1H3
> <PUBCHEM_IUPAC_INCHIKEY>
JZAWUOLMXBHWRW-UHFFFAOYSA-N
> <PUBCHEM_XLOGP3_AA>
3.5
> <PUBCHEM_EXACT_MASS>
299.188529040
> <PUBCHEM_MOLECULAR_FORMULA>
C19H25NO2
> <PUBCHEM_MOLECULAR_WEIGHT>
299.4
> <PUBCHEM_OPENEYE_CAN_SMILES>
COC1=C2C3=C(CCCC3C(C2=O)CN4CCCCC4)C=C1
> <PUBCHEM_OPENEYE_ISO_SMILES>
COC1=C2C3=C(CCCC3C(C2=O)CN4CCCCC4)C=C1
> <PUBCHEM_CACTVS_TPSA>
29.5
> <PUBCHEM_MONOISOTOPIC_WEIGHT>
299.188529040
> <PUBCHEM_TOTAL_CHARGE>
0
> <PUBCHEM_HEAVY_ATOM_COUNT>
22
> <PUBCHEM_ATOM_DEF_STEREO_COUNT>
0
> <PUBCHEM_ATOM_UDEF_STEREO_COUNT>
2
> <PUBCHEM_BOND_DEF_STEREO_COUNT>
0
> <PUBCHEM_BOND_UDEF_STEREO_COUNT>
0
> <PUBCHEM_ISOTOPIC_ATOM_COUNT>
0
> <PUBCHEM_COMPONENT_COUNT>
1
> <PUBCHEM_CACTVS_TAUTO_COUNT>
-1
> <PUBCHEM_COORDINATE_TYPE>
1
5
255
> <PUBCHEM_BONDANNOTATIONS>
12  20  8
18  21  8
20  21  8
4  7  3
5  8  3
6  12  8
6  9  8
9  18  8
$$$$
