518056
  -OEChem-10302200292D
 34 34  0     1  0  0  0  0  0999 V2000
    2.8660    2.8450    0.0000 O   0  0  0  0  0  0  0  0  0  0  0  0
    5.4641    1.3450    0.0000 O   0  0  0  0  0  0  0  0  0  0  0  0
    2.0000    1.3450    0.0000 O   0  0  0  0  0  0  0  0  0  0  0  0
    4.5981    2.8450    0.0000 N   0  0  0  0  0  0  0  0  0  0  0  0
    2.8660   -1.1550    0.0000 C   0  0  0  0  0  0  0  0  0  0  0  0
    2.0000   -1.6550    0.0000 C   0  0  0  0  0  0  0  0  0  0  0  0
    3.7320   -1.6550    0.0000 C   0  0  0  0  0  0  0  0  0  0  0  0
    2.8660   -0.1550    0.0000 C   0  0  0  0  0  0  0  0  0  0  0  0
    2.0000   -2.6550    0.0000 C   0  0  0  0  0  0  0  0  0  0  0  0
    3.7320   -2.6550    0.0000 C   0  0  0  0  0  0  0  0  0  0  0  0
    2.8660   -3.1550    0.0000 C   0  0  0  0  0  0  0  0  0  0  0  0
    3.7320    0.3450    0.0000 C   0  0  0  0  0  0  0  0  0  0  0  0
    3.7320    1.3450    0.0000 C   0  0  3  0  0  0  0  0  0  0  0  0
    4.5981    1.8450    0.0000 C   0  0  0  0  0  0  0  0  0  0  0  0
    2.8660    1.8450    0.0000 C   0  0  0  0  0  0  0  0  0  0  0  0
    3.4030   -0.8450    0.0000 H   0  0  0  0  0  0  0  0  0  0  0  0
    1.7880   -1.0724    0.0000 H   0  0  0  0  0  0  0  0  0  0  0  0
    1.3894   -1.7627    0.0000 H   0  0  0  0  0  0  0  0  0  0  0  0
    4.3426   -1.7627    0.0000 H   0  0  0  0  0  0  0  0  0  0  0  0
    3.9441   -1.0724    0.0000 H   0  0  0  0  0  0  0  0  0  0  0  0
    2.6540    0.4276    0.0000 H   0  0  0  0  0  0  0  0  0  0  0  0
    2.2554   -0.2627    0.0000 H   0  0  0  0  0  0  0  0  0  0  0  0
    1.3894   -2.5473    0.0000 H   0  0  0  0  0  0  0  0  0  0  0  0
    1.7880   -3.2376    0.0000 H   0  0  0  0  0  0  0  0  0  0  0  0
    3.9441   -3.2376    0.0000 H   0  0  0  0  0  0  0  0  0  0  0  0
    4.3426   -2.5473    0.0000 H   0  0  0  0  0  0  0  0  0  0  0  0
    2.4675   -3.6300    0.0000 H   0  0  0  0  0  0  0  0  0  0  0  0
    3.2646   -3.6300    0.0000 H   0  0  0  0  0  0  0  0  0  0  0  0
    3.9441   -0.2376    0.0000 H   0  0  0  0  0  0  0  0  0  0  0  0
    4.3426    0.4527    0.0000 H   0  0  0  0  0  0  0  0  0  0  0  0
    3.7320    1.9650    0.0000 H   0  0  0  0  0  0  0  0  0  0  0  0
    5.1350    3.1550    0.0000 H   0  0  0  0  0  0  0  0  0  0  0  0
    4.0611    3.1550    0.0000 H   0  0  0  0  0  0  0  0  0  0  0  0
    2.3291    3.1550    0.0000 H   0  0  0  0  0  0  0  0  0  0  0  0
  1 15  1  0  0  0  0
  1 34  1  0  0  0  0
  2 14  2  0  0  0  0
  3 15  2  0  0  0  0
  4 14  1  0  0  0  0
  4 32  1  0  0  0  0
  4 33  1  0  0  0  0
  5  6  1  0  0  0  0
  5  7  1  0  0  0  0
  5  8  1  0  0  0  0
  5 16  1  0  0  0  0
  6  9  1  0  0  0  0
  6 17  1  0  0  0  0
  6 18  1  0  0  0  0
  7 10  1  0  0  0  0
  7 19  1  0  0  0  0
  7 20  1  0  0  0  0
  8 12  1  0  0  0  0
  8 21  1  0  0  0  0
  8 22  1  0  0  0  0
  9 11  1  0  0  0  0
  9 23  1  0  0  0  0
  9 24  1  0  0  0  0
 10 11  1  0  0  0  0
 10 25  1  0  0  0  0
 10 26  1  0  0  0  0
 11 27  1  0  0  0  0
 11 28  1  0  0  0  0
 12 13  1  0  0  0  0
 12 29  1  0  0  0  0
 12 30  1  0  0  0  0
 13 14  1  0  0  0  0
 13 15  1  0  0  0  0
 13 31  1  0  0  0  0
M  END
> <PUBCHEM_COMPOUND_CID>
518056
> <PUBCHEM_COMPOUND_CANONICALIZED>
1
> <PUBCHEM_CACTVS_COMPLEXITY>
234
> <PUBCHEM_CACTVS_HBOND_ACCEPTOR>
3
> <PUBCHEM_CACTVS_HBOND_DONOR>
2
> <PUBCHEM_CACTVS_ROTATABLE_BOND>
5
> <PUBCHEM_CACTVS_SUBSKEYS>
AAADceByMAAAAAAAAAAAAAAAAAAAAAAAAAAwAAAAAAAAAAAAAAAAHgAQCAAADQCBgAAACABAAgAIAAGQGAAAAAAAAAAAAAEAAAAAAB4IgAAAQAAGMAAAAAGYyPCOAAAAAAAAAAAAAAAAAAAAAAAAAAAAAA==
> <PUBCHEM_IUPAC_OPENEYE_NAME>
2-carbamoyl-4-cyclohexyl-butanoic acid
> <PUBCHEM_IUPAC_CAS_NAME>
2-carbamoyl-4-cyclohexylbutanoic acid
> <PUBCHEM_IUPAC_NAME_MARKUP>
2-carbamoyl-4-cyclohexylbutanoic acid
> <PUBCHEM_IUPAC_NAME>
2-carbamoyl-4-cyclohexylbutanoic acid
> <PUBCHEM_IUPAC_SYSTEMATIC_NAME>
2-aminocarbonyl-4-cyclohexyl-butanoic acid
> <PUBCHEM_IUPAC_TRADITIONAL_NAME>
2-carbamoyl-4-cyclohexyl-butyric acid
> <PUBCHEM_IUPAC_INCHI>
InChI=1S/C11H19NO3/c12-10(13)9(11(14)15)7-6-8-4-2-1-3-5-8/h8-9H,1-7H2,(H2,12,13)(H,14,15)
> <PUBCHEM_IUPAC_INCHIKEY>
SKOGCXVYDHZWNC-UHFFFAOYSA-N
> <PUBCHEM_XLOGP3_AA>
2.5
> <PUBCHEM_EXACT_MASS>
213.13649347
> <PUBCHEM_MOLECULAR_FORMULA>
C11H19NO3
> <PUBCHEM_MOLECULAR_WEIGHT>
213.27
> <PUBCHEM_OPENEYE_CAN_SMILES>
C1CCC(CC1)CCC(C(=O)N)C(=O)O
> <PUBCHEM_OPENEYE_ISO_SMILES>
C1CCC(CC1)CCC(C(=O)N)C(=O)O
> <PUBCHEM_CACTVS_TPSA>
80.4
> <PUBCHEM_MONOISOTOPIC_WEIGHT>
213.13649347
> <PUBCHEM_TOTAL_CHARGE>
0
> <PUBCHEM_HEAVY_ATOM_COUNT>
15
> <PUBCHEM_ATOM_DEF_STEREO_COUNT>
0
> <PUBCHEM_ATOM_UDEF_STEREO_COUNT>
1
> <PUBCHEM_BOND_DEF_STEREO_COUNT>
0
> <PUBCHEM_BOND_UDEF_STEREO_COUNT>
0
> <PUBCHEM_ISOTOPIC_ATOM_COUNT>
0
> <PUBCHEM_COMPONENT_COUNT>
1
> <PUBCHEM_CACTVS_TAUTO_COUNT>
-1
> <PUBCHEM_COORDINATE_TYPE>
1
5
255
> <PUBCHEM_BONDANNOTATIONS>
13  12  3
$$$$
