518058
  -OEChem-10302200292D
 23 24  0     1  0  0  0  0  0999 V2000
    4.6783   -0.6033    0.0000 O   0  0  0  0  0  0  0  0  0  0  0  0
    6.7619    1.0675    0.0000 O   0  0  0  0  0  0  0  0  0  0  0  0
    7.7619   -0.6645    0.0000 O   0  0  0  0  0  0  0  0  0  0  0  0
    5.2619    0.2015    0.0000 C   0  0  0  0  0  0  0  0  0  0  0  0
    6.2619    0.2015    0.0000 C   0  0  3  0  0  0  0  0  0  0  0  0
    3.7320    0.7015    0.0000 C   0  0  0  0  0  0  0  0  0  0  0  0
    3.7320   -0.2985    0.0000 C   0  0  0  0  0  0  0  0  0  0  0  0
    4.6783    1.0062    0.0000 C   0  0  0  0  0  0  0  0  0  0  0  0
    6.7619   -0.6645    0.0000 C   0  0  0  0  0  0  0  0  0  0  0  0
    2.8660    1.2015    0.0000 C   0  0  0  0  0  0  0  0  0  0  0  0
    2.8660   -0.7985    0.0000 C   0  0  0  0  0  0  0  0  0  0  0  0
    2.0000    0.7015    0.0000 C   0  0  0  0  0  0  0  0  0  0  0  0
    2.0000   -0.2985    0.0000 C   0  0  0  0  0  0  0  0  0  0  0  0
    5.9519    0.7384    0.0000 H   0  0  0  0  0  0  0  0  0  0  0  0
    4.8709    1.5955    0.0000 H   0  0  0  0  0  0  0  0  0  0  0  0
    6.1793   -0.8766    0.0000 H   0  0  0  0  0  0  0  0  0  0  0  0
    6.8695   -1.2751    0.0000 H   0  0  0  0  0  0  0  0  0  0  0  0
    2.8660    1.8215    0.0000 H   0  0  0  0  0  0  0  0  0  0  0  0
    2.8660   -1.4185    0.0000 H   0  0  0  0  0  0  0  0  0  0  0  0
    1.4631    1.0115    0.0000 H   0  0  0  0  0  0  0  0  0  0  0  0
    1.4631   -0.6085    0.0000 H   0  0  0  0  0  0  0  0  0  0  0  0
    7.3819    1.0675    0.0000 H   0  0  0  0  0  0  0  0  0  0  0  0
    8.0719   -1.2015    0.0000 H   0  0  0  0  0  0  0  0  0  0  0  0
  1  4  1  0  0  0  0
  1  7  1  0  0  0  0
  2  5  1  0  0  0  0
  2 22  1  0  0  0  0
  3  9  1  0  0  0  0
  3 23  1  0  0  0  0
  4  5  1  0  0  0  0
  4  8  2  0  0  0  0
  5  9  1  0  0  0  0
  5 14  1  0  0  0  0
  6  7  1  0  0  0  0
  6  8  1  0  0  0  0
  6 10  2  0  0  0  0
  7 11  2  0  0  0  0
  8 15  1  0  0  0  0
  9 16  1  0  0  0  0
  9 17  1  0  0  0  0
 10 12  1  0  0  0  0
 10 18  1  0  0  0  0
 11 13  1  0  0  0  0
 11 19  1  0  0  0  0
 12 13  2  0  0  0  0
 12 20  1  0  0  0  0
 13 21  1  0  0  0  0
M  END
> <PUBCHEM_COMPOUND_CID>
518058
> <PUBCHEM_COMPOUND_CANONICALIZED>
1
> <PUBCHEM_CACTVS_COMPLEXITY>
172
> <PUBCHEM_CACTVS_HBOND_ACCEPTOR>
3
> <PUBCHEM_CACTVS_HBOND_DONOR>
2
> <PUBCHEM_CACTVS_ROTATABLE_BOND>
2
> <PUBCHEM_CACTVS_SUBSKEYS>
AAADccBwMAAAAAAAAAAAAAAAAAAAASAAAAAwAAAAAAAAAEgB8AAAGgAACAAADBSgmAIwBsAABkCIAqBSAAICCAAkIAAIiAFGCMgNNjaENRqCeSCl4BELuYeI7LTOAAAAAAAIAAAAAAAAABAAAAAAAAAAAA==
> <PUBCHEM_IUPAC_OPENEYE_NAME>
1-(benzofuran-2-yl)ethane-1,2-diol
> <PUBCHEM_IUPAC_CAS_NAME>
1-(2-benzofuranyl)ethane-1,2-diol
> <PUBCHEM_IUPAC_NAME_MARKUP>
1-(1-benzofuran-2-yl)ethane-1,2-diol
> <PUBCHEM_IUPAC_NAME>
1-(1-benzofuran-2-yl)ethane-1,2-diol
> <PUBCHEM_IUPAC_SYSTEMATIC_NAME>
1-(1-benzofuran-2-yl)ethane-1,2-diol
> <PUBCHEM_IUPAC_TRADITIONAL_NAME>
1-(benzofuran-2-yl)ethane-1,2-diol
> <PUBCHEM_IUPAC_INCHI>
InChI=1S/C10H10O3/c11-6-8(12)10-5-7-3-1-2-4-9(7)13-10/h1-5,8,11-12H,6H2
> <PUBCHEM_IUPAC_INCHIKEY>
LRTYEGVIFGIVRB-UHFFFAOYSA-N
> <PUBCHEM_XLOGP3_AA>
0.8
> <PUBCHEM_EXACT_MASS>
178.062994177
> <PUBCHEM_MOLECULAR_FORMULA>
C10H10O3
> <PUBCHEM_MOLECULAR_WEIGHT>
178.18
> <PUBCHEM_OPENEYE_CAN_SMILES>
C1=CC=C2C(=C1)C=C(O2)C(CO)O
> <PUBCHEM_OPENEYE_ISO_SMILES>
C1=CC=C2C(=C1)C=C(O2)C(CO)O
> <PUBCHEM_CACTVS_TPSA>
53.6
> <PUBCHEM_MONOISOTOPIC_WEIGHT>
178.062994177
> <PUBCHEM_TOTAL_CHARGE>
0
> <PUBCHEM_HEAVY_ATOM_COUNT>
13
> <PUBCHEM_ATOM_DEF_STEREO_COUNT>
0
> <PUBCHEM_ATOM_UDEF_STEREO_COUNT>
1
> <PUBCHEM_BOND_DEF_STEREO_COUNT>
0
> <PUBCHEM_BOND_UDEF_STEREO_COUNT>
0
> <PUBCHEM_ISOTOPIC_ATOM_COUNT>
0
> <PUBCHEM_COMPONENT_COUNT>
1
> <PUBCHEM_CACTVS_TAUTO_COUNT>
-1
> <PUBCHEM_COORDINATE_TYPE>
1
5
255
> <PUBCHEM_BONDANNOTATIONS>
1  4  8
1  7  8
10  12  8
11  13  8
12  13  8
5  2  3
4  8  8
6  10  8
6  7  8
6  8  8
7  11  8
$$$$
