518066
  -OEChem-10302200292D
 52 54  0     1  0  0  0  0  0999 V2000
    3.2382    0.0000    0.0000 Cl  0  0  0  0  0  0  0  0  0  0  0  0
    2.3426    6.4750    0.0000 O   0  0  0  0  0  0  0  0  0  0  0  0
    0.6106    3.4750    0.0000 O   0  0  0  0  0  0  0  0  0  0  0  0
    2.3426    4.4750    0.0000 N   0  0  0  0  0  0  0  0  0  0  0  0
    4.0747    6.4750    0.0000 C   0  0  0  0  0  0  0  0  0  0  0  0
    3.2087    4.9750    0.0000 C   0  0  3  0  0  0  0  0  0  0  0  0
    4.9407    5.9750    0.0000 C   0  0  0  0  0  0  0  0  0  0  0  0
    4.0747    4.4750    0.0000 C   0  0  0  0  0  0  0  0  0  0  0  0
    4.9407    4.9750    0.0000 C   0  0  0  0  0  0  0  0  0  0  0  0
    3.2087    5.9750    0.0000 C   0  0  0  0  0  0  0  0  0  0  0  0
    5.0144    6.8170    0.0000 C   0  0  0  0  0  0  0  0  0  0  0  0
    3.5747    7.3410    0.0000 C   0  0  0  0  0  0  0  0  0  0  0  0
    2.3426    3.4750    0.0000 C   0  0  0  0  0  0  0  0  0  0  0  0
    1.4766    4.9750    0.0000 C   0  0  0  0  0  0  0  0  0  0  0  0
    1.4766    2.9750    0.0000 C   0  0  0  0  0  0  0  0  0  0  0  0
    0.6106    4.4750    0.0000 C   0  0  0  0  0  0  0  0  0  0  0  0
    5.1880    7.8018    0.0000 C   0  0  0  0  0  0  0  0  0  0  0  0
    4.0747    8.2070    0.0000 C   0  0  0  0  0  0  0  0  0  0  0  0
    5.7804    6.1742    0.0000 C   0  0  0  0  0  0  0  0  0  0  0  0
    2.5747    7.3410    0.0000 C   0  0  0  0  0  0  0  0  0  0  0  0
    6.1277    8.1438    0.0000 C   0  0  0  0  0  0  0  0  0  0  0  0
    3.5747    9.0730    0.0000 C   0  0  0  0  0  0  0  0  0  0  0  0
    6.7201    6.5162    0.0000 C   0  0  0  0  0  0  0  0  0  0  0  0
    2.0747    8.2070    0.0000 C   0  0  0  0  0  0  0  0  0  0  0  0
    6.8938    7.5010    0.0000 C   0  0  0  0  0  0  0  0  0  0  0  0
    2.5747    9.0730    0.0000 C   0  0  0  0  0  0  0  0  0  0  0  0
    3.2087    4.3550    0.0000 H   0  0  0  0  0  0  0  0  0  0  0  0
    5.5513    5.8673    0.0000 H   0  0  0  0  0  0  0  0  0  0  0  0
    5.1528    6.5576    0.0000 H   0  0  0  0  0  0  0  0  0  0  0  0
    3.6762    4.0000    0.0000 H   0  0  0  0  0  0  0  0  0  0  0  0
    4.4732    4.0000    0.0000 H   0  0  0  0  0  0  0  0  0  0  0  0
    5.1528    4.3923    0.0000 H   0  0  0  0  0  0  0  0  0  0  0  0
    5.5513    5.0826    0.0000 H   0  0  0  0  0  0  0  0  0  0  0  0
    2.5547    2.8923    0.0000 H   0  0  0  0  0  0  0  0  0  0  0  0
    2.9532    3.5826    0.0000 H   0  0  0  0  0  0  0  0  0  0  0  0
    1.8751    5.4499    0.0000 H   0  0  0  0  0  0  0  0  0  0  0  0
    1.0781    5.4499    0.0000 H   0  0  0  0  0  0  0  0  0  0  0  0
    1.0781    2.5000    0.0000 H   0  0  0  0  0  0  0  0  0  0  0  0
    1.8751    2.5000    0.0000 H   0  0  0  0  0  0  0  0  0  0  0  0
    0.3985    5.0576    0.0000 H   0  0  0  0  0  0  0  0  0  0  0  0
    0.0000    4.3673    0.0000 H   0  0  0  0  0  0  0  0  0  0  0  0
    4.7131    8.2003    0.0000 H   0  0  0  0  0  0  0  0  0  0  0  0
    4.6947    8.2070    0.0000 H   0  0  0  0  0  0  0  0  0  0  0  0
    5.6728    5.5636    0.0000 H   0  0  0  0  0  0  0  0  0  0  0  0
    2.2647    6.8040    0.0000 H   0  0  0  0  0  0  0  0  0  0  0  0
    6.2354    8.7544    0.0000 H   0  0  0  0  0  0  0  0  0  0  0  0
    3.8847    9.6100    0.0000 H   0  0  0  0  0  0  0  0  0  0  0  0
    7.1951    6.1177    0.0000 H   0  0  0  0  0  0  0  0  0  0  0  0
    1.4547    8.2070    0.0000 H   0  0  0  0  0  0  0  0  0  0  0  0
    7.4764    7.7131    0.0000 H   0  0  0  0  0  0  0  0  0  0  0  0
    2.2647    9.6100    0.0000 H   0  0  0  0  0  0  0  0  0  0  0  0
    4.2382    0.0000    0.0000 H   0  0  0  0  0  0  0  0  0  0  0  0
  1 52  1  0  0  0  0
  2 10  2  0  0  0  0
  3 15  1  0  0  0  0
  3 16  1  0  0  0  0
  4  6  1  0  0  0  0
  4 13  1  0  0  0  0
  4 14  1  0  0  0  0
  5  7  1  0  0  0  0
  5 10  1  0  0  0  0
  5 11  1  0  0  0  0
  5 12  1  0  0  0  0
  6  8  1  0  0  0  0
  6 10  1  0  0  0  0
  6 27  1  0  0  0  0
  7  9  1  0  0  0  0
  7 28  1  0  0  0  0
  7 29  1  0  0  0  0
  8  9  1  0  0  0  0
  8 30  1  0  0  0  0
  8 31  1  0  0  0  0
  9 32  1  0  0  0  0
  9 33  1  0  0  0  0
 11 17  2  0  0  0  0
 11 19  1  0  0  0  0
 12 18  2  0  0  0  0
 12 20  1  0  0  0  0
 13 15  1  0  0  0  0
 13 34  1  0  0  0  0
 13 35  1  0  0  0  0
 14 16  1  0  0  0  0
 14 36  1  0  0  0  0
 14 37  1  0  0  0  0
 15 38  1  0  0  0  0
 15 39  1  0  0  0  0
 16 40  1  0  0  0  0
 16 41  1  0  0  0  0
 17 21  1  0  0  0  0
 17 42  1  0  0  0  0
 18 22  1  0  0  0  0
 18 43  1  0  0  0  0
 19 23  2  0  0  0  0
 19 44  1  0  0  0  0
 20 24  2  0  0  0  0
 20 45  1  0  0  0  0
 21 25  2  0  0  0  0
 21 46  1  0  0  0  0
 22 26  2  0  0  0  0
 22 47  1  0  0  0  0
 23 25  1  0  0  0  0
 23 48  1  0  0  0  0
 24 26  1  0  0  0  0
 24 49  1  0  0  0  0
 25 50  1  0  0  0  0
 26 51  1  0  0  0  0
M  END
> <PUBCHEM_COMPOUND_CID>
518066
> <PUBCHEM_COMPOUND_CANONICALIZED>
1
> <PUBCHEM_CACTVS_COMPLEXITY>
427
> <PUBCHEM_CACTVS_HBOND_ACCEPTOR>
3
> <PUBCHEM_CACTVS_HBOND_DONOR>
1
> <PUBCHEM_CACTVS_ROTATABLE_BOND>
3
> <PUBCHEM_CACTVS_SUBSKEYS>
AAADceB6MAAEAAAAAAAAAAAAAAAAAAAAAAA8YMEAAAAAAAABQAAAHgAAAAAADizhmAYwAIMABACIAqBSAAACAAAgAAAIiAGIAIgKIDKAlTCHIAAggACYiAcYiMCPgAAAAAAAAAAAAACAAAAAAAAAAAAAAA==
> <PUBCHEM_IUPAC_OPENEYE_NAME>
6-morpholino-2,2-diphenyl-cyclohexanone;hydrochloride
> <PUBCHEM_IUPAC_CAS_NAME>
6-(4-morpholinyl)-2,2-diphenyl-1-cyclohexanone;hydrochloride
> <PUBCHEM_IUPAC_NAME_MARKUP>
6-morpholin-4-yl-2,2-diphenylcyclohexan-1-one;hydrochloride
> <PUBCHEM_IUPAC_NAME>
6-morpholin-4-yl-2,2-diphenylcyclohexan-1-one;hydrochloride
> <PUBCHEM_IUPAC_SYSTEMATIC_NAME>
6-morpholin-4-yl-2,2-diphenyl-cyclohexan-1-one;hydrochloride
> <PUBCHEM_IUPAC_TRADITIONAL_NAME>
6-morpholino-2,2-diphenyl-cyclohexanone;hydrochloride
> <PUBCHEM_IUPAC_INCHI>
InChI=1S/C22H25NO2.ClH/c24-21-20(23-14-16-25-17-15-23)12-7-13-22(21,18-8-3-1-4-9-18)19-10-5-2-6-11-19;/h1-6,8-11,20H,7,12-17H2;1H
> <PUBCHEM_IUPAC_INCHIKEY>
SQMNJMOKASBMGX-UHFFFAOYSA-N
> <PUBCHEM_EXACT_MASS>
371.1652068
> <PUBCHEM_MOLECULAR_FORMULA>
C22H26ClNO2
> <PUBCHEM_MOLECULAR_WEIGHT>
371.9
> <PUBCHEM_OPENEYE_CAN_SMILES>
C1CC(C(=O)C(C1)(C2=CC=CC=C2)C3=CC=CC=C3)N4CCOCC4.Cl
> <PUBCHEM_OPENEYE_ISO_SMILES>
C1CC(C(=O)C(C1)(C2=CC=CC=C2)C3=CC=CC=C3)N4CCOCC4.Cl
> <PUBCHEM_CACTVS_TPSA>
29.5
> <PUBCHEM_MONOISOTOPIC_WEIGHT>
371.1652068
> <PUBCHEM_TOTAL_CHARGE>
0
> <PUBCHEM_HEAVY_ATOM_COUNT>
26
> <PUBCHEM_ATOM_DEF_STEREO_COUNT>
0
> <PUBCHEM_ATOM_UDEF_STEREO_COUNT>
1
> <PUBCHEM_BOND_DEF_STEREO_COUNT>
0
> <PUBCHEM_BOND_UDEF_STEREO_COUNT>
0
> <PUBCHEM_ISOTOPIC_ATOM_COUNT>
0
> <PUBCHEM_COMPONENT_COUNT>
2
> <PUBCHEM_CACTVS_TAUTO_COUNT>
-1
> <PUBCHEM_COORDINATE_TYPE>
1
5
255
> <PUBCHEM_BONDANNOTATIONS>
11  17  8
11  19  8
12  18  8
12  20  8
17  21  8
18  22  8
19  23  8
20  24  8
21  25  8
22  26  8
23  25  8
24  26  8
6  4  3
$$$$
