518163
  -OEChem-10302200292D
 74 76  0     1  0  0  0  0  0999 V2000
    8.0000    0.0000    0.0000 P   0  0  0  0  0  0  0  0  0  0  0  0
    7.1340   -0.5000    0.0000 O   0  0  0  0  0  0  0  0  0  0  0  0
    8.8660    0.5000    0.0000 O   0  0  0  0  0  0  0  0  0  0  0  0
    7.5000    0.8660    0.0000 O   0  0  0  0  0  0  0  0  0  0  0  0
    8.5000   -0.8660    0.0000 O   0  0  0  0  0  0  0  0  0  0  0  0
    7.1340   -4.5000    0.0000 C   0  0  3  0  0  0  0  0  0  0  0  0
    8.8660    4.5000    0.0000 C   0  0  3  0  0  0  0  0  0  0  0  0
    3.5000    0.8660    0.0000 C   0  0  3  0  0  0  0  0  0  0  0  0
    6.2680   -5.0000    0.0000 C   0  0  0  0  0  0  0  0  0  0  0  0
    9.7320    5.0000    0.0000 C   0  0  0  0  0  0  0  0  0  0  0  0
    3.0000    1.7320    0.0000 C   0  0  0  0  0  0  0  0  0  0  0  0
    7.1340   -3.5000    0.0000 C   0  0  0  0  0  0  0  0  0  0  0  0
    8.8660    3.5000    0.0000 C   0  0  0  0  0  0  0  0  0  0  0  0
    4.5000    0.8660    0.0000 C   0  0  0  0  0  0  0  0  0  0  0  0
    8.0000   -5.0000    0.0000 C   0  0  0  0  0  0  0  0  0  0  0  0
    8.0000    5.0000    0.0000 C   0  0  0  0  0  0  0  0  0  0  0  0
    3.0000    0.0000    0.0000 C   0  0  0  0  0  0  0  0  0  0  0  0
    6.2680   -3.0000    0.0000 C   0  0  0  0  0  0  0  0  0  0  0  0
    8.0000    3.0000    0.0000 C   0  0  0  0  0  0  0  0  0  0  0  0
    5.0000    0.0000    0.0000 C   0  0  0  0  0  0  0  0  0  0  0  0
    8.0000   -3.0000    0.0000 C   0  0  0  0  0  0  0  0  0  0  0  0
    9.7320    3.0000    0.0000 C   0  0  0  0  0  0  0  0  0  0  0  0
    5.0000    1.7320    0.0000 C   0  0  0  0  0  0  0  0  0  0  0  0
    6.2680   -6.0000    0.0000 C   0  0  0  0  0  0  0  0  0  0  0  0
    9.7320    6.0000    0.0000 C   0  0  0  0  0  0  0  0  0  0  0  0
    2.0000    1.7320    0.0000 C   0  0  0  0  0  0  0  0  0  0  0  0
    7.1340   -1.5000    0.0000 C   0  0  0  0  0  0  0  0  0  0  0  0
    8.8660    1.5000    0.0000 C   0  0  0  0  0  0  0  0  0  0  0  0
    6.5000    0.8660    0.0000 C   0  0  0  0  0  0  0  0  0  0  0  0
    6.2680   -2.0000    0.0000 C   0  0  0  0  0  0  0  0  0  0  0  0
    8.0000    2.0000    0.0000 C   0  0  0  0  0  0  0  0  0  0  0  0
    6.0000   -0.0000    0.0000 C   0  0  0  0  0  0  0  0  0  0  0  0
    8.0000   -2.0000    0.0000 C   0  0  0  0  0  0  0  0  0  0  0  0
    9.7320    2.0000    0.0000 C   0  0  0  0  0  0  0  0  0  0  0  0
    6.0000    1.7320    0.0000 C   0  0  0  0  0  0  0  0  0  0  0  0
    7.1340   -5.1200    0.0000 H   0  0  0  0  0  0  0  0  0  0  0  0
    8.3291    4.1900    0.0000 H   0  0  0  0  0  0  0  0  0  0  0  0
    3.8100    0.3291    0.0000 H   0  0  0  0  0  0  0  0  0  0  0  0
    6.0559   -4.4174    0.0000 H   0  0  0  0  0  0  0  0  0  0  0  0
    5.6574   -5.1077    0.0000 H   0  0  0  0  0  0  0  0  0  0  0  0
    9.9441    4.4174    0.0000 H   0  0  0  0  0  0  0  0  0  0  0  0
   10.3426    5.1077    0.0000 H   0  0  0  0  0  0  0  0  0  0  0  0
    3.5826    1.9441    0.0000 H   0  0  0  0  0  0  0  0  0  0  0  0
    2.8923    2.3426    0.0000 H   0  0  0  0  0  0  0  0  0  0  0  0
    7.6900   -5.5369    0.0000 H   0  0  0  0  0  0  0  0  0  0  0  0
    8.5369   -5.3100    0.0000 H   0  0  0  0  0  0  0  0  0  0  0  0
    8.3100   -4.4631    0.0000 H   0  0  0  0  0  0  0  0  0  0  0  0
    8.3100    5.5369    0.0000 H   0  0  0  0  0  0  0  0  0  0  0  0
    7.4631    5.3100    0.0000 H   0  0  0  0  0  0  0  0  0  0  0  0
    7.6900    4.4631    0.0000 H   0  0  0  0  0  0  0  0  0  0  0  0
    2.4631    0.3100    0.0000 H   0  0  0  0  0  0  0  0  0  0  0  0
    2.6900   -0.5369    0.0000 H   0  0  0  0  0  0  0  0  0  0  0  0
    3.5369   -0.3100    0.0000 H   0  0  0  0  0  0  0  0  0  0  0  0
    5.7310   -3.3100    0.0000 H   0  0  0  0  0  0  0  0  0  0  0  0
    7.4631    3.3100    0.0000 H   0  0  0  0  0  0  0  0  0  0  0  0
    4.6900   -0.5369    0.0000 H   0  0  0  0  0  0  0  0  0  0  0  0
    8.5369   -3.3100    0.0000 H   0  0  0  0  0  0  0  0  0  0  0  0
   10.2690    3.3100    0.0000 H   0  0  0  0  0  0  0  0  0  0  0  0
    4.6900    2.2690    0.0000 H   0  0  0  0  0  0  0  0  0  0  0  0
    5.6480   -6.0000    0.0000 H   0  0  0  0  0  0  0  0  0  0  0  0
    6.2680   -6.6200    0.0000 H   0  0  0  0  0  0  0  0  0  0  0  0
    6.8880   -6.0000    0.0000 H   0  0  0  0  0  0  0  0  0  0  0  0
   10.3521    6.0000    0.0000 H   0  0  0  0  0  0  0  0  0  0  0  0
    9.7320    6.6200    0.0000 H   0  0  0  0  0  0  0  0  0  0  0  0
    9.1120    6.0000    0.0000 H   0  0  0  0  0  0  0  0  0  0  0  0
    2.0000    2.3521    0.0000 H   0  0  0  0  0  0  0  0  0  0  0  0
    1.3800    1.7320    0.0000 H   0  0  0  0  0  0  0  0  0  0  0  0
    2.0000    1.1120    0.0000 H   0  0  0  0  0  0  0  0  0  0  0  0
    5.7310   -1.6900    0.0000 H   0  0  0  0  0  0  0  0  0  0  0  0
    7.4631    1.6900    0.0000 H   0  0  0  0  0  0  0  0  0  0  0  0
    6.3100   -0.5369    0.0000 H   0  0  0  0  0  0  0  0  0  0  0  0
    8.5369   -1.6900    0.0000 H   0  0  0  0  0  0  0  0  0  0  0  0
   10.2690    1.6900    0.0000 H   0  0  0  0  0  0  0  0  0  0  0  0
    6.3100    2.2690    0.0000 H   0  0  0  0  0  0  0  0  0  0  0  0
  1  2  1  0  0  0  0
  1  3  1  0  0  0  0
  1  4  1  0  0  0  0
  1  5  2  0  0  0  0
  2 27  1  0  0  0  0
  3 28  1  0  0  0  0
  4 29  1  0  0  0  0
  6  9  1  0  0  0  0
  6 12  1  0  0  0  0
  6 15  1  0  0  0  0
  6 36  1  0  0  0  0
  7 10  1  0  0  0  0
  7 13  1  0  0  0  0
  7 16  1  0  0  0  0
  7 37  1  0  0  0  0
  8 11  1  0  0  0  0
  8 14  1  0  0  0  0
  8 17  1  0  0  0  0
  8 38  1  0  0  0  0
  9 24  1  0  0  0  0
  9 39  1  0  0  0  0
  9 40  1  0  0  0  0
 10 25  1  0  0  0  0
 10 41  1  0  0  0  0
 10 42  1  0  0  0  0
 11 26  1  0  0  0  0
 11 43  1  0  0  0  0
 11 44  1  0  0  0  0
 12 18  2  0  0  0  0
 12 21  1  0  0  0  0
 13 19  2  0  0  0  0
 13 22  1  0  0  0  0
 14 20  2  0  0  0  0
 14 23  1  0  0  0  0
 15 45  1  0  0  0  0
 15 46  1  0  0  0  0
 15 47  1  0  0  0  0
 16 48  1  0  0  0  0
 16 49  1  0  0  0  0
 16 50  1  0  0  0  0
 17 51  1  0  0  0  0
 17 52  1  0  0  0  0
 17 53  1  0  0  0  0
 18 30  1  0  0  0  0
 18 54  1  0  0  0  0
 19 31  1  0  0  0  0
 19 55  1  0  0  0  0
 20 32  1  0  0  0  0
 20 56  1  0  0  0  0
 21 33  2  0  0  0  0
 21 57  1  0  0  0  0
 22 34  2  0  0  0  0
 22 58  1  0  0  0  0
 23 35  2  0  0  0  0
 23 59  1  0  0  0  0
 24 60  1  0  0  0  0
 24 61  1  0  0  0  0
 24 62  1  0  0  0  0
 25 63  1  0  0  0  0
 25 64  1  0  0  0  0
 25 65  1  0  0  0  0
 26 66  1  0  0  0  0
 26 67  1  0  0  0  0
 26 68  1  0  0  0  0
 27 30  2  0  0  0  0
 27 33  1  0  0  0  0
 28 31  2  0  0  0  0
 28 34  1  0  0  0  0
 29 32  2  0  0  0  0
 29 35  1  0  0  0  0
 30 69  1  0  0  0  0
 31 70  1  0  0  0  0
 32 71  1  0  0  0  0
 33 72  1  0  0  0  0
 34 73  1  0  0  0  0
 35 74  1  0  0  0  0
M  END
> <PUBCHEM_COMPOUND_CID>
518163
> <PUBCHEM_COMPOUND_CANONICALIZED>
1
> <PUBCHEM_CACTVS_COMPLEXITY>
545
> <PUBCHEM_CACTVS_HBOND_ACCEPTOR>
4
> <PUBCHEM_CACTVS_HBOND_DONOR>
0
> <PUBCHEM_CACTVS_ROTATABLE_BOND>
12
> <PUBCHEM_CACTVS_SUBSKEYS>
AAADcfB4OAIAAAAAAAAAAAAAAAAAAAAAAAAwYMAAAAAAAAABUAAAGgAAACAADQSAmAAyBoAAARCAQiBCAIACAAAgIAAIiAAGCIgIJiKAERKAMAAkwBEIiAeAwPAOoAAAAAAAAABAAAAAAAAAAAAAAAAAAA==
> <PUBCHEM_IUPAC_OPENEYE_NAME>
tris(4-sec-butylphenyl) phosphate
> <PUBCHEM_IUPAC_CAS_NAME>
phosphoric acid tris(4-butan-2-ylphenyl) ester
> <PUBCHEM_IUPAC_NAME_MARKUP>
tris(4-butan-2-ylphenyl) phosphate
> <PUBCHEM_IUPAC_NAME>
tris(4-butan-2-ylphenyl) phosphate
> <PUBCHEM_IUPAC_SYSTEMATIC_NAME>
tris(4-butan-2-ylphenyl) phosphate
> <PUBCHEM_IUPAC_TRADITIONAL_NAME>
phosphoric acid tris(4-sec-butylphenyl) ester
> <PUBCHEM_IUPAC_INCHI>
InChI=1S/C30H39O4P/c1-7-22(4)25-10-16-28(17-11-25)32-35(31,33-29-18-12-26(13-19-29)23(5)8-2)34-30-20-14-27(15-21-30)24(6)9-3/h10-24H,7-9H2,1-6H3
> <PUBCHEM_IUPAC_INCHIKEY>
CVQJIHIPOBDGET-UHFFFAOYSA-N
> <PUBCHEM_XLOGP3>
9
> <PUBCHEM_EXACT_MASS>
494.25859672
> <PUBCHEM_MOLECULAR_FORMULA>
C30H39O4P
> <PUBCHEM_MOLECULAR_WEIGHT>
494.6
> <PUBCHEM_OPENEYE_CAN_SMILES>
CCC(C)C1=CC=C(C=C1)OP(=O)(OC2=CC=C(C=C2)C(C)CC)OC3=CC=C(C=C3)C(C)CC
> <PUBCHEM_OPENEYE_ISO_SMILES>
CCC(C)C1=CC=C(C=C1)OP(=O)(OC2=CC=C(C=C2)C(C)CC)OC3=CC=C(C=C3)C(C)CC
> <PUBCHEM_CACTVS_TPSA>
44.8
> <PUBCHEM_MONOISOTOPIC_WEIGHT>
494.25859672
> <PUBCHEM_TOTAL_CHARGE>
0
> <PUBCHEM_HEAVY_ATOM_COUNT>
35
> <PUBCHEM_ATOM_DEF_STEREO_COUNT>
0
> <PUBCHEM_ATOM_UDEF_STEREO_COUNT>
3
> <PUBCHEM_BOND_DEF_STEREO_COUNT>
0
> <PUBCHEM_BOND_UDEF_STEREO_COUNT>
0
> <PUBCHEM_ISOTOPIC_ATOM_COUNT>
0
> <PUBCHEM_COMPONENT_COUNT>
1
> <PUBCHEM_CACTVS_TAUTO_COUNT>
-1
> <PUBCHEM_COORDINATE_TYPE>
1
5
255
> <PUBCHEM_BONDANNOTATIONS>
12  18  8
12  21  8
13  19  8
13  22  8
14  20  8
14  23  8
18  30  8
19  31  8
20  32  8
21  33  8
22  34  8
23  35  8
27  30  8
27  33  8
28  31  8
28  34  8
29  32  8
29  35  8
6  15  3
7  16  3
8  17  3
$$$$
