518191
  -OEChem-10302200292D
 29 29  0     1  0  0  0  0  0999 V2000
    2.0000   -1.4050    0.0000 Cl  0  0  0  0  0  0  0  0  0  0  0  0
    5.4641   -3.4050    0.0000 Cl  0  0  0  0  0  0  0  0  0  0  0  0
    3.7320   -4.4050    0.0000 Cl  0  0  0  0  0  0  0  0  0  0  0  0
    3.7320   -0.4050    0.0000 O   0  0  0  0  0  0  0  0  0  0  0  0
    5.4641    1.5950    0.0000 O   0  0  0  0  0  0  0  0  0  0  0  0
    3.7320    1.5950    0.0000 O   0  0  0  0  0  0  0  0  0  0  0  0
    6.3301    4.0950    0.0000 O   0  0  0  0  0  0  0  0  0  0  0  0
    4.5981    0.0950    0.0000 C   0  0  3  0  0  0  0  0  0  0  0  0
    5.4641   -0.4050    0.0000 C   0  0  0  0  0  0  0  0  0  0  0  0
    3.7320   -1.4050    0.0000 C   0  0  0  0  0  0  0  0  0  0  0  0
    4.5981    1.0950    0.0000 C   0  0  0  0  0  0  0  0  0  0  0  0
    5.4641    2.5950    0.0000 C   0  0  0  0  0  0  0  0  0  0  0  0
    2.8660   -1.9050    0.0000 C   0  0  0  0  0  0  0  0  0  0  0  0
    4.5981   -1.9050    0.0000 C   0  0  0  0  0  0  0  0  0  0  0  0
    4.5981   -2.9050    0.0000 C   0  0  0  0  0  0  0  0  0  0  0  0
    2.8660   -2.9050    0.0000 C   0  0  0  0  0  0  0  0  0  0  0  0
    6.3301    3.0950    0.0000 C   0  0  0  0  0  0  0  0  0  0  0  0
    3.7320   -3.4050    0.0000 C   0  0  0  0  0  0  0  0  0  0  0  0
    4.5981   -0.5250    0.0000 H   0  0  0  0  0  0  0  0  0  0  0  0
    5.1541   -0.9419    0.0000 H   0  0  0  0  0  0  0  0  0  0  0  0
    6.0010   -0.7150    0.0000 H   0  0  0  0  0  0  0  0  0  0  0  0
    5.7741    0.1319    0.0000 H   0  0  0  0  0  0  0  0  0  0  0  0
    5.2520    3.1776    0.0000 H   0  0  0  0  0  0  0  0  0  0  0  0
    4.8535    2.4873    0.0000 H   0  0  0  0  0  0  0  0  0  0  0  0
    5.1350   -1.5950    0.0000 H   0  0  0  0  0  0  0  0  0  0  0  0
    6.5422    2.5124    0.0000 H   0  0  0  0  0  0  0  0  0  0  0  0
    6.9407    3.2027    0.0000 H   0  0  0  0  0  0  0  0  0  0  0  0
    2.3291   -3.2150    0.0000 H   0  0  0  0  0  0  0  0  0  0  0  0
    6.8671    4.4050    0.0000 H   0  0  0  0  0  0  0  0  0  0  0  0
  1 13  1  0  0  0  0
  2 15  1  0  0  0  0
  3 18  1  0  0  0  0
  4  8  1  0  0  0  0
  4 10  1  0  0  0  0
  5 11  1  0  0  0  0
  5 12  1  0  0  0  0
  6 11  2  0  0  0  0
  7 17  1  0  0  0  0
  7 29  1  0  0  0  0
  8  9  1  0  0  0  0
  8 11  1  0  0  0  0
  8 19  1  0  0  0  0
  9 20  1  0  0  0  0
  9 21  1  0  0  0  0
  9 22  1  0  0  0  0
 10 13  1  0  0  0  0
 10 14  2  0  0  0  0
 12 17  1  0  0  0  0
 12 23  1  0  0  0  0
 12 24  1  0  0  0  0
 13 16  2  0  0  0  0
 14 15  1  0  0  0  0
 14 25  1  0  0  0  0
 15 18  2  0  0  0  0
 16 18  1  0  0  0  0
 16 28  1  0  0  0  0
 17 26  1  0  0  0  0
 17 27  1  0  0  0  0
M  END
> <PUBCHEM_COMPOUND_CID>
518191
> <PUBCHEM_COMPOUND_CANONICALIZED>
1
> <PUBCHEM_CACTVS_COMPLEXITY>
277
> <PUBCHEM_CACTVS_HBOND_ACCEPTOR>
4
> <PUBCHEM_CACTVS_HBOND_DONOR>
1
> <PUBCHEM_CACTVS_ROTATABLE_BOND>
6
> <PUBCHEM_CACTVS_SUBSKEYS>
AAADccBwOAAGAAAAAAAAAAAAAAAAAAAAAAAwAAAAAAAAAAABAAAAGgIACAAACBagkCIyDoAABgCIACDSCAICCAAgJUAAikFGC4gNNiOFMh6COCCkwBELqAeAQAAAACAQAQCACAQAQCACAQAQCAAAAAAAAA==
> <PUBCHEM_IUPAC_OPENEYE_NAME>
2-hydroxyethyl 2-(2,4,5-trichlorophenoxy)propanoate
> <PUBCHEM_IUPAC_CAS_NAME>
2-(2,4,5-trichlorophenoxy)propanoic acid 2-hydroxyethyl ester
> <PUBCHEM_IUPAC_NAME_MARKUP>
2-hydroxyethyl 2-(2,4,5-trichlorophenoxy)propanoate
> <PUBCHEM_IUPAC_NAME>
2-hydroxyethyl 2-(2,4,5-trichlorophenoxy)propanoate
> <PUBCHEM_IUPAC_SYSTEMATIC_NAME>
2-hydroxyethyl 2-[2,4,5-tris(chloranyl)phenoxy]propanoate
> <PUBCHEM_IUPAC_TRADITIONAL_NAME>
2-(2,4,5-trichlorophenoxy)propionic acid 2-hydroxyethyl ester
> <PUBCHEM_IUPAC_INCHI>
InChI=1S/C11H11Cl3O4/c1-6(11(16)17-3-2-15)18-10-5-8(13)7(12)4-9(10)14/h4-6,15H,2-3H2,1H3
> <PUBCHEM_IUPAC_INCHIKEY>
PDVSFMMXQVCJGE-UHFFFAOYSA-N
> <PUBCHEM_XLOGP3>
3.4
> <PUBCHEM_EXACT_MASS>
311.972292
> <PUBCHEM_MOLECULAR_FORMULA>
C11H11Cl3O4
> <PUBCHEM_MOLECULAR_WEIGHT>
313.6
> <PUBCHEM_OPENEYE_CAN_SMILES>
CC(C(=O)OCCO)OC1=CC(=C(C=C1Cl)Cl)Cl
> <PUBCHEM_OPENEYE_ISO_SMILES>
CC(C(=O)OCCO)OC1=CC(=C(C=C1Cl)Cl)Cl
> <PUBCHEM_CACTVS_TPSA>
55.8
> <PUBCHEM_MONOISOTOPIC_WEIGHT>
311.972292
> <PUBCHEM_TOTAL_CHARGE>
0
> <PUBCHEM_HEAVY_ATOM_COUNT>
18
> <PUBCHEM_ATOM_DEF_STEREO_COUNT>
0
> <PUBCHEM_ATOM_UDEF_STEREO_COUNT>
1
> <PUBCHEM_BOND_DEF_STEREO_COUNT>
0
> <PUBCHEM_BOND_UDEF_STEREO_COUNT>
0
> <PUBCHEM_ISOTOPIC_ATOM_COUNT>
0
> <PUBCHEM_COMPONENT_COUNT>
1
> <PUBCHEM_CACTVS_TAUTO_COUNT>
-1
> <PUBCHEM_COORDINATE_TYPE>
1
5
255
> <PUBCHEM_BONDANNOTATIONS>
10  13  8
10  14  8
13  16  8
14  15  8
15  18  8
16  18  8
8  9  3
$$$$
