518140
  -OEChem-10302200292D
 65 65  0     1  0  0  0  0  0999 V2000
    3.0000   -0.7500    0.0000 P   0  0  0  0  0  0  0  0  0  0  0  0
    3.0000    0.2500    0.0000 O   0  0  0  0  0  0  0  0  0  0  0  0
    4.0000   -0.7500    0.0000 O   0  0  0  0  0  0  0  0  0  0  0  0
    2.0000   -0.7500    0.0000 O   0  0  0  0  0  0  0  0  0  0  0  0
    3.8660    1.7500    0.0000 C   0  0  3  0  0  0  0  0  0  0  0  0
    5.5000    0.1160    0.0000 C   0  0  3  0  0  0  0  0  0  0  0  0
    4.7320    2.2500    0.0000 C   0  0  0  0  0  0  0  0  0  0  0  0
    6.0000   -0.7500    0.0000 C   0  0  0  0  0  0  0  0  0  0  0  0
    4.7320    3.2500    0.0000 C   0  0  0  0  0  0  0  0  0  0  0  0
    7.0000   -0.7500    0.0000 C   0  0  0  0  0  0  0  0  0  0  0  0
    3.8660    0.7500    0.0000 C   0  0  0  0  0  0  0  0  0  0  0  0
    4.5000    0.1160    0.0000 C   0  0  0  0  0  0  0  0  0  0  0  0
    3.0000    2.2500    0.0000 C   0  0  0  0  0  0  0  0  0  0  0  0
    6.0000    0.9821    0.0000 C   0  0  0  0  0  0  0  0  0  0  0  0
    5.5981    3.7500    0.0000 C   0  0  0  0  0  0  0  0  0  0  0  0
    3.8660    3.7500    0.0000 C   0  0  0  0  0  0  0  0  0  0  0  0
    7.5000   -1.6160    0.0000 C   0  0  0  0  0  0  0  0  0  0  0  0
    7.5000    0.1160    0.0000 C   0  0  0  0  0  0  0  0  0  0  0  0
    3.0000    3.2500    0.0000 C   0  0  0  0  0  0  0  0  0  0  0  0
    7.0000    0.9821    0.0000 C   0  0  0  0  0  0  0  0  0  0  0  0
    3.0000   -1.7500    0.0000 C   0  0  0  0  0  0  0  0  0  0  0  0
    3.8660   -2.2500    0.0000 C   0  0  0  0  0  0  0  0  0  0  0  0
    2.1340   -2.2500    0.0000 C   0  0  0  0  0  0  0  0  0  0  0  0
    3.8660   -3.2500    0.0000 C   0  0  0  0  0  0  0  0  0  0  0  0
    2.1340   -3.2500    0.0000 C   0  0  0  0  0  0  0  0  0  0  0  0
    3.0000   -3.7500    0.0000 C   0  0  0  0  0  0  0  0  0  0  0  0
    3.8660    2.3700    0.0000 H   0  0  0  0  0  0  0  0  0  0  0  0
    6.1200    0.1160    0.0000 H   0  0  0  0  0  0  0  0  0  0  0  0
    4.9441    1.6674    0.0000 H   0  0  0  0  0  0  0  0  0  0  0  0
    5.3426    2.3577    0.0000 H   0  0  0  0  0  0  0  0  0  0  0  0
    5.4174   -0.9621    0.0000 H   0  0  0  0  0  0  0  0  0  0  0  0
    6.1077   -1.3606    0.0000 H   0  0  0  0  0  0  0  0  0  0  0  0
    4.7320    3.8700    0.0000 H   0  0  0  0  0  0  0  0  0  0  0  0
    7.6200   -0.7500    0.0000 H   0  0  0  0  0  0  0  0  0  0  0  0
    4.0781    0.1674    0.0000 H   0  0  0  0  0  0  0  0  0  0  0  0
    4.4766    0.8577    0.0000 H   0  0  0  0  0  0  0  0  0  0  0  0
    4.6077    0.7266    0.0000 H   0  0  0  0  0  0  0  0  0  0  0  0
    3.9174    0.3281    0.0000 H   0  0  0  0  0  0  0  0  0  0  0  0
    2.3894    2.3577    0.0000 H   0  0  0  0  0  0  0  0  0  0  0  0
    2.7880    1.6674    0.0000 H   0  0  0  0  0  0  0  0  0  0  0  0
    6.1077    1.5926    0.0000 H   0  0  0  0  0  0  0  0  0  0  0  0
    5.4174    1.1941    0.0000 H   0  0  0  0  0  0  0  0  0  0  0  0
    5.9081    3.2131    0.0000 H   0  0  0  0  0  0  0  0  0  0  0  0
    6.1350    4.0600    0.0000 H   0  0  0  0  0  0  0  0  0  0  0  0
    5.2881    4.2869    0.0000 H   0  0  0  0  0  0  0  0  0  0  0  0
    4.1760    4.2869    0.0000 H   0  0  0  0  0  0  0  0  0  0  0  0
    3.3291    4.0600    0.0000 H   0  0  0  0  0  0  0  0  0  0  0  0
    3.5560    3.2131    0.0000 H   0  0  0  0  0  0  0  0  0  0  0  0
    6.9631   -1.9260    0.0000 H   0  0  0  0  0  0  0  0  0  0  0  0
    7.8100   -2.1530    0.0000 H   0  0  0  0  0  0  0  0  0  0  0  0
    8.0369   -1.3060    0.0000 H   0  0  0  0  0  0  0  0  0  0  0  0
    8.0369   -0.1940    0.0000 H   0  0  0  0  0  0  0  0  0  0  0  0
    7.8100    0.6530    0.0000 H   0  0  0  0  0  0  0  0  0  0  0  0
    6.9631    0.4260    0.0000 H   0  0  0  0  0  0  0  0  0  0  0  0
    3.6200    3.2500    0.0000 H   0  0  0  0  0  0  0  0  0  0  0  0
    3.0000    3.8700    0.0000 H   0  0  0  0  0  0  0  0  0  0  0  0
    2.3800    3.2500    0.0000 H   0  0  0  0  0  0  0  0  0  0  0  0
    7.0000    0.3621    0.0000 H   0  0  0  0  0  0  0  0  0  0  0  0
    7.6200    0.9821    0.0000 H   0  0  0  0  0  0  0  0  0  0  0  0
    7.0000    1.6020    0.0000 H   0  0  0  0  0  0  0  0  0  0  0  0
    4.4030   -1.9400    0.0000 H   0  0  0  0  0  0  0  0  0  0  0  0
    1.5970   -1.9400    0.0000 H   0  0  0  0  0  0  0  0  0  0  0  0
    4.4030   -3.5600    0.0000 H   0  0  0  0  0  0  0  0  0  0  0  0
    1.5970   -3.5600    0.0000 H   0  0  0  0  0  0  0  0  0  0  0  0
    3.0000   -4.3700    0.0000 H   0  0  0  0  0  0  0  0  0  0  0  0
  1  2  1  0  0  0  0
  1  3  1  0  0  0  0
  1  4  2  0  0  0  0
  1 21  1  0  0  0  0
  2 11  1  0  0  0  0
  3 12  1  0  0  0  0
  5  7  1  0  0  0  0
  5 11  1  0  0  0  0
  5 13  1  0  0  0  0
  5 27  1  0  0  0  0
  6  8  1  0  0  0  0
  6 12  1  0  0  0  0
  6 14  1  0  0  0  0
  6 28  1  0  0  0  0
  7  9  1  0  0  0  0
  7 29  1  0  0  0  0
  7 30  1  0  0  0  0
  8 10  1  0  0  0  0
  8 31  1  0  0  0  0
  8 32  1  0  0  0  0
  9 15  1  0  0  0  0
  9 16  1  0  0  0  0
  9 33  1  0  0  0  0
 10 17  1  0  0  0  0
 10 18  1  0  0  0  0
 10 34  1  0  0  0  0
 11 35  1  0  0  0  0
 11 36  1  0  0  0  0
 12 37  1  0  0  0  0
 12 38  1  0  0  0  0
 13 19  1  0  0  0  0
 13 39  1  0  0  0  0
 13 40  1  0  0  0  0
 14 20  1  0  0  0  0
 14 41  1  0  0  0  0
 14 42  1  0  0  0  0
 15 43  1  0  0  0  0
 15 44  1  0  0  0  0
 15 45  1  0  0  0  0
 16 46  1  0  0  0  0
 16 47  1  0  0  0  0
 16 48  1  0  0  0  0
 17 49  1  0  0  0  0
 17 50  1  0  0  0  0
 17 51  1  0  0  0  0
 18 52  1  0  0  0  0
 18 53  1  0  0  0  0
 18 54  1  0  0  0  0
 19 55  1  0  0  0  0
 19 56  1  0  0  0  0
 19 57  1  0  0  0  0
 20 58  1  0  0  0  0
 20 59  1  0  0  0  0
 20 60  1  0  0  0  0
 21 22  2  0  0  0  0
 21 23  1  0  0  0  0
 22 24  1  0  0  0  0
 22 61  1  0  0  0  0
 23 25  2  0  0  0  0
 23 62  1  0  0  0  0
 24 26  2  0  0  0  0
 24 63  1  0  0  0  0
 25 26  1  0  0  0  0
 25 64  1  0  0  0  0
 26 65  1  0  0  0  0
M  END
> <PUBCHEM_COMPOUND_CID>
518140
> <PUBCHEM_COMPOUND_CANONICALIZED>
1
> <PUBCHEM_CACTVS_COMPLEXITY>
376
> <PUBCHEM_CACTVS_HBOND_ACCEPTOR>
3
> <PUBCHEM_CACTVS_HBOND_DONOR>
0
> <PUBCHEM_CACTVS_ROTATABLE_BOND>
13
> <PUBCHEM_CACTVS_SUBSKEYS>
AAADcfB4MAIAAAAAAAAAAAAAAAAAAAAAAAAwAAAAAAAAAAABAAAAGggAACAADQCgkAIyAIAAARCAQCBCAIACAAAgAAAIiAAAAIgIICKAERCAIAAkgAAIiAeAAAAOAAAAAAAAAAAAAAAAAAAAAAAAAAAAAA==
> <PUBCHEM_IUPAC_OPENEYE_NAME>
bis(2-ethyl-4-methyl-pentoxy)phosphorylbenzene
> <PUBCHEM_IUPAC_CAS_NAME>
bis(2-ethyl-4-methylpentoxy)phosphorylbenzene
> <PUBCHEM_IUPAC_NAME_MARKUP>
bis(2-ethyl-4-methylpentoxy)phosphorylbenzene
> <PUBCHEM_IUPAC_NAME>
bis(2-ethyl-4-methylpentoxy)phosphorylbenzene
> <PUBCHEM_IUPAC_SYSTEMATIC_NAME>
bis(2-ethyl-4-methyl-pentoxy)phosphorylbenzene
> <PUBCHEM_IUPAC_TRADITIONAL_NAME>
bis(2-ethyl-4-methyl-pentoxy)phosphorylbenzene
> <PUBCHEM_IUPAC_INCHI>
InChI=1S/C22H39O3P/c1-7-20(14-18(3)4)16-24-26(23,22-12-10-9-11-13-22)25-17-21(8-2)15-19(5)6/h9-13,18-21H,7-8,14-17H2,1-6H3
> <PUBCHEM_IUPAC_INCHIKEY>
OZZCXXRALYIASB-UHFFFAOYSA-N
> <PUBCHEM_XLOGP3_AA>
6.7
> <PUBCHEM_EXACT_MASS>
382.26368210
> <PUBCHEM_MOLECULAR_FORMULA>
C22H39O3P
> <PUBCHEM_MOLECULAR_WEIGHT>
382.5
> <PUBCHEM_OPENEYE_CAN_SMILES>
CCC(CC(C)C)COP(=O)(C1=CC=CC=C1)OCC(CC)CC(C)C
> <PUBCHEM_OPENEYE_ISO_SMILES>
CCC(CC(C)C)COP(=O)(C1=CC=CC=C1)OCC(CC)CC(C)C
> <PUBCHEM_CACTVS_TPSA>
35.5
> <PUBCHEM_MONOISOTOPIC_WEIGHT>
382.26368210
> <PUBCHEM_TOTAL_CHARGE>
0
> <PUBCHEM_HEAVY_ATOM_COUNT>
26
> <PUBCHEM_ATOM_DEF_STEREO_COUNT>
0
> <PUBCHEM_ATOM_UDEF_STEREO_COUNT>
2
> <PUBCHEM_BOND_DEF_STEREO_COUNT>
0
> <PUBCHEM_BOND_UDEF_STEREO_COUNT>
0
> <PUBCHEM_ISOTOPIC_ATOM_COUNT>
0
> <PUBCHEM_COMPONENT_COUNT>
1
> <PUBCHEM_CACTVS_TAUTO_COUNT>
-1
> <PUBCHEM_COORDINATE_TYPE>
1
5
255
> <PUBCHEM_BONDANNOTATIONS>
21  22  8
21  23  8
22  24  8
23  25  8
24  26  8
25  26  8
5  13  3
6  14  3
$$$$
