518106
  -OEChem-10302200292D
 99 99  0     1  0  0  0  0  0999 V2000
    9.7942    2.5000    0.0000 O   0  0  0  0  0  0  0  0  0  0  0  0
    6.3301    0.5000    0.0000 O   0  0  0  0  0  0  0  0  0  0  0  0
   10.6603   -2.0000    0.0000 O   0  0  0  0  0  0  0  0  0  0  0  0
    8.0622    2.5000    0.0000 O   0  0  0  0  0  0  0  0  0  0  0  0
    7.1962    2.0000    0.0000 O   0  0  0  0  0  0  0  0  0  0  0  0
   11.5263   -0.5000    0.0000 O   0  0  0  0  0  0  0  0  0  0  0  0
    8.9282    1.0000    0.0000 C   0  0  3  0  0  0  0  0  0  0  0  0
    8.0622    0.5000    0.0000 C   0  0  3  0  0  0  0  0  0  0  0  0
    9.7942   -0.5000    0.0000 C   0  0  3  0  0  0  0  0  0  0  0  0
    9.7942    0.5000    0.0000 C   0  0  0  0  0  0  0  0  0  0  0  0
    8.0622   -0.5000    0.0000 C   0  0  0  0  0  0  0  0  0  0  0  0
    8.9282   -1.0000    0.0000 C   0  0  0  0  0  0  0  0  0  0  0  0
    8.9282    2.0000    0.0000 C   0  0  0  0  0  0  0  0  0  0  0  0
    7.1962    1.0000    0.0000 C   0  0  0  0  0  0  0  0  0  0  0  0
   10.6603   -1.0000    0.0000 C   0  0  0  0  0  0  0  0  0  0  0  0
   10.6603    4.0000    0.0000 C   0  0  0  0  0  0  0  0  0  0  0  0
    4.5981    0.5000    0.0000 C   0  0  0  0  0  0  0  0  0  0  0  0
   11.5263   -3.5000    0.0000 C   0  0  0  0  0  0  0  0  0  0  0  0
    9.7942    3.5000    0.0000 C   0  0  0  0  0  0  0  0  0  0  0  0
    5.4641    1.0000    0.0000 C   0  0  0  0  0  0  0  0  0  0  0  0
   11.5263   -2.5000    0.0000 C   0  0  0  0  0  0  0  0  0  0  0  0
   11.5263    4.5000    0.0000 C   0  0  0  0  0  0  0  0  0  0  0  0
    3.7320    0.0000    0.0000 C   0  0  0  0  0  0  0  0  0  0  0  0
   11.5263   -4.5000    0.0000 C   0  0  0  0  0  0  0  0  0  0  0  0
   11.5263    5.5000    0.0000 C   0  0  0  0  0  0  0  0  0  0  0  0
    2.8660    0.5000    0.0000 C   0  0  0  0  0  0  0  0  0  0  0  0
   12.3923   -5.0000    0.0000 C   0  0  0  0  0  0  0  0  0  0  0  0
   10.1603    4.8660    0.0000 C   0  0  0  0  0  0  0  0  0  0  0  0
   11.1603    3.1340    0.0000 C   0  0  0  0  0  0  0  0  0  0  0  0
    4.0981    1.3660    0.0000 C   0  0  0  0  0  0  0  0  0  0  0  0
    5.0981   -0.3660    0.0000 C   0  0  0  0  0  0  0  0  0  0  0  0
   12.5263   -3.5000    0.0000 C   0  0  0  0  0  0  0  0  0  0  0  0
   10.5263   -3.5000    0.0000 C   0  0  0  0  0  0  0  0  0  0  0  0
   12.3923    6.0000    0.0000 C   0  0  0  0  0  0  0  0  0  0  0  0
   10.6603    6.0000    0.0000 C   0  0  0  0  0  0  0  0  0  0  0  0
    2.0000    0.0000    0.0000 C   0  0  0  0  0  0  0  0  0  0  0  0
    2.8660    1.5000    0.0000 C   0  0  0  0  0  0  0  0  0  0  0  0
   12.3923   -6.0000    0.0000 C   0  0  0  0  0  0  0  0  0  0  0  0
   13.2583   -4.5000    0.0000 C   0  0  0  0  0  0  0  0  0  0  0  0
    9.4651    1.3100    0.0000 H   0  0  0  0  0  0  0  0  0  0  0  0
    8.0622    1.1200    0.0000 H   0  0  0  0  0  0  0  0  0  0  0  0
    9.7942   -1.1200    0.0000 H   0  0  0  0  0  0  0  0  0  0  0  0
   10.4048    0.3923    0.0000 H   0  0  0  0  0  0  0  0  0  0  0  0
   10.0063    1.0826    0.0000 H   0  0  0  0  0  0  0  0  0  0  0  0
    7.4516   -0.3923    0.0000 H   0  0  0  0  0  0  0  0  0  0  0  0
    7.8501   -1.0826    0.0000 H   0  0  0  0  0  0  0  0  0  0  0  0
    8.5297   -1.4750    0.0000 H   0  0  0  0  0  0  0  0  0  0  0  0
    9.3267   -1.4750    0.0000 H   0  0  0  0  0  0  0  0  0  0  0  0
    9.5822    4.0826    0.0000 H   0  0  0  0  0  0  0  0  0  0  0  0
    9.1836    3.3923    0.0000 H   0  0  0  0  0  0  0  0  0  0  0  0
    5.8626    1.4750    0.0000 H   0  0  0  0  0  0  0  0  0  0  0  0
    5.0656    1.4750    0.0000 H   0  0  0  0  0  0  0  0  0  0  0  0
   12.1369   -2.6077    0.0000 H   0  0  0  0  0  0  0  0  0  0  0  0
   11.7383   -1.9174    0.0000 H   0  0  0  0  0  0  0  0  0  0  0  0
   11.7383    3.9174    0.0000 H   0  0  0  0  0  0  0  0  0  0  0  0
   12.1369    4.6077    0.0000 H   0  0  0  0  0  0  0  0  0  0  0  0
    3.3335   -0.4749    0.0000 H   0  0  0  0  0  0  0  0  0  0  0  0
    4.1306   -0.4749    0.0000 H   0  0  0  0  0  0  0  0  0  0  0  0
   10.9157   -4.3923    0.0000 H   0  0  0  0  0  0  0  0  0  0  0  0
   11.3142   -5.0826    0.0000 H   0  0  0  0  0  0  0  0  0  0  0  0
   12.0632    5.1900    0.0000 H   0  0  0  0  0  0  0  0  0  0  0  0
    2.8660   -0.1200    0.0000 H   0  0  0  0  0  0  0  0  0  0  0  0
   11.8554   -5.3100    0.0000 H   0  0  0  0  0  0  0  0  0  0  0  0
   10.6972    5.1760    0.0000 H   0  0  0  0  0  0  0  0  0  0  0  0
    9.8503    5.4030    0.0000 H   0  0  0  0  0  0  0  0  0  0  0  0
    9.6233    4.5560    0.0000 H   0  0  0  0  0  0  0  0  0  0  0  0
   10.6233    2.8240    0.0000 H   0  0  0  0  0  0  0  0  0  0  0  0
   11.4703    2.5970    0.0000 H   0  0  0  0  0  0  0  0  0  0  0  0
   11.6972    3.4440    0.0000 H   0  0  0  0  0  0  0  0  0  0  0  0
    4.6350    1.6760    0.0000 H   0  0  0  0  0  0  0  0  0  0  0  0
    3.7881    1.9030    0.0000 H   0  0  0  0  0  0  0  0  0  0  0  0
    3.5611    1.0560    0.0000 H   0  0  0  0  0  0  0  0  0  0  0  0
    4.5611   -0.6760    0.0000 H   0  0  0  0  0  0  0  0  0  0  0  0
    5.4081   -0.9030    0.0000 H   0  0  0  0  0  0  0  0  0  0  0  0
    5.6350   -0.0560    0.0000 H   0  0  0  0  0  0  0  0  0  0  0  0
   12.5263   -4.1200    0.0000 H   0  0  0  0  0  0  0  0  0  0  0  0
   13.1463   -3.5000    0.0000 H   0  0  0  0  0  0  0  0  0  0  0  0
   12.5263   -2.8800    0.0000 H   0  0  0  0  0  0  0  0  0  0  0  0
   10.5263   -2.8800    0.0000 H   0  0  0  0  0  0  0  0  0  0  0  0
    9.9063   -3.5000    0.0000 H   0  0  0  0  0  0  0  0  0  0  0  0
   10.5263   -4.1200    0.0000 H   0  0  0  0  0  0  0  0  0  0  0  0
   12.7023    5.4631    0.0000 H   0  0  0  0  0  0  0  0  0  0  0  0
   12.9292    6.3100    0.0000 H   0  0  0  0  0  0  0  0  0  0  0  0
   12.0823    6.5369    0.0000 H   0  0  0  0  0  0  0  0  0  0  0  0
   10.9703    6.5369    0.0000 H   0  0  0  0  0  0  0  0  0  0  0  0
   10.1233    6.3100    0.0000 H   0  0  0  0  0  0  0  0  0  0  0  0
   10.3503    5.4631    0.0000 H   0  0  0  0  0  0  0  0  0  0  0  0
    1.6900    0.5369    0.0000 H   0  0  0  0  0  0  0  0  0  0  0  0
    1.4631   -0.3100    0.0000 H   0  0  0  0  0  0  0  0  0  0  0  0
    2.3100   -0.5369    0.0000 H   0  0  0  0  0  0  0  0  0  0  0  0
    3.4860    1.5000    0.0000 H   0  0  0  0  0  0  0  0  0  0  0  0
    2.8660    2.1200    0.0000 H   0  0  0  0  0  0  0  0  0  0  0  0
    2.2460    1.5000    0.0000 H   0  0  0  0  0  0  0  0  0  0  0  0
   11.7723   -6.0000    0.0000 H   0  0  0  0  0  0  0  0  0  0  0  0
   12.3923   -6.6200    0.0000 H   0  0  0  0  0  0  0  0  0  0  0  0
   13.0123   -6.0000    0.0000 H   0  0  0  0  0  0  0  0  0  0  0  0
   13.5683   -5.0369    0.0000 H   0  0  0  0  0  0  0  0  0  0  0  0
   13.7953   -4.1900    0.0000 H   0  0  0  0  0  0  0  0  0  0  0  0
   12.9483   -3.9631    0.0000 H   0  0  0  0  0  0  0  0  0  0  0  0
  1 13  1  0  0  0  0
  1 19  1  0  0  0  0
  2 14  1  0  0  0  0
  2 20  1  0  0  0  0
  3 15  1  0  0  0  0
  3 21  1  0  0  0  0
  4 13  2  0  0  0  0
  5 14  2  0  0  0  0
  6 15  2  0  0  0  0
  7  8  1  0  0  0  0
  7 10  1  0  0  0  0
  7 13  1  0  0  0  0
  7 40  1  0  0  0  0
  8 11  1  0  0  0  0
  8 14  1  0  0  0  0
  8 41  1  0  0  0  0
  9 10  1  0  0  0  0
  9 12  1  0  0  0  0
  9 15  1  0  0  0  0
  9 42  1  0  0  0  0
 10 43  1  0  0  0  0
 10 44  1  0  0  0  0
 11 12  1  0  0  0  0
 11 45  1  0  0  0  0
 11 46  1  0  0  0  0
 12 47  1  0  0  0  0
 12 48  1  0  0  0  0
 16 19  1  0  0  0  0
 16 22  1  0  0  0  0
 16 28  1  0  0  0  0
 16 29  1  0  0  0  0
 17 20  1  0  0  0  0
 17 23  1  0  0  0  0
 17 30  1  0  0  0  0
 17 31  1  0  0  0  0
 18 21  1  0  0  0  0
 18 24  1  0  0  0  0
 18 32  1  0  0  0  0
 18 33  1  0  0  0  0
 19 49  1  0  0  0  0
 19 50  1  0  0  0  0
 20 51  1  0  0  0  0
 20 52  1  0  0  0  0
 21 53  1  0  0  0  0
 21 54  1  0  0  0  0
 22 25  1  0  0  0  0
 22 55  1  0  0  0  0
 22 56  1  0  0  0  0
 23 26  1  0  0  0  0
 23 57  1  0  0  0  0
 23 58  1  0  0  0  0
 24 27  1  0  0  0  0
 24 59  1  0  0  0  0
 24 60  1  0  0  0  0
 25 34  1  0  0  0  0
 25 35  1  0  0  0  0
 25 61  1  0  0  0  0
 26 36  1  0  0  0  0
 26 37  1  0  0  0  0
 26 62  1  0  0  0  0
 27 38  1  0  0  0  0
 27 39  1  0  0  0  0
 27 63  1  0  0  0  0
 28 64  1  0  0  0  0
 28 65  1  0  0  0  0
 28 66  1  0  0  0  0
 29 67  1  0  0  0  0
 29 68  1  0  0  0  0
 29 69  1  0  0  0  0
 30 70  1  0  0  0  0
 30 71  1  0  0  0  0
 30 72  1  0  0  0  0
 31 73  1  0  0  0  0
 31 74  1  0  0  0  0
 31 75  1  0  0  0  0
 32 76  1  0  0  0  0
 32 77  1  0  0  0  0
 32 78  1  0  0  0  0
 33 79  1  0  0  0  0
 33 80  1  0  0  0  0
 33 81  1  0  0  0  0
 34 82  1  0  0  0  0
 34 83  1  0  0  0  0
 34 84  1  0  0  0  0
 35 85  1  0  0  0  0
 35 86  1  0  0  0  0
 35 87  1  0  0  0  0
 36 88  1  0  0  0  0
 36 89  1  0  0  0  0
 36 90  1  0  0  0  0
 37 91  1  0  0  0  0
 37 92  1  0  0  0  0
 37 93  1  0  0  0  0
 38 94  1  0  0  0  0
 38 95  1  0  0  0  0
 38 96  1  0  0  0  0
 39 97  1  0  0  0  0
 39 98  1  0  0  0  0
 39 99  1  0  0  0  0
M  END
> <PUBCHEM_COMPOUND_CID>
518106
> <PUBCHEM_COMPOUND_CANONICALIZED>
1
> <PUBCHEM_CACTVS_COMPLEXITY>
792
> <PUBCHEM_CACTVS_HBOND_ACCEPTOR>
6
> <PUBCHEM_CACTVS_HBOND_DONOR>
0
> <PUBCHEM_CACTVS_ROTATABLE_BOND>
18
> <PUBCHEM_CACTVS_SUBSKEYS>
AAADcfB8OAAAAAAAAAAAAAAAAAAAAAAAAAAwAAAAAAAAAAAAAAAAGgAAAAAADwCggAICCAAABAAIAACQCAAAAAAAAAAAAAEAAAAAABIAAAACAAAEAAAAAAHL7viPgAAAAAAAAACAAAQAACAAAAAAAAAAAA==
> <PUBCHEM_IUPAC_OPENEYE_NAME>
tris(2,2,4-trimethylpentyl) cyclohexane-1,2,4-tricarboxylate
> <PUBCHEM_IUPAC_CAS_NAME>
cyclohexane-1,2,4-tricarboxylic acid tris(2,2,4-trimethylpentyl) ester
> <PUBCHEM_IUPAC_NAME_MARKUP>
tris(2,2,4-trimethylpentyl) cyclohexane-1,2,4-tricarboxylate
> <PUBCHEM_IUPAC_NAME>
tris(2,2,4-trimethylpentyl) cyclohexane-1,2,4-tricarboxylate
> <PUBCHEM_IUPAC_SYSTEMATIC_NAME>
tris(2,2,4-trimethylpentyl) cyclohexane-1,2,4-tricarboxylate
> <PUBCHEM_IUPAC_TRADITIONAL_NAME>
cyclohexane-1,2,4-tricarboxylic acid tris(2,2,4-trimethylpentyl) ester
> <PUBCHEM_IUPAC_INCHI>
InChI=1S/C33H60O6/c1-22(2)16-31(7,8)19-37-28(34)25-13-14-26(29(35)38-20-32(9,10)17-23(3)4)27(15-25)30(36)39-21-33(11,12)18-24(5)6/h22-27H,13-21H2,1-12H3
> <PUBCHEM_IUPAC_INCHIKEY>
ZVATUIQDXPRJFN-UHFFFAOYSA-N
> <PUBCHEM_XLOGP3_AA>
9.3
> <PUBCHEM_EXACT_MASS>
552.43898963
> <PUBCHEM_MOLECULAR_FORMULA>
C33H60O6
> <PUBCHEM_MOLECULAR_WEIGHT>
552.8
> <PUBCHEM_OPENEYE_CAN_SMILES>
CC(C)CC(C)(C)COC(=O)C1CCC(C(C1)C(=O)OCC(C)(C)CC(C)C)C(=O)OCC(C)(C)CC(C)C
> <PUBCHEM_OPENEYE_ISO_SMILES>
CC(C)CC(C)(C)COC(=O)C1CCC(C(C1)C(=O)OCC(C)(C)CC(C)C)C(=O)OCC(C)(C)CC(C)C
> <PUBCHEM_CACTVS_TPSA>
78.9
> <PUBCHEM_MONOISOTOPIC_WEIGHT>
552.43898963
> <PUBCHEM_TOTAL_CHARGE>
0
> <PUBCHEM_HEAVY_ATOM_COUNT>
39
> <PUBCHEM_ATOM_DEF_STEREO_COUNT>
0
> <PUBCHEM_ATOM_UDEF_STEREO_COUNT>
3
> <PUBCHEM_BOND_DEF_STEREO_COUNT>
0
> <PUBCHEM_BOND_UDEF_STEREO_COUNT>
0
> <PUBCHEM_ISOTOPIC_ATOM_COUNT>
0
> <PUBCHEM_COMPONENT_COUNT>
1
> <PUBCHEM_CACTVS_TAUTO_COUNT>
-1
> <PUBCHEM_COORDINATE_TYPE>
1
5
255
> <PUBCHEM_BONDANNOTATIONS>
7  13  3
8  14  3
9  15  3
$$$$
