518154
  -OEChem-10302200292D
 64 65  0     1  0  0  0  0  0999 V2000
    6.5000    0.0000    0.0000 P   0  0  0  0  0  0  0  0  0  0  0  0
    6.0000    0.8660    0.0000 O   0  0  0  0  0  0  0  0  0  0  0  0
    7.3660    0.5000    0.0000 O   0  0  0  0  0  0  0  0  0  0  0  0
    5.6340   -0.5000    0.0000 O   0  0  0  0  0  0  0  0  0  0  0  0
    7.0000   -0.8660    0.0000 O   0  0  0  0  0  0  0  0  0  0  0  0
    4.5000    1.7320    0.0000 C   0  0  3  0  0  0  0  0  0  0  0  0
    3.5000    1.7320    0.0000 C   0  0  0  0  0  0  0  0  0  0  0  0
    3.0000    2.5981    0.0000 C   0  0  0  0  0  0  0  0  0  0  0  0
    5.0000    2.5981    0.0000 C   0  0  0  0  0  0  0  0  0  0  0  0
    5.0000    0.8660    0.0000 C   0  0  0  0  0  0  0  0  0  0  0  0
    2.0000    2.5981    0.0000 C   0  0  0  0  0  0  0  0  0  0  0  0
    3.5000    3.4641    0.0000 C   0  0  0  0  0  0  0  0  0  0  0  0
    4.5000    3.4641    0.0000 C   0  0  0  0  0  0  0  0  0  0  0  0
    7.3660    1.5000    0.0000 C   0  0  0  0  0  0  0  0  0  0  0  0
    5.6340   -1.5000    0.0000 C   0  0  0  0  0  0  0  0  0  0  0  0
    8.2320    2.0000    0.0000 C   0  0  0  0  0  0  0  0  0  0  0  0
    4.7680   -2.0000    0.0000 C   0  0  0  0  0  0  0  0  0  0  0  0
    6.5000    2.0000    0.0000 C   0  0  0  0  0  0  0  0  0  0  0  0
    6.5000   -2.0000    0.0000 C   0  0  0  0  0  0  0  0  0  0  0  0
    8.2320    3.0000    0.0000 C   0  0  0  0  0  0  0  0  0  0  0  0
    4.7680   -3.0000    0.0000 C   0  0  0  0  0  0  0  0  0  0  0  0
    6.5000    3.0000    0.0000 C   0  0  0  0  0  0  0  0  0  0  0  0
    6.5000   -3.0000    0.0000 C   0  0  0  0  0  0  0  0  0  0  0  0
    7.3660    3.5000    0.0000 C   0  0  0  0  0  0  0  0  0  0  0  0
    5.6340   -3.5000    0.0000 C   0  0  0  0  0  0  0  0  0  0  0  0
    9.0981    3.5000    0.0000 C   0  0  0  0  0  0  0  0  0  0  0  0
    3.9019   -3.5000    0.0000 C   0  0  0  0  0  0  0  0  0  0  0  0
    5.6340    3.5000    0.0000 C   0  0  0  0  0  0  0  0  0  0  0  0
    7.3660   -3.5000    0.0000 C   0  0  0  0  0  0  0  0  0  0  0  0
    4.1900    2.2690    0.0000 H   0  0  0  0  0  0  0  0  0  0  0  0
    2.9174    1.5200    0.0000 H   0  0  0  0  0  0  0  0  0  0  0  0
    3.6077    1.1215    0.0000 H   0  0  0  0  0  0  0  0  0  0  0  0
    2.6900    2.0611    0.0000 H   0  0  0  0  0  0  0  0  0  0  0  0
    5.4750    2.1996    0.0000 H   0  0  0  0  0  0  0  0  0  0  0  0
    5.4750    2.9966    0.0000 H   0  0  0  0  0  0  0  0  0  0  0  0
    4.4174    0.6540    0.0000 H   0  0  0  0  0  0  0  0  0  0  0  0
    5.1077    0.2554    0.0000 H   0  0  0  0  0  0  0  0  0  0  0  0
    2.0000    3.2181    0.0000 H   0  0  0  0  0  0  0  0  0  0  0  0
    1.3800    2.5981    0.0000 H   0  0  0  0  0  0  0  0  0  0  0  0
    2.0000    1.9781    0.0000 H   0  0  0  0  0  0  0  0  0  0  0  0
    4.0369    3.1541    0.0000 H   0  0  0  0  0  0  0  0  0  0  0  0
    3.8100    4.0010    0.0000 H   0  0  0  0  0  0  0  0  0  0  0  0
    2.9631    3.7741    0.0000 H   0  0  0  0  0  0  0  0  0  0  0  0
    5.0369    3.7741    0.0000 H   0  0  0  0  0  0  0  0  0  0  0  0
    4.1900    4.0010    0.0000 H   0  0  0  0  0  0  0  0  0  0  0  0
    3.9631    3.1541    0.0000 H   0  0  0  0  0  0  0  0  0  0  0  0
    8.7690    1.6900    0.0000 H   0  0  0  0  0  0  0  0  0  0  0  0
    4.2310   -1.6900    0.0000 H   0  0  0  0  0  0  0  0  0  0  0  0
    5.9631    1.6900    0.0000 H   0  0  0  0  0  0  0  0  0  0  0  0
    7.0369   -1.6900    0.0000 H   0  0  0  0  0  0  0  0  0  0  0  0
    7.3660    4.1200    0.0000 H   0  0  0  0  0  0  0  0  0  0  0  0
    5.6340   -4.1200    0.0000 H   0  0  0  0  0  0  0  0  0  0  0  0
    9.4081    2.9631    0.0000 H   0  0  0  0  0  0  0  0  0  0  0  0
    9.6350    3.8100    0.0000 H   0  0  0  0  0  0  0  0  0  0  0  0
    8.7881    4.0369    0.0000 H   0  0  0  0  0  0  0  0  0  0  0  0
    3.5919   -2.9631    0.0000 H   0  0  0  0  0  0  0  0  0  0  0  0
    3.3650   -3.8100    0.0000 H   0  0  0  0  0  0  0  0  0  0  0  0
    4.2119   -4.0369    0.0000 H   0  0  0  0  0  0  0  0  0  0  0  0
    5.9440    4.0369    0.0000 H   0  0  0  0  0  0  0  0  0  0  0  0
    5.0970    3.8100    0.0000 H   0  0  0  0  0  0  0  0  0  0  0  0
    5.3240    2.9631    0.0000 H   0  0  0  0  0  0  0  0  0  0  0  0
    7.0560   -4.0369    0.0000 H   0  0  0  0  0  0  0  0  0  0  0  0
    7.9030   -3.8100    0.0000 H   0  0  0  0  0  0  0  0  0  0  0  0
    7.6760   -2.9631    0.0000 H   0  0  0  0  0  0  0  0  0  0  0  0
  1  2  1  0  0  0  0
  1  3  1  0  0  0  0
  1  4  1  0  0  0  0
  1  5  2  0  0  0  0
  2 10  1  0  0  0  0
  3 14  1  0  0  0  0
  4 15  1  0  0  0  0
  6  7  1  0  0  0  0
  6  9  1  0  0  0  0
  6 10  1  0  0  0  0
  6 30  1  0  0  0  0
  7  8  1  0  0  0  0
  7 31  1  0  0  0  0
  7 32  1  0  0  0  0
  8 11  1  0  0  0  0
  8 12  1  0  0  0  0
  8 33  1  0  0  0  0
  9 13  1  0  0  0  0
  9 34  1  0  0  0  0
  9 35  1  0  0  0  0
 10 36  1  0  0  0  0
 10 37  1  0  0  0  0
 11 38  1  0  0  0  0
 11 39  1  0  0  0  0
 11 40  1  0  0  0  0
 12 41  1  0  0  0  0
 12 42  1  0  0  0  0
 12 43  1  0  0  0  0
 13 44  1  0  0  0  0
 13 45  1  0  0  0  0
 13 46  1  0  0  0  0
 14 16  2  0  0  0  0
 14 18  1  0  0  0  0
 15 17  2  0  0  0  0
 15 19  1  0  0  0  0
 16 20  1  0  0  0  0
 16 47  1  0  0  0  0
 17 21  1  0  0  0  0
 17 48  1  0  0  0  0
 18 22  2  0  0  0  0
 18 49  1  0  0  0  0
 19 23  2  0  0  0  0
 19 50  1  0  0  0  0
 20 24  2  0  0  0  0
 20 26  1  0  0  0  0
 21 25  2  0  0  0  0
 21 27  1  0  0  0  0
 22 24  1  0  0  0  0
 22 28  1  0  0  0  0
 23 25  1  0  0  0  0
 23 29  1  0  0  0  0
 24 51  1  0  0  0  0
 25 52  1  0  0  0  0
 26 53  1  0  0  0  0
 26 54  1  0  0  0  0
 26 55  1  0  0  0  0
 27 56  1  0  0  0  0
 27 57  1  0  0  0  0
 27 58  1  0  0  0  0
 28 59  1  0  0  0  0
 28 60  1  0  0  0  0
 28 61  1  0  0  0  0
 29 62  1  0  0  0  0
 29 63  1  0  0  0  0
 29 64  1  0  0  0  0
M  END
> <PUBCHEM_COMPOUND_CID>
518154
> <PUBCHEM_COMPOUND_CANONICALIZED>
1
> <PUBCHEM_CACTVS_COMPLEXITY>
471
> <PUBCHEM_CACTVS_HBOND_ACCEPTOR>
4
> <PUBCHEM_CACTVS_HBOND_DONOR>
0
> <PUBCHEM_CACTVS_ROTATABLE_BOND>
10
> <PUBCHEM_CACTVS_SUBSKEYS>
AAADcfB4OAIAAAAAAAAAAAAAAAAAAAAAAAAwYAAAAAAAAAABQAAAGgAAACAADQSgmAIyBoAAARCAQiBCAIACAAAgIAAAiAAGCIgIJiKAERKAMAAkwBEIiAeAwFAOAAADAAAAAAAAAAYAAAAAAAAAAAAAAA==
> <PUBCHEM_IUPAC_OPENEYE_NAME>
bis(3,5-dimethylphenyl) (2-ethyl-4-methyl-pentyl) phosphate
> <PUBCHEM_IUPAC_CAS_NAME>
phosphoric acid bis(3,5-dimethylphenyl) (2-ethyl-4-methylpentyl) ester
> <PUBCHEM_IUPAC_NAME_MARKUP>
bis(3,5-dimethylphenyl) (2-ethyl-4-methylpentyl) phosphate
> <PUBCHEM_IUPAC_NAME>
bis(3,5-dimethylphenyl) (2-ethyl-4-methylpentyl) phosphate
> <PUBCHEM_IUPAC_SYSTEMATIC_NAME>
bis(3,5-dimethylphenyl) (2-ethyl-4-methyl-pentyl) phosphate
> <PUBCHEM_IUPAC_TRADITIONAL_NAME>
phosphoric acid bis(3,5-dimethylphenyl) (2-ethyl-4-methyl-pentyl) ester
> <PUBCHEM_IUPAC_INCHI>
InChI=1S/C24H35O4P/c1-8-22(9-17(2)3)16-26-29(25,27-23-12-18(4)10-19(5)13-23)28-24-14-20(6)11-21(7)15-24/h10-15,17,22H,8-9,16H2,1-7H3
> <PUBCHEM_IUPAC_INCHIKEY>
SNMYVUCYGMKUPF-UHFFFAOYSA-N
> <PUBCHEM_XLOGP3_AA>
7.4
> <PUBCHEM_EXACT_MASS>
418.22729659
> <PUBCHEM_MOLECULAR_FORMULA>
C24H35O4P
> <PUBCHEM_MOLECULAR_WEIGHT>
418.5
> <PUBCHEM_OPENEYE_CAN_SMILES>
CCC(CC(C)C)COP(=O)(OC1=CC(=CC(=C1)C)C)OC2=CC(=CC(=C2)C)C
> <PUBCHEM_OPENEYE_ISO_SMILES>
CCC(CC(C)C)COP(=O)(OC1=CC(=CC(=C1)C)C)OC2=CC(=CC(=C2)C)C
> <PUBCHEM_CACTVS_TPSA>
44.8
> <PUBCHEM_MONOISOTOPIC_WEIGHT>
418.22729659
> <PUBCHEM_TOTAL_CHARGE>
0
> <PUBCHEM_HEAVY_ATOM_COUNT>
29
> <PUBCHEM_ATOM_DEF_STEREO_COUNT>
0
> <PUBCHEM_ATOM_UDEF_STEREO_COUNT>
1
> <PUBCHEM_BOND_DEF_STEREO_COUNT>
0
> <PUBCHEM_BOND_UDEF_STEREO_COUNT>
0
> <PUBCHEM_ISOTOPIC_ATOM_COUNT>
0
> <PUBCHEM_COMPONENT_COUNT>
1
> <PUBCHEM_CACTVS_TAUTO_COUNT>
-1
> <PUBCHEM_COORDINATE_TYPE>
1
5
255
> <PUBCHEM_BONDANNOTATIONS>
14  16  8
14  18  8
15  17  8
15  19  8
16  20  8
17  21  8
18  22  8
19  23  8
20  24  8
21  25  8
22  24  8
23  25  8
6  9  3
$$$$
