518102
  -OEChem-10302200292D
 14 13  0     1  0  0  0  0  0999 V2000
    3.7320   -1.2500    0.0000 I   0  0  0  0  0  0  0  0  0  0  0  0
    4.5981    1.2500    0.0000 Cl  0  0  0  0  0  0  0  0  0  0  0  0
    2.0000   -0.2500    0.0000 Cl  0  0  0  0  0  0  0  0  0  0  0  0
    6.3301    0.2500    0.0000 Cl  0  0  0  0  0  0  0  0  0  0  0  0
    3.7320   -0.2500    0.0000 C   0  0  3  0  0  0  0  0  0  0  0  0
    4.5981    0.2500    0.0000 C   0  0  3  0  0  0  0  0  0  0  0  0
    2.8660    0.2500    0.0000 C   0  0  0  0  0  0  0  0  0  0  0  0
    5.4641   -0.2500    0.0000 C   0  0  0  0  0  0  0  0  0  0  0  0
    4.2690   -0.5600    0.0000 H   0  0  0  0  0  0  0  0  0  0  0  0
    5.1350    0.5600    0.0000 H   0  0  0  0  0  0  0  0  0  0  0  0
    3.2646    0.7249    0.0000 H   0  0  0  0  0  0  0  0  0  0  0  0
    2.4675    0.7249    0.0000 H   0  0  0  0  0  0  0  0  0  0  0  0
    5.0656   -0.7249    0.0000 H   0  0  0  0  0  0  0  0  0  0  0  0
    5.8626   -0.7249    0.0000 H   0  0  0  0  0  0  0  0  0  0  0  0
  1  5  1  0  0  0  0
  2  6  1  0  0  0  0
  3  7  1  0  0  0  0
  4  8  1  0  0  0  0
  5  6  1  0  0  0  0
  5  7  1  0  0  0  0
  5  9  1  0  0  0  0
  6  8  1  0  0  0  0
  6 10  1  0  0  0  0
  7 11  1  0  0  0  0
  7 12  1  0  0  0  0
  8 13  1  0  0  0  0
  8 14  1  0  0  0  0
M  END
> <PUBCHEM_COMPOUND_CID>
518102
> <PUBCHEM_COMPOUND_CANONICALIZED>
1
> <PUBCHEM_CACTVS_COMPLEXITY>
59.2
> <PUBCHEM_CACTVS_HBOND_ACCEPTOR>
0
> <PUBCHEM_CACTVS_HBOND_DONOR>
0
> <PUBCHEM_CACTVS_ROTATABLE_BOND>
3
> <PUBCHEM_CACTVS_SUBSKEYS>
AAADcYBgAAAGAgAAAAAAAAAAAAAAAAAAAAAAAAAAAAAAAAAAAAAAGAIgAAAACAOCAEAAAAAAAAAAAAAAAAAAAAAAAAAAAEAAAgAAAAABAAAAAAAAAAAAAAAAAAAAAAAAAAAAAAAAAAAAAAAAAAAAAAAAAA==
> <PUBCHEM_IUPAC_OPENEYE_NAME>
1,2,4-trichloro-3-iodo-butane
> <PUBCHEM_IUPAC_CAS_NAME>
1,2,4-trichloro-3-iodobutane
> <PUBCHEM_IUPAC_NAME_MARKUP>
1,2,4-trichloro-3-iodobutane
> <PUBCHEM_IUPAC_NAME>
1,2,4-trichloro-3-iodobutane
> <PUBCHEM_IUPAC_SYSTEMATIC_NAME>
1,2,4-tris(chloranyl)-3-iodanyl-butane
> <PUBCHEM_IUPAC_TRADITIONAL_NAME>
1,2,4-trichloro-3-iodo-butane
> <PUBCHEM_IUPAC_INCHI>
InChI=1S/C4H6Cl3I/c5-1-3(7)4(8)2-6/h3-4H,1-2H2
> <PUBCHEM_IUPAC_INCHIKEY>
KCMZWZSUXFIJLT-UHFFFAOYSA-N
> <PUBCHEM_XLOGP3_AA>
3.1
> <PUBCHEM_EXACT_MASS>
285.85798
> <PUBCHEM_MOLECULAR_FORMULA>
C4H6Cl3I
> <PUBCHEM_MOLECULAR_WEIGHT>
287.35
> <PUBCHEM_OPENEYE_CAN_SMILES>
C(C(C(CCl)I)Cl)Cl
> <PUBCHEM_OPENEYE_ISO_SMILES>
C(C(C(CCl)I)Cl)Cl
> <PUBCHEM_CACTVS_TPSA>
0
> <PUBCHEM_MONOISOTOPIC_WEIGHT>
285.85798
> <PUBCHEM_TOTAL_CHARGE>
0
> <PUBCHEM_HEAVY_ATOM_COUNT>
8
> <PUBCHEM_ATOM_DEF_STEREO_COUNT>
0
> <PUBCHEM_ATOM_UDEF_STEREO_COUNT>
2
> <PUBCHEM_BOND_DEF_STEREO_COUNT>
0
> <PUBCHEM_BOND_UDEF_STEREO_COUNT>
0
> <PUBCHEM_ISOTOPIC_ATOM_COUNT>
0
> <PUBCHEM_COMPONENT_COUNT>
1
> <PUBCHEM_CACTVS_TAUTO_COUNT>
-1
> <PUBCHEM_COORDINATE_TYPE>
1
5
255
> <PUBCHEM_BONDANNOTATIONS>
5  1  3
6  2  3
$$$$
