518194
  -OEChem-10302200292D
 34 35  0     1  0  0  0  0  0999 V2000
    2.6123    0.0000    0.0000 Cl  0  0  0  0  0  0  0  0  0  0  0  0
    1.4766    4.4969    0.0000 S   0  0  0  0  0  0  0  0  0  0  0  0
    3.2087    5.4969    0.0000 N   0  0  0  0  0  0  0  0  0  0  0  0
    2.3426    3.9969    0.0000 N   0  0  0  0  0  0  0  0  0  0  0  0
    5.0209    4.3016    0.0000 N   0  0  0  0  0  0  0  0  0  0  0  0
    3.2087    2.4969    0.0000 N   0  0  0  0  0  0  0  0  0  0  0  0
    5.0209    2.6922    0.0000 N   0  0  0  0  0  0  0  0  0  0  0  0
    2.3426    5.9969    0.0000 C   0  0  3  0  0  0  0  0  0  0  0  0
    1.4766    5.4969    0.0000 C   0  0  3  0  0  0  0  0  0  0  0  0
    2.3426    6.9969    0.0000 C   0  0  0  0  0  0  0  0  0  0  0  0
    0.6106    5.9969    0.0000 C   0  0  0  0  0  0  0  0  0  0  0  0
    1.4766    7.4969    0.0000 C   0  0  0  0  0  0  0  0  0  0  0  0
    0.6106    6.9969    0.0000 C   0  0  0  0  0  0  0  0  0  0  0  0
    3.2087    4.4969    0.0000 C   0  0  0  0  0  0  0  0  0  0  0  0
    4.0747    3.9969    0.0000 C   0  0  0  0  0  0  0  0  0  0  0  0
    4.0747    2.9969    0.0000 C   0  0  0  0  0  0  0  0  0  0  0  0
    2.3426    2.9969    0.0000 C   0  0  0  0  0  0  0  0  0  0  0  0
    5.6045    3.4969    0.0000 C   0  0  0  0  0  0  0  0  0  0  0  0
    2.8796    6.3069    0.0000 H   0  0  0  0  0  0  0  0  0  0  0  0
    2.0135    5.1869    0.0000 H   0  0  0  0  0  0  0  0  0  0  0  0
    2.9532    6.8892    0.0000 H   0  0  0  0  0  0  0  0  0  0  0  0
    2.5547    7.5795    0.0000 H   0  0  0  0  0  0  0  0  0  0  0  0
    0.0000    6.1046    0.0000 H   0  0  0  0  0  0  0  0  0  0  0  0
    0.3985    5.4143    0.0000 H   0  0  0  0  0  0  0  0  0  0  0  0
    1.8751    7.9718    0.0000 H   0  0  0  0  0  0  0  0  0  0  0  0
    1.0781    7.9718    0.0000 H   0  0  0  0  0  0  0  0  0  0  0  0
    0.3985    7.5795    0.0000 H   0  0  0  0  0  0  0  0  0  0  0  0
    0.0000    6.8892    0.0000 H   0  0  0  0  0  0  0  0  0  0  0  0
    3.7456    5.8069    0.0000 H   0  0  0  0  0  0  0  0  0  0  0  0
    0.9397    4.1869    0.0000 H   0  0  0  0  0  0  0  0  0  0  0  0
    5.2135    4.8909    0.0000 H   0  0  0  0  0  0  0  0  0  0  0  0
    1.8057    2.6869    0.0000 H   0  0  0  0  0  0  0  0  0  0  0  0
    6.2245    3.4969    0.0000 H   0  0  0  0  0  0  0  0  0  0  0  0
    3.6123    0.0000    0.0000 H   0  0  0  0  0  0  0  0  0  0  0  0
  1 34  1  0  0  0  0
  2  9  1  0  0  0  0
  2 30  1  0  0  0  0
  3  8  1  0  0  0  0
  3 14  1  0  0  0  0
  3 29  1  0  0  0  0
  4 14  2  0  0  0  0
  4 17  1  0  0  0  0
  5 15  1  0  0  0  0
  5 18  1  0  0  0  0
  5 31  1  0  0  0  0
  6 16  1  0  0  0  0
  6 17  2  0  0  0  0
  7 16  1  0  0  0  0
  7 18  2  0  0  0  0
  8  9  1  0  0  0  0
  8 10  1  0  0  0  0
  8 19  1  0  0  0  0
  9 11  1  0  0  0  0
  9 20  1  0  0  0  0
 10 12  1  0  0  0  0
 10 21  1  0  0  0  0
 10 22  1  0  0  0  0
 11 13  1  0  0  0  0
 11 23  1  0  0  0  0
 11 24  1  0  0  0  0
 12 13  1  0  0  0  0
 12 25  1  0  0  0  0
 12 26  1  0  0  0  0
 13 27  1  0  0  0  0
 13 28  1  0  0  0  0
 14 15  1  0  0  0  0
 15 16  2  0  0  0  0
 17 32  1  0  0  0  0
 18 33  1  0  0  0  0
M  END
> <PUBCHEM_COMPOUND_CID>
518194
> <PUBCHEM_COMPOUND_CANONICALIZED>
1
> <PUBCHEM_CACTVS_COMPLEXITY>
264
> <PUBCHEM_CACTVS_HBOND_ACCEPTOR>
5
> <PUBCHEM_CACTVS_HBOND_DONOR>
4
> <PUBCHEM_CACTVS_ROTATABLE_BOND>
2
> <PUBCHEM_CACTVS_SUBSKEYS>
AAADceBzgABEAAAAAAAAAAAAAAAAAWAAAAA8QAAAAAAAAFgB+AAAHAQQAAAACCjFVwSF8L7JkASgAQZhZACAgC2REKABUaAoVBCASAJAyEAUBAgIEALAACEQAAAAAAAAAAAAAAAAAAAAAAACAAAAAAAAAA==
> <PUBCHEM_IUPAC_OPENEYE_NAME>
2-(7H-purin-6-ylamino)cyclohexanethiol;hydrochloride
> <PUBCHEM_IUPAC_CAS_NAME>
2-(7H-purin-6-ylamino)-1-cyclohexanethiol;hydrochloride
> <PUBCHEM_IUPAC_NAME_MARKUP>
2-(7<I>H</I>-purin-6-ylamino)cyclohexane-1-thiol;hydrochloride
> <PUBCHEM_IUPAC_NAME>
2-(7H-purin-6-ylamino)cyclohexane-1-thiol;hydrochloride
> <PUBCHEM_IUPAC_SYSTEMATIC_NAME>
2-(7H-purin-6-ylamino)cyclohexane-1-thiol;hydrochloride
> <PUBCHEM_IUPAC_TRADITIONAL_NAME>
2-(7H-purin-6-ylamino)cyclohexanethiol;hydrochloride
> <PUBCHEM_IUPAC_INCHI>
InChI=1S/C11H15N5S.ClH/c17-8-4-2-1-3-7(8)16-11-9-10(13-5-12-9)14-6-15-11;/h5-8,17H,1-4H2,(H2,12,13,14,15,16);1H
> <PUBCHEM_IUPAC_INCHIKEY>
NZCXKJNGRUKJOP-UHFFFAOYSA-N
> <PUBCHEM_EXACT_MASS>
285.0814944
> <PUBCHEM_MOLECULAR_FORMULA>
C11H16ClN5S
> <PUBCHEM_MOLECULAR_WEIGHT>
285.80
> <PUBCHEM_OPENEYE_CAN_SMILES>
C1CCC(C(C1)NC2=NC=NC3=C2NC=N3)S.Cl
> <PUBCHEM_OPENEYE_ISO_SMILES>
C1CCC(C(C1)NC2=NC=NC3=C2NC=N3)S.Cl
> <PUBCHEM_CACTVS_TPSA>
67.5
> <PUBCHEM_MONOISOTOPIC_WEIGHT>
285.0814944
> <PUBCHEM_TOTAL_CHARGE>
0
> <PUBCHEM_HEAVY_ATOM_COUNT>
18
> <PUBCHEM_ATOM_DEF_STEREO_COUNT>
0
> <PUBCHEM_ATOM_UDEF_STEREO_COUNT>
2
> <PUBCHEM_BOND_DEF_STEREO_COUNT>
0
> <PUBCHEM_BOND_UDEF_STEREO_COUNT>
0
> <PUBCHEM_ISOTOPIC_ATOM_COUNT>
0
> <PUBCHEM_COMPONENT_COUNT>
2
> <PUBCHEM_CACTVS_TAUTO_COUNT>
-1
> <PUBCHEM_COORDINATE_TYPE>
1
5
255
> <PUBCHEM_BONDANNOTATIONS>
14  15  8
15  16  8
9  2  3
8  3  3
4  14  8
4  17  8
5  15  8
5  18  8
6  16  8
6  17  8
7  16  8
7  18  8
$$$$
