518109
  -OEChem-10302200292D
 64 63  0     1  0  0  0  0  0999 V2000
   11.7341    6.5785    0.0000 Cl  0  0  0  0  0  0  0  0  0  0  0  0
    4.0010    4.1200    0.0000 O   0  0  0  0  0  0  0  0  0  0  0  0
    3.1350    5.6200    0.0000 O   0  0  0  0  0  0  0  0  0  0  0  0
    1.4030    3.6200    0.0000 N   0  0  0  0  0  0  0  0  0  0  0  0
    6.5991    8.6200    0.0000 C   0  0  0  0  0  0  0  0  0  0  0  0
    6.5991    9.6200    0.0000 C   0  0  0  0  0  0  0  0  0  0  0  0
    5.7331    8.1200    0.0000 C   0  0  0  0  0  0  0  0  0  0  0  0
    7.4651   10.1200    0.0000 C   0  0  0  0  0  0  0  0  0  0  0  0
    5.7331    7.1200    0.0000 C   0  0  0  0  0  0  0  0  0  0  0  0
    7.4651   11.1200    0.0000 C   0  0  0  0  0  0  0  0  0  0  0  0
    4.8671    6.6200    0.0000 C   0  0  0  0  0  0  0  0  0  0  0  0
    8.3312   11.6200    0.0000 C   0  0  0  0  0  0  0  0  0  0  0  0
    4.8671    5.6200    0.0000 C   0  0  0  0  0  0  0  0  0  0  0  0
    8.3312   12.6200    0.0000 C   0  0  0  0  0  0  0  0  0  0  0  0
    3.1350    3.6200    0.0000 C   0  0  3  0  0  0  0  0  0  0  0  0
    2.2690    4.1200    0.0000 C   0  0  0  0  0  0  0  0  0  0  0  0
    4.0010    5.1200    0.0000 C   0  0  0  0  0  0  0  0  0  0  0  0
    3.1350    2.6200    0.0000 C   0  0  0  0  0  0  0  0  0  0  0  0
    9.1972   13.1200    0.0000 C   0  0  0  0  0  0  0  0  0  0  0  0
    4.0010    2.1200    0.0000 C   0  0  0  0  0  0  0  0  0  0  0  0
    2.2690    2.1200    0.0000 C   0  0  0  0  0  0  0  0  0  0  0  0
    0.5369    4.1200    0.0000 C   0  0  0  0  0  0  0  0  0  0  0  0
    1.4030    2.6200    0.0000 C   0  0  0  0  0  0  0  0  0  0  0  0
    4.0010    1.1200    0.0000 C   0  0  0  0  0  0  0  0  0  0  0  0
    2.2690    1.1200    0.0000 C   0  0  0  0  0  0  0  0  0  0  0  0
    3.1350    0.6200    0.0000 C   0  0  0  0  0  0  0  0  0  0  0  0
    6.8112    8.0374    0.0000 H   0  0  0  0  0  0  0  0  0  0  0  0
    7.2097    8.7277    0.0000 H   0  0  0  0  0  0  0  0  0  0  0  0
    6.3871   10.2026    0.0000 H   0  0  0  0  0  0  0  0  0  0  0  0
    5.9885    9.5123    0.0000 H   0  0  0  0  0  0  0  0  0  0  0  0
    5.5210    8.7026    0.0000 H   0  0  0  0  0  0  0  0  0  0  0  0
    5.1225    8.0123    0.0000 H   0  0  0  0  0  0  0  0  0  0  0  0
    7.6772    9.5374    0.0000 H   0  0  0  0  0  0  0  0  0  0  0  0
    8.0757   10.2277    0.0000 H   0  0  0  0  0  0  0  0  0  0  0  0
    5.9451    6.5374    0.0000 H   0  0  0  0  0  0  0  0  0  0  0  0
    6.3437    7.2277    0.0000 H   0  0  0  0  0  0  0  0  0  0  0  0
    7.2531   11.7026    0.0000 H   0  0  0  0  0  0  0  0  0  0  0  0
    6.8546   11.0123    0.0000 H   0  0  0  0  0  0  0  0  0  0  0  0
    4.6550    7.2026    0.0000 H   0  0  0  0  0  0  0  0  0  0  0  0
    4.2565    6.5123    0.0000 H   0  0  0  0  0  0  0  0  0  0  0  0
    8.5432   11.0374    0.0000 H   0  0  0  0  0  0  0  0  0  0  0  0
    8.9417   11.7277    0.0000 H   0  0  0  0  0  0  0  0  0  0  0  0
    5.0791    5.0374    0.0000 H   0  0  0  0  0  0  0  0  0  0  0  0
    5.4776    5.7277    0.0000 H   0  0  0  0  0  0  0  0  0  0  0  0
    8.1191   13.2026    0.0000 H   0  0  0  0  0  0  0  0  0  0  0  0
    7.7206   12.5123    0.0000 H   0  0  0  0  0  0  0  0  0  0  0  0
    3.1350    4.2400    0.0000 H   0  0  0  0  0  0  0  0  0  0  0  0
    2.6675    4.5950    0.0000 H   0  0  0  0  0  0  0  0  0  0  0  0
    1.8705    4.5950    0.0000 H   0  0  0  0  0  0  0  0  0  0  0  0
    9.5072   12.5831    0.0000 H   0  0  0  0  0  0  0  0  0  0  0  0
    9.7341   13.4300    0.0000 H   0  0  0  0  0  0  0  0  0  0  0  0
    8.8872   13.6569    0.0000 H   0  0  0  0  0  0  0  0  0  0  0  0
    4.5380    2.4300    0.0000 H   0  0  0  0  0  0  0  0  0  0  0  0
    1.7320    2.4300    0.0000 H   0  0  0  0  0  0  0  0  0  0  0  0
    0.8469    4.6569    0.0000 H   0  0  0  0  0  0  0  0  0  0  0  0
    0.0000    4.4300    0.0000 H   0  0  0  0  0  0  0  0  0  0  0  0
    0.2269    3.5831    0.0000 H   0  0  0  0  0  0  0  0  0  0  0  0
    0.7830    2.6200    0.0000 H   0  0  0  0  0  0  0  0  0  0  0  0
    1.4030    2.0000    0.0000 H   0  0  0  0  0  0  0  0  0  0  0  0
    2.0230    2.6200    0.0000 H   0  0  0  0  0  0  0  0  0  0  0  0
    4.5380    0.8100    0.0000 H   0  0  0  0  0  0  0  0  0  0  0  0
    1.7320    0.8100    0.0000 H   0  0  0  0  0  0  0  0  0  0  0  0
    3.1350    0.0000    0.0000 H   0  0  0  0  0  0  0  0  0  0  0  0
   12.7341    6.5785    0.0000 H   0  0  0  0  0  0  0  0  0  0  0  0
  1 64  1  0  0  0  0
  2 15  1  0  0  0  0
  2 17  1  0  0  0  0
  3 17  2  0  0  0  0
  4 16  1  0  0  0  0
  4 22  1  0  0  0  0
  4 23  1  0  0  0  0
  5  6  1  0  0  0  0
  5  7  1  0  0  0  0
  5 27  1  0  0  0  0
  5 28  1  0  0  0  0
  6  8  1  0  0  0  0
  6 29  1  0  0  0  0
  6 30  1  0  0  0  0
  7  9  1  0  0  0  0
  7 31  1  0  0  0  0
  7 32  1  0  0  0  0
  8 10  1  0  0  0  0
  8 33  1  0  0  0  0
  8 34  1  0  0  0  0
  9 11  1  0  0  0  0
  9 35  1  0  0  0  0
  9 36  1  0  0  0  0
 10 12  1  0  0  0  0
 10 37  1  0  0  0  0
 10 38  1  0  0  0  0
 11 13  1  0  0  0  0
 11 39  1  0  0  0  0
 11 40  1  0  0  0  0
 12 14  1  0  0  0  0
 12 41  1  0  0  0  0
 12 42  1  0  0  0  0
 13 17  1  0  0  0  0
 13 43  1  0  0  0  0
 13 44  1  0  0  0  0
 14 19  1  0  0  0  0
 14 45  1  0  0  0  0
 14 46  1  0  0  0  0
 15 16  1  0  0  0  0
 15 18  1  0  0  0  0
 15 47  1  0  0  0  0
 16 48  1  0  0  0  0
 16 49  1  0  0  0  0
 18 20  2  0  0  0  0
 18 21  1  0  0  0  0
 19 50  1  0  0  0  0
 19 51  1  0  0  0  0
 19 52  1  0  0  0  0
 20 24  1  0  0  0  0
 20 53  1  0  0  0  0
 21 25  2  0  0  0  0
 21 54  1  0  0  0  0
 22 55  1  0  0  0  0
 22 56  1  0  0  0  0
 22 57  1  0  0  0  0
 23 58  1  0  0  0  0
 23 59  1  0  0  0  0
 23 60  1  0  0  0  0
 24 26  2  0  0  0  0
 24 61  1  0  0  0  0
 25 26  1  0  0  0  0
 25 62  1  0  0  0  0
 26 63  1  0  0  0  0
M  END
> <PUBCHEM_COMPOUND_CID>
518109
> <PUBCHEM_COMPOUND_CANONICALIZED>
1
> <PUBCHEM_CACTVS_COMPLEXITY>
324
> <PUBCHEM_CACTVS_HBOND_ACCEPTOR>
3
> <PUBCHEM_CACTVS_HBOND_DONOR>
1
> <PUBCHEM_CACTVS_ROTATABLE_BOND>
15
> <PUBCHEM_CACTVS_SUBSKEYS>
AAADcfB6MAAEAAAAAAAAAAAAAAAAAAAAAAAwAAAAAAAAAAABAAAAHgAAAAAADBThmAYyCIMABACIAiDSCAACAAAgAAAIiAEICIgKJjKAsRmHMAAkwAEYqAeYyKCOAAAAAAAAAAAAAAAAAAAAAAAAAAAAAA==
> <PUBCHEM_IUPAC_OPENEYE_NAME>
[2-(dimethylamino)-1-phenyl-ethyl] dodecanoate;hydrochloride
> <PUBCHEM_IUPAC_CAS_NAME>
dodecanoic acid [2-(dimethylamino)-1-phenylethyl] ester;hydrochloride
> <PUBCHEM_IUPAC_NAME_MARKUP>
[2-(dimethylamino)-1-phenylethyl] dodecanoate;hydrochloride
> <PUBCHEM_IUPAC_NAME>
[2-(dimethylamino)-1-phenylethyl] dodecanoate;hydrochloride
> <PUBCHEM_IUPAC_SYSTEMATIC_NAME>
[2-(dimethylamino)-1-phenyl-ethyl] dodecanoate;hydrochloride
> <PUBCHEM_IUPAC_TRADITIONAL_NAME>
lauric acid [2-(dimethylamino)-1-phenyl-ethyl] ester;hydrochloride
> <PUBCHEM_IUPAC_INCHI>
InChI=1S/C22H37NO2.ClH/c1-4-5-6-7-8-9-10-11-15-18-22(24)25-21(19-23(2)3)20-16-13-12-14-17-20;/h12-14,16-17,21H,4-11,15,18-19H2,1-3H3;1H
> <PUBCHEM_IUPAC_INCHIKEY>
YRNIUNGVLIYNIW-UHFFFAOYSA-N
> <PUBCHEM_EXACT_MASS>
383.2591071
> <PUBCHEM_MOLECULAR_FORMULA>
C22H38ClNO2
> <PUBCHEM_MOLECULAR_WEIGHT>
384.0
> <PUBCHEM_OPENEYE_CAN_SMILES>
CCCCCCCCCCCC(=O)OC(CN(C)C)C1=CC=CC=C1.Cl
> <PUBCHEM_OPENEYE_ISO_SMILES>
CCCCCCCCCCCC(=O)OC(CN(C)C)C1=CC=CC=C1.Cl
> <PUBCHEM_CACTVS_TPSA>
29.5
> <PUBCHEM_MONOISOTOPIC_WEIGHT>
383.2591071
> <PUBCHEM_TOTAL_CHARGE>
0
> <PUBCHEM_HEAVY_ATOM_COUNT>
26
> <PUBCHEM_ATOM_DEF_STEREO_COUNT>
0
> <PUBCHEM_ATOM_UDEF_STEREO_COUNT>
1
> <PUBCHEM_BOND_DEF_STEREO_COUNT>
0
> <PUBCHEM_BOND_UDEF_STEREO_COUNT>
0
> <PUBCHEM_ISOTOPIC_ATOM_COUNT>
0
> <PUBCHEM_COMPONENT_COUNT>
2
> <PUBCHEM_CACTVS_TAUTO_COUNT>
-1
> <PUBCHEM_COORDINATE_TYPE>
1
5
255
> <PUBCHEM_BONDANNOTATIONS>
15  16  3
18  20  8
18  21  8
20  24  8
21  25  8
24  26  8
25  26  8
$$$$
