518292
  -OEChem-10302200292D
 41 42  0     1  0  0  0  0  0999 V2000
    2.8660    0.9510    0.0000 O   0  0  0  0  0  0  0  0  0  0  0  0
    6.3301    0.9510    0.0000 O   0  0  0  0  0  0  0  0  0  0  0  0
    4.5981   -2.0490    0.0000 O   0  0  0  0  0  0  0  0  0  0  0  0
    3.7320   -0.5490    0.0000 N   0  0  0  0  0  0  0  0  0  0  0  0
    5.4641   -0.5490    0.0000 N   0  0  0  0  0  0  0  0  0  0  0  0
    4.5981    0.9510    0.0000 C   0  0  3  0  0  0  0  0  0  0  0  0
    4.0981    1.8170    0.0000 C   0  0  0  0  0  0  0  0  0  0  0  0
    3.7320    0.4510    0.0000 C   0  0  0  0  0  0  0  0  0  0  0  0
    5.0981    1.8170    0.0000 C   0  0  0  0  0  0  0  0  0  0  0  0
    5.4641    0.4510    0.0000 C   0  0  0  0  0  0  0  0  0  0  0  0
    2.8660   -1.0490    0.0000 C   0  0  0  0  0  0  0  0  0  0  0  0
    4.5981   -1.0490    0.0000 C   0  0  0  0  0  0  0  0  0  0  0  0
    2.8660   -2.0490    0.0000 C   0  0  0  0  0  0  0  0  0  0  0  0
    3.0981    1.8170    0.0000 C   0  0  0  0  0  0  0  0  0  0  0  0
    4.5981    2.6830    0.0000 C   0  0  0  0  0  0  0  0  0  0  0  0
    6.0981    1.8170    0.0000 C   0  0  0  0  0  0  0  0  0  0  0  0
    2.0000   -2.5490    0.0000 C   0  0  0  0  0  0  0  0  0  0  0  0
    5.0981    3.5490    0.0000 C   0  0  0  0  0  0  0  0  0  0  0  0
    6.5981    2.6830    0.0000 C   0  0  0  0  0  0  0  0  0  0  0  0
    2.0000   -3.5490    0.0000 C   0  0  0  0  0  0  0  0  0  0  0  0
    6.0981    3.5490    0.0000 C   0  0  0  0  0  0  0  0  0  0  0  0
    4.6807    2.0290    0.0000 H   0  0  0  0  0  0  0  0  0  0  0  0
    3.9904    2.4276    0.0000 H   0  0  0  0  0  0  0  0  0  0  0  0
    2.6540   -0.4664    0.0000 H   0  0  0  0  0  0  0  0  0  0  0  0
    2.2554   -1.1567    0.0000 H   0  0  0  0  0  0  0  0  0  0  0  0
    3.0781   -2.6316    0.0000 H   0  0  0  0  0  0  0  0  0  0  0  0
    3.4766   -1.9414    0.0000 H   0  0  0  0  0  0  0  0  0  0  0  0
    6.0010   -0.8590    0.0000 H   0  0  0  0  0  0  0  0  0  0  0  0
    3.0981    2.4370    0.0000 H   0  0  0  0  0  0  0  0  0  0  0  0
    2.4781    1.8170    0.0000 H   0  0  0  0  0  0  0  0  0  0  0  0
    3.0981    1.1970    0.0000 H   0  0  0  0  0  0  0  0  0  0  0  0
    3.9781    2.6830    0.0000 H   0  0  0  0  0  0  0  0  0  0  0  0
    6.4081    1.2800    0.0000 H   0  0  0  0  0  0  0  0  0  0  0  0
    1.7880   -1.9664    0.0000 H   0  0  0  0  0  0  0  0  0  0  0  0
    1.3894   -2.6567    0.0000 H   0  0  0  0  0  0  0  0  0  0  0  0
    4.7881    4.0860    0.0000 H   0  0  0  0  0  0  0  0  0  0  0  0
    7.2181    2.6830    0.0000 H   0  0  0  0  0  0  0  0  0  0  0  0
    1.3800   -3.5490    0.0000 H   0  0  0  0  0  0  0  0  0  0  0  0
    2.0000   -4.1690    0.0000 H   0  0  0  0  0  0  0  0  0  0  0  0
    2.6200   -3.5490    0.0000 H   0  0  0  0  0  0  0  0  0  0  0  0
    6.4081    4.0860    0.0000 H   0  0  0  0  0  0  0  0  0  0  0  0
  1  8  2  0  0  0  0
  2 10  2  0  0  0  0
  3 12  2  0  0  0  0
  4  8  1  0  0  0  0
  4 11  1  0  0  0  0
  4 12  1  0  0  0  0
  5 10  1  0  0  0  0
  5 12  1  0  0  0  0
  5 28  1  0  0  0  0
  6  7  1  0  0  0  0
  6  8  1  0  0  0  0
  6  9  1  0  0  0  0
  6 10  1  0  0  0  0
  7 14  1  0  0  0  0
  7 22  1  0  0  0  0
  7 23  1  0  0  0  0
  9 15  2  0  0  0  0
  9 16  1  0  0  0  0
 11 13  1  0  0  0  0
 11 24  1  0  0  0  0
 11 25  1  0  0  0  0
 13 17  1  0  0  0  0
 13 26  1  0  0  0  0
 13 27  1  0  0  0  0
 14 29  1  0  0  0  0
 14 30  1  0  0  0  0
 14 31  1  0  0  0  0
 15 18  1  0  0  0  0
 15 32  1  0  0  0  0
 16 19  2  0  0  0  0
 16 33  1  0  0  0  0
 17 20  1  0  0  0  0
 17 34  1  0  0  0  0
 17 35  1  0  0  0  0
 18 21  2  0  0  0  0
 18 36  1  0  0  0  0
 19 21  1  0  0  0  0
 19 37  1  0  0  0  0
 20 38  1  0  0  0  0
 20 39  1  0  0  0  0
 20 40  1  0  0  0  0
 21 41  1  0  0  0  0
M  END
> <PUBCHEM_COMPOUND_CID>
518292
> <PUBCHEM_COMPOUND_CANONICALIZED>
1
> <PUBCHEM_CACTVS_COMPLEXITY>
429
> <PUBCHEM_CACTVS_HBOND_ACCEPTOR>
3
> <PUBCHEM_CACTVS_HBOND_DONOR>
1
> <PUBCHEM_CACTVS_ROTATABLE_BOND>
5
> <PUBCHEM_CACTVS_SUBSKEYS>
AAADceB7MAAAAAAAAAAAAAAAAAAAAAAAAAA8QAAAAAAAAAABAAAAHgAQAAAADgDBmAQzAIPAAACIAiFSEAACAAAgAAAIiAEIAIiIIDqI1RGEIAAohyKIiAcYiMCPgAAAAAAAAAAAAAAAAAAAAAAAAAAAAA==
> <PUBCHEM_IUPAC_OPENEYE_NAME>
1-butyl-5-ethyl-5-phenyl-hexahydropyrimidine-2,4,6-trione
> <PUBCHEM_IUPAC_CAS_NAME>
1-butyl-5-ethyl-5-phenyl-1,3-diazinane-2,4,6-trione
> <PUBCHEM_IUPAC_NAME_MARKUP>
1-butyl-5-ethyl-5-phenyl-1,3-diazinane-2,4,6-trione
> <PUBCHEM_IUPAC_NAME>
1-butyl-5-ethyl-5-phenyl-1,3-diazinane-2,4,6-trione
> <PUBCHEM_IUPAC_SYSTEMATIC_NAME>
1-butyl-5-ethyl-5-phenyl-1,3-diazinane-2,4,6-trione
> <PUBCHEM_IUPAC_TRADITIONAL_NAME>
1-butyl-5-ethyl-5-phenyl-barbituric acid
> <PUBCHEM_IUPAC_INCHI>
InChI=1S/C16H20N2O3/c1-3-5-11-18-14(20)16(4-2,13(19)17-15(18)21)12-9-7-6-8-10-12/h6-10H,3-5,11H2,1-2H3,(H,17,19,21)
> <PUBCHEM_IUPAC_INCHIKEY>
GZHFOXIBCWGZSM-UHFFFAOYSA-N
> <PUBCHEM_XLOGP3>
3.1
> <PUBCHEM_EXACT_MASS>
288.14739250
> <PUBCHEM_MOLECULAR_FORMULA>
C16H20N2O3
> <PUBCHEM_MOLECULAR_WEIGHT>
288.34
> <PUBCHEM_OPENEYE_CAN_SMILES>
CCCCN1C(=O)C(C(=O)NC1=O)(CC)C2=CC=CC=C2
> <PUBCHEM_OPENEYE_ISO_SMILES>
CCCCN1C(=O)C(C(=O)NC1=O)(CC)C2=CC=CC=C2
> <PUBCHEM_CACTVS_TPSA>
66.5
> <PUBCHEM_MONOISOTOPIC_WEIGHT>
288.14739250
> <PUBCHEM_TOTAL_CHARGE>
0
> <PUBCHEM_HEAVY_ATOM_COUNT>
21
> <PUBCHEM_ATOM_DEF_STEREO_COUNT>
0
> <PUBCHEM_ATOM_UDEF_STEREO_COUNT>
1
> <PUBCHEM_BOND_DEF_STEREO_COUNT>
0
> <PUBCHEM_BOND_UDEF_STEREO_COUNT>
0
> <PUBCHEM_ISOTOPIC_ATOM_COUNT>
0
> <PUBCHEM_COMPONENT_COUNT>
1
> <PUBCHEM_CACTVS_TAUTO_COUNT>
-1
> <PUBCHEM_COORDINATE_TYPE>
1
5
255
> <PUBCHEM_BONDANNOTATIONS>
15  18  8
16  19  8
18  21  8
19  21  8
6  7  3
9  15  8
9  16  8
$$$$
