518286
  -OEChem-10302200292D
 32 34  0     1  0  0  0  0  0999 V2000
    4.6783   -2.3101    0.0000 O   0  0  0  0  0  0  0  0  0  0  0  0
    6.2619   -1.5054    0.0000 O   0  0  0  0  0  0  0  0  0  0  0  0
    3.8385    1.8992    0.0000 O   0  0  0  0  0  0  0  0  0  0  0  0
    5.5321    1.5361    0.0000 O   0  0  0  0  0  0  0  0  0  0  0  0
    4.6783   -0.7006    0.0000 C   0  0  3  0  0  0  0  0  0  0  0  0
    3.7320   -1.0054    0.0000 C   0  0  0  0  0  0  0  0  0  0  0  0
    4.3709    0.2509    0.0000 C   0  0  0  0  0  0  0  0  0  0  0  0
    5.4883   -0.1143    0.0000 C   0  0  0  0  0  0  0  0  0  0  0  0
    5.2619   -1.5054    0.0000 C   0  0  0  0  0  0  0  0  0  0  0  0
    3.7320   -2.0054    0.0000 C   0  0  0  0  0  0  0  0  0  0  0  0
    2.8660   -0.5054    0.0000 C   0  0  0  0  0  0  0  0  0  0  0  0
    6.4011   -0.5226    0.0000 C   0  0  0  0  0  0  0  0  0  0  0  0
    5.3855    0.8804    0.0000 C   0  0  0  0  0  0  0  0  0  0  0  0
    2.8660   -2.5054    0.0000 C   0  0  0  0  0  0  0  0  0  0  0  0
    4.5805    1.2287    0.0000 C   0  0  0  0  0  0  0  0  0  0  0  0
    2.0000   -1.0054    0.0000 C   0  0  0  0  0  0  0  0  0  0  0  0
    2.0000   -2.0054    0.0000 C   0  0  0  0  0  0  0  0  0  0  0  0
    7.2112    0.0638    0.0000 C   0  0  0  0  0  0  0  0  0  0  0  0
    6.1955    1.4668    0.0000 C   0  0  0  0  0  0  0  0  0  0  0  0
    7.1084    1.0585    0.0000 C   0  0  0  0  0  0  0  0  0  0  0  0
    3.8457    0.5804    0.0000 H   0  0  0  0  0  0  0  0  0  0  0  0
    4.9901    0.2823    0.0000 H   0  0  0  0  0  0  0  0  0  0  0  0
    2.8660    0.1146    0.0000 H   0  0  0  0  0  0  0  0  0  0  0  0
    6.4649   -1.1393    0.0000 H   0  0  0  0  0  0  0  0  0  0  0  0
    4.8195    1.1336    0.0000 H   0  0  0  0  0  0  0  0  0  0  0  0
    2.8660   -3.1254    0.0000 H   0  0  0  0  0  0  0  0  0  0  0  0
    1.4631   -0.6954    0.0000 H   0  0  0  0  0  0  0  0  0  0  0  0
    1.4631   -2.3154    0.0000 H   0  0  0  0  0  0  0  0  0  0  0  0
    7.7771   -0.1893    0.0000 H   0  0  0  0  0  0  0  0  0  0  0  0
    6.1318    2.0835    0.0000 H   0  0  0  0  0  0  0  0  0  0  0  0
    7.6106    1.4221    0.0000 H   0  0  0  0  0  0  0  0  0  0  0  0
    3.9685    2.5054    0.0000 H   0  0  0  0  0  0  0  0  0  0  0  0
  1  9  1  0  0  0  0
  1 10  1  0  0  0  0
  2  9  2  0  0  0  0
  3 15  1  0  0  0  0
  3 32  1  0  0  0  0
  4 15  2  0  0  0  0
  5  6  1  0  0  0  0
  5  7  1  0  0  0  0
  5  8  1  0  0  0  0
  5  9  1  0  0  0  0
  6 10  1  0  0  0  0
  6 11  2  0  0  0  0
  7 15  1  0  0  0  0
  7 21  1  0  0  0  0
  7 22  1  0  0  0  0
  8 12  2  0  0  0  0
  8 13  1  0  0  0  0
 10 14  2  0  0  0  0
 11 16  1  0  0  0  0
 11 23  1  0  0  0  0
 12 18  1  0  0  0  0
 12 24  1  0  0  0  0
 13 19  2  0  0  0  0
 13 25  1  0  0  0  0
 14 17  1  0  0  0  0
 14 26  1  0  0  0  0
 16 17  2  0  0  0  0
 16 27  1  0  0  0  0
 17 28  1  0  0  0  0
 18 20  2  0  0  0  0
 18 29  1  0  0  0  0
 19 20  1  0  0  0  0
 19 30  1  0  0  0  0
 20 31  1  0  0  0  0
M  END
> <PUBCHEM_COMPOUND_CID>
518286
> <PUBCHEM_COMPOUND_CANONICALIZED>
1
> <PUBCHEM_CACTVS_COMPLEXITY>
399
> <PUBCHEM_CACTVS_HBOND_ACCEPTOR>
4
> <PUBCHEM_CACTVS_HBOND_DONOR>
1
> <PUBCHEM_CACTVS_ROTATABLE_BOND>
3
> <PUBCHEM_CACTVS_SUBSKEYS>
AAADccB4OAAAAAAAAAAAAAAAAAAAASAAAAAwYAAAAAAAAEgBQAAAGgAACAAADgSAmAAwDoAABgCIAiDSCAACCAAgIAAIiAEGCIgMJjKENRqCeiCkwBEIqAfL7OzPgAAAAAAIAAAAAAAAABAAAAAAAAAAAA==
> <PUBCHEM_IUPAC_OPENEYE_NAME>
2-(2-oxo-3-phenyl-benzofuran-3-yl)acetic acid
> <PUBCHEM_IUPAC_CAS_NAME>
2-(2-oxo-3-phenyl-3-benzofuranyl)acetic acid
> <PUBCHEM_IUPAC_NAME_MARKUP>
2-(2-oxo-3-phenyl-1-benzofuran-3-yl)acetic acid
> <PUBCHEM_IUPAC_NAME>
2-(2-oxo-3-phenyl-1-benzofuran-3-yl)acetic acid
> <PUBCHEM_IUPAC_SYSTEMATIC_NAME>
2-(2-oxidanylidene-3-phenyl-1-benzofuran-3-yl)ethanoic acid
> <PUBCHEM_IUPAC_TRADITIONAL_NAME>
2-(2-keto-3-phenyl-coumaran-3-yl)acetic acid
> <PUBCHEM_IUPAC_INCHI>
InChI=1S/C16H12O4/c17-14(18)10-16(11-6-2-1-3-7-11)12-8-4-5-9-13(12)20-15(16)19/h1-9H,10H2,(H,17,18)
> <PUBCHEM_IUPAC_INCHIKEY>
RHTPJUYOMAAXFW-UHFFFAOYSA-N
> <PUBCHEM_XLOGP3_AA>
2.4
> <PUBCHEM_EXACT_MASS>
268.07355886
> <PUBCHEM_MOLECULAR_FORMULA>
C16H12O4
> <PUBCHEM_MOLECULAR_WEIGHT>
268.26
> <PUBCHEM_OPENEYE_CAN_SMILES>
C1=CC=C(C=C1)C2(C3=CC=CC=C3OC2=O)CC(=O)O
> <PUBCHEM_OPENEYE_ISO_SMILES>
C1=CC=C(C=C1)C2(C3=CC=CC=C3OC2=O)CC(=O)O
> <PUBCHEM_CACTVS_TPSA>
63.6
> <PUBCHEM_MONOISOTOPIC_WEIGHT>
268.07355886
> <PUBCHEM_TOTAL_CHARGE>
0
> <PUBCHEM_HEAVY_ATOM_COUNT>
20
> <PUBCHEM_ATOM_DEF_STEREO_COUNT>
0
> <PUBCHEM_ATOM_UDEF_STEREO_COUNT>
1
> <PUBCHEM_BOND_DEF_STEREO_COUNT>
0
> <PUBCHEM_BOND_UDEF_STEREO_COUNT>
0
> <PUBCHEM_ISOTOPIC_ATOM_COUNT>
0
> <PUBCHEM_COMPONENT_COUNT>
1
> <PUBCHEM_CACTVS_TAUTO_COUNT>
-1
> <PUBCHEM_COORDINATE_TYPE>
1
5
255
> <PUBCHEM_BONDANNOTATIONS>
10  14  8
11  16  8
12  18  8
13  19  8
14  17  8
16  17  8
18  20  8
19  20  8
5  7  3
6  10  8
6  11  8
8  12  8
8  13  8
$$$$
