518327
  -OEChem-10302200292D
 27 28  0     1  0  0  0  0  0999 V2000
    3.7320    0.5670    0.0000 N   0  0  0  0  0  0  0  0  0  0  0  0
    3.7320    1.5670    0.0000 C   0  0  3  0  0  0  0  0  0  0  0  0
    4.2320    2.4330    0.0000 C   0  0  3  0  0  0  0  0  0  0  0  0
    3.2320    2.4330    0.0000 C   0  0  0  0  0  0  0  0  0  0  0  0
    5.0981    2.9330    0.0000 C   0  0  0  0  0  0  0  0  0  0  0  0
    2.8660    0.0670    0.0000 C   0  0  0  0  0  0  0  0  0  0  0  0
    2.8660   -0.9330    0.0000 C   0  0  0  0  0  0  0  0  0  0  0  0
    2.0000   -1.4330    0.0000 C   0  0  0  0  0  0  0  0  0  0  0  0
    3.7320   -1.4330    0.0000 C   0  0  0  0  0  0  0  0  0  0  0  0
    2.0000   -2.4330    0.0000 C   0  0  0  0  0  0  0  0  0  0  0  0
    3.7320   -2.4330    0.0000 C   0  0  0  0  0  0  0  0  0  0  0  0
    2.8660   -2.9330    0.0000 C   0  0  0  0  0  0  0  0  0  0  0  0
    4.3309    1.4065    0.0000 H   0  0  0  0  0  0  0  0  0  0  0  0
    4.0716    3.0319    0.0000 H   0  0  0  0  0  0  0  0  0  0  0  0
    3.1244    3.0436    0.0000 H   0  0  0  0  0  0  0  0  0  0  0  0
    2.6494    2.2210    0.0000 H   0  0  0  0  0  0  0  0  0  0  0  0
    4.2690    0.2570    0.0000 H   0  0  0  0  0  0  0  0  0  0  0  0
    5.4081    2.3961    0.0000 H   0  0  0  0  0  0  0  0  0  0  0  0
    5.6350    3.2430    0.0000 H   0  0  0  0  0  0  0  0  0  0  0  0
    4.7881    3.4700    0.0000 H   0  0  0  0  0  0  0  0  0  0  0  0
    2.6540    0.6496    0.0000 H   0  0  0  0  0  0  0  0  0  0  0  0
    2.2554   -0.0407    0.0000 H   0  0  0  0  0  0  0  0  0  0  0  0
    1.4631   -1.1230    0.0000 H   0  0  0  0  0  0  0  0  0  0  0  0
    4.2690   -1.1230    0.0000 H   0  0  0  0  0  0  0  0  0  0  0  0
    1.4631   -2.7430    0.0000 H   0  0  0  0  0  0  0  0  0  0  0  0
    4.2690   -2.7430    0.0000 H   0  0  0  0  0  0  0  0  0  0  0  0
    2.8660   -3.5530    0.0000 H   0  0  0  0  0  0  0  0  0  0  0  0
  1  2  1  0  0  0  0
  1  6  1  0  0  0  0
  1 17  1  0  0  0  0
  2  3  1  0  0  0  0
  2  4  1  0  0  0  0
  2 13  1  0  0  0  0
  3  4  1  0  0  0  0
  3  5  1  0  0  0  0
  3 14  1  0  0  0  0
  4 15  1  0  0  0  0
  4 16  1  0  0  0  0
  5 18  1  0  0  0  0
  5 19  1  0  0  0  0
  5 20  1  0  0  0  0
  6  7  1  0  0  0  0
  6 21  1  0  0  0  0
  6 22  1  0  0  0  0
  7  8  2  0  0  0  0
  7  9  1  0  0  0  0
  8 10  1  0  0  0  0
  8 23  1  0  0  0  0
  9 11  2  0  0  0  0
  9 24  1  0  0  0  0
 10 12  2  0  0  0  0
 10 25  1  0  0  0  0
 11 12  1  0  0  0  0
 11 26  1  0  0  0  0
 12 27  1  0  0  0  0
M  END
> <PUBCHEM_COMPOUND_CID>
518327
> <PUBCHEM_COMPOUND_CANONICALIZED>
1
> <PUBCHEM_CACTVS_COMPLEXITY>
138
> <PUBCHEM_CACTVS_HBOND_ACCEPTOR>
1
> <PUBCHEM_CACTVS_HBOND_DONOR>
1
> <PUBCHEM_CACTVS_ROTATABLE_BOND>
3
> <PUBCHEM_CACTVS_SUBSKEYS>
AAADccByAAAAAAAAAAAAAAAAGAAAAAAAAAAwAAAAAAAAAAABAAAAHAAQAAAADSjBGAQyAILAAACAAiBCAACCAAAgAAAIiIAIBIgIICKAkRGEIAhgkACIiAcQgAAOAAAAAAAAAAAAAAAAAAAAAAAAAAAAAA==
> <PUBCHEM_IUPAC_OPENEYE_NAME>
N-benzyl-2-methyl-cyclopropanamine
> <PUBCHEM_IUPAC_CAS_NAME>
2-methyl-N-(phenylmethyl)-1-cyclopropanamine
> <PUBCHEM_IUPAC_NAME_MARKUP>
<I>N</I>-benzyl-2-methylcyclopropan-1-amine
> <PUBCHEM_IUPAC_NAME>
N-benzyl-2-methylcyclopropan-1-amine
> <PUBCHEM_IUPAC_SYSTEMATIC_NAME>
2-methyl-N-(phenylmethyl)cyclopropan-1-amine
> <PUBCHEM_IUPAC_TRADITIONAL_NAME>
benzyl-(2-methylcyclopropyl)amine
> <PUBCHEM_IUPAC_INCHI>
InChI=1S/C11H15N/c1-9-7-11(9)12-8-10-5-3-2-4-6-10/h2-6,9,11-12H,7-8H2,1H3
> <PUBCHEM_IUPAC_INCHIKEY>
RIGSIUVMWSLFCH-UHFFFAOYSA-N
> <PUBCHEM_XLOGP3_AA>
2.3
> <PUBCHEM_EXACT_MASS>
161.120449483
> <PUBCHEM_MOLECULAR_FORMULA>
C11H15N
> <PUBCHEM_MOLECULAR_WEIGHT>
161.24
> <PUBCHEM_OPENEYE_CAN_SMILES>
CC1CC1NCC2=CC=CC=C2
> <PUBCHEM_OPENEYE_ISO_SMILES>
CC1CC1NCC2=CC=CC=C2
> <PUBCHEM_CACTVS_TPSA>
12
> <PUBCHEM_MONOISOTOPIC_WEIGHT>
161.120449483
> <PUBCHEM_TOTAL_CHARGE>
0
> <PUBCHEM_HEAVY_ATOM_COUNT>
12
> <PUBCHEM_ATOM_DEF_STEREO_COUNT>
0
> <PUBCHEM_ATOM_UDEF_STEREO_COUNT>
2
> <PUBCHEM_BOND_DEF_STEREO_COUNT>
0
> <PUBCHEM_BOND_UDEF_STEREO_COUNT>
0
> <PUBCHEM_ISOTOPIC_ATOM_COUNT>
0
> <PUBCHEM_COMPONENT_COUNT>
1
> <PUBCHEM_CACTVS_TAUTO_COUNT>
-1
> <PUBCHEM_COORDINATE_TYPE>
1
5
255
> <PUBCHEM_BONDANNOTATIONS>
2  1  3
10  12  8
11  12  8
3  5  3
7  8  8
7  9  8
8  10  8
9  11  8
$$$$
