518318
  -OEChem-10302200292D
 27 28  0     1  0  0  0  0  0999 V2000
    2.0570   -0.2306    0.0000 S   0  0  0  0  0  0  0  0  0  0  0  0
    4.1349    3.2520    0.0000 O   0  0  0  0  0  0  0  0  0  0  0  0
    3.6750   -0.2306    0.0000 N   0  0  0  0  0  0  0  0  0  0  0  0
    3.3660    0.7204    0.0000 C   0  0  3  0  0  0  0  0  0  0  0  0
    3.9538    1.5294    0.0000 C   0  0  0  0  0  0  0  0  0  0  0  0
    2.3660    0.7204    0.0000 C   0  0  0  0  0  0  0  0  0  0  0  0
    2.8660   -0.8184    0.0000 C   0  0  0  0  0  0  0  0  0  0  0  0
    3.5471    2.4430    0.0000 C   0  0  0  0  0  0  0  0  0  0  0  0
    2.8660   -1.8184    0.0000 C   0  0  0  0  0  0  0  0  0  0  0  0
    2.0000   -2.3184    0.0000 C   0  0  0  0  0  0  0  0  0  0  0  0
    3.7320   -2.3184    0.0000 C   0  0  0  0  0  0  0  0  0  0  0  0
    2.0000   -3.3184    0.0000 C   0  0  0  0  0  0  0  0  0  0  0  0
    3.7320   -3.3184    0.0000 C   0  0  0  0  0  0  0  0  0  0  0  0
    2.8660   -3.8184    0.0000 C   0  0  0  0  0  0  0  0  0  0  0  0
    3.9784    0.6234    0.0000 H   0  0  0  0  0  0  0  0  0  0  0  0
    4.3845    1.0835    0.0000 H   0  0  0  0  0  0  0  0  0  0  0  0
    4.4678    1.8762    0.0000 H   0  0  0  0  0  0  0  0  0  0  0  0
    2.4308    1.3370    0.0000 H   0  0  0  0  0  0  0  0  0  0  0  0
    1.7596    0.8493    0.0000 H   0  0  0  0  0  0  0  0  0  0  0  0
    3.1164    2.8890    0.0000 H   0  0  0  0  0  0  0  0  0  0  0  0
    3.0331    2.0963    0.0000 H   0  0  0  0  0  0  0  0  0  0  0  0
    1.4631   -2.0084    0.0000 H   0  0  0  0  0  0  0  0  0  0  0  0
    4.2690   -2.0084    0.0000 H   0  0  0  0  0  0  0  0  0  0  0  0
    1.4631   -3.6284    0.0000 H   0  0  0  0  0  0  0  0  0  0  0  0
    4.2690   -3.6284    0.0000 H   0  0  0  0  0  0  0  0  0  0  0  0
    3.8827    3.8184    0.0000 H   0  0  0  0  0  0  0  0  0  0  0  0
    2.8660   -4.4384    0.0000 H   0  0  0  0  0  0  0  0  0  0  0  0
  1  6  1  0  0  0  0
  1  7  1  0  0  0  0
  2  8  1  0  0  0  0
  2 26  1  0  0  0  0
  3  4  1  0  0  0  0
  3  7  2  0  0  0  0
  4  5  1  0  0  0  0
  4  6  1  0  0  0  0
  4 15  1  0  0  0  0
  5  8  1  0  0  0  0
  5 16  1  0  0  0  0
  5 17  1  0  0  0  0
  6 18  1  0  0  0  0
  6 19  1  0  0  0  0
  7  9  1  0  0  0  0
  8 20  1  0  0  0  0
  8 21  1  0  0  0  0
  9 10  2  0  0  0  0
  9 11  1  0  0  0  0
 10 12  1  0  0  0  0
 10 22  1  0  0  0  0
 11 13  2  0  0  0  0
 11 23  1  0  0  0  0
 12 14  2  0  0  0  0
 12 24  1  0  0  0  0
 13 14  1  0  0  0  0
 13 25  1  0  0  0  0
 14 27  1  0  0  0  0
M  END
> <PUBCHEM_COMPOUND_CID>
518318
> <PUBCHEM_COMPOUND_CANONICALIZED>
1
> <PUBCHEM_CACTVS_COMPLEXITY>
211
> <PUBCHEM_CACTVS_HBOND_ACCEPTOR>
3
> <PUBCHEM_CACTVS_HBOND_DONOR>
1
> <PUBCHEM_CACTVS_ROTATABLE_BOND>
3
> <PUBCHEM_CACTVS_SUBSKEYS>
AAADccByIABAAAAAAAAAAAAAAAAAAQAAAAAwAAAAAAAAAAABAAAAHgQACAAADCjl2AawAIIAAgigAiBiBAACEAAgABAIiAAgAJgIMKKgERCAYAAmgAAoiAcAgAAOAAAAAAAAAAAAAAAAAAAAAAAAAAAAAA==
> <PUBCHEM_IUPAC_OPENEYE_NAME>
2-(2-phenyl-4,5-dihydrothiazol-4-yl)ethanol
> <PUBCHEM_IUPAC_CAS_NAME>
2-(2-phenyl-4,5-dihydrothiazol-4-yl)ethanol
> <PUBCHEM_IUPAC_NAME_MARKUP>
2-(2-phenyl-4,5-dihydro-1,3-thiazol-4-yl)ethanol
> <PUBCHEM_IUPAC_NAME>
2-(2-phenyl-4,5-dihydro-1,3-thiazol-4-yl)ethanol
> <PUBCHEM_IUPAC_SYSTEMATIC_NAME>
2-(2-phenyl-4,5-dihydro-1,3-thiazol-4-yl)ethanol
> <PUBCHEM_IUPAC_TRADITIONAL_NAME>
2-(2-phenyl-2-thiazolin-4-yl)ethanol
> <PUBCHEM_IUPAC_INCHI>
InChI=1S/C11H13NOS/c13-7-6-10-8-14-11(12-10)9-4-2-1-3-5-9/h1-5,10,13H,6-8H2
> <PUBCHEM_IUPAC_INCHIKEY>
UBOKZTONJAYRSK-UHFFFAOYSA-N
> <PUBCHEM_XLOGP3_AA>
1.7
> <PUBCHEM_EXACT_MASS>
207.07178521
> <PUBCHEM_MOLECULAR_FORMULA>
C11H13NOS
> <PUBCHEM_MOLECULAR_WEIGHT>
207.29
> <PUBCHEM_OPENEYE_CAN_SMILES>
C1C(N=C(S1)C2=CC=CC=C2)CCO
> <PUBCHEM_OPENEYE_ISO_SMILES>
C1C(N=C(S1)C2=CC=CC=C2)CCO
> <PUBCHEM_CACTVS_TPSA>
57.9
> <PUBCHEM_MONOISOTOPIC_WEIGHT>
207.07178521
> <PUBCHEM_TOTAL_CHARGE>
0
> <PUBCHEM_HEAVY_ATOM_COUNT>
14
> <PUBCHEM_ATOM_DEF_STEREO_COUNT>
0
> <PUBCHEM_ATOM_UDEF_STEREO_COUNT>
1
> <PUBCHEM_BOND_DEF_STEREO_COUNT>
0
> <PUBCHEM_BOND_UDEF_STEREO_COUNT>
0
> <PUBCHEM_ISOTOPIC_ATOM_COUNT>
0
> <PUBCHEM_COMPONENT_COUNT>
1
> <PUBCHEM_CACTVS_TAUTO_COUNT>
-1
> <PUBCHEM_COORDINATE_TYPE>
1
5
255
> <PUBCHEM_BONDANNOTATIONS>
10  12  8
11  13  8
12  14  8
13  14  8
4  5  3
9  10  8
9  11  8
$$$$
