518555
  -OEChem-10302200292D
 15 15  0     1  0  0  0  0  0999 V2000
    3.8451    1.2094    0.0000 O   0  0  0  0  0  0  0  0  0  0  0  0
    5.5202   -0.8784    0.0000 N   0  5  0  0  0  0  0  0  0  0  0  0
    4.2111   -1.8294    0.0000 N   0  0  0  0  0  0  0  0  0  0  0  0
    2.9511   -0.5693    0.0000 N   0  3  0  0  0  0  0  0  0  0  0  0
    5.5772    1.2094    0.0000 N   0  0  0  0  0  0  0  0  0  0  0  0
    2.0000   -0.2603    0.0000 N   0  0  0  0  0  0  0  0  0  0  0  0
    4.7111   -0.2906    0.0000 C   0  0  3  0  0  0  0  0  0  0  0  0
    3.9021   -0.8784    0.0000 C   0  0  3  0  0  0  0  0  0  0  0  0
    4.7111    0.7094    0.0000 C   0  0  0  0  0  0  0  0  0  0  0  0
    5.2111   -1.8294    0.0000 C   0  0  0  0  0  0  0  0  0  0  0  0
    5.2636   -0.0091    0.0000 H   0  0  0  0  0  0  0  0  0  0  0  0
    3.4637   -1.3168    0.0000 H   0  0  0  0  0  0  0  0  0  0  0  0
    5.5756   -2.3310    0.0000 H   0  0  0  0  0  0  0  0  0  0  0  0
    5.5772    1.8294    0.0000 H   0  0  0  0  0  0  0  0  0  0  0  0
    6.1141    0.8994    0.0000 H   0  0  0  0  0  0  0  0  0  0  0  0
  1  9  2  0  0  0  0
  2  7  1  0  0  0  0
  2 10  1  0  0  0  0
  3  8  1  0  0  0  0
  3 10  2  0  0  0  0
  4  6  3  0  0  0  0
  4  8  1  0  0  0  0
  5  9  1  0  0  0  0
  5 14  1  0  0  0  0
  5 15  1  0  0  0  0
  7  8  1  0  0  0  0
  7  9  1  0  0  0  0
  7 11  1  0  0  0  0
  8 12  1  0  0  0  0
 10 13  1  0  0  0  0
M  CHG  2   2  -1   4   1
M  END
> <PUBCHEM_COMPOUND_CID>
518555
> <PUBCHEM_COMPOUND_CANONICALIZED>
1
> <PUBCHEM_CACTVS_COMPLEXITY>
225
> <PUBCHEM_CACTVS_HBOND_ACCEPTOR>
4
> <PUBCHEM_CACTVS_HBOND_DONOR>
1
> <PUBCHEM_CACTVS_ROTATABLE_BOND>
1
> <PUBCHEM_CACTVS_SUBSKEYS>
AAADcYBjoAAAAAAAAAAAAAAAAAAAAQAAAAAAAAAAAAAAAAAAAAAAHgAYAAAACCjBgAQBAAJAAAAoAAERNAAAAAEAAAABAAGIAAAAQAgASCAQAAAAEAAAAAAAAAAAAAAAAAAAAAAAAAAAAAAAAAAAAAAAAA==
> <PUBCHEM_IUPAC_OPENEYE_NAME>
5-carbamoyl-4,5-dihydroimidazol-1-ide-4-diazonium
> <PUBCHEM_IUPAC_CAS_NAME>
5-carbamoyl-4,5-dihydroimidazol-1-ide-4-diazonium
> <PUBCHEM_IUPAC_NAME_MARKUP>
5-carbamoyl-4,5-dihydroimidazol-1-ide-4-diazonium
> <PUBCHEM_IUPAC_NAME>
5-carbamoyl-4,5-dihydroimidazol-1-ide-4-diazonium
> <PUBCHEM_IUPAC_SYSTEMATIC_NAME>
5-aminocarbonyl-4,5-dihydroimidazol-1-ide-4-diazonium
> <PUBCHEM_IUPAC_TRADITIONAL_NAME>
5-carbamoyl-2-imidazolin-1-ide-4-diazonium
> <PUBCHEM_IUPAC_INCHI>
InChI=1S/C4H5N5O/c5-3(10)2-4(9-6)8-1-7-2/h1-2,4H,(H2-,5,7,8,10)
> <PUBCHEM_IUPAC_INCHIKEY>
DRCDLRGBPYMJCT-UHFFFAOYSA-N
> <PUBCHEM_XLOGP3_AA>
-0.9
> <PUBCHEM_EXACT_MASS>
139.04940980
> <PUBCHEM_MOLECULAR_FORMULA>
C4H5N5O
> <PUBCHEM_MOLECULAR_WEIGHT>
139.12
> <PUBCHEM_OPENEYE_CAN_SMILES>
C1=NC(C([N-]1)C(=O)N)[N+]#N
> <PUBCHEM_OPENEYE_ISO_SMILES>
C1=NC(C([N-]1)C(=O)N)[N+]#N
> <PUBCHEM_CACTVS_TPSA>
84.6
> <PUBCHEM_MONOISOTOPIC_WEIGHT>
139.04940980
> <PUBCHEM_TOTAL_CHARGE>
0
> <PUBCHEM_HEAVY_ATOM_COUNT>
10
> <PUBCHEM_ATOM_DEF_STEREO_COUNT>
0
> <PUBCHEM_ATOM_UDEF_STEREO_COUNT>
2
> <PUBCHEM_BOND_DEF_STEREO_COUNT>
0
> <PUBCHEM_BOND_UDEF_STEREO_COUNT>
0
> <PUBCHEM_ISOTOPIC_ATOM_COUNT>
0
> <PUBCHEM_COMPONENT_COUNT>
1
> <PUBCHEM_CACTVS_TAUTO_COUNT>
-1
> <PUBCHEM_COORDINATE_TYPE>
1
5
255
> <PUBCHEM_BONDANNOTATIONS>
8  4  3
7  9  3
$$$$
