518597
  -OEChem-10302200292D
 57 60  0     1  0  0  0  0  0999 V2000
    7.7820    1.5983    0.0000 O   0  0  0  0  0  0  0  0  0  0  0  0
    9.4284    1.0603    0.0000 O   0  0  0  0  0  0  0  0  0  0  0  0
    4.7931   -0.6569    0.0000 C   0  0  3  0  0  0  0  0  0  0  0  0
    5.6591   -1.1569    0.0000 C   0  0  3  0  0  0  0  0  0  0  0  0
    6.5251   -0.6569    0.0000 C   0  0  3  0  0  0  0  0  0  0  0  0
    3.8831   -1.1638    0.0000 C   0  0  3  0  0  0  0  0  0  0  0  0
    6.5251    0.3431    0.0000 C   0  0  3  0  0  0  0  0  0  0  0  0
    3.8751   -2.2054    0.0000 C   0  0  3  0  0  0  0  0  0  0  0  0
    4.7931    0.3431    0.0000 C   0  0  0  0  0  0  0  0  0  0  0  0
    5.6591    0.8431    0.0000 C   0  0  0  0  0  0  0  0  0  0  0  0
    5.6752   -2.1984    0.0000 C   0  0  0  0  0  0  0  0  0  0  0  0
    7.4714    0.6478    0.0000 C   0  0  3  0  0  0  0  0  0  0  0  0
    7.4714   -0.9616    0.0000 C   0  0  0  0  0  0  0  0  0  0  0  0
    4.7771   -2.7262    0.0000 C   0  0  0  0  0  0  0  0  0  0  0  0
    2.9562   -0.5997    0.0000 C   0  0  0  0  0  0  0  0  0  0  0  0
    8.0550   -0.1569    0.0000 C   0  0  0  0  0  0  0  0  0  0  0  0
    2.9396   -2.7551    0.0000 C   0  0  0  0  0  0  0  0  0  0  0  0
    3.8908   -0.1638    0.0000 C   0  0  0  0  0  0  0  0  0  0  0  0
    6.5251    1.3431    0.0000 C   0  0  0  0  0  0  0  0  0  0  0  0
    2.0084   -1.1276    0.0000 C   0  0  0  0  0  0  0  0  0  0  0  0
    2.0000   -2.2126    0.0000 C   0  0  0  0  0  0  0  0  0  0  0  0
    8.7605    1.8046    0.0000 C   0  0  0  0  0  0  0  0  0  0  0  0
    9.0712    2.7551    0.0000 C   0  0  0  0  0  0  0  0  0  0  0  0
    5.3300   -0.3469    0.0000 H   0  0  0  0  0  0  0  0  0  0  0  0
    6.1984   -1.4628    0.0000 H   0  0  0  0  0  0  0  0  0  0  0  0
    6.5908   -1.2734    0.0000 H   0  0  0  0  0  0  0  0  0  0  0  0
    3.8774   -2.8253    0.0000 H   0  0  0  0  0  0  0  0  0  0  0  0
    4.5810    0.9257    0.0000 H   0  0  0  0  0  0  0  0  0  0  0  0
    4.1825    0.2354    0.0000 H   0  0  0  0  0  0  0  0  0  0  0  0
    6.0576    1.3180    0.0000 H   0  0  0  0  0  0  0  0  0  0  0  0
    5.2606    1.3180    0.0000 H   0  0  0  0  0  0  0  0  0  0  0  0
    5.8932   -2.7788    0.0000 H   0  0  0  0  0  0  0  0  0  0  0  0
    6.2843   -2.0829    0.0000 H   0  0  0  0  0  0  0  0  0  0  0  0
    8.0838    0.7440    0.0000 H   0  0  0  0  0  0  0  0  0  0  0  0
    7.2203   -1.5286    0.0000 H   0  0  0  0  0  0  0  0  0  0  0  0
    8.0087   -1.2709    0.0000 H   0  0  0  0  0  0  0  0  0  0  0  0
    4.3798   -3.2021    0.0000 H   0  0  0  0  0  0  0  0  0  0  0  0
    5.1781   -3.1991    0.0000 H   0  0  0  0  0  0  0  0  0  0  0  0
    3.3645   -0.1330    0.0000 H   0  0  0  0  0  0  0  0  0  0  0  0
    2.5663   -0.1176    0.0000 H   0  0  0  0  0  0  0  0  0  0  0  0
    8.5158   -0.5716    0.0000 H   0  0  0  0  0  0  0  0  0  0  0  0
    8.5158    0.2578    0.0000 H   0  0  0  0  0  0  0  0  0  0  0  0
    2.5423   -3.2311    0.0000 H   0  0  0  0  0  0  0  0  0  0  0  0
    3.3406   -3.2280    0.0000 H   0  0  0  0  0  0  0  0  0  0  0  0
    4.5108   -0.1686    0.0000 H   0  0  0  0  0  0  0  0  0  0  0  0
    3.8956    0.4562    0.0000 H   0  0  0  0  0  0  0  0  0  0  0  0
    3.2708   -0.1590    0.0000 H   0  0  0  0  0  0  0  0  0  0  0  0
    7.1451    1.3431    0.0000 H   0  0  0  0  0  0  0  0  0  0  0  0
    6.5251    1.9631    0.0000 H   0  0  0  0  0  0  0  0  0  0  0  0
    5.9051    1.3431    0.0000 H   0  0  0  0  0  0  0  0  0  0  0  0
    1.8038   -0.5423    0.0000 H   0  0  0  0  0  0  0  0  0  0  0  0
    1.3967   -1.2290    0.0000 H   0  0  0  0  0  0  0  0  0  0  0  0
    1.3900   -2.1018    0.0000 H   0  0  0  0  0  0  0  0  0  0  0  0
    1.7864   -2.7946    0.0000 H   0  0  0  0  0  0  0  0  0  0  0  0
    9.6605    2.5625    0.0000 H   0  0  0  0  0  0  0  0  0  0  0  0
    9.2638    3.3444    0.0000 H   0  0  0  0  0  0  0  0  0  0  0  0
    8.4819    2.9477    0.0000 H   0  0  0  0  0  0  0  0  0  0  0  0
  1 12  1  0  0  0  0
  1 22  1  0  0  0  0
  2 22  2  0  0  0  0
  3  4  1  0  0  0  0
  3  6  1  0  0  0  0
  3  9  1  0  0  0  0
  3 24  1  0  0  0  0
  4  5  1  0  0  0  0
  4 11  1  0  0  0  0
  4 25  1  0  0  0  0
  5  7  1  0  0  0  0
  5 13  1  0  0  0  0
  5 26  1  0  0  0  0
  6  8  1  0  0  0  0
  6 15  1  0  0  0  0
  6 18  1  0  0  0  0
  7 10  1  0  0  0  0
  7 12  1  0  0  0  0
  7 19  1  0  0  0  0
  8 14  1  0  0  0  0
  8 17  1  0  0  0  0
  8 27  1  0  0  0  0
  9 10  1  0  0  0  0
  9 28  1  0  0  0  0
  9 29  1  0  0  0  0
 10 30  1  0  0  0  0
 10 31  1  0  0  0  0
 11 14  1  0  0  0  0
 11 32  1  0  0  0  0
 11 33  1  0  0  0  0
 12 16  1  0  0  0  0
 12 34  1  0  0  0  0
 13 16  1  0  0  0  0
 13 35  1  0  0  0  0
 13 36  1  0  0  0  0
 14 37  1  0  0  0  0
 14 38  1  0  0  0  0
 15 20  1  0  0  0  0
 15 39  1  0  0  0  0
 15 40  1  0  0  0  0
 16 41  1  0  0  0  0
 16 42  1  0  0  0  0
 17 21  1  0  0  0  0
 17 43  1  0  0  0  0
 17 44  1  0  0  0  0
 18 45  1  0  0  0  0
 18 46  1  0  0  0  0
 18 47  1  0  0  0  0
 19 48  1  0  0  0  0
 19 49  1  0  0  0  0
 19 50  1  0  0  0  0
 20 21  1  0  0  0  0
 20 51  1  0  0  0  0
 20 52  1  0  0  0  0
 21 53  1  0  0  0  0
 21 54  1  0  0  0  0
 22 23  1  0  0  0  0
 23 55  1  0  0  0  0
 23 56  1  0  0  0  0
 23 57  1  0  0  0  0
M  END
> <PUBCHEM_COMPOUND_CID>
518597
> <PUBCHEM_COMPOUND_CANONICALIZED>
1
> <PUBCHEM_CACTVS_COMPLEXITY>
486
> <PUBCHEM_CACTVS_HBOND_ACCEPTOR>
2
> <PUBCHEM_CACTVS_HBOND_DONOR>
0
> <PUBCHEM_CACTVS_ROTATABLE_BOND>
2
> <PUBCHEM_CACTVS_SUBSKEYS>
AAADcfB4MAAAAAAAAAAAAAAAAAAAAYAAAAAwYMAAAAAAAGDAAAAAGgAAAAAADxSggAICCAAABAAIAACQCAAAAAAAAAAAAAAAAAAAAAIAAAACAAAEAAAAAAGAwPAPgAAAAAAAAACAAAQAACAAAIAADAAAAA==
> <PUBCHEM_IUPAC_OPENEYE_NAME>
(10,13-dimethyl-2,3,4,5,6,7,8,9,11,12,14,15,16,17-tetradecahydro-1H-cyclopenta[a]phenanthren-17-yl) acetate
> <PUBCHEM_IUPAC_CAS_NAME>
acetic acid (10,13-dimethyl-2,3,4,5,6,7,8,9,11,12,14,15,16,17-tetradecahydro-1H-cyclopenta[a]phenanthren-17-yl) ester
> <PUBCHEM_IUPAC_NAME_MARKUP>
(10,13-dimethyl-2,3,4,5,6,7,8,9,11,12,14,15,16,17-tetradecahydro-1<I>H</I>-cyclopenta[a]phenanthren-17-yl) acetate
> <PUBCHEM_IUPAC_NAME>
(10,13-dimethyl-2,3,4,5,6,7,8,9,11,12,14,15,16,17-tetradecahydro-1H-cyclopenta[a]phenanthren-17-yl) acetate
> <PUBCHEM_IUPAC_SYSTEMATIC_NAME>
(10,13-dimethyl-2,3,4,5,6,7,8,9,11,12,14,15,16,17-tetradecahydro-1H-cyclopenta[a]phenanthren-17-yl) ethanoate
> <PUBCHEM_IUPAC_TRADITIONAL_NAME>
acetic acid (10,13-dimethyl-2,3,4,5,6,7,8,9,11,12,14,15,16,17-tetradecahydro-1H-cyclopenta[a]phenanthren-17-yl) ester
> <PUBCHEM_IUPAC_INCHI>
InChI=1S/C21H34O2/c1-14(22)23-19-10-9-17-16-8-7-15-6-4-5-12-20(15,2)18(16)11-13-21(17,19)3/h15-19H,4-13H2,1-3H3
> <PUBCHEM_IUPAC_INCHIKEY>
QRRJQHVSHGOFLL-UHFFFAOYSA-N
> <PUBCHEM_XLOGP3_AA>
6.5
> <PUBCHEM_EXACT_MASS>
318.255880323
> <PUBCHEM_MOLECULAR_FORMULA>
C21H34O2
> <PUBCHEM_MOLECULAR_WEIGHT>
318.5
> <PUBCHEM_OPENEYE_CAN_SMILES>
CC(=O)OC1CCC2C1(CCC3C2CCC4C3(CCCC4)C)C
> <PUBCHEM_OPENEYE_ISO_SMILES>
CC(=O)OC1CCC2C1(CCC3C2CCC4C3(CCCC4)C)C
> <PUBCHEM_CACTVS_TPSA>
26.3
> <PUBCHEM_MONOISOTOPIC_WEIGHT>
318.255880323
> <PUBCHEM_TOTAL_CHARGE>
0
> <PUBCHEM_HEAVY_ATOM_COUNT>
23
> <PUBCHEM_ATOM_DEF_STEREO_COUNT>
0
> <PUBCHEM_ATOM_UDEF_STEREO_COUNT>
7
> <PUBCHEM_BOND_DEF_STEREO_COUNT>
0
> <PUBCHEM_BOND_UDEF_STEREO_COUNT>
0
> <PUBCHEM_ISOTOPIC_ATOM_COUNT>
0
> <PUBCHEM_COMPONENT_COUNT>
1
> <PUBCHEM_CACTVS_TAUTO_COUNT>
-1
> <PUBCHEM_COORDINATE_TYPE>
1
5
255
> <PUBCHEM_BONDANNOTATIONS>
12  1  3
3  9  3
4  11  3
5  13  3
6  18  3
7  19  3
8  17  3
$$$$
