518697
  -OEChem-10302200292D
 80 85  0     1  0  0  0  0  0999 V2000
    9.3042   -2.0697    0.0000 O   0  0  0  0  0  0  0  0  0  0  0  0
   10.7038   -0.5153    0.0000 O   0  0  0  0  0  0  0  0  0  0  0  0
    7.5596   -2.5737    0.0000 O   0  0  0  0  0  0  0  0  0  0  0  0
    6.2860   -1.3999    0.0000 O   0  0  0  0  0  0  0  0  0  0  0  0
   11.0574    1.1803    0.0000 O   0  0  0  0  0  0  0  0  0  0  0  0
   13.9533   -2.0776    0.0000 O   0  0  0  0  0  0  0  0  0  0  0  0
   14.6604    1.3136    0.0000 O   0  0  0  0  0  0  0  0  0  0  0  0
   15.2858   -0.5862    0.0000 O   0  0  0  0  0  0  0  0  0  0  0  0
    6.9654    2.1163    0.0000 N   0  0  3  0  0  0  0  0  0  0  0  0
    4.5124    0.9988    0.0000 N   0  0  0  0  0  0  0  0  0  0  0  0
    7.6200    0.1532    0.0000 C   0  0  3  0  0  0  0  0  0  0  0  0
    8.3170    0.9273    0.0000 C   0  0  3  0  0  0  0  0  0  0  0  0
    6.6028    0.3776    0.0000 C   0  0  0  0  0  0  0  0  0  0  0  0
    7.9393   -0.8837    0.0000 C   0  0  3  0  0  0  0  0  0  0  0  0
    6.2962    1.3731    0.0000 C   0  0  3  0  0  0  0  0  0  0  0  0
    7.9875    1.9154    0.0000 C   0  0  0  0  0  0  0  0  0  0  0  0
    9.3816    0.7181    0.0000 C   0  0  0  0  0  0  0  0  0  0  0  0
    8.9988   -1.1175    0.0000 C   0  0  3  0  0  0  0  0  0  0  0  0
    9.7248   -0.3112    0.0000 C   0  0  3  0  0  0  0  0  0  0  0  0
    5.3181    1.5810    0.0000 C   0  0  0  0  0  0  0  0  0  0  0  0
    6.6564    3.0673    0.0000 C   0  0  0  0  0  0  0  0  0  0  0  0
    5.6782    3.2752    0.0000 C   0  0  0  0  0  0  0  0  0  0  0  0
    5.0091    2.5321    0.0000 C   0  0  0  0  0  0  0  0  0  0  0  0
    7.2616   -1.6191    0.0000 C   0  0  0  0  0  0  0  0  0  0  0  0
    4.0150    2.5295    0.0000 C   0  0  0  0  0  0  0  0  0  0  0  0
    3.7086    1.5838    0.0000 C   0  0  0  0  0  0  0  0  0  0  0  0
   10.2815   -2.2814    0.0000 C   0  0  0  0  0  0  0  0  0  0  0  0
    3.3334    3.3090    0.0000 C   0  0  0  0  0  0  0  0  0  0  0  0
   11.3700    0.2304    0.0000 C   0  0  0  0  0  0  0  0  0  0  0  0
    2.6994    1.3521    0.0000 C   0  0  0  0  0  0  0  0  0  0  0  0
    2.3191    3.1007    0.0000 C   0  0  0  0  0  0  0  0  0  0  0  0
    6.8820   -3.3090    0.0000 C   0  0  0  0  0  0  0  0  0  0  0  0
    2.0000    2.1156    0.0000 C   0  0  0  0  0  0  0  0  0  0  0  0
   12.3490    0.0263    0.0000 C   0  0  0  0  0  0  0  0  0  0  0  0
   13.0152    0.7720    0.0000 C   0  0  0  0  0  0  0  0  0  0  0  0
   12.6617   -0.9236    0.0000 C   0  0  0  0  0  0  0  0  0  0  0  0
   13.6406   -1.1277    0.0000 C   0  0  0  0  0  0  0  0  0  0  0  0
   13.9942    0.5678    0.0000 C   0  0  0  0  0  0  0  0  0  0  0  0
   14.3069   -0.3820    0.0000 C   0  0  0  0  0  0  0  0  0  0  0  0
   13.2870   -2.8233    0.0000 C   0  0  0  0  0  0  0  0  0  0  0  0
   14.3478    2.2634    0.0000 C   0  0  0  0  0  0  0  0  0  0  0  0
   15.9521    0.1596    0.0000 C   0  0  0  0  0  0  0  0  0  0  0  0
    7.1998   -0.3027    0.0000 H   0  0  0  0  0  0  0  0  0  0  0  0
    8.7265    1.3928    0.0000 H   0  0  0  0  0  0  0  0  0  0  0  0
    5.9878    0.2992    0.0000 H   0  0  0  0  0  0  0  0  0  0  0  0
    6.5748   -0.2417    0.0000 H   0  0  0  0  0  0  0  0  0  0  0  0
    7.3346   -0.7467    0.0000 H   0  0  0  0  0  0  0  0  0  0  0  0
    5.8778    0.9156    0.0000 H   0  0  0  0  0  0  0  0  0  0  0  0
    8.6005    2.0080    0.0000 H   0  0  0  0  0  0  0  0  0  0  0  0
    8.0011    2.5353    0.0000 H   0  0  0  0  0  0  0  0  0  0  0  0
    9.9946    0.8107    0.0000 H   0  0  0  0  0  0  0  0  0  0  0  0
    9.3953    1.3380    0.0000 H   0  0  0  0  0  0  0  0  0  0  0  0
    9.6050   -1.2476    0.0000 H   0  0  0  0  0  0  0  0  0  0  0  0
    9.9176   -0.9005    0.0000 H   0  0  0  0  0  0  0  0  0  0  0  0
    7.2703    3.1536    0.0000 H   0  0  0  0  0  0  0  0  0  0  0  0
    6.6780    3.6869    0.0000 H   0  0  0  0  0  0  0  0  0  0  0  0
    5.9105    3.8501    0.0000 H   0  0  0  0  0  0  0  0  0  0  0  0
    5.1524    3.6038    0.0000 H   0  0  0  0  0  0  0  0  0  0  0  0
    4.5113    0.3788    0.0000 H   0  0  0  0  0  0  0  0  0  0  0  0
   10.1503   -2.8874    0.0000 H   0  0  0  0  0  0  0  0  0  0  0  0
   10.8875   -2.4127    0.0000 H   0  0  0  0  0  0  0  0  0  0  0  0
   10.4128   -1.6755    0.0000 H   0  0  0  0  0  0  0  0  0  0  0  0
    3.5313    3.8966    0.0000 H   0  0  0  0  0  0  0  0  0  0  0  0
    2.5152    0.7601    0.0000 H   0  0  0  0  0  0  0  0  0  0  0  0
    1.9056    3.5626    0.0000 H   0  0  0  0  0  0  0  0  0  0  0  0
    6.4260   -2.8888    0.0000 H   0  0  0  0  0  0  0  0  0  0  0  0
    6.4618   -3.7649    0.0000 H   0  0  0  0  0  0  0  0  0  0  0  0
    7.3379   -3.7292    0.0000 H   0  0  0  0  0  0  0  0  0  0  0  0
    1.3942    1.9838    0.0000 H   0  0  0  0  0  0  0  0  0  0  0  0
   12.8214    1.3609    0.0000 H   0  0  0  0  0  0  0  0  0  0  0  0
   12.2486   -1.3859    0.0000 H   0  0  0  0  0  0  0  0  0  0  0  0
   12.8247   -2.4102    0.0000 H   0  0  0  0  0  0  0  0  0  0  0  0
   12.8739   -3.2857    0.0000 H   0  0  0  0  0  0  0  0  0  0  0  0
   13.7494   -3.2364    0.0000 H   0  0  0  0  0  0  0  0  0  0  0  0
   14.9367    2.4573    0.0000 H   0  0  0  0  0  0  0  0  0  0  0  0
   14.1539    2.8523    0.0000 H   0  0  0  0  0  0  0  0  0  0  0  0
   13.7588    2.0696    0.0000 H   0  0  0  0  0  0  0  0  0  0  0  0
   16.4144   -0.2535    0.0000 H   0  0  0  0  0  0  0  0  0  0  0  0
   16.3651    0.6219    0.0000 H   0  0  0  0  0  0  0  0  0  0  0  0
   15.4897    0.5726    0.0000 H   0  0  0  0  0  0  0  0  0  0  0  0
  1 18  1  0  0  0  0
  1 27  1  0  0  0  0
  2 19  1  0  0  0  0
  2 29  1  0  0  0  0
  3 24  1  0  0  0  0
  3 32  1  0  0  0  0
  4 24  2  0  0  0  0
  5 29  2  0  0  0  0
  6 37  1  0  0  0  0
  6 40  1  0  0  0  0
  7 38  1  0  0  0  0
  7 41  1  0  0  0  0
  8 39  1  0  0  0  0
  8 42  1  0  0  0  0
  9 15  1  0  0  0  0
  9 16  1  0  0  0  0
  9 21  1  0  0  0  0
 10 20  1  0  0  0  0
 10 26  1  0  0  0  0
 10 59  1  0  0  0  0
 11 12  1  0  0  0  0
 11 13  1  0  0  0  0
 11 14  1  0  0  0  0
 11 43  1  0  0  0  0
 12 16  1  0  0  0  0
 12 17  1  0  0  0  0
 12 44  1  0  0  0  0
 13 15  1  0  0  0  0
 13 45  1  0  0  0  0
 13 46  1  0  0  0  0
 14 18  1  0  0  0  0
 14 24  1  0  0  0  0
 14 47  1  0  0  0  0
 15 20  1  0  0  0  0
 15 48  1  0  0  0  0
 16 49  1  0  0  0  0
 16 50  1  0  0  0  0
 17 19  1  0  0  0  0
 17 51  1  0  0  0  0
 17 52  1  0  0  0  0
 18 19  1  0  0  0  0
 18 53  1  0  0  0  0
 19 54  1  0  0  0  0
 20 23  2  0  0  0  0
 21 22  1  0  0  0  0
 21 55  1  0  0  0  0
 21 56  1  0  0  0  0
 22 23  1  0  0  0  0
 22 57  1  0  0  0  0
 22 58  1  0  0  0  0
 23 25  1  0  0  0  0
 25 26  1  0  0  0  0
 25 28  2  0  0  0  0
 26 30  2  0  0  0  0
 27 60  1  0  0  0  0
 27 61  1  0  0  0  0
 27 62  1  0  0  0  0
 28 31  1  0  0  0  0
 28 63  1  0  0  0  0
 29 34  1  0  0  0  0
 30 33  1  0  0  0  0
 30 64  1  0  0  0  0
 31 33  2  0  0  0  0
 31 65  1  0  0  0  0
 32 66  1  0  0  0  0
 32 67  1  0  0  0  0
 32 68  1  0  0  0  0
 33 69  1  0  0  0  0
 34 35  2  0  0  0  0
 34 36  1  0  0  0  0
 35 38  1  0  0  0  0
 35 70  1  0  0  0  0
 36 37  2  0  0  0  0
 36 71  1  0  0  0  0
 37 39  1  0  0  0  0
 38 39  2  0  0  0  0
 40 72  1  0  0  0  0
 40 73  1  0  0  0  0
 40 74  1  0  0  0  0
 41 75  1  0  0  0  0
 41 76  1  0  0  0  0
 41 77  1  0  0  0  0
 42 78  1  0  0  0  0
 42 79  1  0  0  0  0
 42 80  1  0  0  0  0
M  END
> <PUBCHEM_COMPOUND_CID>
518697
> <PUBCHEM_COMPOUND_CANONICALIZED>
1
> <PUBCHEM_CACTVS_COMPLEXITY>
953
> <PUBCHEM_CACTVS_HBOND_ACCEPTOR>
9
> <PUBCHEM_CACTVS_HBOND_DONOR>
1
> <PUBCHEM_CACTVS_ROTATABLE_BOND>
9
> <PUBCHEM_CACTVS_SUBSKEYS>
AAADcfB/PAAAAAAAAAAAAAAAAAAAAWAAAAA8eMECAAAAAFix9AAAHgAQAAAADTzhngYyzvPJlACoAyTyTACCiCAlIiAImSE+7NgNZ/bEtZuWMSpl8BXK6Yf6/f/eoAABCAACQABAAAYQADSAAAAAAAAAAA==
> <PUBCHEM_IUPAC_OPENEYE_NAME>
methyl 18-methoxy-17-(3,4,5-trimethoxybenzoyl)oxy-1,3,11,12,14,15,16,17,18,19,20,21-dodecahydroyohimban-19-carboxylate
> <PUBCHEM_IUPAC_CAS_NAME>
18-methoxy-17-[oxo-(3,4,5-trimethoxyphenyl)methoxy]-1,3,11,12,14,15,16,17,18,19,20,21-dodecahydroyohimban-19-carboxylic acid methyl ester
> <PUBCHEM_IUPAC_NAME_MARKUP>
methyl 18-methoxy-17-(3,4,5-trimethoxybenzoyl)oxy-1,3,11,12,14,15,16,17,18,19,20,21-dodecahydroyohimban-19-carboxylate
> <PUBCHEM_IUPAC_NAME>
methyl 18-methoxy-17-(3,4,5-trimethoxybenzoyl)oxy-1,3,11,12,14,15,16,17,18,19,20,21-dodecahydroyohimban-19-carboxylate
> <PUBCHEM_IUPAC_SYSTEMATIC_NAME>
methyl 18-methoxy-17-(3,4,5-trimethoxyphenyl)carbonyloxy-1,3,11,12,14,15,16,17,18,19,20,21-dodecahydroyohimban-19-carboxylate
> <PUBCHEM_IUPAC_TRADITIONAL_NAME>
18-methoxy-17-(3,4,5-trimethoxybenzoyl)oxy-1,3,11,12,14,15,16,17,18,19,20,21-dodecahydroyohimban-19-carboxylic acid methyl ester
> <PUBCHEM_IUPAC_INCHI>
InChI=1S/C32H38N2O8/c1-37-24-12-17(13-25(38-2)29(24)39-3)31(35)42-26-14-18-16-34-11-10-20-19-8-6-7-9-22(19)33-28(20)23(34)15-21(18)27(30(26)40-4)32(36)41-5/h6-9,12-13,18,21,23,26-27,30,33H,10-11,14-16H2,1-5H3
> <PUBCHEM_IUPAC_INCHIKEY>
CVBMAZKKCSYWQR-UHFFFAOYSA-N
> <PUBCHEM_XLOGP3>
4.1
> <PUBCHEM_EXACT_MASS>
578.26281617
> <PUBCHEM_MOLECULAR_FORMULA>
C32H38N2O8
> <PUBCHEM_MOLECULAR_WEIGHT>
578.7
> <PUBCHEM_OPENEYE_CAN_SMILES>
COC1C(CC2CN3CCC4=C(C3CC2C1C(=O)OC)NC5=CC=CC=C45)OC(=O)C6=CC(=C(C(=C6)OC)OC)OC
> <PUBCHEM_OPENEYE_ISO_SMILES>
COC1C(CC2CN3CCC4=C(C3CC2C1C(=O)OC)NC5=CC=CC=C45)OC(=O)C6=CC(=C(C(=C6)OC)OC)OC
> <PUBCHEM_CACTVS_TPSA>
109
> <PUBCHEM_MONOISOTOPIC_WEIGHT>
578.26281617
> <PUBCHEM_TOTAL_CHARGE>
0
> <PUBCHEM_HEAVY_ATOM_COUNT>
42
> <PUBCHEM_ATOM_DEF_STEREO_COUNT>
0
> <PUBCHEM_ATOM_UDEF_STEREO_COUNT>
6
> <PUBCHEM_BOND_DEF_STEREO_COUNT>
0
> <PUBCHEM_BOND_UDEF_STEREO_COUNT>
0
> <PUBCHEM_ISOTOPIC_ATOM_COUNT>
0
> <PUBCHEM_COMPONENT_COUNT>
1
> <PUBCHEM_CACTVS_TAUTO_COUNT>
-1
> <PUBCHEM_COORDINATE_TYPE>
1
5
255
> <PUBCHEM_BONDANNOTATIONS>
18  1  3
10  20  8
10  26  8
11  13  3
12  17  3
15  13  3
14  24  3
19  2  3
20  23  8
23  25  8
25  26  8
25  28  8
26  30  8
28  31  8
30  33  8
31  33  8
34  35  8
34  36  8
35  38  8
36  37  8
37  39  8
38  39  8
$$$$
