518683
  -OEChem-10302200292D
 92 93  0     1  0  0  0  0  0999 V2000
   19.1865    0.7306    0.0000 O   0  0  0  0  0  0  0  0  0  0  0  0
   20.1865   -0.2694    0.0000 O   0  0  0  0  0  0  0  0  0  0  0  0
   18.4545   -0.2694    0.0000 O   0  0  0  0  0  0  0  0  0  0  0  0
   21.4466    1.9906    0.0000 O   0  0  0  0  0  0  0  0  0  0  0  0
   19.6865    3.2694    0.0000 O   0  0  0  0  0  0  0  0  0  0  0  0
   20.1865   -2.2694    0.0000 O   0  0  0  0  0  0  0  0  0  0  0  0
   18.4545   -3.2694    0.0000 O   0  0  0  0  0  0  0  0  0  0  0  0
   16.7224   -2.2694    0.0000 O   0  0  0  0  0  0  0  0  0  0  0  0
   21.8807    1.0907    0.0000 O   0  0  0  0  0  0  0  0  0  0  0  0
   17.7185    2.9688    0.0000 O   0  0  0  0  0  0  0  0  0  0  0  0
   15.8564   -0.7694    0.0000 O   0  0  0  0  0  0  0  0  0  0  0  0
   14.9904    0.7306    0.0000 O   0  0  0  0  0  0  0  0  0  0  0  0
   20.1865    0.7306    0.0000 C   0  0  3  0  0  0  0  0  0  0  0  0
   20.4956    1.6816    0.0000 C   0  0  3  0  0  0  0  0  0  0  0  0
   19.6865    2.2694    0.0000 C   0  0  3  0  0  0  0  0  0  0  0  0
   18.8775    1.6816    0.0000 C   0  0  3  0  0  0  0  0  0  0  0  0
   19.3205   -0.7694    0.0000 C   0  0  3  0  0  0  0  0  0  0  0  0
   19.3205   -1.7694    0.0000 C   0  0  3  0  0  0  0  0  0  0  0  0
   18.4545   -2.2694    0.0000 C   0  0  3  0  0  0  0  0  0  0  0  0
   17.5885   -1.7694    0.0000 C   0  0  3  0  0  0  0  0  0  0  0  0
   17.5885   -0.7694    0.0000 C   0  0  3  0  0  0  0  0  0  0  0  0
   21.1376    0.4216    0.0000 C   0  0  0  0  0  0  0  0  0  0  0  0
   17.9265    1.9906    0.0000 C   0  0  0  0  0  0  0  0  0  0  0  0
   16.7224   -0.2694    0.0000 C   0  0  0  0  0  0  0  0  0  0  0  0
   14.9904   -0.2694    0.0000 C   0  0  0  0  0  0  0  0  0  0  0  0
   14.1244   -0.7694    0.0000 C   0  0  0  0  0  0  0  0  0  0  0  0
   13.2583   -0.2694    0.0000 C   0  0  0  0  0  0  0  0  0  0  0  0
   12.3923   -0.7694    0.0000 C   0  0  0  0  0  0  0  0  0  0  0  0
   11.5263   -0.2694    0.0000 C   0  0  0  0  0  0  0  0  0  0  0  0
   10.6603   -0.7694    0.0000 C   0  0  0  0  0  0  0  0  0  0  0  0
    9.7942   -0.2694    0.0000 C   0  0  0  0  0  0  0  0  0  0  0  0
    8.9282   -0.7694    0.0000 C   0  0  0  0  0  0  0  0  0  0  0  0
    8.0622   -0.2694    0.0000 C   0  0  0  0  0  0  0  0  0  0  0  0
    7.1962   -0.7694    0.0000 C   0  0  0  0  0  0  0  0  0  0  0  0
    6.3301   -0.2694    0.0000 C   0  0  0  0  0  0  0  0  0  0  0  0
    5.4641   -0.7694    0.0000 C   0  0  0  0  0  0  0  0  0  0  0  0
    4.5981   -0.2694    0.0000 C   0  0  0  0  0  0  0  0  0  0  0  0
    3.7320   -0.7694    0.0000 C   0  0  0  0  0  0  0  0  0  0  0  0
    2.8660   -0.2694    0.0000 C   0  0  0  0  0  0  0  0  0  0  0  0
    2.0000   -0.7694    0.0000 C   0  0  0  0  0  0  0  0  0  0  0  0
   20.5925    2.2940    0.0000 H   0  0  0  0  0  0  0  0  0  0  0  0
   20.2390    2.5509    0.0000 H   0  0  0  0  0  0  0  0  0  0  0  0
   18.4391    1.2432    0.0000 H   0  0  0  0  0  0  0  0  0  0  0  0
   19.8574   -1.0794    0.0000 H   0  0  0  0  0  0  0  0  0  0  0  0
   19.3205   -2.3894    0.0000 H   0  0  0  0  0  0  0  0  0  0  0  0
   17.9175   -2.5794    0.0000 H   0  0  0  0  0  0  0  0  0  0  0  0
   17.5885   -2.3894    0.0000 H   0  0  0  0  0  0  0  0  0  0  0  0
   17.5885   -0.1494    0.0000 H   0  0  0  0  0  0  0  0  0  0  0  0
   20.8465   -0.1259    0.0000 H   0  0  0  0  0  0  0  0  0  0  0  0
   21.6262    0.0399    0.0000 H   0  0  0  0  0  0  0  0  0  0  0  0
   17.3068    1.9690    0.0000 H   0  0  0  0  0  0  0  0  0  0  0  0
   17.8402    1.3767    0.0000 H   0  0  0  0  0  0  0  0  0  0  0  0
   17.1210    0.2055    0.0000 H   0  0  0  0  0  0  0  0  0  0  0  0
   16.3239    0.2055    0.0000 H   0  0  0  0  0  0  0  0  0  0  0  0
   21.5755    2.5971    0.0000 H   0  0  0  0  0  0  0  0  0  0  0  0
   20.2235    3.5794    0.0000 H   0  0  0  0  0  0  0  0  0  0  0  0
   20.1865   -2.8894    0.0000 H   0  0  0  0  0  0  0  0  0  0  0  0
   17.9175   -3.5794    0.0000 H   0  0  0  0  0  0  0  0  0  0  0  0
   16.7224   -2.8894    0.0000 H   0  0  0  0  0  0  0  0  0  0  0  0
   22.4704    0.8991    0.0000 H   0  0  0  0  0  0  0  0  0  0  0  0
   17.1289    3.1604    0.0000 H   0  0  0  0  0  0  0  0  0  0  0  0
   13.7258   -1.2444    0.0000 H   0  0  0  0  0  0  0  0  0  0  0  0
   14.5229   -1.2444    0.0000 H   0  0  0  0  0  0  0  0  0  0  0  0
   13.6569    0.2055    0.0000 H   0  0  0  0  0  0  0  0  0  0  0  0
   12.8598    0.2055    0.0000 H   0  0  0  0  0  0  0  0  0  0  0  0
   11.9938   -1.2444    0.0000 H   0  0  0  0  0  0  0  0  0  0  0  0
   12.7908   -1.2444    0.0000 H   0  0  0  0  0  0  0  0  0  0  0  0
   11.9248    0.2055    0.0000 H   0  0  0  0  0  0  0  0  0  0  0  0
   11.1278    0.2055    0.0000 H   0  0  0  0  0  0  0  0  0  0  0  0
   10.2617   -1.2444    0.0000 H   0  0  0  0  0  0  0  0  0  0  0  0
   11.0588   -1.2444    0.0000 H   0  0  0  0  0  0  0  0  0  0  0  0
   10.1928    0.2055    0.0000 H   0  0  0  0  0  0  0  0  0  0  0  0
    9.3957    0.2055    0.0000 H   0  0  0  0  0  0  0  0  0  0  0  0
    8.5297   -1.2444    0.0000 H   0  0  0  0  0  0  0  0  0  0  0  0
    9.3267   -1.2444    0.0000 H   0  0  0  0  0  0  0  0  0  0  0  0
    8.4607    0.2055    0.0000 H   0  0  0  0  0  0  0  0  0  0  0  0
    7.6636    0.2055    0.0000 H   0  0  0  0  0  0  0  0  0  0  0  0
    6.7976   -1.2444    0.0000 H   0  0  0  0  0  0  0  0  0  0  0  0
    7.5947   -1.2444    0.0000 H   0  0  0  0  0  0  0  0  0  0  0  0
    6.7287    0.2055    0.0000 H   0  0  0  0  0  0  0  0  0  0  0  0
    5.9316    0.2055    0.0000 H   0  0  0  0  0  0  0  0  0  0  0  0
    5.0656   -1.2444    0.0000 H   0  0  0  0  0  0  0  0  0  0  0  0
    5.8626   -1.2444    0.0000 H   0  0  0  0  0  0  0  0  0  0  0  0
    4.9966    0.2055    0.0000 H   0  0  0  0  0  0  0  0  0  0  0  0
    4.1996    0.2055    0.0000 H   0  0  0  0  0  0  0  0  0  0  0  0
    3.3335   -1.2444    0.0000 H   0  0  0  0  0  0  0  0  0  0  0  0
    4.1306   -1.2444    0.0000 H   0  0  0  0  0  0  0  0  0  0  0  0
    3.2646    0.2055    0.0000 H   0  0  0  0  0  0  0  0  0  0  0  0
    2.4675    0.2055    0.0000 H   0  0  0  0  0  0  0  0  0  0  0  0
    1.6900   -0.2325    0.0000 H   0  0  0  0  0  0  0  0  0  0  0  0
    1.4631   -1.0794    0.0000 H   0  0  0  0  0  0  0  0  0  0  0  0
    2.3100   -1.3064    0.0000 H   0  0  0  0  0  0  0  0  0  0  0  0
  1 13  1  0  0  0  0
  1 16  1  0  0  0  0
  2 13  1  0  0  0  0
  2 17  1  0  0  0  0
  3 17  1  0  0  0  0
  3 21  1  0  0  0  0
  4 14  1  0  0  0  0
  4 55  1  0  0  0  0
  5 15  1  0  0  0  0
  5 56  1  0  0  0  0
  6 18  1  0  0  0  0
  6 57  1  0  0  0  0
  7 19  1  0  0  0  0
  7 58  1  0  0  0  0
  8 20  1  0  0  0  0
  8 59  1  0  0  0  0
  9 22  1  0  0  0  0
  9 60  1  0  0  0  0
 10 23  1  0  0  0  0
 10 61  1  0  0  0  0
 11 24  1  0  0  0  0
 11 25  1  0  0  0  0
 12 25  2  0  0  0  0
 13 14  1  0  0  0  0
 13 22  1  0  0  0  0
 14 15  1  0  0  0  0
 14 41  1  0  0  0  0
 15 16  1  0  0  0  0
 15 42  1  0  0  0  0
 16 23  1  0  0  0  0
 16 43  1  0  0  0  0
 17 18  1  0  0  0  0
 17 44  1  0  0  0  0
 18 19  1  0  0  0  0
 18 45  1  0  0  0  0
 19 20  1  0  0  0  0
 19 46  1  0  0  0  0
 20 21  1  0  0  0  0
 20 47  1  0  0  0  0
 21 24  1  0  0  0  0
 21 48  1  0  0  0  0
 22 49  1  0  0  0  0
 22 50  1  0  0  0  0
 23 51  1  0  0  0  0
 23 52  1  0  0  0  0
 24 53  1  0  0  0  0
 24 54  1  0  0  0  0
 25 26  1  0  0  0  0
 26 27  1  0  0  0  0
 26 62  1  0  0  0  0
 26 63  1  0  0  0  0
 27 28  1  0  0  0  0
 27 64  1  0  0  0  0
 27 65  1  0  0  0  0
 28 29  1  0  0  0  0
 28 66  1  0  0  0  0
 28 67  1  0  0  0  0
 29 30  1  0  0  0  0
 29 68  1  0  0  0  0
 29 69  1  0  0  0  0
 30 31  1  0  0  0  0
 30 70  1  0  0  0  0
 30 71  1  0  0  0  0
 31 32  1  0  0  0  0
 31 72  1  0  0  0  0
 31 73  1  0  0  0  0
 32 33  1  0  0  0  0
 32 74  1  0  0  0  0
 32 75  1  0  0  0  0
 33 34  1  0  0  0  0
 33 76  1  0  0  0  0
 33 77  1  0  0  0  0
 34 35  1  0  0  0  0
 34 78  1  0  0  0  0
 34 79  1  0  0  0  0
 35 36  1  0  0  0  0
 35 80  1  0  0  0  0
 35 81  1  0  0  0  0
 36 37  1  0  0  0  0
 36 82  1  0  0  0  0
 36 83  1  0  0  0  0
 37 38  1  0  0  0  0
 37 84  1  0  0  0  0
 37 85  1  0  0  0  0
 38 39  1  0  0  0  0
 38 86  1  0  0  0  0
 38 87  1  0  0  0  0
 39 40  1  0  0  0  0
 39 88  1  0  0  0  0
 39 89  1  0  0  0  0
 40 90  1  0  0  0  0
 40 91  1  0  0  0  0
 40 92  1  0  0  0  0
M  END
> <PUBCHEM_COMPOUND_CID>
518683
> <PUBCHEM_COMPOUND_CANONICALIZED>
1
> <PUBCHEM_CACTVS_COMPLEXITY>
696
> <PUBCHEM_CACTVS_HBOND_ACCEPTOR>
12
> <PUBCHEM_CACTVS_HBOND_DONOR>
7
> <PUBCHEM_CACTVS_ROTATABLE_BOND>
21
> <PUBCHEM_CACTVS_SUBSKEYS>
AAADcfB4PAAAAAAAAAAAAAAAAAAAASAAAAAkAAAAAAAAAAAAAAAAGgAACAAACBSwgAMCCAAABgAIAACQCAAAAAAAAAAAAAEAAAAREBIAAAAiQAAFAAAHAAHI6KyAAAAAAAAAAAAAAAAAAAAAAAAAAAAAAA==
> <PUBCHEM_IUPAC_OPENEYE_NAME>
[6-[3,4-dihydroxy-2,5-bis(hydroxymethyl)tetrahydrofuran-2-yl]oxy-3,4,5-trihydroxy-tetrahydropyran-2-yl]methyl hexadecanoate
> <PUBCHEM_IUPAC_CAS_NAME>
hexadecanoic acid [6-[[3,4-dihydroxy-2,5-bis(hydroxymethyl)-2-oxolanyl]oxy]-3,4,5-trihydroxy-2-oxanyl]methyl ester
> <PUBCHEM_IUPAC_NAME_MARKUP>
[6-[3,4-dihydroxy-2,5-bis(hydroxymethyl)oxolan-2-yl]oxy-3,4,5-trihydroxyoxan-2-yl]methyl hexadecanoate
> <PUBCHEM_IUPAC_NAME>
[6-[3,4-dihydroxy-2,5-bis(hydroxymethyl)oxolan-2-yl]oxy-3,4,5-trihydroxyoxan-2-yl]methyl hexadecanoate
> <PUBCHEM_IUPAC_SYSTEMATIC_NAME>
[6-[2,5-bis(hydroxymethyl)-3,4-bis(oxidanyl)oxolan-2-yl]oxy-3,4,5-tris(oxidanyl)oxan-2-yl]methyl hexadecanoate
> <PUBCHEM_IUPAC_TRADITIONAL_NAME>
palmitic acid [6-(3,4-dihydroxy-2,5-dimethylol-tetrahydrofuran-2-yl)oxy-3,4,5-trihydroxy-tetrahydropyran-2-yl]methyl ester
> <PUBCHEM_IUPAC_INCHI>
InChI=1S/C28H52O12/c1-2-3-4-5-6-7-8-9-10-11-12-13-14-15-21(31)37-17-20-22(32)24(34)25(35)27(38-20)40-28(18-30)26(36)23(33)19(16-29)39-28/h19-20,22-27,29-30,32-36H,2-18H2,1H3
> <PUBCHEM_IUPAC_INCHIKEY>
XYFGTTCGHCGTDZ-UHFFFAOYSA-N
> <PUBCHEM_XLOGP3>
3.6
> <PUBCHEM_EXACT_MASS>
580.34587709
> <PUBCHEM_MOLECULAR_FORMULA>
C28H52O12
> <PUBCHEM_MOLECULAR_WEIGHT>
580.7
> <PUBCHEM_OPENEYE_CAN_SMILES>
CCCCCCCCCCCCCCCC(=O)OCC1C(C(C(C(O1)OC2(C(C(C(O2)CO)O)O)CO)O)O)O
> <PUBCHEM_OPENEYE_ISO_SMILES>
CCCCCCCCCCCCCCCC(=O)OCC1C(C(C(C(O1)OC2(C(C(C(O2)CO)O)O)CO)O)O)O
> <PUBCHEM_CACTVS_TPSA>
196
> <PUBCHEM_MONOISOTOPIC_WEIGHT>
580.34587709
> <PUBCHEM_TOTAL_CHARGE>
0
> <PUBCHEM_HEAVY_ATOM_COUNT>
40
> <PUBCHEM_ATOM_DEF_STEREO_COUNT>
0
> <PUBCHEM_ATOM_UDEF_STEREO_COUNT>
9
> <PUBCHEM_BOND_DEF_STEREO_COUNT>
0
> <PUBCHEM_BOND_UDEF_STEREO_COUNT>
0
> <PUBCHEM_ISOTOPIC_ATOM_COUNT>
0
> <PUBCHEM_COMPONENT_COUNT>
1
> <PUBCHEM_CACTVS_TAUTO_COUNT>
-1
> <PUBCHEM_COORDINATE_TYPE>
1
5
255
> <PUBCHEM_BONDANNOTATIONS>
13  22  3
16  23  3
17  2  3
21  24  3
14  4  3
15  5  3
18  6  3
19  7  3
20  8  3
$$$$
