518659
  -OEChem-10302200292D
 21 20  0     1  0  0  0  0  0999 V2000
    7.1962    1.1830    0.0000 Cl  0  0  0  0  0  0  0  0  0  0  0  0
    3.7320    1.1830    0.0000 Cl  0  0  0  0  0  0  0  0  0  0  0  0
    8.9282   -0.8170    0.0000 Cl  0  0  0  0  0  0  0  0  0  0  0  0
    8.5622    0.5490    0.0000 Cl  0  0  0  0  0  0  0  0  0  0  0  0
    7.5622   -1.1830    0.0000 Cl  0  0  0  0  0  0  0  0  0  0  0  0
    2.0000   -0.8170    0.0000 Cl  0  0  0  0  0  0  0  0  0  0  0  0
    2.3660    0.5490    0.0000 Cl  0  0  0  0  0  0  0  0  0  0  0  0
    3.3660   -1.1830    0.0000 Cl  0  0  0  0  0  0  0  0  0  0  0  0
    5.4641    0.1830    0.0000 O   0  0  0  0  0  0  0  0  0  0  0  0
    6.3301   -0.3170    0.0000 C   0  0  0  0  0  0  0  0  0  0  0  0
    4.5981   -0.3170    0.0000 C   0  0  0  0  0  0  0  0  0  0  0  0
    7.1962    0.1830    0.0000 C   0  0  3  0  0  0  0  0  0  0  0  0
    3.7320    0.1830    0.0000 C   0  0  3  0  0  0  0  0  0  0  0  0
    8.0622   -0.3170    0.0000 C   0  0  0  0  0  0  0  0  0  0  0  0
    2.8660   -0.3170    0.0000 C   0  0  0  0  0  0  0  0  0  0  0  0
    5.9316   -0.7919    0.0000 H   0  0  0  0  0  0  0  0  0  0  0  0
    6.7287   -0.7919    0.0000 H   0  0  0  0  0  0  0  0  0  0  0  0
    4.1996   -0.7919    0.0000 H   0  0  0  0  0  0  0  0  0  0  0  0
    4.9966   -0.7919    0.0000 H   0  0  0  0  0  0  0  0  0  0  0  0
    6.6592    0.4930    0.0000 H   0  0  0  0  0  0  0  0  0  0  0  0
    4.2690    0.4930    0.0000 H   0  0  0  0  0  0  0  0  0  0  0  0
  1 12  1  0  0  0  0
  2 13  1  0  0  0  0
  3 14  1  0  0  0  0
  4 14  1  0  0  0  0
  5 14  1  0  0  0  0
  6 15  1  0  0  0  0
  7 15  1  0  0  0  0
  8 15  1  0  0  0  0
  9 10  1  0  0  0  0
  9 11  1  0  0  0  0
 10 12  1  0  0  0  0
 10 16  1  0  0  0  0
 10 17  1  0  0  0  0
 11 13  1  0  0  0  0
 11 18  1  0  0  0  0
 11 19  1  0  0  0  0
 12 14  1  0  0  0  0
 12 20  1  0  0  0  0
 13 15  1  0  0  0  0
 13 21  1  0  0  0  0
M  END
> <PUBCHEM_COMPOUND_CID>
518659
> <PUBCHEM_COMPOUND_CANONICALIZED>
1
> <PUBCHEM_CACTVS_COMPLEXITY>
165
> <PUBCHEM_CACTVS_HBOND_ACCEPTOR>
1
> <PUBCHEM_CACTVS_HBOND_DONOR>
0
> <PUBCHEM_CACTVS_ROTATABLE_BOND>
4
> <PUBCHEM_CACTVS_SUBSKEYS>
AAADcYBgIAAHgAAAAAAAAAAAAAAAAAAAAAAAAAAAAAAAAAAAAAAAGgIAAAAACAOggMIAAAAABAAAAAAAAAAAAAAAAAAAAEAAAwAAAAAAAAACAAAAAAAAAAAAAAAAAAAAAAAAAAAAAAAAAAAAAAAAAAAAAA==
> <PUBCHEM_IUPAC_OPENEYE_NAME>
1,1,1,2-tetrachloro-3-(2,3,3,3-tetrachloropropoxy)propane
> <PUBCHEM_IUPAC_CAS_NAME>
1,1,1,2-tetrachloro-3-(2,3,3,3-tetrachloropropoxy)propane
> <PUBCHEM_IUPAC_NAME_MARKUP>
1,1,1,2-tetrachloro-3-(2,3,3,3-tetrachloropropoxy)propane
> <PUBCHEM_IUPAC_NAME>
1,1,1,2-tetrachloro-3-(2,3,3,3-tetrachloropropoxy)propane
> <PUBCHEM_IUPAC_SYSTEMATIC_NAME>
1,1,1,2-tetrakis(chloranyl)-3-[2,3,3,3-tetrakis(chloranyl)propoxy]propane
> <PUBCHEM_IUPAC_TRADITIONAL_NAME>
1,1,1,2-tetrachloro-3-(2,3,3,3-tetrachloropropoxy)propane
> <PUBCHEM_IUPAC_INCHI>
InChI=1S/C6H6Cl8O/c7-3(5(9,10)11)1-15-2-4(8)6(12,13)14/h3-4H,1-2H2
> <PUBCHEM_IUPAC_INCHIKEY>
LNJXZKBHJZAIKQ-UHFFFAOYSA-N
> <PUBCHEM_XLOGP3_AA>
5.1
> <PUBCHEM_EXACT_MASS>
377.786786
> <PUBCHEM_MOLECULAR_FORMULA>
C6H6Cl8O
> <PUBCHEM_MOLECULAR_WEIGHT>
377.7
> <PUBCHEM_OPENEYE_CAN_SMILES>
C(C(C(Cl)(Cl)Cl)Cl)OCC(C(Cl)(Cl)Cl)Cl
> <PUBCHEM_OPENEYE_ISO_SMILES>
C(C(C(Cl)(Cl)Cl)Cl)OCC(C(Cl)(Cl)Cl)Cl
> <PUBCHEM_CACTVS_TPSA>
9.2
> <PUBCHEM_MONOISOTOPIC_WEIGHT>
373.792686
> <PUBCHEM_TOTAL_CHARGE>
0
> <PUBCHEM_HEAVY_ATOM_COUNT>
15
> <PUBCHEM_ATOM_DEF_STEREO_COUNT>
0
> <PUBCHEM_ATOM_UDEF_STEREO_COUNT>
2
> <PUBCHEM_BOND_DEF_STEREO_COUNT>
0
> <PUBCHEM_BOND_UDEF_STEREO_COUNT>
0
> <PUBCHEM_ISOTOPIC_ATOM_COUNT>
0
> <PUBCHEM_COMPONENT_COUNT>
1
> <PUBCHEM_CACTVS_TAUTO_COUNT>
1
> <PUBCHEM_COORDINATE_TYPE>
1
5
255
> <PUBCHEM_BONDANNOTATIONS>
12  1  3
13  2  3
$$$$
