518752
  -OEChem-10302200292D
 56 55  0     1  0  0  0  0  0999 V2000
    5.4641   -3.7500    0.0000 Cl  0  0  0  0  0  0  0  0  0  0  0  0
    4.4641   -2.7500    0.0000 Cl  0  0  0  0  0  0  0  0  0  0  0  0
    6.4641   -2.7500    0.0000 Cl  0  0  0  0  0  0  0  0  0  0  0  0
    8.0622    3.7500    0.0000 Cl  0  0  0  0  0  0  0  0  0  0  0  0
    9.0622    2.7500    0.0000 Cl  0  0  0  0  0  0  0  0  0  0  0  0
    7.0622    2.7500    0.0000 Cl  0  0  0  0  0  0  0  0  0  0  0  0
    2.0000   -0.7500    0.0000 Cl  0  0  0  0  0  0  0  0  0  0  0  0
    2.3660    0.6160    0.0000 Cl  0  0  0  0  0  0  0  0  0  0  0  0
    3.3660   -1.1160    0.0000 Cl  0  0  0  0  0  0  0  0  0  0  0  0
   11.5263    0.7500    0.0000 Cl  0  0  0  0  0  0  0  0  0  0  0  0
   11.1603   -0.6160    0.0000 Cl  0  0  0  0  0  0  0  0  0  0  0  0
   10.1603    1.1160    0.0000 Cl  0  0  0  0  0  0  0  0  0  0  0  0
    2.8660    3.7500    0.0000 Cl  0  0  0  0  0  0  0  0  0  0  0  0
    4.2320    4.1160    0.0000 Cl  0  0  0  0  0  0  0  0  0  0  0  0
    3.2320    2.3840    0.0000 Cl  0  0  0  0  0  0  0  0  0  0  0  0
   10.6603   -3.7500    0.0000 Cl  0  0  0  0  0  0  0  0  0  0  0  0
    9.2942   -4.1160    0.0000 Cl  0  0  0  0  0  0  0  0  0  0  0  0
   10.2942   -2.3840    0.0000 Cl  0  0  0  0  0  0  0  0  0  0  0  0
    6.3301   -1.2500    0.0000 O   0  0  0  0  0  0  0  0  0  0  0  0
    7.1962    1.2500    0.0000 O   0  0  0  0  0  0  0  0  0  0  0  0
    4.5981   -0.2500    0.0000 O   0  0  0  0  0  0  0  0  0  0  0  0
    8.9282    0.2500    0.0000 O   0  0  0  0  0  0  0  0  0  0  0  0
    4.5981    1.7500    0.0000 O   0  0  0  0  0  0  0  0  0  0  0  0
    8.9282   -1.7500    0.0000 O   0  0  0  0  0  0  0  0  0  0  0  0
    4.5981   -1.2500    0.0000 O   0  0  0  0  0  0  0  0  0  0  0  0
    8.9282    1.2500    0.0000 O   0  0  0  0  0  0  0  0  0  0  0  0
    3.7320    1.2500    0.0000 O   0  0  0  0  0  0  0  0  0  0  0  0
    9.7942   -1.2500    0.0000 O   0  0  0  0  0  0  0  0  0  0  0  0
    5.4641    3.2500    0.0000 O   0  0  0  0  0  0  0  0  0  0  0  0
    8.0622   -3.2500    0.0000 O   0  0  0  0  0  0  0  0  0  0  0  0
    6.3301   -0.2500    0.0000 C   0  0  3  0  0  0  0  0  0  0  0  0
    7.1962    0.2500    0.0000 C   0  0  3  0  0  0  0  0  0  0  0  0
    5.4641    0.2500    0.0000 C   0  0  3  0  0  0  0  0  0  0  0  0
    8.0622   -0.2500    0.0000 C   0  0  3  0  0  0  0  0  0  0  0  0
    5.4641    1.2500    0.0000 C   0  0  0  0  0  0  0  0  0  0  0  0
    8.0622   -1.2500    0.0000 C   0  0  0  0  0  0  0  0  0  0  0  0
    5.4641   -1.7500    0.0000 C   0  0  0  0  0  0  0  0  0  0  0  0
    8.0622    1.7500    0.0000 C   0  0  0  0  0  0  0  0  0  0  0  0
    3.7320    0.2500    0.0000 C   0  0  0  0  0  0  0  0  0  0  0  0
    9.7942   -0.2500    0.0000 C   0  0  0  0  0  0  0  0  0  0  0  0
    5.4641   -2.7500    0.0000 C   0  0  0  0  0  0  0  0  0  0  0  0
    8.0622    2.7500    0.0000 C   0  0  0  0  0  0  0  0  0  0  0  0
    4.5981    2.7500    0.0000 C   0  0  0  0  0  0  0  0  0  0  0  0
    8.9282   -2.7500    0.0000 C   0  0  0  0  0  0  0  0  0  0  0  0
    2.8660   -0.2500    0.0000 C   0  0  0  0  0  0  0  0  0  0  0  0
   10.6603    0.2500    0.0000 C   0  0  0  0  0  0  0  0  0  0  0  0
    3.7320    3.2500    0.0000 C   0  0  0  0  0  0  0  0  0  0  0  0
    9.7942   -3.2500    0.0000 C   0  0  0  0  0  0  0  0  0  0  0  0
    6.8671   -0.5600    0.0000 H   0  0  0  0  0  0  0  0  0  0  0  0
    6.6592    0.5600    0.0000 H   0  0  0  0  0  0  0  0  0  0  0  0
    5.4641   -0.3700    0.0000 H   0  0  0  0  0  0  0  0  0  0  0  0
    8.0622    0.3700    0.0000 H   0  0  0  0  0  0  0  0  0  0  0  0
    6.0747    1.1423    0.0000 H   0  0  0  0  0  0  0  0  0  0  0  0
    5.6762    1.8326    0.0000 H   0  0  0  0  0  0  0  0  0  0  0  0
    7.4516   -1.1423    0.0000 H   0  0  0  0  0  0  0  0  0  0  0  0
    7.8501   -1.8326    0.0000 H   0  0  0  0  0  0  0  0  0  0  0  0
  1 41  1  0  0  0  0
  2 41  1  0  0  0  0
  3 41  1  0  0  0  0
  4 42  1  0  0  0  0
  5 42  1  0  0  0  0
  6 42  1  0  0  0  0
  7 45  1  0  0  0  0
  8 45  1  0  0  0  0
  9 45  1  0  0  0  0
 10 46  1  0  0  0  0
 11 46  1  0  0  0  0
 12 46  1  0  0  0  0
 13 47  1  0  0  0  0
 14 47  1  0  0  0  0
 15 47  1  0  0  0  0
 16 48  1  0  0  0  0
 17 48  1  0  0  0  0
 18 48  1  0  0  0  0
 19 31  1  0  0  0  0
 19 37  1  0  0  0  0
 20 32  1  0  0  0  0
 20 38  1  0  0  0  0
 21 33  1  0  0  0  0
 21 39  1  0  0  0  0
 22 34  1  0  0  0  0
 22 40  1  0  0  0  0
 23 35  1  0  0  0  0
 23 43  1  0  0  0  0
 24 36  1  0  0  0  0
 24 44  1  0  0  0  0
 25 37  2  0  0  0  0
 26 38  2  0  0  0  0
 27 39  2  0  0  0  0
 28 40  2  0  0  0  0
 29 43  2  0  0  0  0
 30 44  2  0  0  0  0
 31 32  1  0  0  0  0
 31 33  1  0  0  0  0
 31 49  1  0  0  0  0
 32 34  1  0  0  0  0
 32 50  1  0  0  0  0
 33 35  1  0  0  0  0
 33 51  1  0  0  0  0
 34 36  1  0  0  0  0
 34 52  1  0  0  0  0
 35 53  1  0  0  0  0
 35 54  1  0  0  0  0
 36 55  1  0  0  0  0
 36 56  1  0  0  0  0
 37 41  1  0  0  0  0
 38 42  1  0  0  0  0
 39 45  1  0  0  0  0
 40 46  1  0  0  0  0
 43 47  1  0  0  0  0
 44 48  1  0  0  0  0
M  END
> <PUBCHEM_COMPOUND_CID>
518752
> <PUBCHEM_COMPOUND_CANONICALIZED>
1
> <PUBCHEM_CACTVS_COMPLEXITY>
1100
> <PUBCHEM_CACTVS_HBOND_ACCEPTOR>
12
> <PUBCHEM_CACTVS_HBOND_DONOR>
0
> <PUBCHEM_CACTVS_ROTATABLE_BOND>
17
> <PUBCHEM_CACTVS_SUBSKEYS>
AAADccB4PAAHgAAAAAAAAAAAAAAAAAAAAAAAAAAAAAAAAAAAAAAAGgIAAAAACBaggIIACAAABAAIAACQCAAAAAAAAAAAAAAAAQBBAAIAAAACAAAFAAACAAHAYAwAAAAAAAAAAAAAAAAAAAAAAAAAAAAAAA==
> <PUBCHEM_IUPAC_OPENEYE_NAME>
2,3,4,5,6-pentakis[(2,2,2-trichloroacetyl)oxy]hexyl 2,2,2-trichloroacetate
> <PUBCHEM_IUPAC_CAS_NAME>
2,2,2-trichloroacetic acid 2,3,4,5,6-pentakis(2,2,2-trichloro-1-oxoethoxy)hexyl ester
> <PUBCHEM_IUPAC_NAME_MARKUP>
2,3,4,5,6-pentakis[(2,2,2-trichloroacetyl)oxy]hexyl 2,2,2-trichloroacetate
> <PUBCHEM_IUPAC_NAME>
2,3,4,5,6-pentakis[(2,2,2-trichloroacetyl)oxy]hexyl 2,2,2-trichloroacetate
> <PUBCHEM_IUPAC_SYSTEMATIC_NAME>
2,3,4,5,6-pentakis[2,2,2-tris(chloranyl)ethanoyloxy]hexyl 2,2,2-tris(chloranyl)ethanoate
> <PUBCHEM_IUPAC_TRADITIONAL_NAME>
2,2,2-trichloroacetic acid 2,3,4,5,6-pentakis[(2,2,2-trichloroacetyl)oxy]hexyl ester
> <PUBCHEM_IUPAC_INCHI>
InChI=1S/C18H8Cl18O12/c19-13(20,21)7(37)43-1-3(45-9(39)15(25,26)27)5(47-11(41)17(31,32)33)6(48-12(42)18(34,35)36)4(46-10(40)16(28,29)30)2-44-8(38)14(22,23)24/h3-6H,1-2H2
> <PUBCHEM_IUPAC_INCHIKEY>
AVWKGFLULWRTFJ-UHFFFAOYSA-N
> <PUBCHEM_XLOGP3_AA>
11
> <PUBCHEM_EXACT_MASS>
1053.429124
> <PUBCHEM_MOLECULAR_FORMULA>
C18H8Cl18O12
> <PUBCHEM_MOLECULAR_WEIGHT>
1054.4
> <PUBCHEM_OPENEYE_CAN_SMILES>
C(C(C(C(C(COC(=O)C(Cl)(Cl)Cl)OC(=O)C(Cl)(Cl)Cl)OC(=O)C(Cl)(Cl)Cl)OC(=O)C(Cl)(Cl)Cl)OC(=O)C(Cl)(Cl)Cl)OC(=O)C(Cl)(Cl)Cl
> <PUBCHEM_OPENEYE_ISO_SMILES>
C(C(C(C(C(COC(=O)C(Cl)(Cl)Cl)OC(=O)C(Cl)(Cl)Cl)OC(=O)C(Cl)(Cl)Cl)OC(=O)C(Cl)(Cl)Cl)OC(=O)C(Cl)(Cl)Cl)OC(=O)C(Cl)(Cl)Cl
> <PUBCHEM_CACTVS_TPSA>
158
> <PUBCHEM_MONOISOTOPIC_WEIGHT>
1045.440924
> <PUBCHEM_TOTAL_CHARGE>
0
> <PUBCHEM_HEAVY_ATOM_COUNT>
48
> <PUBCHEM_ATOM_DEF_STEREO_COUNT>
0
> <PUBCHEM_ATOM_UDEF_STEREO_COUNT>
4
> <PUBCHEM_BOND_DEF_STEREO_COUNT>
0
> <PUBCHEM_BOND_UDEF_STEREO_COUNT>
0
> <PUBCHEM_ISOTOPIC_ATOM_COUNT>
0
> <PUBCHEM_COMPONENT_COUNT>
1
> <PUBCHEM_CACTVS_TAUTO_COUNT>
-1
> <PUBCHEM_COORDINATE_TYPE>
1
5
255
> <PUBCHEM_BONDANNOTATIONS>
31  19  3
32  20  3
33  35  3
34  36  3
$$$$
