518774
  -OEChem-10302200292D
 87 86  0     1  0  0  0  0  0999 V2000
    8.0622    0.0000    0.0000 O   0  0  0  0  0  0  0  0  0  0  0  0
    9.7942   -3.0000    0.0000 O   0  0  0  0  0  0  0  0  0  0  0  0
    6.3301   -4.0000    0.0000 O   0  0  0  0  0  0  0  0  0  0  0  0
    9.7942    0.0000    0.0000 O   0  0  0  0  0  0  0  0  0  0  0  0
   10.6603   -1.5000    0.0000 O   0  0  0  0  0  0  0  0  0  0  0  0
    7.1962   -2.5000    0.0000 N   0  0  0  0  0  0  0  0  0  0  0  0
    5.4641   -2.5000    0.0000 C   0  0  3  0  0  0  0  0  0  0  0  0
    4.5981   -3.0000    0.0000 C   0  0  0  0  0  0  0  0  0  0  0  0
    5.4641   -1.5000    0.0000 C   0  0  0  0  0  0  0  0  0  0  0  0
    6.3301   -3.0000    0.0000 C   0  0  0  0  0  0  0  0  0  0  0  0
    3.7320   -2.5000    0.0000 C   0  0  0  0  0  0  0  0  0  0  0  0
    7.1962   -1.5000    0.0000 C   0  0  0  0  0  0  0  0  0  0  0  0
    8.0622   -3.0000    0.0000 C   0  0  0  0  0  0  0  0  0  0  0  0
    8.9282    1.5000    0.0000 C   0  0  3  0  0  0  0  0  0  0  0  0
   11.5263   -3.0000    0.0000 C   0  0  3  0  0  0  0  0  0  0  0  0
    9.7942    2.0000    0.0000 C   0  0  0  0  0  0  0  0  0  0  0  0
   12.3923   -2.5000    0.0000 C   0  0  0  0  0  0  0  0  0  0  0  0
    2.8660   -3.0000    0.0000 C   0  0  0  0  0  0  0  0  0  0  0  0
    8.0622   -1.0000    0.0000 C   0  0  0  0  0  0  0  0  0  0  0  0
    8.9282   -2.5000    0.0000 C   0  0  0  0  0  0  0  0  0  0  0  0
    4.5981   -1.0000    0.0000 C   0  0  0  0  0  0  0  0  0  0  0  0
    8.0622    2.0000    0.0000 C   0  0  0  0  0  0  0  0  0  0  0  0
   11.5263   -4.0000    0.0000 C   0  0  0  0  0  0  0  0  0  0  0  0
    9.7942    3.0000    0.0000 C   0  0  0  0  0  0  0  0  0  0  0  0
   13.2583   -3.0000    0.0000 C   0  0  0  0  0  0  0  0  0  0  0  0
    8.9282    0.5000    0.0000 C   0  0  0  0  0  0  0  0  0  0  0  0
   10.6603   -2.5000    0.0000 C   0  0  0  0  0  0  0  0  0  0  0  0
   10.6603    3.5000    0.0000 C   0  0  0  0  0  0  0  0  0  0  0  0
   14.1244   -2.5000    0.0000 C   0  0  0  0  0  0  0  0  0  0  0  0
    2.0000   -2.5000    0.0000 C   0  0  0  0  0  0  0  0  0  0  0  0
    8.0622    3.0000    0.0000 C   0  0  0  0  0  0  0  0  0  0  0  0
   12.3923   -4.5000    0.0000 C   0  0  0  0  0  0  0  0  0  0  0  0
   10.6603    4.5000    0.0000 C   0  0  0  0  0  0  0  0  0  0  0  0
   14.9904   -3.0000    0.0000 C   0  0  0  0  0  0  0  0  0  0  0  0
    5.4641   -3.1200    0.0000 H   0  0  0  0  0  0  0  0  0  0  0  0
    4.1996   -3.4750    0.0000 H   0  0  0  0  0  0  0  0  0  0  0  0
    4.9966   -3.4750    0.0000 H   0  0  0  0  0  0  0  0  0  0  0  0
    6.0747   -1.6077    0.0000 H   0  0  0  0  0  0  0  0  0  0  0  0
    5.6762   -0.9174    0.0000 H   0  0  0  0  0  0  0  0  0  0  0  0
    4.1306   -2.0250    0.0000 H   0  0  0  0  0  0  0  0  0  0  0  0
    3.3335   -2.0250    0.0000 H   0  0  0  0  0  0  0  0  0  0  0  0
    6.9841   -0.9174    0.0000 H   0  0  0  0  0  0  0  0  0  0  0  0
    6.5856   -1.6077    0.0000 H   0  0  0  0  0  0  0  0  0  0  0  0
    7.6636   -3.4750    0.0000 H   0  0  0  0  0  0  0  0  0  0  0  0
    8.4607   -3.4750    0.0000 H   0  0  0  0  0  0  0  0  0  0  0  0
    9.4651    1.1900    0.0000 H   0  0  0  0  0  0  0  0  0  0  0  0
   12.0632   -3.3100    0.0000 H   0  0  0  0  0  0  0  0  0  0  0  0
   10.0063    1.4174    0.0000 H   0  0  0  0  0  0  0  0  0  0  0  0
   10.4048    2.1077    0.0000 H   0  0  0  0  0  0  0  0  0  0  0  0
   12.7908   -2.0250    0.0000 H   0  0  0  0  0  0  0  0  0  0  0  0
   11.9938   -2.0250    0.0000 H   0  0  0  0  0  0  0  0  0  0  0  0
    2.4675   -3.4750    0.0000 H   0  0  0  0  0  0  0  0  0  0  0  0
    3.2646   -3.4750    0.0000 H   0  0  0  0  0  0  0  0  0  0  0  0
    8.2742   -1.5826    0.0000 H   0  0  0  0  0  0  0  0  0  0  0  0
    8.6728   -0.8923    0.0000 H   0  0  0  0  0  0  0  0  0  0  0  0
    9.3267   -2.0250    0.0000 H   0  0  0  0  0  0  0  0  0  0  0  0
    8.5297   -2.0250    0.0000 H   0  0  0  0  0  0  0  0  0  0  0  0
    4.9081   -0.4631    0.0000 H   0  0  0  0  0  0  0  0  0  0  0  0
    4.0611   -0.6900    0.0000 H   0  0  0  0  0  0  0  0  0  0  0  0
    4.2881   -1.5369    0.0000 H   0  0  0  0  0  0  0  0  0  0  0  0
    7.4516    2.1077    0.0000 H   0  0  0  0  0  0  0  0  0  0  0  0
    7.8501    1.4174    0.0000 H   0  0  0  0  0  0  0  0  0  0  0  0
   10.9157   -3.8923    0.0000 H   0  0  0  0  0  0  0  0  0  0  0  0
   11.3142   -4.5826    0.0000 H   0  0  0  0  0  0  0  0  0  0  0  0
    9.5822    3.5826    0.0000 H   0  0  0  0  0  0  0  0  0  0  0  0
    9.1836    2.8923    0.0000 H   0  0  0  0  0  0  0  0  0  0  0  0
   12.8598   -3.4750    0.0000 H   0  0  0  0  0  0  0  0  0  0  0  0
   13.6569   -3.4750    0.0000 H   0  0  0  0  0  0  0  0  0  0  0  0
   10.8723    2.9174    0.0000 H   0  0  0  0  0  0  0  0  0  0  0  0
   11.2708    3.6077    0.0000 H   0  0  0  0  0  0  0  0  0  0  0  0
   14.5229   -2.0250    0.0000 H   0  0  0  0  0  0  0  0  0  0  0  0
   13.7258   -2.0250    0.0000 H   0  0  0  0  0  0  0  0  0  0  0  0
    2.3100   -1.9631    0.0000 H   0  0  0  0  0  0  0  0  0  0  0  0
    1.4631   -2.1900    0.0000 H   0  0  0  0  0  0  0  0  0  0  0  0
    1.6900   -3.0369    0.0000 H   0  0  0  0  0  0  0  0  0  0  0  0
    8.6822    3.0000    0.0000 H   0  0  0  0  0  0  0  0  0  0  0  0
    8.0622    3.6200    0.0000 H   0  0  0  0  0  0  0  0  0  0  0  0
    7.4422    3.0000    0.0000 H   0  0  0  0  0  0  0  0  0  0  0  0
   12.0823   -5.0369    0.0000 H   0  0  0  0  0  0  0  0  0  0  0  0
   12.9292   -4.8100    0.0000 H   0  0  0  0  0  0  0  0  0  0  0  0
   12.7023   -3.9631    0.0000 H   0  0  0  0  0  0  0  0  0  0  0  0
   11.2803    4.5000    0.0000 H   0  0  0  0  0  0  0  0  0  0  0  0
   10.6603    5.1200    0.0000 H   0  0  0  0  0  0  0  0  0  0  0  0
   10.0403    4.5000    0.0000 H   0  0  0  0  0  0  0  0  0  0  0  0
   14.6804   -3.5369    0.0000 H   0  0  0  0  0  0  0  0  0  0  0  0
   15.5273   -3.3100    0.0000 H   0  0  0  0  0  0  0  0  0  0  0  0
   15.3004   -2.4631    0.0000 H   0  0  0  0  0  0  0  0  0  0  0  0
  1 19  1  0  0  0  0
  1 26  1  0  0  0  0
  2 20  1  0  0  0  0
  2 27  1  0  0  0  0
  3 10  2  0  0  0  0
  4 26  2  0  0  0  0
  5 27  2  0  0  0  0
  6 10  1  0  0  0  0
  6 12  1  0  0  0  0
  6 13  1  0  0  0  0
  7  8  1  0  0  0  0
  7  9  1  0  0  0  0
  7 10  1  0  0  0  0
  7 35  1  0  0  0  0
  8 11  1  0  0  0  0
  8 36  1  0  0  0  0
  8 37  1  0  0  0  0
  9 21  1  0  0  0  0
  9 38  1  0  0  0  0
  9 39  1  0  0  0  0
 11 18  1  0  0  0  0
 11 40  1  0  0  0  0
 11 41  1  0  0  0  0
 12 19  1  0  0  0  0
 12 42  1  0  0  0  0
 12 43  1  0  0  0  0
 13 20  1  0  0  0  0
 13 44  1  0  0  0  0
 13 45  1  0  0  0  0
 14 16  1  0  0  0  0
 14 22  1  0  0  0  0
 14 26  1  0  0  0  0
 14 46  1  0  0  0  0
 15 17  1  0  0  0  0
 15 23  1  0  0  0  0
 15 27  1  0  0  0  0
 15 47  1  0  0  0  0
 16 24  1  0  0  0  0
 16 48  1  0  0  0  0
 16 49  1  0  0  0  0
 17 25  1  0  0  0  0
 17 50  1  0  0  0  0
 17 51  1  0  0  0  0
 18 30  1  0  0  0  0
 18 52  1  0  0  0  0
 18 53  1  0  0  0  0
 19 54  1  0  0  0  0
 19 55  1  0  0  0  0
 20 56  1  0  0  0  0
 20 57  1  0  0  0  0
 21 58  1  0  0  0  0
 21 59  1  0  0  0  0
 21 60  1  0  0  0  0
 22 31  1  0  0  0  0
 22 61  1  0  0  0  0
 22 62  1  0  0  0  0
 23 32  1  0  0  0  0
 23 63  1  0  0  0  0
 23 64  1  0  0  0  0
 24 28  1  0  0  0  0
 24 65  1  0  0  0  0
 24 66  1  0  0  0  0
 25 29  1  0  0  0  0
 25 67  1  0  0  0  0
 25 68  1  0  0  0  0
 28 33  1  0  0  0  0
 28 69  1  0  0  0  0
 28 70  1  0  0  0  0
 29 34  1  0  0  0  0
 29 71  1  0  0  0  0
 29 72  1  0  0  0  0
 30 73  1  0  0  0  0
 30 74  1  0  0  0  0
 30 75  1  0  0  0  0
 31 76  1  0  0  0  0
 31 77  1  0  0  0  0
 31 78  1  0  0  0  0
 32 79  1  0  0  0  0
 32 80  1  0  0  0  0
 32 81  1  0  0  0  0
 33 82  1  0  0  0  0
 33 83  1  0  0  0  0
 33 84  1  0  0  0  0
 34 85  1  0  0  0  0
 34 86  1  0  0  0  0
 34 87  1  0  0  0  0
M  END
> <PUBCHEM_COMPOUND_CID>
518774
> <PUBCHEM_COMPOUND_CANONICALIZED>
1
> <PUBCHEM_CACTVS_COMPLEXITY>
517
> <PUBCHEM_CACTVS_HBOND_ACCEPTOR>
5
> <PUBCHEM_CACTVS_HBOND_DONOR>
0
> <PUBCHEM_CACTVS_ROTATABLE_BOND>
23
> <PUBCHEM_CACTVS_SUBSKEYS>
AAADcfB6OAAAAAAAAAAAAAAAAAAAAAAAAAAAAAAAAAAAAAAAAAAAHgAAAAAADQDhgAYCCAMABAAIAAGQGAAAAAAAAAAAAAEIAAACABIAgAAHAAAEBgCQAAGYyAAOAAAAAAAAAAAAAAAAAAAAAAAAAAAAAA==
> <PUBCHEM_IUPAC_OPENEYE_NAME>
2-[2-ethylhexanoyl-[2-(2-ethylhexanoyloxy)ethyl]amino]ethyl 2-ethylhexanoate
> <PUBCHEM_IUPAC_CAS_NAME>
2-ethylhexanoic acid 2-[2-(2-ethyl-1-oxohexoxy)ethyl-(2-ethyl-1-oxohexyl)amino]ethyl ester
> <PUBCHEM_IUPAC_NAME_MARKUP>
2-[2-ethylhexanoyl-[2-(2-ethylhexanoyloxy)ethyl]amino]ethyl 2-ethylhexanoate
> <PUBCHEM_IUPAC_NAME>
2-[2-ethylhexanoyl-[2-(2-ethylhexanoyloxy)ethyl]amino]ethyl 2-ethylhexanoate
> <PUBCHEM_IUPAC_SYSTEMATIC_NAME>
2-[2-ethylhexanoyl-[2-(2-ethylhexanoyloxy)ethyl]amino]ethyl 2-ethylhexanoate
> <PUBCHEM_IUPAC_TRADITIONAL_NAME>
2-ethylhexanoic acid 2-[2-ethylhexanoyl-[2-(2-ethylhexanoyloxy)ethyl]amino]ethyl ester
> <PUBCHEM_IUPAC_INCHI>
InChI=1S/C28H53NO5/c1-7-13-16-23(10-4)26(30)29(19-21-33-27(31)24(11-5)17-14-8-2)20-22-34-28(32)25(12-6)18-15-9-3/h23-25H,7-22H2,1-6H3
> <PUBCHEM_IUPAC_INCHIKEY>
YYIIMEOVMYJQST-UHFFFAOYSA-N
> <PUBCHEM_XLOGP3_AA>
8
> <PUBCHEM_EXACT_MASS>
483.39237379
> <PUBCHEM_MOLECULAR_FORMULA>
C28H53NO5
> <PUBCHEM_MOLECULAR_WEIGHT>
483.7
> <PUBCHEM_OPENEYE_CAN_SMILES>
CCCCC(CC)C(=O)N(CCOC(=O)C(CC)CCCC)CCOC(=O)C(CC)CCCC
> <PUBCHEM_OPENEYE_ISO_SMILES>
CCCCC(CC)C(=O)N(CCOC(=O)C(CC)CCCC)CCOC(=O)C(CC)CCCC
> <PUBCHEM_CACTVS_TPSA>
72.9
> <PUBCHEM_MONOISOTOPIC_WEIGHT>
483.39237379
> <PUBCHEM_TOTAL_CHARGE>
0
> <PUBCHEM_HEAVY_ATOM_COUNT>
34
> <PUBCHEM_ATOM_DEF_STEREO_COUNT>
0
> <PUBCHEM_ATOM_UDEF_STEREO_COUNT>
3
> <PUBCHEM_BOND_DEF_STEREO_COUNT>
0
> <PUBCHEM_BOND_UDEF_STEREO_COUNT>
0
> <PUBCHEM_ISOTOPIC_ATOM_COUNT>
0
> <PUBCHEM_COMPONENT_COUNT>
1
> <PUBCHEM_CACTVS_TAUTO_COUNT>
-1
> <PUBCHEM_COORDINATE_TYPE>
1
5
255
> <PUBCHEM_BONDANNOTATIONS>
14  22  3
15  23  3
7  9  3
$$$$
