518721
  -OEChem-10302200292D
 30 30  0     1  0  0  0  0  0999 V2000
    2.9239    0.9619    0.0000 C   0  0  3  0  0  0  0  0  0  0  0  0
    4.6310   -0.7452    0.0000 C   0  0  3  0  0  0  0  0  0  0  0  0
    2.9239   -0.0381    0.0000 C   0  0  0  0  0  0  0  0  0  0  0  0
    3.6310   -0.7452    0.0000 C   0  0  0  0  0  0  0  0  0  0  0  0
    3.6310    1.6690    0.0000 C   0  0  0  0  0  0  0  0  0  0  0  0
    5.3381   -0.0381    0.0000 C   0  0  0  0  0  0  0  0  0  0  0  0
    4.6310    1.6690    0.0000 C   0  0  0  0  0  0  0  0  0  0  0  0
    5.3381    0.9619    0.0000 C   0  0  0  0  0  0  0  0  0  0  0  0
    2.0000    1.3446    0.0000 C   0  0  0  0  0  0  0  0  0  0  0  0
    5.0137   -1.6690    0.0000 C   0  0  0  0  0  0  0  0  0  0  0  0
    2.4084    0.6175    0.0000 H   0  0  0  0  0  0  0  0  0  0  0  0
    4.2865   -1.2607    0.0000 H   0  0  0  0  0  0  0  0  0  0  0  0
    2.3250    0.1224    0.0000 H   0  0  0  0  0  0  0  0  0  0  0  0
    2.6139   -0.5750    0.0000 H   0  0  0  0  0  0  0  0  0  0  0  0
    3.0941   -1.0552    0.0000 H   0  0  0  0  0  0  0  0  0  0  0  0
    3.7914   -1.3440    0.0000 H   0  0  0  0  0  0  0  0  0  0  0  0
    3.7914    2.2679    0.0000 H   0  0  0  0  0  0  0  0  0  0  0  0
    3.0941    1.9790    0.0000 H   0  0  0  0  0  0  0  0  0  0  0  0
    5.6481   -0.5750    0.0000 H   0  0  0  0  0  0  0  0  0  0  0  0
    5.9370    0.1224    0.0000 H   0  0  0  0  0  0  0  0  0  0  0  0
    5.1679    1.9790    0.0000 H   0  0  0  0  0  0  0  0  0  0  0  0
    4.4705    2.2679    0.0000 H   0  0  0  0  0  0  0  0  0  0  0  0
    5.9370    0.8015    0.0000 H   0  0  0  0  0  0  0  0  0  0  0  0
    5.6481    1.4989    0.0000 H   0  0  0  0  0  0  0  0  0  0  0  0
    2.2373    1.9174    0.0000 H   0  0  0  0  0  0  0  0  0  0  0  0
    1.4272    1.5819    0.0000 H   0  0  0  0  0  0  0  0  0  0  0  0
    1.7627    0.7718    0.0000 H   0  0  0  0  0  0  0  0  0  0  0  0
    4.4409   -1.9063    0.0000 H   0  0  0  0  0  0  0  0  0  0  0  0
    5.2509   -2.2418    0.0000 H   0  0  0  0  0  0  0  0  0  0  0  0
    5.5865   -1.4318    0.0000 H   0  0  0  0  0  0  0  0  0  0  0  0
  1  3  1  0  0  0  0
  1  5  1  0  0  0  0
  1  9  1  0  0  0  0
  1 11  1  0  0  0  0
  2  4  1  0  0  0  0
  2  6  1  0  0  0  0
  2 10  1  0  0  0  0
  2 12  1  0  0  0  0
  3  4  1  0  0  0  0
  3 13  1  0  0  0  0
  3 14  1  0  0  0  0
  4 15  1  0  0  0  0
  4 16  1  0  0  0  0
  5  7  1  0  0  0  0
  5 17  1  0  0  0  0
  5 18  1  0  0  0  0
  6  8  1  0  0  0  0
  6 19  1  0  0  0  0
  6 20  1  0  0  0  0
  7  8  1  0  0  0  0
  7 21  1  0  0  0  0
  7 22  1  0  0  0  0
  8 23  1  0  0  0  0
  8 24  1  0  0  0  0
  9 25  1  0  0  0  0
  9 26  1  0  0  0  0
  9 27  1  0  0  0  0
 10 28  1  0  0  0  0
 10 29  1  0  0  0  0
 10 30  1  0  0  0  0
M  END
> <PUBCHEM_COMPOUND_CID>
518721
> <PUBCHEM_COMPOUND_CANONICALIZED>
1
> <PUBCHEM_CACTVS_COMPLEXITY>
74
> <PUBCHEM_CACTVS_HBOND_ACCEPTOR>
0
> <PUBCHEM_CACTVS_HBOND_DONOR>
0
> <PUBCHEM_CACTVS_ROTATABLE_BOND>
0
> <PUBCHEM_CACTVS_SUBSKEYS>
AAADceBwAAAAAAAAAAAAAAAAAAAAAAAAAAAAAAAAAAAYAAAAAAAAGAAAAAAADQCAAAACAAAAAAAAAAAAAAAAAAAAAAAAAAAAAAAAAAIAAAAAAAAAAAAAAAEAgMAOAAAAAAAAAAAAAAAAAAAAAAAAAAAAAA==
> <PUBCHEM_IUPAC_OPENEYE_NAME>
1,4-dimethylcyclooctane
> <PUBCHEM_IUPAC_CAS_NAME>
1,4-dimethylcyclooctane
> <PUBCHEM_IUPAC_NAME_MARKUP>
1,4-dimethylcyclooctane
> <PUBCHEM_IUPAC_NAME>
1,4-dimethylcyclooctane
> <PUBCHEM_IUPAC_SYSTEMATIC_NAME>
1,4-dimethylcyclooctane
> <PUBCHEM_IUPAC_TRADITIONAL_NAME>
1,4-dimethylcyclooctane
> <PUBCHEM_IUPAC_INCHI>
InChI=1S/C10H20/c1-9-5-3-4-6-10(2)8-7-9/h9-10H,3-8H2,1-2H3
> <PUBCHEM_IUPAC_INCHIKEY>
GUOSBMCHCJXBMH-UHFFFAOYSA-N
> <PUBCHEM_XLOGP3>
5.2
> <PUBCHEM_EXACT_MASS>
140.156500638
> <PUBCHEM_MOLECULAR_FORMULA>
C10H20
> <PUBCHEM_MOLECULAR_WEIGHT>
140.27
> <PUBCHEM_OPENEYE_CAN_SMILES>
CC1CCCCC(CC1)C
> <PUBCHEM_OPENEYE_ISO_SMILES>
CC1CCCCC(CC1)C
> <PUBCHEM_CACTVS_TPSA>
0
> <PUBCHEM_MONOISOTOPIC_WEIGHT>
140.156500638
> <PUBCHEM_TOTAL_CHARGE>
0
> <PUBCHEM_HEAVY_ATOM_COUNT>
10
> <PUBCHEM_ATOM_DEF_STEREO_COUNT>
0
> <PUBCHEM_ATOM_UDEF_STEREO_COUNT>
2
> <PUBCHEM_BOND_DEF_STEREO_COUNT>
0
> <PUBCHEM_BOND_UDEF_STEREO_COUNT>
0
> <PUBCHEM_ISOTOPIC_ATOM_COUNT>
0
> <PUBCHEM_COMPONENT_COUNT>
1
> <PUBCHEM_CACTVS_TAUTO_COUNT>
-1
> <PUBCHEM_COORDINATE_TYPE>
1
5
255
> <PUBCHEM_BONDANNOTATIONS>
1  9  3
2  10  3
$$$$
