518813
  -OEChem-10302200292D
 47 51  0     1  0  0  0  0  0999 V2000
    4.3958   -2.6532    0.0000 O   0  0  0  0  0  0  0  0  0  0  0  0
    7.4859    2.6532    0.0000 O   0  0  0  0  0  0  0  0  0  0  0  0
    3.5298   -1.1532    0.0000 C   0  0  3  0  0  0  0  0  0  0  0  0
    3.5298   -0.1532    0.0000 C   0  0  3  0  0  0  0  0  0  0  0  0
    2.5836   -1.4579    0.0000 C   0  0  3  0  0  0  0  0  0  0  0  0
    3.3208   -2.1255    0.0000 C   0  0  0  0  0  0  0  0  0  0  0  0
    4.3958    0.3468    0.0000 C   0  0  3  0  0  0  0  0  0  0  0  0
    2.5836    0.1516    0.0000 C   0  0  0  0  0  0  0  0  0  0  0  0
    2.0000   -0.6532    0.0000 C   0  0  0  0  0  0  0  0  0  0  0  0
    5.2619   -0.1532    0.0000 C   0  0  3  0  0  0  0  0  0  0  0  0
    4.3958   -1.6532    0.0000 C   0  0  0  0  0  0  0  0  0  0  0  0
    6.1719    0.3537    0.0000 C   0  0  3  0  0  0  0  0  0  0  0  0
    5.2619   -1.1532    0.0000 C   0  0  0  0  0  0  0  0  0  0  0  0
    4.3798    1.3883    0.0000 C   0  0  0  0  0  0  0  0  0  0  0  0
    3.5298    0.8468    0.0000 C   0  0  0  0  0  0  0  0  0  0  0  0
    6.1799    1.3953    0.0000 C   0  0  3  0  0  0  0  0  0  0  0  0
    5.2778    1.9161    0.0000 C   0  0  0  0  0  0  0  0  0  0  0  0
    7.1550    0.0287    0.0000 C   0  0  0  0  0  0  0  0  0  0  0  0
    7.1679    1.7051    0.0000 C   0  0  0  0  0  0  0  0  0  0  0  0
    7.7694    0.8622    0.0000 C   0  0  0  0  0  0  0  0  0  0  0  0
    6.1876    2.3952    0.0000 C   0  0  0  0  0  0  0  0  0  0  0  0
    2.1221   -1.8719    0.0000 H   0  0  0  0  0  0  0  0  0  0  0  0
    2.9908   -2.6504    0.0000 H   0  0  0  0  0  0  0  0  0  0  0  0
    3.8950   -2.3592    0.0000 H   0  0  0  0  0  0  0  0  0  0  0  0
    4.9304    0.6610    0.0000 H   0  0  0  0  0  0  0  0  0  0  0  0
    2.8346    0.7185    0.0000 H   0  0  0  0  0  0  0  0  0  0  0  0
    2.0462    0.4608    0.0000 H   0  0  0  0  0  0  0  0  0  0  0  0
    1.5391   -0.2384    0.0000 H   0  0  0  0  0  0  0  0  0  0  0  0
    1.5391   -1.0679    0.0000 H   0  0  0  0  0  0  0  0  0  0  0  0
    5.7964   -0.4673    0.0000 H   0  0  0  0  0  0  0  0  0  0  0  0
    6.2304   -0.2636    0.0000 H   0  0  0  0  0  0  0  0  0  0  0  0
    5.4739   -1.7358    0.0000 H   0  0  0  0  0  0  0  0  0  0  0  0
    5.8725   -1.0455    0.0000 H   0  0  0  0  0  0  0  0  0  0  0  0
    4.1618    1.9687    0.0000 H   0  0  0  0  0  0  0  0  0  0  0  0
    3.7706    1.2728    0.0000 H   0  0  0  0  0  0  0  0  0  0  0  0
    4.1498    0.8468    0.0000 H   0  0  0  0  0  0  0  0  0  0  0  0
    3.5298    1.4668    0.0000 H   0  0  0  0  0  0  0  0  0  0  0  0
    2.9098    0.8468    0.0000 H   0  0  0  0  0  0  0  0  0  0  0  0
    5.6751    2.3920    0.0000 H   0  0  0  0  0  0  0  0  0  0  0  0
    4.8769    2.3890    0.0000 H   0  0  0  0  0  0  0  0  0  0  0  0
    6.8996   -0.5363    0.0000 H   0  0  0  0  0  0  0  0  0  0  0  0
    7.6900   -0.2847    0.0000 H   0  0  0  0  0  0  0  0  0  0  0  0
    8.2270    0.4439    0.0000 H   0  0  0  0  0  0  0  0  0  0  0  0
    8.2334    1.2734    0.0000 H   0  0  0  0  0  0  0  0  0  0  0  0
    6.8076    2.3905    0.0000 H   0  0  0  0  0  0  0  0  0  0  0  0
    6.1924    3.0152    0.0000 H   0  0  0  0  0  0  0  0  0  0  0  0
    5.5676    2.4000    0.0000 H   0  0  0  0  0  0  0  0  0  0  0  0
  1 11  2  0  0  0  0
  2 19  2  0  0  0  0
  3  4  1  0  0  0  0
  3  5  1  0  0  0  0
  3  6  1  0  0  0  0
  3 11  1  0  0  0  0
  4  7  1  0  0  0  0
  4  8  1  0  0  0  0
  4 15  1  0  0  0  0
  5  6  1  0  0  0  0
  5  9  1  0  0  0  0
  5 22  1  0  0  0  0
  6 23  1  0  0  0  0
  6 24  1  0  0  0  0
  7 10  1  0  0  0  0
  7 14  1  0  0  0  0
  7 25  1  0  0  0  0
  8  9  1  0  0  0  0
  8 26  1  0  0  0  0
  8 27  1  0  0  0  0
  9 28  1  0  0  0  0
  9 29  1  0  0  0  0
 10 12  1  0  0  0  0
 10 13  1  0  0  0  0
 10 30  1  0  0  0  0
 11 13  1  0  0  0  0
 12 16  1  0  0  0  0
 12 18  1  0  0  0  0
 12 31  1  0  0  0  0
 13 32  1  0  0  0  0
 13 33  1  0  0  0  0
 14 17  1  0  0  0  0
 14 34  1  0  0  0  0
 14 35  1  0  0  0  0
 15 36  1  0  0  0  0
 15 37  1  0  0  0  0
 15 38  1  0  0  0  0
 16 17  1  0  0  0  0
 16 19  1  0  0  0  0
 16 21  1  0  0  0  0
 17 39  1  0  0  0  0
 17 40  1  0  0  0  0
 18 20  1  0  0  0  0
 18 41  1  0  0  0  0
 18 42  1  0  0  0  0
 19 20  1  0  0  0  0
 20 43  1  0  0  0  0
 20 44  1  0  0  0  0
 21 45  1  0  0  0  0
 21 46  1  0  0  0  0
 21 47  1  0  0  0  0
M  END
> <PUBCHEM_COMPOUND_CID>
518813
> <PUBCHEM_COMPOUND_CANONICALIZED>
1
> <PUBCHEM_CACTVS_COMPLEXITY>
566
> <PUBCHEM_CACTVS_HBOND_ACCEPTOR>
2
> <PUBCHEM_CACTVS_HBOND_DONOR>
0
> <PUBCHEM_CACTVS_ROTATABLE_BOND>
0
> <PUBCHEM_CACTVS_SUBSKEYS>
AAADceB4MAAAAAAAAAAAAAAAGAAAAYMAAAAwYMAAAAAAAGDAAAAAGgAAAAAADwSAgAACAAAAAAAIAIAQAAAAAAAAAAAAAAEAAAAAABIAAAAAAAAAAAAAAAEIiMCPgAAAAAAAAACAAAQAACAAAQAACAAAAA==
> <PUBCHEM_IUPAC_OPENEYE_NAME>
2,15-dimethylpentacyclo[8.7.0.02,7.05,7.011,15]heptadecane-8,14-dione
> <PUBCHEM_IUPAC_CAS_NAME>
2,15-dimethylpentacyclo[8.7.0.02,7.05,7.011,15]heptadecane-8,14-dione
> <PUBCHEM_IUPAC_NAME_MARKUP>
2,15-dimethylpentacyclo[8.7.0.0<SUP>2,7</SUP>.0<SUP>5,7</SUP>.0<SUP>11,15</SUP>]heptadecane-8,14-dione
> <PUBCHEM_IUPAC_NAME>
2,15-dimethylpentacyclo[8.7.0.02,7.05,7.011,15]heptadecane-8,14-dione
> <PUBCHEM_IUPAC_SYSTEMATIC_NAME>
2,15-dimethylpentacyclo[8.7.0.02,7.05,7.011,15]heptadecane-8,14-dione
> <PUBCHEM_IUPAC_TRADITIONAL_NAME>
2,15-dimethylpentacyclo[8.7.0.02,7.05,7.011,15]heptadecane-8,14-quinone
> <PUBCHEM_IUPAC_INCHI>
InChI=1S/C19H26O2/c1-17-7-6-14-12(13(17)3-4-15(17)20)9-16(21)19-10-11(19)5-8-18(14,19)2/h11-14H,3-10H2,1-2H3
> <PUBCHEM_IUPAC_INCHIKEY>
ABXKYAJHLPGJLD-UHFFFAOYSA-N
> <PUBCHEM_XLOGP3_AA>
3.1
> <PUBCHEM_EXACT_MASS>
286.193280068
> <PUBCHEM_MOLECULAR_FORMULA>
C19H26O2
> <PUBCHEM_MOLECULAR_WEIGHT>
286.4
> <PUBCHEM_OPENEYE_CAN_SMILES>
CC12CCC3C(C1CCC2=O)CC(=O)C45C3(CCC4C5)C
> <PUBCHEM_OPENEYE_ISO_SMILES>
CC12CCC3C(C1CCC2=O)CC(=O)C45C3(CCC4C5)C
> <PUBCHEM_CACTVS_TPSA>
34.1
> <PUBCHEM_MONOISOTOPIC_WEIGHT>
286.193280068
> <PUBCHEM_TOTAL_CHARGE>
0
> <PUBCHEM_HEAVY_ATOM_COUNT>
21
> <PUBCHEM_ATOM_DEF_STEREO_COUNT>
0
> <PUBCHEM_ATOM_UDEF_STEREO_COUNT>
7
> <PUBCHEM_BOND_DEF_STEREO_COUNT>
0
> <PUBCHEM_BOND_UDEF_STEREO_COUNT>
0
> <PUBCHEM_ISOTOPIC_ATOM_COUNT>
0
> <PUBCHEM_COMPONENT_COUNT>
1
> <PUBCHEM_CACTVS_TAUTO_COUNT>
-1
> <PUBCHEM_COORDINATE_TYPE>
1
5
255
> <PUBCHEM_BONDANNOTATIONS>
10  13  3
12  18  3
16  21  3
3  6  3
4  15  3
5  9  3
7  14  3
$$$$
