518818
  -OEChem-10302200292D
 18 19  0     1  0  0  0  0  0999 V2000
    2.0000   -1.0109    0.0000 O   0  0  0  0  0  0  0  0  0  0  0  0
    3.7139    0.7018    0.0000 C   0  0  3  0  0  0  0  0  0  0  0  0
    3.7139   -0.2982    0.0000 C   0  0  3  0  0  0  0  0  0  0  0  0
    4.6650    1.0109    0.0000 C   0  0  0  0  0  0  0  0  0  0  0  0
    2.7056    0.7060    0.0000 C   0  0  0  0  0  0  0  0  0  0  0  0
    4.6650   -0.6072    0.0000 C   0  0  0  0  0  0  0  0  0  0  0  0
    5.2528    0.2018    0.0000 C   0  0  0  0  0  0  0  0  0  0  0  0
    2.7056   -0.3023    0.0000 C   0  0  0  0  0  0  0  0  0  0  0  0
    3.6182    1.3144    0.0000 H   0  0  0  0  0  0  0  0  0  0  0  0
    3.6182   -0.9107    0.0000 H   0  0  0  0  0  0  0  0  0  0  0  0
    5.2019    1.3209    0.0000 H   0  0  0  0  0  0  0  0  0  0  0  0
    4.4128    1.5773    0.0000 H   0  0  0  0  0  0  0  0  0  0  0  0
    2.7074    1.3260    0.0000 H   0  0  0  0  0  0  0  0  0  0  0  0
    2.0856    0.7068    0.0000 H   0  0  0  0  0  0  0  0  0  0  0  0
    4.4128   -1.1736    0.0000 H   0  0  0  0  0  0  0  0  0  0  0  0
    5.2019   -0.9172    0.0000 H   0  0  0  0  0  0  0  0  0  0  0  0
    5.7135   -0.2130    0.0000 H   0  0  0  0  0  0  0  0  0  0  0  0
    5.7135    0.6167    0.0000 H   0  0  0  0  0  0  0  0  0  0  0  0
  1  8  2  0  0  0  0
  2  3  1  0  0  0  0
  2  4  1  0  0  0  0
  2  5  1  0  0  0  0
  2  9  1  0  0  0  0
  3  6  1  0  0  0  0
  3  8  1  0  0  0  0
  3 10  1  0  0  0  0
  4  7  1  0  0  0  0
  4 11  1  0  0  0  0
  4 12  1  0  0  0  0
  5  8  1  0  0  0  0
  5 13  1  0  0  0  0
  5 14  1  0  0  0  0
  6  7  1  0  0  0  0
  6 15  1  0  0  0  0
  6 16  1  0  0  0  0
  7 17  1  0  0  0  0
  7 18  1  0  0  0  0
M  END
> <PUBCHEM_COMPOUND_CID>
518818
> <PUBCHEM_COMPOUND_CANONICALIZED>
1
> <PUBCHEM_CACTVS_COMPLEXITY>
128
> <PUBCHEM_CACTVS_HBOND_ACCEPTOR>
1
> <PUBCHEM_CACTVS_HBOND_DONOR>
0
> <PUBCHEM_CACTVS_ROTATABLE_BOND>
0
> <PUBCHEM_CACTVS_SUBSKEYS>
AAADccBgIAAAAAAAAAAAAAAAAABgAYAAAAAAAAAABgAAAAAAAAAAGgAAAAAADQSAgAAAAAAAAAAIAIAQAAAAAAAAAAAAAAEAAAAAABIAAAAAAAAAAAAAAAEIiACOgAAAAAAAAAAAAAAAAAAAAAAACAAAAA==
> <PUBCHEM_IUPAC_OPENEYE_NAME>
bicyclo[3.2.0]heptan-6-one
> <PUBCHEM_IUPAC_CAS_NAME>
6-bicyclo[3.2.0]heptanone
> <PUBCHEM_IUPAC_NAME_MARKUP>
bicyclo[3.2.0]heptan-6-one
> <PUBCHEM_IUPAC_NAME>
bicyclo[3.2.0]heptan-6-one
> <PUBCHEM_IUPAC_SYSTEMATIC_NAME>
bicyclo[3.2.0]heptan-6-one
> <PUBCHEM_IUPAC_TRADITIONAL_NAME>
bicyclo[3.2.0]heptan-6-one
> <PUBCHEM_IUPAC_INCHI>
InChI=1S/C7H10O/c8-7-4-5-2-1-3-6(5)7/h5-6H,1-4H2
> <PUBCHEM_IUPAC_INCHIKEY>
XADFSXKNPLLSDY-UHFFFAOYSA-N
> <PUBCHEM_XLOGP3_AA>
1.2
> <PUBCHEM_EXACT_MASS>
110.073164938
> <PUBCHEM_MOLECULAR_FORMULA>
C7H10O
> <PUBCHEM_MOLECULAR_WEIGHT>
110.15
> <PUBCHEM_OPENEYE_CAN_SMILES>
C1CC2CC(=O)C2C1
> <PUBCHEM_OPENEYE_ISO_SMILES>
C1CC2CC(=O)C2C1
> <PUBCHEM_CACTVS_TPSA>
17.1
> <PUBCHEM_MONOISOTOPIC_WEIGHT>
110.073164938
> <PUBCHEM_TOTAL_CHARGE>
0
> <PUBCHEM_HEAVY_ATOM_COUNT>
8
> <PUBCHEM_ATOM_DEF_STEREO_COUNT>
0
> <PUBCHEM_ATOM_UDEF_STEREO_COUNT>
2
> <PUBCHEM_BOND_DEF_STEREO_COUNT>
0
> <PUBCHEM_BOND_UDEF_STEREO_COUNT>
0
> <PUBCHEM_ISOTOPIC_ATOM_COUNT>
0
> <PUBCHEM_COMPONENT_COUNT>
1
> <PUBCHEM_CACTVS_TAUTO_COUNT>
-1
> <PUBCHEM_COORDINATE_TYPE>
1
5
255
> <PUBCHEM_BONDANNOTATIONS>
2  4  3
3  6  3
$$$$
