518928
  -OEChem-10302200292D
 25 24  0     1  0  0  0  0  0999 V2000
    2.5369   -0.3450    0.0000 O   0  0  0  0  0  0  0  0  0  0  0  0
    3.4030    1.1550    0.0000 O   0  0  0  0  0  0  0  0  0  0  0  0
    4.2690   -1.3450    0.0000 N   0  0  0  0  0  0  0  0  0  0  0  0
    5.1350    0.1550    0.0000 C   0  0  0  0  0  0  0  0  0  0  0  0
    4.2690   -0.3450    0.0000 C   0  0  3  0  0  0  0  0  0  0  0  0
    6.0010   -0.3450    0.0000 C   0  0  0  0  0  0  0  0  0  0  0  0
    5.1350    1.1550    0.0000 C   0  0  0  0  0  0  0  0  0  0  0  0
    6.8671    0.1550    0.0000 C   0  0  0  0  0  0  0  0  0  0  0  0
    6.0010    1.6550    0.0000 C   0  0  0  0  0  0  0  0  0  0  0  0
    3.4030    0.1550    0.0000 C   0  0  0  0  0  0  0  0  0  0  0  0
    5.1350   -0.4650    0.0000 H   0  0  0  0  0  0  0  0  0  0  0  0
    3.5329   -0.7700    0.0000 H   0  0  0  0  0  0  0  0  0  0  0  0
    5.6025   -0.8199    0.0000 H   0  0  0  0  0  0  0  0  0  0  0  0
    6.3996   -0.8199    0.0000 H   0  0  0  0  0  0  0  0  0  0  0  0
    4.9230    1.7376    0.0000 H   0  0  0  0  0  0  0  0  0  0  0  0
    4.5244    1.0473    0.0000 H   0  0  0  0  0  0  0  0  0  0  0  0
    7.1771   -0.3819    0.0000 H   0  0  0  0  0  0  0  0  0  0  0  0
    7.4040    0.4650    0.0000 H   0  0  0  0  0  0  0  0  0  0  0  0
    6.5571    0.6919    0.0000 H   0  0  0  0  0  0  0  0  0  0  0  0
    6.3110    1.1181    0.0000 H   0  0  0  0  0  0  0  0  0  0  0  0
    6.5380    1.9650    0.0000 H   0  0  0  0  0  0  0  0  0  0  0  0
    5.6910    2.1919    0.0000 H   0  0  0  0  0  0  0  0  0  0  0  0
    3.7320   -1.6550    0.0000 H   0  0  0  0  0  0  0  0  0  0  0  0
    4.8059   -1.6550    0.0000 H   0  0  0  0  0  0  0  0  0  0  0  0
    2.0000   -0.0350    0.0000 H   0  0  0  0  0  0  0  0  0  0  0  0
  1 10  1  0  0  0  0
  1 25  1  0  0  0  0
  2 10  2  0  0  0  0
  3  5  1  0  0  0  0
  3 23  1  0  0  0  0
  3 24  1  0  0  0  0
  4  5  1  0  0  0  0
  4  6  1  0  0  0  0
  4  7  1  0  0  0  0
  4 11  1  0  0  0  0
  5 10  1  0  0  0  0
  5 12  1  0  0  0  0
  6  8  1  0  0  0  0
  6 13  1  0  0  0  0
  6 14  1  0  0  0  0
  7  9  1  0  0  0  0
  7 15  1  0  0  0  0
  7 16  1  0  0  0  0
  8 17  1  0  0  0  0
  8 18  1  0  0  0  0
  8 19  1  0  0  0  0
  9 20  1  0  0  0  0
  9 21  1  0  0  0  0
  9 22  1  0  0  0  0
M  END
> <PUBCHEM_COMPOUND_CID>
518928
> <PUBCHEM_COMPOUND_CANONICALIZED>
1
> <PUBCHEM_CACTVS_COMPLEXITY>
110
> <PUBCHEM_CACTVS_HBOND_ACCEPTOR>
3
> <PUBCHEM_CACTVS_HBOND_DONOR>
2
> <PUBCHEM_CACTVS_ROTATABLE_BOND>
4
> <PUBCHEM_CACTVS_SUBSKEYS>
AAADccBiMAAAAAAAAAAAAAAAAAAAAAAAAAAAAAAAAAAAAAAAAAAAHgAQCAAADSjBgAQCCABAAgAIAACQCAAAAAAAAAAAAIGAAAACABIAgAAAQAAEEAAAAACIAAAKAAAAAAAAAAAAAAAAAAAAAAAAAAAAAA==
> <PUBCHEM_IUPAC_OPENEYE_NAME>
2-amino-3-ethyl-pentanoic acid
> <PUBCHEM_IUPAC_CAS_NAME>
2-amino-3-ethylpentanoic acid
> <PUBCHEM_IUPAC_NAME_MARKUP>
2-amino-3-ethylpentanoic acid
> <PUBCHEM_IUPAC_NAME>
2-amino-3-ethylpentanoic acid
> <PUBCHEM_IUPAC_SYSTEMATIC_NAME>
2-azanyl-3-ethyl-pentanoic acid
> <PUBCHEM_IUPAC_TRADITIONAL_NAME>
2-amino-3-ethyl-valeric acid
> <PUBCHEM_IUPAC_INCHI>
InChI=1S/C7H15NO2/c1-3-5(4-2)6(8)7(9)10/h5-6H,3-4,8H2,1-2H3,(H,9,10)
> <PUBCHEM_IUPAC_INCHIKEY>
IXLUUORVBOXZGB-UHFFFAOYSA-N
> <PUBCHEM_XLOGP3>
-1.4
> <PUBCHEM_EXACT_MASS>
145.110278721
> <PUBCHEM_MOLECULAR_FORMULA>
C7H15NO2
> <PUBCHEM_MOLECULAR_WEIGHT>
145.20
> <PUBCHEM_OPENEYE_CAN_SMILES>
CCC(CC)C(C(=O)O)N
> <PUBCHEM_OPENEYE_ISO_SMILES>
CCC(CC)C(C(=O)O)N
> <PUBCHEM_CACTVS_TPSA>
63.3
> <PUBCHEM_MONOISOTOPIC_WEIGHT>
145.110278721
> <PUBCHEM_TOTAL_CHARGE>
0
> <PUBCHEM_HEAVY_ATOM_COUNT>
10
> <PUBCHEM_ATOM_DEF_STEREO_COUNT>
0
> <PUBCHEM_ATOM_UDEF_STEREO_COUNT>
1
> <PUBCHEM_BOND_DEF_STEREO_COUNT>
0
> <PUBCHEM_BOND_UDEF_STEREO_COUNT>
0
> <PUBCHEM_ISOTOPIC_ATOM_COUNT>
0
> <PUBCHEM_COMPONENT_COUNT>
1
> <PUBCHEM_CACTVS_TAUTO_COUNT>
1
> <PUBCHEM_COORDINATE_TYPE>
1
5
255
> <PUBCHEM_BONDANNOTATIONS>
5  12  3
$$$$
