518921
  -OEChem-10302200292D
 98 97  0     1  0  0  0  0  0999 V2000
    4.5981   -1.7500    0.0000 Si  0  0  0  0  0  0  0  0  0  0  0  0
    7.1962    1.7500    0.0000 Si  0  0  0  0  0  0  0  0  0  0  0  0
    2.8660    0.2500    0.0000 Si  0  0  0  0  0  0  0  0  0  0  0  0
    8.9282   -0.2500    0.0000 Si  0  0  0  0  0  0  0  0  0  0  0  0
    3.7320    2.7500    0.0000 Si  0  0  0  0  0  0  0  0  0  0  0  0
    8.0622   -2.7500    0.0000 Si  0  0  0  0  0  0  0  0  0  0  0  0
    5.4641   -1.2500    0.0000 O   0  0  0  0  0  0  0  0  0  0  0  0
    6.3301    1.2500    0.0000 O   0  0  0  0  0  0  0  0  0  0  0  0
    3.7320   -0.2500    0.0000 O   0  0  0  0  0  0  0  0  0  0  0  0
    8.0622    0.2500    0.0000 O   0  0  0  0  0  0  0  0  0  0  0  0
    3.7320    1.7500    0.0000 O   0  0  0  0  0  0  0  0  0  0  0  0
    8.0622   -1.7500    0.0000 O   0  0  0  0  0  0  0  0  0  0  0  0
    5.4641   -0.2500    0.0000 C   0  0  3  0  0  0  0  0  0  0  0  0
    6.3301    0.2500    0.0000 C   0  0  3  0  0  0  0  0  0  0  0  0
    4.5981    0.2500    0.0000 C   0  0  3  0  0  0  0  0  0  0  0  0
    7.1962   -0.2500    0.0000 C   0  0  3  0  0  0  0  0  0  0  0  0
    4.5981    1.2500    0.0000 C   0  0  0  0  0  0  0  0  0  0  0  0
    7.1962   -1.2500    0.0000 C   0  0  0  0  0  0  0  0  0  0  0  0
    3.7320   -2.2500    0.0000 C   0  0  0  0  0  0  0  0  0  0  0  0
    5.0981   -2.6160    0.0000 C   0  0  0  0  0  0  0  0  0  0  0  0
    4.0981   -0.8840    0.0000 C   0  0  0  0  0  0  0  0  0  0  0  0
    8.0622    2.2500    0.0000 C   0  0  0  0  0  0  0  0  0  0  0  0
    6.6962    2.6160    0.0000 C   0  0  0  0  0  0  0  0  0  0  0  0
    7.6962    0.8840    0.0000 C   0  0  0  0  0  0  0  0  0  0  0  0
    2.0000    0.7500    0.0000 C   0  0  0  0  0  0  0  0  0  0  0  0
    2.3660   -0.6160    0.0000 C   0  0  0  0  0  0  0  0  0  0  0  0
    3.3660    1.1160    0.0000 C   0  0  0  0  0  0  0  0  0  0  0  0
    9.7942   -0.7500    0.0000 C   0  0  0  0  0  0  0  0  0  0  0  0
    9.4282    0.6160    0.0000 C   0  0  0  0  0  0  0  0  0  0  0  0
    8.4282   -1.1160    0.0000 C   0  0  0  0  0  0  0  0  0  0  0  0
    3.7320    3.7500    0.0000 C   0  0  0  0  0  0  0  0  0  0  0  0
    2.7320    2.7500    0.0000 C   0  0  0  0  0  0  0  0  0  0  0  0
    4.7320    2.7500    0.0000 C   0  0  0  0  0  0  0  0  0  0  0  0
    8.0622   -3.7500    0.0000 C   0  0  0  0  0  0  0  0  0  0  0  0
    9.0622   -2.7500    0.0000 C   0  0  0  0  0  0  0  0  0  0  0  0
    7.0622   -2.7500    0.0000 C   0  0  0  0  0  0  0  0  0  0  0  0
    6.0010   -0.5600    0.0000 H   0  0  0  0  0  0  0  0  0  0  0  0
    6.8671    0.5600    0.0000 H   0  0  0  0  0  0  0  0  0  0  0  0
    4.5981   -0.3700    0.0000 H   0  0  0  0  0  0  0  0  0  0  0  0
    7.7331   -0.5600    0.0000 H   0  0  0  0  0  0  0  0  0  0  0  0
    5.2087    1.1423    0.0000 H   0  0  0  0  0  0  0  0  0  0  0  0
    4.8101    1.8326    0.0000 H   0  0  0  0  0  0  0  0  0  0  0  0
    6.5856   -1.1423    0.0000 H   0  0  0  0  0  0  0  0  0  0  0  0
    6.9841   -1.8326    0.0000 H   0  0  0  0  0  0  0  0  0  0  0  0
    3.4220   -1.7131    0.0000 H   0  0  0  0  0  0  0  0  0  0  0  0
    3.1951   -2.5600    0.0000 H   0  0  0  0  0  0  0  0  0  0  0  0
    4.0420   -2.7869    0.0000 H   0  0  0  0  0  0  0  0  0  0  0  0
    4.5611   -2.9260    0.0000 H   0  0  0  0  0  0  0  0  0  0  0  0
    5.4081   -3.1530    0.0000 H   0  0  0  0  0  0  0  0  0  0  0  0
    5.6350   -2.3060    0.0000 H   0  0  0  0  0  0  0  0  0  0  0  0
    4.6350   -0.5740    0.0000 H   0  0  0  0  0  0  0  0  0  0  0  0
    3.7881   -0.3470    0.0000 H   0  0  0  0  0  0  0  0  0  0  0  0
    3.5611   -1.1940    0.0000 H   0  0  0  0  0  0  0  0  0  0  0  0
    8.3722    1.7131    0.0000 H   0  0  0  0  0  0  0  0  0  0  0  0
    8.5991    2.5600    0.0000 H   0  0  0  0  0  0  0  0  0  0  0  0
    7.7522    2.7869    0.0000 H   0  0  0  0  0  0  0  0  0  0  0  0
    7.2331    2.9260    0.0000 H   0  0  0  0  0  0  0  0  0  0  0  0
    6.3862    3.1530    0.0000 H   0  0  0  0  0  0  0  0  0  0  0  0
    6.1592    2.3060    0.0000 H   0  0  0  0  0  0  0  0  0  0  0  0
    7.1592    0.5740    0.0000 H   0  0  0  0  0  0  0  0  0  0  0  0
    8.0062    0.3470    0.0000 H   0  0  0  0  0  0  0  0  0  0  0  0
    8.2331    1.1940    0.0000 H   0  0  0  0  0  0  0  0  0  0  0  0
    2.3100    1.2869    0.0000 H   0  0  0  0  0  0  0  0  0  0  0  0
    1.4631    1.0600    0.0000 H   0  0  0  0  0  0  0  0  0  0  0  0
    1.6900    0.2131    0.0000 H   0  0  0  0  0  0  0  0  0  0  0  0
    1.8291   -0.3060    0.0000 H   0  0  0  0  0  0  0  0  0  0  0  0
    2.0560   -1.1530    0.0000 H   0  0  0  0  0  0  0  0  0  0  0  0
    2.9030   -0.9260    0.0000 H   0  0  0  0  0  0  0  0  0  0  0  0
    3.9030    0.8060    0.0000 H   0  0  0  0  0  0  0  0  0  0  0  0
    3.6760    1.6530    0.0000 H   0  0  0  0  0  0  0  0  0  0  0  0
    2.8291    1.4260    0.0000 H   0  0  0  0  0  0  0  0  0  0  0  0
    9.4842   -1.2869    0.0000 H   0  0  0  0  0  0  0  0  0  0  0  0
   10.3312   -1.0600    0.0000 H   0  0  0  0  0  0  0  0  0  0  0  0
   10.1042   -0.2131    0.0000 H   0  0  0  0  0  0  0  0  0  0  0  0
    9.9651    0.3060    0.0000 H   0  0  0  0  0  0  0  0  0  0  0  0
    9.7382    1.1530    0.0000 H   0  0  0  0  0  0  0  0  0  0  0  0
    8.8913    0.9260    0.0000 H   0  0  0  0  0  0  0  0  0  0  0  0
    7.8913   -0.8060    0.0000 H   0  0  0  0  0  0  0  0  0  0  0  0
    8.1182   -1.6530    0.0000 H   0  0  0  0  0  0  0  0  0  0  0  0
    8.9651   -1.4260    0.0000 H   0  0  0  0  0  0  0  0  0  0  0  0
    4.3520    3.7500    0.0000 H   0  0  0  0  0  0  0  0  0  0  0  0
    3.7320    4.3700    0.0000 H   0  0  0  0  0  0  0  0  0  0  0  0
    3.1120    3.7500    0.0000 H   0  0  0  0  0  0  0  0  0  0  0  0
    2.7320    3.3700    0.0000 H   0  0  0  0  0  0  0  0  0  0  0  0
    2.1120    2.7500    0.0000 H   0  0  0  0  0  0  0  0  0  0  0  0
    2.7320    2.1300    0.0000 H   0  0  0  0  0  0  0  0  0  0  0  0
    4.7320    2.1300    0.0000 H   0  0  0  0  0  0  0  0  0  0  0  0
    5.3520    2.7500    0.0000 H   0  0  0  0  0  0  0  0  0  0  0  0
    4.7320    3.3700    0.0000 H   0  0  0  0  0  0  0  0  0  0  0  0
    7.4422   -3.7500    0.0000 H   0  0  0  0  0  0  0  0  0  0  0  0
    8.0622   -4.3700    0.0000 H   0  0  0  0  0  0  0  0  0  0  0  0
    8.6822   -3.7500    0.0000 H   0  0  0  0  0  0  0  0  0  0  0  0
    9.0622   -3.3700    0.0000 H   0  0  0  0  0  0  0  0  0  0  0  0
    9.6822   -2.7500    0.0000 H   0  0  0  0  0  0  0  0  0  0  0  0
    9.0622   -2.1300    0.0000 H   0  0  0  0  0  0  0  0  0  0  0  0
    7.0622   -2.1300    0.0000 H   0  0  0  0  0  0  0  0  0  0  0  0
    6.4422   -2.7500    0.0000 H   0  0  0  0  0  0  0  0  0  0  0  0
    7.0622   -3.3700    0.0000 H   0  0  0  0  0  0  0  0  0  0  0  0
  1  7  1  0  0  0  0
  1 19  1  0  0  0  0
  1 20  1  0  0  0  0
  1 21  1  0  0  0  0
  2  8  1  0  0  0  0
  2 22  1  0  0  0  0
  2 23  1  0  0  0  0
  2 24  1  0  0  0  0
  3  9  1  0  0  0  0
  3 25  1  0  0  0  0
  3 26  1  0  0  0  0
  3 27  1  0  0  0  0
  4 10  1  0  0  0  0
  4 28  1  0  0  0  0
  4 29  1  0  0  0  0
  4 30  1  0  0  0  0
  5 11  1  0  0  0  0
  5 31  1  0  0  0  0
  5 32  1  0  0  0  0
  5 33  1  0  0  0  0
  6 12  1  0  0  0  0
  6 34  1  0  0  0  0
  6 35  1  0  0  0  0
  6 36  1  0  0  0  0
  7 13  1  0  0  0  0
  8 14  1  0  0  0  0
  9 15  1  0  0  0  0
 10 16  1  0  0  0  0
 11 17  1  0  0  0  0
 12 18  1  0  0  0  0
 13 14  1  0  0  0  0
 13 15  1  0  0  0  0
 13 37  1  0  0  0  0
 14 16  1  0  0  0  0
 14 38  1  0  0  0  0
 15 17  1  0  0  0  0
 15 39  1  0  0  0  0
 16 18  1  0  0  0  0
 16 40  1  0  0  0  0
 17 41  1  0  0  0  0
 17 42  1  0  0  0  0
 18 43  1  0  0  0  0
 18 44  1  0  0  0  0
 19 45  1  0  0  0  0
 19 46  1  0  0  0  0
 19 47  1  0  0  0  0
 20 48  1  0  0  0  0
 20 49  1  0  0  0  0
 20 50  1  0  0  0  0
 21 51  1  0  0  0  0
 21 52  1  0  0  0  0
 21 53  1  0  0  0  0
 22 54  1  0  0  0  0
 22 55  1  0  0  0  0
 22 56  1  0  0  0  0
 23 57  1  0  0  0  0
 23 58  1  0  0  0  0
 23 59  1  0  0  0  0
 24 60  1  0  0  0  0
 24 61  1  0  0  0  0
 24 62  1  0  0  0  0
 25 63  1  0  0  0  0
 25 64  1  0  0  0  0
 25 65  1  0  0  0  0
 26 66  1  0  0  0  0
 26 67  1  0  0  0  0
 26 68  1  0  0  0  0
 27 69  1  0  0  0  0
 27 70  1  0  0  0  0
 27 71  1  0  0  0  0
 28 72  1  0  0  0  0
 28 73  1  0  0  0  0
 28 74  1  0  0  0  0
 29 75  1  0  0  0  0
 29 76  1  0  0  0  0
 29 77  1  0  0  0  0
 30 78  1  0  0  0  0
 30 79  1  0  0  0  0
 30 80  1  0  0  0  0
 31 81  1  0  0  0  0
 31 82  1  0  0  0  0
 31 83  1  0  0  0  0
 32 84  1  0  0  0  0
 32 85  1  0  0  0  0
 32 86  1  0  0  0  0
 33 87  1  0  0  0  0
 33 88  1  0  0  0  0
 33 89  1  0  0  0  0
 34 90  1  0  0  0  0
 34 91  1  0  0  0  0
 34 92  1  0  0  0  0
 35 93  1  0  0  0  0
 35 94  1  0  0  0  0
 35 95  1  0  0  0  0
 36 96  1  0  0  0  0
 36 97  1  0  0  0  0
 36 98  1  0  0  0  0
M  END
> <PUBCHEM_COMPOUND_CID>
518921
> <PUBCHEM_COMPOUND_CANONICALIZED>
1
> <PUBCHEM_CACTVS_COMPLEXITY>
582
> <PUBCHEM_CACTVS_HBOND_ACCEPTOR>
6
> <PUBCHEM_CACTVS_HBOND_DONOR>
0
> <PUBCHEM_CACTVS_ROTATABLE_BOND>
17
> <PUBCHEM_CACTVS_SUBSKEYS>
AAADcfB4OAwAAAAAAAAAAAAAAAAAAAAAAAAAAAAAAAAAAAAAAAAAGhAAAEAACBSggAJCAAAAAAEAAAAAAAAAAAAAAAAAAAAAAAABAAIAAAAAAAAFAAAAAAHAYAQAAAAAAAAAAAAAAAAAAAAAAAAAAAAAAA==
> <PUBCHEM_IUPAC_OPENEYE_NAME>
trimethyl-[2,3,4,5,6-pentakis(trimethylsilyloxy)hexoxy]silane
> <PUBCHEM_IUPAC_CAS_NAME>
trimethyl-[1,2,4,5,6-pentakis(trimethylsilyloxy)hexan-3-yloxy]silane
> <PUBCHEM_IUPAC_NAME_MARKUP>
trimethyl-[1,2,4,5,6-pentakis(trimethylsilyloxy)hexan-3-yloxy]silane
> <PUBCHEM_IUPAC_NAME>
trimethyl-[1,2,4,5,6-pentakis(trimethylsilyloxy)hexan-3-yloxy]silane
> <PUBCHEM_IUPAC_SYSTEMATIC_NAME>
trimethyl-[1,2,4,5,6-pentakis(trimethylsilyloxy)hexan-3-yloxy]silane
> <PUBCHEM_IUPAC_TRADITIONAL_NAME>
trimethyl-[2,3,4,5,6-pentakis(trimethylsilyloxy)hexoxy]silane
> <PUBCHEM_IUPAC_INCHI>
InChI=1S/C24H62O6Si6/c1-31(2,3)25-19-21(27-33(7,8)9)23(29-35(13,14)15)24(30-36(16,17)18)22(28-34(10,11)12)20-26-32(4,5)6/h21-24H,19-20H2,1-18H3
> <PUBCHEM_IUPAC_INCHIKEY>
USBJDBWAPKNPCK-UHFFFAOYSA-N
> <PUBCHEM_EXACT_MASS>
614.31619890
> <PUBCHEM_MOLECULAR_FORMULA>
C24H62O6Si6
> <PUBCHEM_MOLECULAR_WEIGHT>
615.3
> <PUBCHEM_OPENEYE_CAN_SMILES>
C[Si](C)(C)OCC(C(C(C(CO[Si](C)(C)C)O[Si](C)(C)C)O[Si](C)(C)C)O[Si](C)(C)C)O[Si](C)(C)C
> <PUBCHEM_OPENEYE_ISO_SMILES>
C[Si](C)(C)OCC(C(C(C(CO[Si](C)(C)C)O[Si](C)(C)C)O[Si](C)(C)C)O[Si](C)(C)C)O[Si](C)(C)C
> <PUBCHEM_CACTVS_TPSA>
55.4
> <PUBCHEM_MONOISOTOPIC_WEIGHT>
614.31619890
> <PUBCHEM_TOTAL_CHARGE>
0
> <PUBCHEM_HEAVY_ATOM_COUNT>
36
> <PUBCHEM_ATOM_DEF_STEREO_COUNT>
0
> <PUBCHEM_ATOM_UDEF_STEREO_COUNT>
4
> <PUBCHEM_BOND_DEF_STEREO_COUNT>
0
> <PUBCHEM_BOND_UDEF_STEREO_COUNT>
0
> <PUBCHEM_ISOTOPIC_ATOM_COUNT>
0
> <PUBCHEM_COMPONENT_COUNT>
1
> <PUBCHEM_CACTVS_TAUTO_COUNT>
1
> <PUBCHEM_COORDINATE_TYPE>
1
5
255
> <PUBCHEM_BONDANNOTATIONS>
15  17  3
16  18  3
13  7  3
14  8  3
$$$$
