519049
  -OEChem-10302200292D
 73 75  0     1  0  0  0  0  0999 V2000
   10.3318    3.6670    0.0000 O   0  0  0  0  0  0  0  0  0  0  0  0
   12.4355    0.3621    0.0000 O   0  0  0  0  0  0  0  0  0  0  0  0
   12.4556    2.0940    0.0000 O   0  0  0  0  0  0  0  0  0  0  0  0
    6.8137    0.6219    0.0000 C   0  0  3  0  0  0  0  0  0  0  0  0
    6.8137    1.6219    0.0000 C   0  0  3  0  0  0  0  0  0  0  0  0
    7.6798    2.1219    0.0000 C   0  0  3  0  0  0  0  0  0  0  0  0
    5.8675    0.3172    0.0000 C   0  0  3  0  0  0  0  0  0  0  0  0
    8.5458    1.6219    0.0000 C   0  0  3  0  0  0  0  0  0  0  0  0
    7.6798    0.1219    0.0000 C   0  0  0  0  0  0  0  0  0  0  0  0
    5.8675    1.9266    0.0000 C   0  0  0  0  0  0  0  0  0  0  0  0
    8.5458    0.6219    0.0000 C   0  0  0  0  0  0  0  0  0  0  0  0
    5.2839    1.1219    0.0000 C   0  0  0  0  0  0  0  0  0  0  0  0
    9.4558    2.1287    0.0000 C   0  0  3  0  0  0  0  0  0  0  0  0
    7.6637    3.1634    0.0000 C   0  0  0  0  0  0  0  0  0  0  0  0
    5.5568   -0.6334    0.0000 C   0  0  3  0  0  0  0  0  0  0  0  0
    6.8137   -0.3781    0.0000 C   0  0  0  0  0  0  0  0  0  0  0  0
    8.5617    3.6912    0.0000 C   0  0  0  0  0  0  0  0  0  0  0  0
    9.4638    3.1703    0.0000 C   0  0  0  0  0  0  0  0  0  0  0  0
   10.4557    2.1172    0.0000 C   0  0  0  0  0  0  0  0  0  0  0  0
    9.9457    1.2570    0.0000 C   0  0  0  0  0  0  0  0  0  0  0  0
    4.5783   -0.8396    0.0000 C   0  0  0  0  0  0  0  0  0  0  0  0
    6.2247   -1.3777    0.0000 C   0  0  0  0  0  0  0  0  0  0  0  0
   10.9457    1.2454    0.0000 C   0  0  0  0  0  0  0  0  0  0  0  0
    4.2677   -1.7901    0.0000 C   0  0  0  0  0  0  0  0  0  0  0  0
    3.2892   -1.9963    0.0000 C   0  0  0  0  0  0  0  0  0  0  0  0
   11.9456    1.2339    0.0000 C   0  0  0  0  0  0  0  0  0  0  0  0
    2.9785   -2.9468    0.0000 C   0  0  0  0  0  0  0  0  0  0  0  0
    2.0000   -3.1531    0.0000 C   0  0  0  0  0  0  0  0  0  0  0  0
    3.6464   -3.6912    0.0000 C   0  0  0  0  0  0  0  0  0  0  0  0
    6.7481    2.2384    0.0000 H   0  0  0  0  0  0  0  0  0  0  0  0
    8.2143    2.4360    0.0000 H   0  0  0  0  0  0  0  0  0  0  0  0
    5.2550    0.2210    0.0000 H   0  0  0  0  0  0  0  0  0  0  0  0
    9.0803    1.3078    0.0000 H   0  0  0  0  0  0  0  0  0  0  0  0
    7.2812   -0.3531    0.0000 H   0  0  0  0  0  0  0  0  0  0  0  0
    8.0783   -0.3531    0.0000 H   0  0  0  0  0  0  0  0  0  0  0  0
    6.1185    2.4935    0.0000 H   0  0  0  0  0  0  0  0  0  0  0  0
    5.3301    2.2358    0.0000 H   0  0  0  0  0  0  0  0  0  0  0  0
    8.7578    0.0393    0.0000 H   0  0  0  0  0  0  0  0  0  0  0  0
    9.1564    0.7295    0.0000 H   0  0  0  0  0  0  0  0  0  0  0  0
    4.8230    1.5366    0.0000 H   0  0  0  0  0  0  0  0  0  0  0  0
    4.8230    0.7072    0.0000 H   0  0  0  0  0  0  0  0  0  0  0  0
    7.4457    3.7438    0.0000 H   0  0  0  0  0  0  0  0  0  0  0  0
    7.0545    3.0479    0.0000 H   0  0  0  0  0  0  0  0  0  0  0  0
    5.3642   -1.2227    0.0000 H   0  0  0  0  0  0  0  0  0  0  0  0
    6.1937   -0.3781    0.0000 H   0  0  0  0  0  0  0  0  0  0  0  0
    6.8137   -0.9981    0.0000 H   0  0  0  0  0  0  0  0  0  0  0  0
    7.4337   -0.3781    0.0000 H   0  0  0  0  0  0  0  0  0  0  0  0
    8.9590    4.1671    0.0000 H   0  0  0  0  0  0  0  0  0  0  0  0
    8.1608    4.1640    0.0000 H   0  0  0  0  0  0  0  0  0  0  0  0
   11.0407    2.3225    0.0000 H   0  0  0  0  0  0  0  0  0  0  0  0
   10.3551    2.7290    0.0000 H   0  0  0  0  0  0  0  0  0  0  0  0
    9.4052    0.9532    0.0000 H   0  0  0  0  0  0  0  0  0  0  0  0
   10.2495    0.7165    0.0000 H   0  0  0  0  0  0  0  0  0  0  0  0
   10.4862    1.5608    0.0000 H   0  0  0  0  0  0  0  0  0  0  0  0
    4.5578   -0.2199    0.0000 H   0  0  0  0  0  0  0  0  0  0  0  0
    3.9645   -0.7522    0.0000 H   0  0  0  0  0  0  0  0  0  0  0  0
    5.7632   -1.7917    0.0000 H   0  0  0  0  0  0  0  0  0  0  0  0
    6.6388   -1.8391    0.0000 H   0  0  0  0  0  0  0  0  0  0  0  0
    6.6862   -0.9636    0.0000 H   0  0  0  0  0  0  0  0  0  0  0  0
   10.3606    1.0401    0.0000 H   0  0  0  0  0  0  0  0  0  0  0  0
   11.0463    0.6336    0.0000 H   0  0  0  0  0  0  0  0  0  0  0  0
    4.2882   -2.4098    0.0000 H   0  0  0  0  0  0  0  0  0  0  0  0
    4.8815   -1.8775    0.0000 H   0  0  0  0  0  0  0  0  0  0  0  0
    3.2686   -1.3767    0.0000 H   0  0  0  0  0  0  0  0  0  0  0  0
    2.6754   -1.9090    0.0000 H   0  0  0  0  0  0  0  0  0  0  0  0
    3.5852   -2.8190    0.0000 H   0  0  0  0  0  0  0  0  0  0  0  0
    1.8721   -2.5464    0.0000 H   0  0  0  0  0  0  0  0  0  0  0  0
    1.3933   -3.2809    0.0000 H   0  0  0  0  0  0  0  0  0  0  0  0
    2.1279   -3.7597    0.0000 H   0  0  0  0  0  0  0  0  0  0  0  0
    3.1849   -4.1052    0.0000 H   0  0  0  0  0  0  0  0  0  0  0  0
    4.0604   -4.1526    0.0000 H   0  0  0  0  0  0  0  0  0  0  0  0
    4.1078   -3.2771    0.0000 H   0  0  0  0  0  0  0  0  0  0  0  0
   13.0555    0.3549    0.0000 H   0  0  0  0  0  0  0  0  0  0  0  0
  1 18  2  0  0  0  0
  2 26  1  0  0  0  0
  2 73  1  0  0  0  0
  3 26  2  0  0  0  0
  4  5  1  0  0  0  0
  4  7  1  0  0  0  0
  4  9  1  0  0  0  0
  4 16  1  0  0  0  0
  5  6  1  0  0  0  0
  5 10  1  0  0  0  0
  5 30  1  0  0  0  0
  6  8  1  0  0  0  0
  6 14  1  0  0  0  0
  6 31  1  0  0  0  0
  7 12  1  0  0  0  0
  7 15  1  0  0  0  0
  7 32  1  0  0  0  0
  8 11  1  0  0  0  0
  8 13  1  0  0  0  0
  8 33  1  0  0  0  0
  9 11  1  0  0  0  0
  9 34  1  0  0  0  0
  9 35  1  0  0  0  0
 10 12  1  0  0  0  0
 10 36  1  0  0  0  0
 10 37  1  0  0  0  0
 11 38  1  0  0  0  0
 11 39  1  0  0  0  0
 12 40  1  0  0  0  0
 12 41  1  0  0  0  0
 13 18  1  0  0  0  0
 13 19  1  0  0  0  0
 13 20  1  0  0  0  0
 14 17  1  0  0  0  0
 14 42  1  0  0  0  0
 14 43  1  0  0  0  0
 15 21  1  0  0  0  0
 15 22  1  0  0  0  0
 15 44  1  0  0  0  0
 16 45  1  0  0  0  0
 16 46  1  0  0  0  0
 16 47  1  0  0  0  0
 17 18  1  0  0  0  0
 17 48  1  0  0  0  0
 17 49  1  0  0  0  0
 19 23  1  0  0  0  0
 19 50  1  0  0  0  0
 19 51  1  0  0  0  0
 20 52  1  0  0  0  0
 20 53  1  0  0  0  0
 20 54  1  0  0  0  0
 21 24  1  0  0  0  0
 21 55  1  0  0  0  0
 21 56  1  0  0  0  0
 22 57  1  0  0  0  0
 22 58  1  0  0  0  0
 22 59  1  0  0  0  0
 23 26  1  0  0  0  0
 23 60  1  0  0  0  0
 23 61  1  0  0  0  0
 24 25  1  0  0  0  0
 24 62  1  0  0  0  0
 24 63  1  0  0  0  0
 25 27  1  0  0  0  0
 25 64  1  0  0  0  0
 25 65  1  0  0  0  0
 27 28  1  0  0  0  0
 27 29  1  0  0  0  0
 27 66  1  0  0  0  0
 28 67  1  0  0  0  0
 28 68  1  0  0  0  0
 28 69  1  0  0  0  0
 29 70  1  0  0  0  0
 29 71  1  0  0  0  0
 29 72  1  0  0  0  0
M  END
> <PUBCHEM_COMPOUND_CID>
519049
> <PUBCHEM_COMPOUND_CANONICALIZED>
1
> <PUBCHEM_CACTVS_COMPLEXITY>
611
> <PUBCHEM_CACTVS_HBOND_ACCEPTOR>
3
> <PUBCHEM_CACTVS_HBOND_DONOR>
1
> <PUBCHEM_CACTVS_ROTATABLE_BOND>
8
> <PUBCHEM_CACTVS_SUBSKEYS>
AAADcfB4MAAAAAAAAAAAAAAAAAAAAYAAAAAwYAAAAAAAAGDAAAAAGgAACAAADwSAgAACCAAAAgAIAICQCAAAAAAAAAAAAAEAAAAAABIAAAAAQAAEAAAAAAGIzvCvgAAAAAAAAACAAAQAACAAAQAACAAAAA==
> <PUBCHEM_IUPAC_OPENEYE_NAME>
3-[3-(1,5-dimethylhexyl)-3a,6-dimethyl-7-oxo-1,2,3,4,5,5a,8,9,9a,9b-decahydrocyclopenta[a]naphthalen-6-yl]propanoic acid
> <PUBCHEM_IUPAC_CAS_NAME>
3-[3a,6-dimethyl-3-(6-methylheptan-2-yl)-7-oxo-1,2,3,4,5,5a,8,9,9a,9b-decahydrocyclopenta[a]naphthalen-6-yl]propanoic acid
> <PUBCHEM_IUPAC_NAME_MARKUP>
3-[3<I>a</I>,6-dimethyl-3-(6-methylheptan-2-yl)-7-oxo-1,2,3,4,5,5<I>a</I>,8,9,9<I>a</I>,9<I>b</I>-decahydrocyclopenta[a]naphthalen-6-yl]propanoic acid
> <PUBCHEM_IUPAC_NAME>
3-[3a,6-dimethyl-3-(6-methylheptan-2-yl)-7-oxo-1,2,3,4,5,5a,8,9,9a,9b-decahydrocyclopenta[a]naphthalen-6-yl]propanoic acid
> <PUBCHEM_IUPAC_SYSTEMATIC_NAME>
3-[3a,6-dimethyl-3-(6-methylheptan-2-yl)-7-oxidanylidene-1,2,3,4,5,5a,8,9,9a,9b-decahydrocyclopenta[a]naphthalen-6-yl]propanoic acid
> <PUBCHEM_IUPAC_TRADITIONAL_NAME>
3-[3-(1,5-dimethylhexyl)-7-keto-3a,6-dimethyl-1,2,3,4,5,5a,8,9,9a,9b-decahydrobenz[e]inden-6-yl]propionic acid
> <PUBCHEM_IUPAC_INCHI>
InChI=1S/C26H44O3/c1-17(2)7-6-8-18(3)20-10-11-21-19-9-12-23(27)26(5,16-14-24(28)29)22(19)13-15-25(20,21)4/h17-22H,6-16H2,1-5H3,(H,28,29)
> <PUBCHEM_IUPAC_INCHIKEY>
YSWDCQJTPYALJE-UHFFFAOYSA-N
> <PUBCHEM_XLOGP3_AA>
7.4
> <PUBCHEM_EXACT_MASS>
404.32904526
> <PUBCHEM_MOLECULAR_FORMULA>
C26H44O3
> <PUBCHEM_MOLECULAR_WEIGHT>
404.6
> <PUBCHEM_OPENEYE_CAN_SMILES>
CC(C)CCCC(C)C1CCC2C1(CCC3C2CCC(=O)C3(C)CCC(=O)O)C
> <PUBCHEM_OPENEYE_ISO_SMILES>
CC(C)CCCC(C)C1CCC2C1(CCC3C2CCC(=O)C3(C)CCC(=O)O)C
> <PUBCHEM_CACTVS_TPSA>
54.4
> <PUBCHEM_MONOISOTOPIC_WEIGHT>
404.32904526
> <PUBCHEM_TOTAL_CHARGE>
0
> <PUBCHEM_HEAVY_ATOM_COUNT>
29
> <PUBCHEM_ATOM_DEF_STEREO_COUNT>
0
> <PUBCHEM_ATOM_UDEF_STEREO_COUNT>
7
> <PUBCHEM_BOND_DEF_STEREO_COUNT>
0
> <PUBCHEM_BOND_UDEF_STEREO_COUNT>
0
> <PUBCHEM_ISOTOPIC_ATOM_COUNT>
0
> <PUBCHEM_COMPONENT_COUNT>
1
> <PUBCHEM_CACTVS_TAUTO_COUNT>
-1
> <PUBCHEM_COORDINATE_TYPE>
1
5
255
> <PUBCHEM_BONDANNOTATIONS>
13  20  3
15  22  3
4  16  3
5  10  3
6  14  3
7  12  3
8  11  3
$$$$
