519030
  -OEChem-10302200292D
 26 28  0     1  0  0  0  0  0999 V2000
    4.0199   -1.9024    0.0000 O   0  0  0  0  0  0  0  0  0  0  0  0
    2.6281    1.9214    0.0000 O   0  0  0  0  0  0  0  0  0  0  0  0
    5.6969    0.4334    0.0000 C   0  0  3  0  0  0  0  0  0  0  0  0
    5.9557    1.3994    0.0000 C   0  0  3  0  0  0  0  0  0  0  0  0
    5.2191    2.3820    0.0000 C   0  0  0  0  0  0  0  0  0  0  0  0
    4.3242   -0.1586    0.0000 C   0  0  0  0  0  0  0  0  0  0  0  0
    3.9822    0.7811    0.0000 C   0  0  0  0  0  0  0  0  0  0  0  0
    7.0958   -0.0754    0.0000 C   0  0  0  0  0  0  0  0  0  0  0  0
    7.3546    0.8905    0.0000 C   0  0  0  0  0  0  0  0  0  0  0  0
    3.6670   -0.9668    0.0000 C   0  0  0  0  0  0  0  0  0  0  0  0
    2.9592    0.9778    0.0000 C   0  0  0  0  0  0  0  0  0  0  0  0
    2.6398   -0.7938    0.0000 C   0  0  0  0  0  0  0  0  0  0  0  0
    2.2836    0.1850    0.0000 C   0  0  0  0  0  0  0  0  0  0  0  0
    2.0000   -1.5623    0.0000 C   0  0  0  0  0  0  0  0  0  0  0  0
    6.1584    0.8474    0.0000 H   0  0  0  0  0  0  0  0  0  0  0  0
    6.3250    1.8973    0.0000 H   0  0  0  0  0  0  0  0  0  0  0  0
    5.5369    2.9143    0.0000 H   0  0  0  0  0  0  0  0  0  0  0  0
    4.6059    2.4739    0.0000 H   0  0  0  0  0  0  0  0  0  0  0  0
    7.3822   -0.6253    0.0000 H   0  0  0  0  0  0  0  0  0  0  0  0
    7.9045    1.1769    0.0000 H   0  0  0  0  0  0  0  0  0  0  0  0
    1.6734    0.2950    0.0000 H   0  0  0  0  0  0  0  0  0  0  0  0
    1.5235   -1.1656    0.0000 H   0  0  0  0  0  0  0  0  0  0  0  0
    1.6033   -2.0388    0.0000 H   0  0  0  0  0  0  0  0  0  0  0  0
    2.4765   -1.9590    0.0000 H   0  0  0  0  0  0  0  0  0  0  0  0
    3.6268   -2.3820    0.0000 H   0  0  0  0  0  0  0  0  0  0  0  0
    2.0188    2.0361    0.0000 H   0  0  0  0  0  0  0  0  0  0  0  0
  1 10  1  0  0  0  0
  1 25  1  0  0  0  0
  2 11  1  0  0  0  0
  2 26  1  0  0  0  0
  3  5  1  0  0  0  0
  3  6  1  0  0  0  0
  3  8  1  0  0  0  0
  3 15  1  0  0  0  0
  4  5  1  0  0  0  0
  4  7  1  0  0  0  0
  4  9  1  0  0  0  0
  4 16  1  0  0  0  0
  5 17  1  0  0  0  0
  5 18  1  0  0  0  0
  6  7  1  0  0  0  0
  6 10  2  0  0  0  0
  7 11  2  0  0  0  0
  8  9  2  0  0  0  0
  8 19  1  0  0  0  0
  9 20  1  0  0  0  0
 10 12  1  0  0  0  0
 11 13  1  0  0  0  0
 12 13  2  0  0  0  0
 12 14  1  0  0  0  0
 13 21  1  0  0  0  0
 14 22  1  0  0  0  0
 14 23  1  0  0  0  0
 14 24  1  0  0  0  0
M  END
> <PUBCHEM_COMPOUND_CID>
519030
> <PUBCHEM_COMPOUND_CANONICALIZED>
1
> <PUBCHEM_CACTVS_COMPLEXITY>
274
> <PUBCHEM_CACTVS_HBOND_ACCEPTOR>
2
> <PUBCHEM_CACTVS_HBOND_DONOR>
2
> <PUBCHEM_CACTVS_ROTATABLE_BOND>
0
> <PUBCHEM_CACTVS_SUBSKEYS>
AAADccBwMAAAAAAAAAAAAAAAAAAAAYIAAAAwQAAAAAAAAGABAAAAGgAACAAADQSAmAAyBoAAAgCAAiBCAAACAAAgIAAIiAAGCIgIJiKCERKAcAAkwBEImAfAwPAOwQADAAAYAACCAAYAADAAAQAACAAAAA==
> <PUBCHEM_IUPAC_OPENEYE_NAME>
4-methyltricyclo[6.2.1.02,7]undeca-2,4,6,9-tetraene-3,6-diol
> <PUBCHEM_IUPAC_CAS_NAME>
4-methyltricyclo[6.2.1.02,7]undeca-2,4,6,9-tetraene-3,6-diol
> <PUBCHEM_IUPAC_NAME_MARKUP>
4-methyltricyclo[6.2.1.0<SUP>2,7</SUP>]undeca-2,4,6,9-tetraene-3,6-diol
> <PUBCHEM_IUPAC_NAME>
4-methyltricyclo[6.2.1.02,7]undeca-2,4,6,9-tetraene-3,6-diol
> <PUBCHEM_IUPAC_SYSTEMATIC_NAME>
4-methyltricyclo[6.2.1.02,7]undeca-2,4,6,9-tetraene-3,6-diol
> <PUBCHEM_IUPAC_TRADITIONAL_NAME>
4-methyltricyclo[6.2.1.02,7]undeca-2,4,6,9-tetraene-3,6-diol
> <PUBCHEM_IUPAC_INCHI>
InChI=1S/C12H12O2/c1-6-4-9(13)10-7-2-3-8(5-7)11(10)12(6)14/h2-4,7-8,13-14H,5H2,1H3
> <PUBCHEM_IUPAC_INCHIKEY>
QODAUEJILFBJKF-UHFFFAOYSA-N
> <PUBCHEM_XLOGP3_AA>
2.6
> <PUBCHEM_EXACT_MASS>
188.083729621
> <PUBCHEM_MOLECULAR_FORMULA>
C12H12O2
> <PUBCHEM_MOLECULAR_WEIGHT>
188.22
> <PUBCHEM_OPENEYE_CAN_SMILES>
CC1=CC(=C2C3CC(C2=C1O)C=C3)O
> <PUBCHEM_OPENEYE_ISO_SMILES>
CC1=CC(=C2C3CC(C2=C1O)C=C3)O
> <PUBCHEM_CACTVS_TPSA>
40.5
> <PUBCHEM_MONOISOTOPIC_WEIGHT>
188.083729621
> <PUBCHEM_TOTAL_CHARGE>
0
> <PUBCHEM_HEAVY_ATOM_COUNT>
14
> <PUBCHEM_ATOM_DEF_STEREO_COUNT>
0
> <PUBCHEM_ATOM_UDEF_STEREO_COUNT>
2
> <PUBCHEM_BOND_DEF_STEREO_COUNT>
0
> <PUBCHEM_BOND_UDEF_STEREO_COUNT>
0
> <PUBCHEM_ISOTOPIC_ATOM_COUNT>
0
> <PUBCHEM_COMPONENT_COUNT>
1
> <PUBCHEM_CACTVS_TAUTO_COUNT>
-1
> <PUBCHEM_COORDINATE_TYPE>
1
5
255
> <PUBCHEM_BONDANNOTATIONS>
10  12  8
11  13  8
12  13  8
3  5  3
4  5  3
6  10  8
6  7  8
7  11  8
$$$$
