519052
  -OEChem-10302200292D
 57 60  0     1  0  0  0  0  0999 V2000
    8.8551    2.5258    0.0000 O   0  0  0  0  0  0  0  0  0  0  0  0
    3.6422   -2.5358    0.0000 O   0  0  0  0  0  0  0  0  0  0  0  0
    2.3587   -0.7371    0.0000 O   0  0  0  0  0  0  0  0  0  0  0  0
   10.5015    1.9877    0.0000 O   0  0  0  0  0  0  0  0  0  0  0  0
    2.0000   -1.9850    0.0000 O   0  0  0  0  0  0  0  0  0  0  0  0
    7.5982    0.2706    0.0000 C   0  0  3  0  0  0  0  0  0  0  0  0
    7.5982    1.2706    0.0000 C   0  0  3  0  0  0  0  0  0  0  0  0
    6.7322   -0.2294    0.0000 C   0  0  3  0  0  0  0  0  0  0  0  0
    5.8662    0.2706    0.0000 C   0  0  3  0  0  0  0  0  0  0  0  0
    4.9562   -0.2363    0.0000 C   0  0  3  0  0  0  0  0  0  0  0  0
    6.7322    1.7706    0.0000 C   0  0  0  0  0  0  0  0  0  0  0  0
    5.8662    1.2706    0.0000 C   0  0  0  0  0  0  0  0  0  0  0  0
    8.5445    1.5753    0.0000 C   0  0  3  0  0  0  0  0  0  0  0  0
    8.5445   -0.0342    0.0000 C   0  0  0  0  0  0  0  0  0  0  0  0
    6.7483   -1.2709    0.0000 C   0  0  0  0  0  0  0  0  0  0  0  0
    9.1281    0.7706    0.0000 C   0  0  0  0  0  0  0  0  0  0  0  0
    4.9482   -1.2779    0.0000 C   0  0  0  0  0  0  0  0  0  0  0  0
    5.8502   -1.7987    0.0000 C   0  0  0  0  0  0  0  0  0  0  0  0
    7.5982    2.2706    0.0000 C   0  0  0  0  0  0  0  0  0  0  0  0
    3.9731    0.0887    0.0000 C   0  0  0  0  0  0  0  0  0  0  0  0
    4.9639    0.7637    0.0000 C   0  0  0  0  0  0  0  0  0  0  0  0
    3.9601   -1.5877    0.0000 C   0  0  0  0  0  0  0  0  0  0  0  0
    3.3587   -0.7448    0.0000 C   0  0  0  0  0  0  0  0  0  0  0  0
    9.8336    2.7320    0.0000 C   0  0  0  0  0  0  0  0  0  0  0  0
   10.1443    3.6826    0.0000 C   0  0  0  0  0  0  0  0  0  0  0  0
    2.6621   -2.7345    0.0000 C   0  0  0  0  0  0  0  0  0  0  0  0
    2.3441   -3.6826    0.0000 C   0  0  0  0  0  0  0  0  0  0  0  0
    7.6638   -0.3460    0.0000 H   0  0  0  0  0  0  0  0  0  0  0  0
    7.2715   -0.5353    0.0000 H   0  0  0  0  0  0  0  0  0  0  0  0
    6.4031    0.5806    0.0000 H   0  0  0  0  0  0  0  0  0  0  0  0
    7.1308    2.2455    0.0000 H   0  0  0  0  0  0  0  0  0  0  0  0
    6.3337    2.2455    0.0000 H   0  0  0  0  0  0  0  0  0  0  0  0
    5.6541    1.8532    0.0000 H   0  0  0  0  0  0  0  0  0  0  0  0
    5.2556    1.1629    0.0000 H   0  0  0  0  0  0  0  0  0  0  0  0
    8.1070    2.0146    0.0000 H   0  0  0  0  0  0  0  0  0  0  0  0
    8.2934   -0.6011    0.0000 H   0  0  0  0  0  0  0  0  0  0  0  0
    9.0818   -0.3434    0.0000 H   0  0  0  0  0  0  0  0  0  0  0  0
    6.9663   -1.8513    0.0000 H   0  0  0  0  0  0  0  0  0  0  0  0
    7.3574   -1.1554    0.0000 H   0  0  0  0  0  0  0  0  0  0  0  0
    9.5889    0.3558    0.0000 H   0  0  0  0  0  0  0  0  0  0  0  0
    9.5889    1.1853    0.0000 H   0  0  0  0  0  0  0  0  0  0  0  0
    5.4529   -2.2747    0.0000 H   0  0  0  0  0  0  0  0  0  0  0  0
    6.2512   -2.2716    0.0000 H   0  0  0  0  0  0  0  0  0  0  0  0
    8.2182    2.2706    0.0000 H   0  0  0  0  0  0  0  0  0  0  0  0
    7.5982    2.8906    0.0000 H   0  0  0  0  0  0  0  0  0  0  0  0
    6.9782    2.2706    0.0000 H   0  0  0  0  0  0  0  0  0  0  0  0
    4.2284    0.6537    0.0000 H   0  0  0  0  0  0  0  0  0  0  0  0
    3.4381    0.4021    0.0000 H   0  0  0  0  0  0  0  0  0  0  0  0
    5.5839    0.7589    0.0000 H   0  0  0  0  0  0  0  0  0  0  0  0
    4.9687    1.3837    0.0000 H   0  0  0  0  0  0  0  0  0  0  0  0
    4.3439    0.7685    0.0000 H   0  0  0  0  0  0  0  0  0  0  0  0
   10.7336    3.4900    0.0000 H   0  0  0  0  0  0  0  0  0  0  0  0
   10.3369    4.2719    0.0000 H   0  0  0  0  0  0  0  0  0  0  0  0
    9.5550    3.8752    0.0000 H   0  0  0  0  0  0  0  0  0  0  0  0
    1.7563   -3.4854    0.0000 H   0  0  0  0  0  0  0  0  0  0  0  0
    2.1470   -4.2704    0.0000 H   0  0  0  0  0  0  0  0  0  0  0  0
    2.9319   -3.8797    0.0000 H   0  0  0  0  0  0  0  0  0  0  0  0
  1 13  1  0  0  0  0
  1 24  1  0  0  0  0
  2 22  1  0  0  0  0
  2 26  1  0  0  0  0
  3 23  2  0  0  0  0
  4 24  2  0  0  0  0
  5 26  2  0  0  0  0
  6  7  1  0  0  0  0
  6  8  1  0  0  0  0
  6 14  1  0  0  0  0
  6 28  1  0  0  0  0
  7 11  1  0  0  0  0
  7 13  1  0  0  0  0
  7 19  1  0  0  0  0
  8  9  1  0  0  0  0
  8 15  1  0  0  0  0
  8 29  1  0  0  0  0
  9 10  1  0  0  0  0
  9 12  1  0  0  0  0
  9 30  1  0  0  0  0
 10 17  1  0  0  0  0
 10 20  1  0  0  0  0
 10 21  1  0  0  0  0
 11 12  1  0  0  0  0
 11 31  1  0  0  0  0
 11 32  1  0  0  0  0
 12 33  1  0  0  0  0
 12 34  1  0  0  0  0
 13 16  1  0  0  0  0
 13 35  1  0  0  0  0
 14 16  1  0  0  0  0
 14 36  1  0  0  0  0
 14 37  1  0  0  0  0
 15 18  1  0  0  0  0
 15 38  1  0  0  0  0
 15 39  1  0  0  0  0
 16 40  1  0  0  0  0
 16 41  1  0  0  0  0
 17 18  1  0  0  0  0
 17 22  2  0  0  0  0
 18 42  1  0  0  0  0
 18 43  1  0  0  0  0
 19 44  1  0  0  0  0
 19 45  1  0  0  0  0
 19 46  1  0  0  0  0
 20 23  1  0  0  0  0
 20 47  1  0  0  0  0
 20 48  1  0  0  0  0
 21 49  1  0  0  0  0
 21 50  1  0  0  0  0
 21 51  1  0  0  0  0
 22 23  1  0  0  0  0
 24 25  1  0  0  0  0
 25 52  1  0  0  0  0
 25 53  1  0  0  0  0
 25 54  1  0  0  0  0
 26 27  1  0  0  0  0
 27 55  1  0  0  0  0
 27 56  1  0  0  0  0
 27 57  1  0  0  0  0
M  END
> <PUBCHEM_COMPOUND_CID>
519052
> <PUBCHEM_COMPOUND_CANONICALIZED>
1
> <PUBCHEM_CACTVS_COMPLEXITY>
737
> <PUBCHEM_CACTVS_HBOND_ACCEPTOR>
5
> <PUBCHEM_CACTVS_HBOND_DONOR>
0
> <PUBCHEM_CACTVS_ROTATABLE_BOND>
4
> <PUBCHEM_CACTVS_SUBSKEYS>
AAADceB4OAAAAAAAAAAAAAAAAAAAAYIAAAAwYAAAAAAAAGDAAAAAGgAAAAAADxSggAICCAAABACIAoDQCAIACAAgIAAACAFAAEgAABIAAAQCAAAEgAAIAQOIyPCPgAAAAAAAAACAAAQAACAAAIAADAAAAA==
> <PUBCHEM_IUPAC_OPENEYE_NAME>
(1-acetoxy-3a,5a-dimethyl-2-oxo-3b,4,5,6,7,8,8a,8b,9,10-decahydro-3H-indeno[5,4-e]inden-6-yl) acetate
> <PUBCHEM_IUPAC_CAS_NAME>
acetic acid (1-acetyloxy-3a,5a-dimethyl-2-oxo-3b,4,5,6,7,8,8a,8b,9,10-decahydro-3H-indeno[5,4-e]inden-6-yl) ester
> <PUBCHEM_IUPAC_NAME_MARKUP>
(1-acetyloxy-3<I>a</I>,5<I>a</I>-dimethyl-2-oxo-3<I>b</I>,4,5,6,7,8,8<I>a</I>,8<I>b</I>,9,10-decahydro-3<I>H</I>-indeno[5,4-e]inden-6-yl) acetate
> <PUBCHEM_IUPAC_NAME>
(1-acetyloxy-3a,5a-dimethyl-2-oxo-3b,4,5,6,7,8,8a,8b,9,10-decahydro-3H-indeno[5,4-e]inden-6-yl) acetate
> <PUBCHEM_IUPAC_SYSTEMATIC_NAME>
(1-acetyloxy-3a,5a-dimethyl-2-oxidanylidene-3b,4,5,6,7,8,8a,8b,9,10-decahydro-3H-indeno[5,4-e]inden-6-yl) ethanoate
> <PUBCHEM_IUPAC_TRADITIONAL_NAME>
acetic acid (1-acetoxy-2-keto-3a,5a-dimethyl-3b,4,5,6,7,8,8a,8b,9,10-decahydro-3H-inden[5,4-e]inden-6-yl) ester
> <PUBCHEM_IUPAC_INCHI>
InChI=1S/C22H30O5/c1-12(23)26-19-8-7-15-14-5-6-17-20(27-13(2)24)18(25)11-22(17,4)16(14)9-10-21(15,19)3/h14-16,19H,5-11H2,1-4H3
> <PUBCHEM_IUPAC_INCHIKEY>
HYYXLHSTZSNUIA-UHFFFAOYSA-N
> <PUBCHEM_XLOGP3_AA>
3.5
> <PUBCHEM_EXACT_MASS>
374.20932405
> <PUBCHEM_MOLECULAR_FORMULA>
C22H30O5
> <PUBCHEM_MOLECULAR_WEIGHT>
374.5
> <PUBCHEM_OPENEYE_CAN_SMILES>
CC(=O)OC1CCC2C1(CCC3C2CCC4=C(C(=O)CC34C)OC(=O)C)C
> <PUBCHEM_OPENEYE_ISO_SMILES>
CC(=O)OC1CCC2C1(CCC3C2CCC4=C(C(=O)CC34C)OC(=O)C)C
> <PUBCHEM_CACTVS_TPSA>
69.7
> <PUBCHEM_MONOISOTOPIC_WEIGHT>
374.20932405
> <PUBCHEM_TOTAL_CHARGE>
0
> <PUBCHEM_HEAVY_ATOM_COUNT>
27
> <PUBCHEM_ATOM_DEF_STEREO_COUNT>
0
> <PUBCHEM_ATOM_UDEF_STEREO_COUNT>
6
> <PUBCHEM_BOND_DEF_STEREO_COUNT>
0
> <PUBCHEM_BOND_UDEF_STEREO_COUNT>
0
> <PUBCHEM_ISOTOPIC_ATOM_COUNT>
0
> <PUBCHEM_COMPONENT_COUNT>
1
> <PUBCHEM_CACTVS_TAUTO_COUNT>
-1
> <PUBCHEM_COORDINATE_TYPE>
1
5
255
> <PUBCHEM_BONDANNOTATIONS>
13  1  3
10  21  3
6  14  3
7  19  3
8  15  3
9  12  3
$$$$
