519044
  -OEChem-10302200292D
 34 36  0     1  0  0  0  0  0999 V2000
    4.9889    1.5245    0.0000 O   0  0  0  0  0  0  0  0  0  0  0  0
    4.9889   -1.9860    0.0000 O   0  0  0  0  0  0  0  0  0  0  0  0
    5.2619   -0.2307    0.0000 N   0  0  0  0  0  0  0  0  0  0  0  0
    6.2619   -0.2307    0.0000 C   0  0  0  0  0  0  0  0  0  0  0  0
    6.7619   -1.0968    0.0000 C   0  0  0  0  0  0  0  0  0  0  0  0
    6.7619    0.6353    0.0000 C   0  0  0  0  0  0  0  0  0  0  0  0
    7.7619   -1.0968    0.0000 C   0  0  0  0  0  0  0  0  0  0  0  0
    7.7619    0.6353    0.0000 C   0  0  0  0  0  0  0  0  0  0  0  0
    8.2619   -0.2307    0.0000 C   0  0  0  0  0  0  0  0  0  0  0  0
    4.6783    0.5740    0.0000 C   0  0  3  0  0  0  0  0  0  0  0  0
    4.6783   -1.0355    0.0000 C   0  0  0  0  0  0  0  0  0  0  0  0
    3.7320    0.2693    0.0000 C   0  0  0  0  0  0  0  0  0  0  0  0
    3.7320   -0.7307    0.0000 C   0  0  0  0  0  0  0  0  0  0  0  0
    2.8660    0.7693    0.0000 C   0  0  0  0  0  0  0  0  0  0  0  0
    2.8660   -1.2307    0.0000 C   0  0  0  0  0  0  0  0  0  0  0  0
    2.0000    0.2693    0.0000 C   0  0  0  0  0  0  0  0  0  0  0  0
    2.0000   -0.7307    0.0000 C   0  0  0  0  0  0  0  0  0  0  0  0
    5.9519    0.3062    0.0000 H   0  0  0  0  0  0  0  0  0  0  0  0
    6.1793   -1.3088    0.0000 H   0  0  0  0  0  0  0  0  0  0  0  0
    6.8695   -1.7073    0.0000 H   0  0  0  0  0  0  0  0  0  0  0  0
    6.8695    1.2459    0.0000 H   0  0  0  0  0  0  0  0  0  0  0  0
    6.1793    0.8473    0.0000 H   0  0  0  0  0  0  0  0  0  0  0  0
    7.6542   -1.7073    0.0000 H   0  0  0  0  0  0  0  0  0  0  0  0
    8.3445   -1.3088    0.0000 H   0  0  0  0  0  0  0  0  0  0  0  0
    8.3445    0.8473    0.0000 H   0  0  0  0  0  0  0  0  0  0  0  0
    7.6542    1.2459    0.0000 H   0  0  0  0  0  0  0  0  0  0  0  0
    8.7368   -0.6293    0.0000 H   0  0  0  0  0  0  0  0  0  0  0  0
    8.7368    0.1678    0.0000 H   0  0  0  0  0  0  0  0  0  0  0  0
    4.2408    1.0134    0.0000 H   0  0  0  0  0  0  0  0  0  0  0  0
    2.8660    1.3893    0.0000 H   0  0  0  0  0  0  0  0  0  0  0  0
    2.8660   -1.8507    0.0000 H   0  0  0  0  0  0  0  0  0  0  0  0
    4.5749    1.9860    0.0000 H   0  0  0  0  0  0  0  0  0  0  0  0
    1.4631    0.5793    0.0000 H   0  0  0  0  0  0  0  0  0  0  0  0
    1.4631   -1.0407    0.0000 H   0  0  0  0  0  0  0  0  0  0  0  0
  1 10  1  0  0  0  0
  1 32  1  0  0  0  0
  2 11  2  0  0  0  0
  3  4  1  0  0  0  0
  3 10  1  0  0  0  0
  3 11  1  0  0  0  0
  4  5  1  0  0  0  0
  4  6  1  0  0  0  0
  4 18  1  0  0  0  0
  5  7  1  0  0  0  0
  5 19  1  0  0  0  0
  5 20  1  0  0  0  0
  6  8  1  0  0  0  0
  6 21  1  0  0  0  0
  6 22  1  0  0  0  0
  7  9  1  0  0  0  0
  7 23  1  0  0  0  0
  7 24  1  0  0  0  0
  8  9  1  0  0  0  0
  8 25  1  0  0  0  0
  8 26  1  0  0  0  0
  9 27  1  0  0  0  0
  9 28  1  0  0  0  0
 10 12  1  0  0  0  0
 10 29  1  0  0  0  0
 11 13  1  0  0  0  0
 12 13  1  0  0  0  0
 12 14  2  0  0  0  0
 13 15  2  0  0  0  0
 14 16  1  0  0  0  0
 14 30  1  0  0  0  0
 15 17  1  0  0  0  0
 15 31  1  0  0  0  0
 16 17  2  0  0  0  0
 16 33  1  0  0  0  0
 17 34  1  0  0  0  0
M  END
> <PUBCHEM_COMPOUND_CID>
519044
> <PUBCHEM_COMPOUND_CANONICALIZED>
1
> <PUBCHEM_CACTVS_COMPLEXITY>
299
> <PUBCHEM_CACTVS_HBOND_ACCEPTOR>
2
> <PUBCHEM_CACTVS_HBOND_DONOR>
1
> <PUBCHEM_CACTVS_ROTATABLE_BOND>
1
> <PUBCHEM_CACTVS_SUBSKEYS>
AAADceByMAAAAAAAAAAAAAAAAAAAAWAAAAAwYAAAAAAAAFgBAAAAHgAACAAADCjhmAYwAIMAAgCIAiFSEACCAAAkAAAIiAEIDMgINjKAlRGEcQhkxgGImYe+yKCOgAAAAAAQAAAAAAAAACAAAAAAAAAAAA==
> <PUBCHEM_IUPAC_OPENEYE_NAME>
2-cyclohexyl-3-hydroxy-isoindolin-1-one
> <PUBCHEM_IUPAC_CAS_NAME>
2-cyclohexyl-3-hydroxy-3H-isoindol-1-one
> <PUBCHEM_IUPAC_NAME_MARKUP>
2-cyclohexyl-3-hydroxy-3<I>H</I>-isoindol-1-one
> <PUBCHEM_IUPAC_NAME>
2-cyclohexyl-3-hydroxy-3H-isoindol-1-one
> <PUBCHEM_IUPAC_SYSTEMATIC_NAME>
2-cyclohexyl-3-oxidanyl-3H-isoindol-1-one
> <PUBCHEM_IUPAC_TRADITIONAL_NAME>
2-cyclohexyl-3-hydroxy-isoindolin-1-one
> <PUBCHEM_IUPAC_INCHI>
InChI=1S/C14H17NO2/c16-13-11-8-4-5-9-12(11)14(17)15(13)10-6-2-1-3-7-10/h4-5,8-10,13,16H,1-3,6-7H2
> <PUBCHEM_IUPAC_INCHIKEY>
QFJYVOQFFWBMQB-UHFFFAOYSA-N
> <PUBCHEM_XLOGP3_AA>
2.2
> <PUBCHEM_EXACT_MASS>
231.125928785
> <PUBCHEM_MOLECULAR_FORMULA>
C14H17NO2
> <PUBCHEM_MOLECULAR_WEIGHT>
231.29
> <PUBCHEM_OPENEYE_CAN_SMILES>
C1CCC(CC1)N2C(C3=CC=CC=C3C2=O)O
> <PUBCHEM_OPENEYE_ISO_SMILES>
C1CCC(CC1)N2C(C3=CC=CC=C3C2=O)O
> <PUBCHEM_CACTVS_TPSA>
40.5
> <PUBCHEM_MONOISOTOPIC_WEIGHT>
231.125928785
> <PUBCHEM_TOTAL_CHARGE>
0
> <PUBCHEM_HEAVY_ATOM_COUNT>
17
> <PUBCHEM_ATOM_DEF_STEREO_COUNT>
0
> <PUBCHEM_ATOM_UDEF_STEREO_COUNT>
1
> <PUBCHEM_BOND_DEF_STEREO_COUNT>
0
> <PUBCHEM_BOND_UDEF_STEREO_COUNT>
0
> <PUBCHEM_ISOTOPIC_ATOM_COUNT>
0
> <PUBCHEM_COMPONENT_COUNT>
1
> <PUBCHEM_CACTVS_TAUTO_COUNT>
-1
> <PUBCHEM_COORDINATE_TYPE>
1
5
255
> <PUBCHEM_BONDANNOTATIONS>
10  1  3
12  13  8
12  14  8
13  15  8
14  16  8
15  17  8
16  17  8
$$$$
