519051
  -OEChem-10302200292D
 47 50  0     1  0  0  0  0  0999 V2000
    8.4964    2.5285    0.0000 O   0  0  0  0  0  0  0  0  0  0  0  0
    3.2834   -2.5331    0.0000 O   0  0  0  0  0  0  0  0  0  0  0  0
    2.0000   -0.7344    0.0000 O   0  0  0  0  0  0  0  0  0  0  0  0
    7.2395    0.2732    0.0000 C   0  0  3  0  0  0  0  0  0  0  0  0
    7.2395    1.2732    0.0000 C   0  0  3  0  0  0  0  0  0  0  0  0
    6.3735   -0.2268    0.0000 C   0  0  3  0  0  0  0  0  0  0  0  0
    5.5075    0.2732    0.0000 C   0  0  3  0  0  0  0  0  0  0  0  0
    4.5975   -0.2336    0.0000 C   0  0  3  0  0  0  0  0  0  0  0  0
    6.3735    1.7732    0.0000 C   0  0  0  0  0  0  0  0  0  0  0  0
    5.5075    1.2732    0.0000 C   0  0  0  0  0  0  0  0  0  0  0  0
    8.1857    1.5779    0.0000 C   0  0  3  0  0  0  0  0  0  0  0  0
    8.1857   -0.0315    0.0000 C   0  0  0  0  0  0  0  0  0  0  0  0
    6.3895   -1.2683    0.0000 C   0  0  0  0  0  0  0  0  0  0  0  0
    8.7693    0.7732    0.0000 C   0  0  0  0  0  0  0  0  0  0  0  0
    4.5894   -1.2752    0.0000 C   0  0  0  0  0  0  0  0  0  0  0  0
    5.4915   -1.7960    0.0000 C   0  0  0  0  0  0  0  0  0  0  0  0
    7.2395    2.2732    0.0000 C   0  0  0  0  0  0  0  0  0  0  0  0
    3.6143    0.0914    0.0000 C   0  0  0  0  0  0  0  0  0  0  0  0
    4.6052    0.7663    0.0000 C   0  0  0  0  0  0  0  0  0  0  0  0
    3.6014   -1.5850    0.0000 C   0  0  0  0  0  0  0  0  0  0  0  0
    3.0000   -0.7422    0.0000 C   0  0  0  0  0  0  0  0  0  0  0  0
    7.3051   -0.3433    0.0000 H   0  0  0  0  0  0  0  0  0  0  0  0
    6.9128   -0.5326    0.0000 H   0  0  0  0  0  0  0  0  0  0  0  0
    6.0444    0.5832    0.0000 H   0  0  0  0  0  0  0  0  0  0  0  0
    6.7720    2.2482    0.0000 H   0  0  0  0  0  0  0  0  0  0  0  0
    5.9750    2.2482    0.0000 H   0  0  0  0  0  0  0  0  0  0  0  0
    5.2954    1.8558    0.0000 H   0  0  0  0  0  0  0  0  0  0  0  0
    4.8969    1.1656    0.0000 H   0  0  0  0  0  0  0  0  0  0  0  0
    7.7483    2.0173    0.0000 H   0  0  0  0  0  0  0  0  0  0  0  0
    7.9347   -0.5984    0.0000 H   0  0  0  0  0  0  0  0  0  0  0  0
    8.7231   -0.3407    0.0000 H   0  0  0  0  0  0  0  0  0  0  0  0
    6.6076   -1.8487    0.0000 H   0  0  0  0  0  0  0  0  0  0  0  0
    6.9987   -1.1528    0.0000 H   0  0  0  0  0  0  0  0  0  0  0  0
    9.2302    0.3585    0.0000 H   0  0  0  0  0  0  0  0  0  0  0  0
    9.2302    1.1879    0.0000 H   0  0  0  0  0  0  0  0  0  0  0  0
    5.0942   -2.2720    0.0000 H   0  0  0  0  0  0  0  0  0  0  0  0
    5.8925   -2.2689    0.0000 H   0  0  0  0  0  0  0  0  0  0  0  0
    7.8595    2.2732    0.0000 H   0  0  0  0  0  0  0  0  0  0  0  0
    7.2395    2.8932    0.0000 H   0  0  0  0  0  0  0  0  0  0  0  0
    6.6195    2.2732    0.0000 H   0  0  0  0  0  0  0  0  0  0  0  0
    3.8697    0.6563    0.0000 H   0  0  0  0  0  0  0  0  0  0  0  0
    3.0793    0.4047    0.0000 H   0  0  0  0  0  0  0  0  0  0  0  0
    5.2252    0.7616    0.0000 H   0  0  0  0  0  0  0  0  0  0  0  0
    4.6099    1.3863    0.0000 H   0  0  0  0  0  0  0  0  0  0  0  0
    3.9852    0.7711    0.0000 H   0  0  0  0  0  0  0  0  0  0  0  0
    9.1031    2.6563    0.0000 H   0  0  0  0  0  0  0  0  0  0  0  0
    2.6758   -2.6563    0.0000 H   0  0  0  0  0  0  0  0  0  0  0  0
  1 11  1  0  0  0  0
  1 46  1  0  0  0  0
  2 20  1  0  0  0  0
  2 47  1  0  0  0  0
  3 21  2  0  0  0  0
  4  5  1  0  0  0  0
  4  6  1  0  0  0  0
  4 12  1  0  0  0  0
  4 22  1  0  0  0  0
  5  9  1  0  0  0  0
  5 11  1  0  0  0  0
  5 17  1  0  0  0  0
  6  7  1  0  0  0  0
  6 13  1  0  0  0  0
  6 23  1  0  0  0  0
  7  8  1  0  0  0  0
  7 10  1  0  0  0  0
  7 24  1  0  0  0  0
  8 15  1  0  0  0  0
  8 18  1  0  0  0  0
  8 19  1  0  0  0  0
  9 10  1  0  0  0  0
  9 25  1  0  0  0  0
  9 26  1  0  0  0  0
 10 27  1  0  0  0  0
 10 28  1  0  0  0  0
 11 14  1  0  0  0  0
 11 29  1  0  0  0  0
 12 14  1  0  0  0  0
 12 30  1  0  0  0  0
 12 31  1  0  0  0  0
 13 16  1  0  0  0  0
 13 32  1  0  0  0  0
 13 33  1  0  0  0  0
 14 34  1  0  0  0  0
 14 35  1  0  0  0  0
 15 16  1  0  0  0  0
 15 20  2  0  0  0  0
 16 36  1  0  0  0  0
 16 37  1  0  0  0  0
 17 38  1  0  0  0  0
 17 39  1  0  0  0  0
 17 40  1  0  0  0  0
 18 21  1  0  0  0  0
 18 41  1  0  0  0  0
 18 42  1  0  0  0  0
 19 43  1  0  0  0  0
 19 44  1  0  0  0  0
 19 45  1  0  0  0  0
 20 21  1  0  0  0  0
M  END
> <PUBCHEM_COMPOUND_CID>
519051
> <PUBCHEM_COMPOUND_CANONICALIZED>
1
> <PUBCHEM_CACTVS_COMPLEXITY>
537
> <PUBCHEM_CACTVS_HBOND_ACCEPTOR>
3
> <PUBCHEM_CACTVS_HBOND_DONOR>
2
> <PUBCHEM_CACTVS_ROTATABLE_BOND>
0
> <PUBCHEM_CACTVS_SUBSKEYS>
AAADceB4MAAAAAAAAAAAAAAAAAAAAYIAAAAwYAAAAAAAAGDAAAAAGgAACAAADxSggAICAAAAAgCIAoBQAAIAAAAgIAAACAFAAEgAEBIAAAAAQAAEgAAIAQOIyPCPgAAAAAAAAACAAAQAACAAAIAADAAAAA==
> <PUBCHEM_IUPAC_OPENEYE_NAME>
1,6-dihydroxy-3a,5a-dimethyl-3b,4,5,6,7,8,8a,8b,9,10-decahydro-3H-indeno[5,4-e]inden-2-one
> <PUBCHEM_IUPAC_CAS_NAME>
1,6-dihydroxy-3a,5a-dimethyl-3b,4,5,6,7,8,8a,8b,9,10-decahydro-3H-indeno[5,4-e]inden-2-one
> <PUBCHEM_IUPAC_NAME_MARKUP>
1,6-dihydroxy-3<I>a</I>,5<I>a</I>-dimethyl-3<I>b</I>,4,5,6,7,8,8<I>a</I>,8<I>b</I>,9,10-decahydro-3<I>H</I>-indeno[5,4-e]inden-2-one
> <PUBCHEM_IUPAC_NAME>
1,6-dihydroxy-3a,5a-dimethyl-3b,4,5,6,7,8,8a,8b,9,10-decahydro-3H-indeno[5,4-e]inden-2-one
> <PUBCHEM_IUPAC_SYSTEMATIC_NAME>
3a,5a-dimethyl-1,6-bis(oxidanyl)-3b,4,5,6,7,8,8a,8b,9,10-decahydro-3H-indeno[5,4-e]inden-2-one
> <PUBCHEM_IUPAC_TRADITIONAL_NAME>
1,6-dihydroxy-3a,5a-dimethyl-3b,4,5,6,7,8,8a,8b,9,10-decahydro-3H-inden[5,4-e]inden-2-one
> <PUBCHEM_IUPAC_INCHI>
InChI=1S/C18H26O3/c1-17-8-7-12-10(11(17)5-6-15(17)20)3-4-13-16(21)14(19)9-18(12,13)2/h10-12,15,20-21H,3-9H2,1-2H3
> <PUBCHEM_IUPAC_INCHIKEY>
BCMRIYGWARNVDI-UHFFFAOYSA-N
> <PUBCHEM_XLOGP3>
2.8
> <PUBCHEM_EXACT_MASS>
290.18819469
> <PUBCHEM_MOLECULAR_FORMULA>
C18H26O3
> <PUBCHEM_MOLECULAR_WEIGHT>
290.4
> <PUBCHEM_OPENEYE_CAN_SMILES>
CC12CCC3C(C1CCC2O)CCC4=C(C(=O)CC34C)O
> <PUBCHEM_OPENEYE_ISO_SMILES>
CC12CCC3C(C1CCC2O)CCC4=C(C(=O)CC34C)O
> <PUBCHEM_CACTVS_TPSA>
57.5
> <PUBCHEM_MONOISOTOPIC_WEIGHT>
290.18819469
> <PUBCHEM_TOTAL_CHARGE>
0
> <PUBCHEM_HEAVY_ATOM_COUNT>
21
> <PUBCHEM_ATOM_DEF_STEREO_COUNT>
0
> <PUBCHEM_ATOM_UDEF_STEREO_COUNT>
6
> <PUBCHEM_BOND_DEF_STEREO_COUNT>
0
> <PUBCHEM_BOND_UDEF_STEREO_COUNT>
0
> <PUBCHEM_ISOTOPIC_ATOM_COUNT>
0
> <PUBCHEM_COMPONENT_COUNT>
1
> <PUBCHEM_CACTVS_TAUTO_COUNT>
-1
> <PUBCHEM_COORDINATE_TYPE>
1
5
255
> <PUBCHEM_BONDANNOTATIONS>
11  1  3
4  12  3
5  17  3
6  13  3
7  10  3
8  19  3
$$$$
