519178
  -OEChem-10302200292D
 20 20  0     1  0  0  0  0  0999 V2000
    5.8660   -0.8476    0.0000 O   0  0  0  0  0  0  0  0  0  0  0  0
    5.8660    0.8845    0.0000 O   0  0  0  0  0  0  0  0  0  0  0  0
    3.8660   -0.8476    0.0000 N   0  0  0  0  0  0  0  0  0  0  0  0
    2.8660    0.8845    0.0000 C   0  0  0  0  0  0  0  0  0  0  0  0
    2.0000    0.3845    0.0000 C   0  0  0  0  0  0  0  0  0  0  0  0
    2.0000    1.3845    0.0000 C   0  0  0  0  0  0  0  0  0  0  0  0
    3.8660    0.8845    0.0000 C   0  0  0  0  0  0  0  0  0  0  0  0
    4.3660    0.0185    0.0000 C   0  0  3  0  0  0  0  0  0  0  0  0
    5.3660    0.0185    0.0000 C   0  0  0  0  0  0  0  0  0  0  0  0
    3.0265    1.4834    0.0000 H   0  0  0  0  0  0  0  0  0  0  0  0
    1.3894    0.2768    0.0000 H   0  0  0  0  0  0  0  0  0  0  0  0
    2.2120   -0.1981    0.0000 H   0  0  0  0  0  0  0  0  0  0  0  0
    2.2120    1.9671    0.0000 H   0  0  0  0  0  0  0  0  0  0  0  0
    1.3894    1.4922    0.0000 H   0  0  0  0  0  0  0  0  0  0  0  0
    4.4486    1.0966    0.0000 H   0  0  0  0  0  0  0  0  0  0  0  0
    3.7584    1.4951    0.0000 H   0  0  0  0  0  0  0  0  0  0  0  0
    3.5160    0.0185    0.0000 H   0  0  0  0  0  0  0  0  0  0  0  0
    4.1760   -1.3845    0.0000 H   0  0  0  0  0  0  0  0  0  0  0  0
    3.2460   -0.8476    0.0000 H   0  0  0  0  0  0  0  0  0  0  0  0
    6.4860   -0.8476    0.0000 H   0  0  0  0  0  0  0  0  0  0  0  0
  1  9  1  0  0  0  0
  1 20  1  0  0  0  0
  2  9  2  0  0  0  0
  3  8  1  0  0  0  0
  3 18  1  0  0  0  0
  3 19  1  0  0  0  0
  4  5  1  0  0  0  0
  4  6  1  0  0  0  0
  4  7  1  0  0  0  0
  4 10  1  0  0  0  0
  5  6  1  0  0  0  0
  5 11  1  0  0  0  0
  5 12  1  0  0  0  0
  6 13  1  0  0  0  0
  6 14  1  0  0  0  0
  7  8  1  0  0  0  0
  7 15  1  0  0  0  0
  7 16  1  0  0  0  0
  8  9  1  0  0  0  0
  8 17  1  0  0  0  0
M  END
> <PUBCHEM_COMPOUND_CID>
519178
> <PUBCHEM_COMPOUND_CANONICALIZED>
1
> <PUBCHEM_CACTVS_COMPLEXITY>
120
> <PUBCHEM_CACTVS_HBOND_ACCEPTOR>
3
> <PUBCHEM_CACTVS_HBOND_DONOR>
2
> <PUBCHEM_CACTVS_ROTATABLE_BOND>
3
> <PUBCHEM_CACTVS_SUBSKEYS>
AAADccBiMAAAAAAAAAAAAAAAGAAAAAAAAAAAAAAAAAAAAAAAAAAAHgAQCAAADSjBgAQACABAAgAIAACQCAAAAAAAAAAAAIGAAAACABIAgAAAQAAEEAAAAAGYSAAMAAAAAAAAAAAAAAAAAAAAAAAAAAAAAA==
> <PUBCHEM_IUPAC_OPENEYE_NAME>
2-amino-3-cyclopropyl-propanoic acid
> <PUBCHEM_IUPAC_CAS_NAME>
2-amino-3-cyclopropylpropanoic acid
> <PUBCHEM_IUPAC_NAME_MARKUP>
2-amino-3-cyclopropylpropanoic acid
> <PUBCHEM_IUPAC_NAME>
2-amino-3-cyclopropylpropanoic acid
> <PUBCHEM_IUPAC_SYSTEMATIC_NAME>
2-azanyl-3-cyclopropyl-propanoic acid
> <PUBCHEM_IUPAC_TRADITIONAL_NAME>
2-amino-3-cyclopropyl-propionic acid
> <PUBCHEM_IUPAC_INCHI>
InChI=1S/C6H11NO2/c7-5(6(8)9)3-4-1-2-4/h4-5H,1-3,7H2,(H,8,9)
> <PUBCHEM_IUPAC_INCHIKEY>
XGUXJMWPVJQIHI-UHFFFAOYSA-N
> <PUBCHEM_XLOGP3_AA>
-1.9
> <PUBCHEM_EXACT_MASS>
129.078978594
> <PUBCHEM_MOLECULAR_FORMULA>
C6H11NO2
> <PUBCHEM_MOLECULAR_WEIGHT>
129.16
> <PUBCHEM_OPENEYE_CAN_SMILES>
C1CC1CC(C(=O)O)N
> <PUBCHEM_OPENEYE_ISO_SMILES>
C1CC1CC(C(=O)O)N
> <PUBCHEM_CACTVS_TPSA>
63.3
> <PUBCHEM_MONOISOTOPIC_WEIGHT>
129.078978594
> <PUBCHEM_TOTAL_CHARGE>
0
> <PUBCHEM_HEAVY_ATOM_COUNT>
9
> <PUBCHEM_ATOM_DEF_STEREO_COUNT>
0
> <PUBCHEM_ATOM_UDEF_STEREO_COUNT>
1
> <PUBCHEM_BOND_DEF_STEREO_COUNT>
0
> <PUBCHEM_BOND_UDEF_STEREO_COUNT>
0
> <PUBCHEM_ISOTOPIC_ATOM_COUNT>
0
> <PUBCHEM_COMPONENT_COUNT>
1
> <PUBCHEM_CACTVS_TAUTO_COUNT>
1
> <PUBCHEM_COORDINATE_TYPE>
1
5
255
> <PUBCHEM_BONDANNOTATIONS>
8  17  3
$$$$
