519343
  -OEChem-10302200292D
 86 91  0     1  0  0  0  0  0999 V2000
    5.4641   -0.0000    0.0000 P   0  0  0  0  0  0  0  0  0  0  0  0
    6.3301    0.5000    0.0000 O   0  0  0  0  0  0  0  0  0  0  0  0
    4.5981   -0.5000    0.0000 O   0  0  0  0  0  0  0  0  0  0  0  0
    5.9641   -0.8660    0.0000 O   0  0  0  0  0  0  0  0  0  0  0  0
    4.9641    0.8660    0.0000 O   0  0  0  0  0  0  0  0  0  0  0  0
    6.3301    4.5000    0.0000 C   0  0  3  0  0  0  0  0  0  0  0  0
    4.5981   -4.5000    0.0000 C   0  0  3  0  0  0  0  0  0  0  0  0
    9.9641   -0.8660    0.0000 C   0  0  3  0  0  0  0  0  0  0  0  0
    6.3301    3.5000    0.0000 C   0  0  0  0  0  0  0  0  0  0  0  0
    4.5981   -3.5000    0.0000 C   0  0  0  0  0  0  0  0  0  0  0  0
    8.9641   -0.8660    0.0000 C   0  0  0  0  0  0  0  0  0  0  0  0
    7.1962    5.0000    0.0000 C   0  0  0  0  0  0  0  0  0  0  0  0
    3.7320   -5.0000    0.0000 C   0  0  0  0  0  0  0  0  0  0  0  0
   10.4641   -1.7320    0.0000 C   0  0  0  0  0  0  0  0  0  0  0  0
    5.4641    5.0000    0.0000 C   0  0  0  0  0  0  0  0  0  0  0  0
    5.4641   -5.0000    0.0000 C   0  0  0  0  0  0  0  0  0  0  0  0
   10.4641   -0.0000    0.0000 C   0  0  0  0  0  0  0  0  0  0  0  0
    7.1962    3.0000    0.0000 C   0  0  0  0  0  0  0  0  0  0  0  0
    3.7320   -3.0000    0.0000 C   0  0  0  0  0  0  0  0  0  0  0  0
    8.4641   -0.0000    0.0000 C   0  0  0  0  0  0  0  0  0  0  0  0
    5.4641    3.0000    0.0000 C   0  0  0  0  0  0  0  0  0  0  0  0
    5.4641   -3.0000    0.0000 C   0  0  0  0  0  0  0  0  0  0  0  0
    8.4641   -1.7320    0.0000 C   0  0  0  0  0  0  0  0  0  0  0  0
    6.3301    1.5000    0.0000 C   0  0  0  0  0  0  0  0  0  0  0  0
    4.5981   -1.5000    0.0000 C   0  0  0  0  0  0  0  0  0  0  0  0
    6.9641   -0.8660    0.0000 C   0  0  0  0  0  0  0  0  0  0  0  0
    7.1962    6.0000    0.0000 C   0  0  0  0  0  0  0  0  0  0  0  0
    3.7320   -6.0000    0.0000 C   0  0  0  0  0  0  0  0  0  0  0  0
   11.4641   -1.7320    0.0000 C   0  0  0  0  0  0  0  0  0  0  0  0
    8.0622    4.5000    0.0000 C   0  0  0  0  0  0  0  0  0  0  0  0
    2.8660   -4.5000    0.0000 C   0  0  0  0  0  0  0  0  0  0  0  0
    9.9641   -2.5981    0.0000 C   0  0  0  0  0  0  0  0  0  0  0  0
    7.1962    2.0000    0.0000 C   0  0  0  0  0  0  0  0  0  0  0  0
    3.7320   -2.0000    0.0000 C   0  0  0  0  0  0  0  0  0  0  0  0
    7.4641   -0.0000    0.0000 C   0  0  0  0  0  0  0  0  0  0  0  0
    5.4641    2.0000    0.0000 C   0  0  0  0  0  0  0  0  0  0  0  0
    5.4641   -2.0000    0.0000 C   0  0  0  0  0  0  0  0  0  0  0  0
    7.4641   -1.7320    0.0000 C   0  0  0  0  0  0  0  0  0  0  0  0
    8.0622    6.5000    0.0000 C   0  0  0  0  0  0  0  0  0  0  0  0
    2.8660   -6.5000    0.0000 C   0  0  0  0  0  0  0  0  0  0  0  0
   11.9641   -2.5981    0.0000 C   0  0  0  0  0  0  0  0  0  0  0  0
    8.9282    5.0000    0.0000 C   0  0  0  0  0  0  0  0  0  0  0  0
    2.0000   -5.0000    0.0000 C   0  0  0  0  0  0  0  0  0  0  0  0
   10.4641   -3.4641    0.0000 C   0  0  0  0  0  0  0  0  0  0  0  0
    8.9282    6.0000    0.0000 C   0  0  0  0  0  0  0  0  0  0  0  0
    2.0000   -6.0000    0.0000 C   0  0  0  0  0  0  0  0  0  0  0  0
   11.4641   -3.4641    0.0000 C   0  0  0  0  0  0  0  0  0  0  0  0
    5.7932    4.1900    0.0000 H   0  0  0  0  0  0  0  0  0  0  0  0
    4.5981   -5.1200    0.0000 H   0  0  0  0  0  0  0  0  0  0  0  0
    9.6541   -0.3291    0.0000 H   0  0  0  0  0  0  0  0  0  0  0  0
    5.7741    5.5369    0.0000 H   0  0  0  0  0  0  0  0  0  0  0  0
    4.9272    5.3100    0.0000 H   0  0  0  0  0  0  0  0  0  0  0  0
    5.1541    4.4631    0.0000 H   0  0  0  0  0  0  0  0  0  0  0  0
    5.1541   -5.5369    0.0000 H   0  0  0  0  0  0  0  0  0  0  0  0
    6.0010   -5.3100    0.0000 H   0  0  0  0  0  0  0  0  0  0  0  0
    5.7741   -4.4631    0.0000 H   0  0  0  0  0  0  0  0  0  0  0  0
   11.0010   -0.3100    0.0000 H   0  0  0  0  0  0  0  0  0  0  0  0
   10.7741    0.5369    0.0000 H   0  0  0  0  0  0  0  0  0  0  0  0
    9.9272    0.3100    0.0000 H   0  0  0  0  0  0  0  0  0  0  0  0
    7.7331    3.3100    0.0000 H   0  0  0  0  0  0  0  0  0  0  0  0
    3.1951   -3.3100    0.0000 H   0  0  0  0  0  0  0  0  0  0  0  0
    8.7741    0.5369    0.0000 H   0  0  0  0  0  0  0  0  0  0  0  0
    4.9272    3.3100    0.0000 H   0  0  0  0  0  0  0  0  0  0  0  0
    6.0010   -3.3100    0.0000 H   0  0  0  0  0  0  0  0  0  0  0  0
    8.7741   -2.2690    0.0000 H   0  0  0  0  0  0  0  0  0  0  0  0
    6.6592    6.3100    0.0000 H   0  0  0  0  0  0  0  0  0  0  0  0
    4.2690   -6.3100    0.0000 H   0  0  0  0  0  0  0  0  0  0  0  0
   11.7741   -1.1951    0.0000 H   0  0  0  0  0  0  0  0  0  0  0  0
    8.0622    3.8800    0.0000 H   0  0  0  0  0  0  0  0  0  0  0  0
    2.8660   -3.8800    0.0000 H   0  0  0  0  0  0  0  0  0  0  0  0
    9.3441   -2.5981    0.0000 H   0  0  0  0  0  0  0  0  0  0  0  0
    7.7331    1.6900    0.0000 H   0  0  0  0  0  0  0  0  0  0  0  0
    3.1951   -1.6900    0.0000 H   0  0  0  0  0  0  0  0  0  0  0  0
    7.1541    0.5369    0.0000 H   0  0  0  0  0  0  0  0  0  0  0  0
    4.9272    1.6900    0.0000 H   0  0  0  0  0  0  0  0  0  0  0  0
    6.0010   -1.6900    0.0000 H   0  0  0  0  0  0  0  0  0  0  0  0
    7.1541   -2.2690    0.0000 H   0  0  0  0  0  0  0  0  0  0  0  0
    8.0622    7.1200    0.0000 H   0  0  0  0  0  0  0  0  0  0  0  0
    2.8660   -7.1200    0.0000 H   0  0  0  0  0  0  0  0  0  0  0  0
   12.5841   -2.5981    0.0000 H   0  0  0  0  0  0  0  0  0  0  0  0
    9.4651    4.6900    0.0000 H   0  0  0  0  0  0  0  0  0  0  0  0
    1.4631   -4.6900    0.0000 H   0  0  0  0  0  0  0  0  0  0  0  0
   10.1541   -4.0010    0.0000 H   0  0  0  0  0  0  0  0  0  0  0  0
    9.4651    6.3100    0.0000 H   0  0  0  0  0  0  0  0  0  0  0  0
    1.4631   -6.3100    0.0000 H   0  0  0  0  0  0  0  0  0  0  0  0
   11.7741   -4.0010    0.0000 H   0  0  0  0  0  0  0  0  0  0  0  0
  1  2  1  0  0  0  0
  1  3  1  0  0  0  0
  1  4  1  0  0  0  0
  1  5  2  0  0  0  0
  2 24  1  0  0  0  0
  3 25  1  0  0  0  0
  4 26  1  0  0  0  0
  6  9  1  0  0  0  0
  6 12  1  0  0  0  0
  6 15  1  0  0  0  0
  6 48  1  0  0  0  0
  7 10  1  0  0  0  0
  7 13  1  0  0  0  0
  7 16  1  0  0  0  0
  7 49  1  0  0  0  0
  8 11  1  0  0  0  0
  8 14  1  0  0  0  0
  8 17  1  0  0  0  0
  8 50  1  0  0  0  0
  9 18  2  0  0  0  0
  9 21  1  0  0  0  0
 10 19  2  0  0  0  0
 10 22  1  0  0  0  0
 11 20  2  0  0  0  0
 11 23  1  0  0  0  0
 12 27  2  0  0  0  0
 12 30  1  0  0  0  0
 13 28  2  0  0  0  0
 13 31  1  0  0  0  0
 14 29  2  0  0  0  0
 14 32  1  0  0  0  0
 15 51  1  0  0  0  0
 15 52  1  0  0  0  0
 15 53  1  0  0  0  0
 16 54  1  0  0  0  0
 16 55  1  0  0  0  0
 16 56  1  0  0  0  0
 17 57  1  0  0  0  0
 17 58  1  0  0  0  0
 17 59  1  0  0  0  0
 18 33  1  0  0  0  0
 18 60  1  0  0  0  0
 19 34  1  0  0  0  0
 19 61  1  0  0  0  0
 20 35  1  0  0  0  0
 20 62  1  0  0  0  0
 21 36  2  0  0  0  0
 21 63  1  0  0  0  0
 22 37  2  0  0  0  0
 22 64  1  0  0  0  0
 23 38  2  0  0  0  0
 23 65  1  0  0  0  0
 24 33  2  0  0  0  0
 24 36  1  0  0  0  0
 25 34  2  0  0  0  0
 25 37  1  0  0  0  0
 26 35  2  0  0  0  0
 26 38  1  0  0  0  0
 27 39  1  0  0  0  0
 27 66  1  0  0  0  0
 28 40  1  0  0  0  0
 28 67  1  0  0  0  0
 29 41  1  0  0  0  0
 29 68  1  0  0  0  0
 30 42  2  0  0  0  0
 30 69  1  0  0  0  0
 31 43  2  0  0  0  0
 31 70  1  0  0  0  0
 32 44  2  0  0  0  0
 32 71  1  0  0  0  0
 33 72  1  0  0  0  0
 34 73  1  0  0  0  0
 35 74  1  0  0  0  0
 36 75  1  0  0  0  0
 37 76  1  0  0  0  0
 38 77  1  0  0  0  0
 39 45  2  0  0  0  0
 39 78  1  0  0  0  0
 40 46  2  0  0  0  0
 40 79  1  0  0  0  0
 41 47  2  0  0  0  0
 41 80  1  0  0  0  0
 42 45  1  0  0  0  0
 42 81  1  0  0  0  0
 43 46  1  0  0  0  0
 43 82  1  0  0  0  0
 44 47  1  0  0  0  0
 44 83  1  0  0  0  0
 45 84  1  0  0  0  0
 46 85  1  0  0  0  0
 47 86  1  0  0  0  0
M  END
> <PUBCHEM_COMPOUND_CID>
519343
> <PUBCHEM_COMPOUND_CANONICALIZED>
1
> <PUBCHEM_CACTVS_COMPLEXITY>
809
> <PUBCHEM_CACTVS_HBOND_ACCEPTOR>
4
> <PUBCHEM_CACTVS_HBOND_DONOR>
0
> <PUBCHEM_CACTVS_ROTATABLE_BOND>
12
> <PUBCHEM_CACTVS_SUBSKEYS>
AAADcfB8OAIAAAAAAAAAAAAAAAAAAAAAAAAwYMGDAAAAAAABVAAAGgAAACAADQSAmAAyBoAAARCAQiBCAIACAAAgIAAIiAAGCIgIJiKAERKAMAAkwBEIiAeAwPAOoAAAAAAAAABAAAAAAAAAAAAAAAAAAA==
> <PUBCHEM_IUPAC_OPENEYE_NAME>
tris[4-(1-phenylethyl)phenyl] phosphate
> <PUBCHEM_IUPAC_CAS_NAME>
phosphoric acid tris[4-(1-phenylethyl)phenyl] ester
> <PUBCHEM_IUPAC_NAME_MARKUP>
tris[4-(1-phenylethyl)phenyl] phosphate
> <PUBCHEM_IUPAC_NAME>
tris[4-(1-phenylethyl)phenyl] phosphate
> <PUBCHEM_IUPAC_SYSTEMATIC_NAME>
tris[4-(1-phenylethyl)phenyl] phosphate
> <PUBCHEM_IUPAC_TRADITIONAL_NAME>
phosphoric acid tris[4-(1-phenylethyl)phenyl] ester
> <PUBCHEM_IUPAC_INCHI>
InChI=1S/C42H39O4P/c1-31(34-13-7-4-8-14-34)37-19-25-40(26-20-37)44-47(43,45-41-27-21-38(22-28-41)32(2)35-15-9-5-10-16-35)46-42-29-23-39(24-30-42)33(3)36-17-11-6-12-18-36/h4-33H,1-3H3
> <PUBCHEM_IUPAC_INCHIKEY>
LVNYEUXPFPQSNE-UHFFFAOYSA-N
> <PUBCHEM_XLOGP3>
10.8
> <PUBCHEM_EXACT_MASS>
638.25859672
> <PUBCHEM_MOLECULAR_FORMULA>
C42H39O4P
> <PUBCHEM_MOLECULAR_WEIGHT>
638.7
> <PUBCHEM_OPENEYE_CAN_SMILES>
CC(C1=CC=CC=C1)C2=CC=C(C=C2)OP(=O)(OC3=CC=C(C=C3)C(C)C4=CC=CC=C4)OC5=CC=C(C=C5)C(C)C6=CC=CC=C6
> <PUBCHEM_OPENEYE_ISO_SMILES>
CC(C1=CC=CC=C1)C2=CC=C(C=C2)OP(=O)(OC3=CC=C(C=C3)C(C)C4=CC=CC=C4)OC5=CC=C(C=C5)C(C)C6=CC=CC=C6
> <PUBCHEM_CACTVS_TPSA>
44.8
> <PUBCHEM_MONOISOTOPIC_WEIGHT>
638.25859672
> <PUBCHEM_TOTAL_CHARGE>
0
> <PUBCHEM_HEAVY_ATOM_COUNT>
47
> <PUBCHEM_ATOM_DEF_STEREO_COUNT>
0
> <PUBCHEM_ATOM_UDEF_STEREO_COUNT>
3
> <PUBCHEM_BOND_DEF_STEREO_COUNT>
0
> <PUBCHEM_BOND_UDEF_STEREO_COUNT>
0
> <PUBCHEM_ISOTOPIC_ATOM_COUNT>
0
> <PUBCHEM_COMPONENT_COUNT>
1
> <PUBCHEM_CACTVS_TAUTO_COUNT>
1
> <PUBCHEM_COORDINATE_TYPE>
1
5
255
> <PUBCHEM_BONDANNOTATIONS>
10  19  8
10  22  8
11  20  8
11  23  8
12  27  8
12  30  8
13  28  8
13  31  8
14  29  8
14  32  8
18  33  8
19  34  8
20  35  8
21  36  8
22  37  8
23  38  8
24  33  8
24  36  8
25  34  8
25  37  8
26  35  8
26  38  8
27  39  8
28  40  8
29  41  8
30  42  8
31  43  8
32  44  8
39  45  8
40  46  8
41  47  8
42  45  8
43  46  8
44  47  8
6  15  3
7  16  3
8  17  3
9  18  8
9  21  8
$$$$
