519356
  -OEChem-10302200292D
 26 25  0     1  0  0  0  0  0999 V2000
    3.3660   -1.3380    0.0000 F   0  0  0  0  0  0  0  0  0  0  0  0
    2.0000   -0.9720    0.0000 F   0  0  0  0  0  0  0  0  0  0  0  0
    2.3660    0.3940    0.0000 F   0  0  0  0  0  0  0  0  0  0  0  0
    6.3301   -0.4720    0.0000 O   0  0  0  0  0  0  0  0  0  0  0  0
    3.7320    1.0280    0.0000 O   0  0  0  0  0  0  0  0  0  0  0  0
    5.4641    1.0280    0.0000 O   0  0  0  0  0  0  0  0  0  0  0  0
    4.5981   -0.4720    0.0000 N   0  0  0  0  0  0  0  0  0  0  0  0
    7.1962    0.0280    0.0000 C   0  0  0  0  0  0  0  0  0  0  0  0
    8.0622    0.5280    0.0000 C   0  0  0  0  0  0  0  0  0  0  0  0
    7.6962   -0.8380    0.0000 C   0  0  0  0  0  0  0  0  0  0  0  0
    6.6962    0.8940    0.0000 C   0  0  0  0  0  0  0  0  0  0  0  0
    3.7320    0.0280    0.0000 C   0  0  3  0  0  0  0  0  0  0  0  0
    5.4641    0.0280    0.0000 C   0  0  0  0  0  0  0  0  0  0  0  0
    2.8660   -0.4720    0.0000 C   0  0  0  0  0  0  0  0  0  0  0  0
    8.3722   -0.0089    0.0000 H   0  0  0  0  0  0  0  0  0  0  0  0
    8.5991    0.8380    0.0000 H   0  0  0  0  0  0  0  0  0  0  0  0
    7.7522    1.0650    0.0000 H   0  0  0  0  0  0  0  0  0  0  0  0
    7.1592   -1.1480    0.0000 H   0  0  0  0  0  0  0  0  0  0  0  0
    8.0062   -1.3749    0.0000 H   0  0  0  0  0  0  0  0  0  0  0  0
    8.2331   -0.5280    0.0000 H   0  0  0  0  0  0  0  0  0  0  0  0
    7.2331    1.2040    0.0000 H   0  0  0  0  0  0  0  0  0  0  0  0
    6.3862    1.4310    0.0000 H   0  0  0  0  0  0  0  0  0  0  0  0
    6.1592    0.5840    0.0000 H   0  0  0  0  0  0  0  0  0  0  0  0
    3.1951    0.3380    0.0000 H   0  0  0  0  0  0  0  0  0  0  0  0
    4.5981   -1.0920    0.0000 H   0  0  0  0  0  0  0  0  0  0  0  0
    4.2690    1.3380    0.0000 H   0  0  0  0  0  0  0  0  0  0  0  0
  1 14  1  0  0  0  0
  2 14  1  0  0  0  0
  3 14  1  0  0  0  0
  4  8  1  0  0  0  0
  4 13  1  0  0  0  0
  5 12  1  0  0  0  0
  5 26  1  0  0  0  0
  6 13  2  0  0  0  0
  7 12  1  0  0  0  0
  7 13  1  0  0  0  0
  7 25  1  0  0  0  0
  8  9  1  0  0  0  0
  8 10  1  0  0  0  0
  8 11  1  0  0  0  0
  9 15  1  0  0  0  0
  9 16  1  0  0  0  0
  9 17  1  0  0  0  0
 10 18  1  0  0  0  0
 10 19  1  0  0  0  0
 10 20  1  0  0  0  0
 11 21  1  0  0  0  0
 11 22  1  0  0  0  0
 11 23  1  0  0  0  0
 12 14  1  0  0  0  0
 12 24  1  0  0  0  0
M  END
> <PUBCHEM_COMPOUND_CID>
519356
> <PUBCHEM_COMPOUND_CANONICALIZED>
1
> <PUBCHEM_CACTVS_COMPLEXITY>
209
> <PUBCHEM_CACTVS_HBOND_ACCEPTOR>
6
> <PUBCHEM_CACTVS_HBOND_DONOR>
2
> <PUBCHEM_CACTVS_ROTATABLE_BOND>
3
> <PUBCHEM_CACTVS_SUBSKEYS>
AAADccBiMYAAAAAAAAAAAAAAAAAAAAAAAAAAAAAAAAAAAAAAAAAAHwAQCAAADEThgBYCCALABgAIAAAAGAAAAAAAAAAAAIAIAAEAEAAAAAAIAAAABgAAAAAAAAAAAAAAAAAAAAAAAAAAAAAAAAAAAAAAAA==
> <PUBCHEM_IUPAC_OPENEYE_NAME>
tert-butyl N-(2,2,2-trifluoro-1-hydroxy-ethyl)carbamate
> <PUBCHEM_IUPAC_CAS_NAME>
N-(2,2,2-trifluoro-1-hydroxyethyl)carbamic acid tert-butyl ester
> <PUBCHEM_IUPAC_NAME_MARKUP>
<I>tert</I>-butyl <I>N</I>-(2,2,2-trifluoro-1-hydroxyethyl)carbamate
> <PUBCHEM_IUPAC_NAME>
tert-butyl N-(2,2,2-trifluoro-1-hydroxyethyl)carbamate
> <PUBCHEM_IUPAC_SYSTEMATIC_NAME>
tert-butyl N-[2,2,2-tris(fluoranyl)-1-oxidanyl-ethyl]carbamate
> <PUBCHEM_IUPAC_TRADITIONAL_NAME>
N-(2,2,2-trifluoro-1-hydroxy-ethyl)carbamic acid tert-butyl ester
> <PUBCHEM_IUPAC_INCHI>
InChI=1S/C7H12F3NO3/c1-6(2,3)14-5(13)11-4(12)7(8,9)10/h4,12H,1-3H3,(H,11,13)
> <PUBCHEM_IUPAC_INCHIKEY>
HVTJYNRKBXOBCX-UHFFFAOYSA-N
> <PUBCHEM_XLOGP3_AA>
1.5
> <PUBCHEM_EXACT_MASS>
215.07692773
> <PUBCHEM_MOLECULAR_FORMULA>
C7H12F3NO3
> <PUBCHEM_MOLECULAR_WEIGHT>
215.17
> <PUBCHEM_OPENEYE_CAN_SMILES>
CC(C)(C)OC(=O)NC(C(F)(F)F)O
> <PUBCHEM_OPENEYE_ISO_SMILES>
CC(C)(C)OC(=O)NC(C(F)(F)F)O
> <PUBCHEM_CACTVS_TPSA>
58.6
> <PUBCHEM_MONOISOTOPIC_WEIGHT>
215.07692773
> <PUBCHEM_TOTAL_CHARGE>
0
> <PUBCHEM_HEAVY_ATOM_COUNT>
14
> <PUBCHEM_ATOM_DEF_STEREO_COUNT>
0
> <PUBCHEM_ATOM_UDEF_STEREO_COUNT>
1
> <PUBCHEM_BOND_DEF_STEREO_COUNT>
0
> <PUBCHEM_BOND_UDEF_STEREO_COUNT>
0
> <PUBCHEM_ISOTOPIC_ATOM_COUNT>
0
> <PUBCHEM_COMPONENT_COUNT>
1
> <PUBCHEM_CACTVS_TAUTO_COUNT>
2
> <PUBCHEM_COORDINATE_TYPE>
1
5
255
> <PUBCHEM_BONDANNOTATIONS>
12  5  3
$$$$
