519465
  -OEChem-10302200292D
 28 29  0     1  0  0  0  0  0999 V2000
    2.0000   -0.5000    0.0000 O   0  0  0  0  0  0  0  0  0  0  0  0
    2.8660   -2.0000    0.0000 O   0  0  0  0  0  0  0  0  0  0  0  0
    3.7320    0.5000    0.0000 C   0  0  3  0  0  0  0  0  0  0  0  0
    3.7320   -0.5000    0.0000 C   0  0  3  0  0  0  0  0  0  0  0  0
    4.6783   -0.8047    0.0000 C   0  0  3  0  0  0  0  0  0  0  0  0
    4.6783    0.8047    0.0000 C   0  0  0  0  0  0  0  0  0  0  0  0
    2.8660    1.0000    0.0000 C   0  0  3  0  0  0  0  0  0  0  0  0
    5.2619    0.0000    0.0000 C   0  0  0  0  0  0  0  0  0  0  0  0
    2.0000    0.5000    0.0000 C   0  0  0  0  0  0  0  0  0  0  0  0
    2.8660   -1.0000    0.0000 C   0  0  0  0  0  0  0  0  0  0  0  0
    4.9889   -1.7552    0.0000 C   0  0  0  0  0  0  0  0  0  0  0  0
    2.8660    2.0000    0.0000 C   0  0  0  0  0  0  0  0  0  0  0  0
    3.7977    1.1165    0.0000 H   0  0  0  0  0  0  0  0  0  0  0  0
    3.7977   -1.1165    0.0000 H   0  0  0  0  0  0  0  0  0  0  0  0
    5.2908   -0.9009    0.0000 H   0  0  0  0  0  0  0  0  0  0  0  0
    5.2156    1.1140    0.0000 H   0  0  0  0  0  0  0  0  0  0  0  0
    4.4272    1.3716    0.0000 H   0  0  0  0  0  0  0  0  0  0  0  0
    3.4030    1.3100    0.0000 H   0  0  0  0  0  0  0  0  0  0  0  0
    5.7227   -0.4147    0.0000 H   0  0  0  0  0  0  0  0  0  0  0  0
    5.7227    0.4147    0.0000 H   0  0  0  0  0  0  0  0  0  0  0  0
    1.7880    1.0826    0.0000 H   0  0  0  0  0  0  0  0  0  0  0  0
    1.3894    0.3923    0.0000 H   0  0  0  0  0  0  0  0  0  0  0  0
    4.3996   -1.9479    0.0000 H   0  0  0  0  0  0  0  0  0  0  0  0
    5.1815   -2.3446    0.0000 H   0  0  0  0  0  0  0  0  0  0  0  0
    5.5783   -1.5626    0.0000 H   0  0  0  0  0  0  0  0  0  0  0  0
    3.4860    2.0000    0.0000 H   0  0  0  0  0  0  0  0  0  0  0  0
    2.8660    2.6200    0.0000 H   0  0  0  0  0  0  0  0  0  0  0  0
    2.2460    2.0000    0.0000 H   0  0  0  0  0  0  0  0  0  0  0  0
  1  9  1  0  0  0  0
  1 10  1  0  0  0  0
  2 10  2  0  0  0  0
  3  4  1  0  0  0  0
  3  6  1  0  0  0  0
  3  7  1  0  0  0  0
  3 13  1  0  0  0  0
  4  5  1  0  0  0  0
  4 10  1  0  0  0  0
  4 14  1  0  0  0  0
  5  8  1  0  0  0  0
  5 11  1  0  0  0  0
  5 15  1  0  0  0  0
  6  8  1  0  0  0  0
  6 16  1  0  0  0  0
  6 17  1  0  0  0  0
  7  9  1  0  0  0  0
  7 12  1  0  0  0  0
  7 18  1  0  0  0  0
  8 19  1  0  0  0  0
  8 20  1  0  0  0  0
  9 21  1  0  0  0  0
  9 22  1  0  0  0  0
 11 23  1  0  0  0  0
 11 24  1  0  0  0  0
 11 25  1  0  0  0  0
 12 26  1  0  0  0  0
 12 27  1  0  0  0  0
 12 28  1  0  0  0  0
M  END
> <PUBCHEM_COMPOUND_CID>
519465
> <PUBCHEM_COMPOUND_CANONICALIZED>
1
> <PUBCHEM_CACTVS_COMPLEXITY>
200
> <PUBCHEM_CACTVS_HBOND_ACCEPTOR>
2
> <PUBCHEM_CACTVS_HBOND_DONOR>
0
> <PUBCHEM_CACTVS_ROTATABLE_BOND>
0
> <PUBCHEM_CACTVS_SUBSKEYS>
AAADceBwMAAAAAAAAAAAAAAAAAAAAYAAAAAkAAAAAAAAAEgAAAAAGgAAAAAADQCggAICCAAABAAIAACQCAAAAAAAAAAAAAEAAAAAABIAAAACAAAEAAAAAAGIzPCOgAAAAAAAAAAAAAAAAAAAAQAACAAAAA==
> <PUBCHEM_IUPAC_OPENEYE_NAME>
4,7-dimethyl-4,4a,5,6,7,7a-hexahydro-3H-cyclopenta[c]pyran-1-one
> <PUBCHEM_IUPAC_CAS_NAME>
4,7-dimethyl-4,4a,5,6,7,7a-hexahydro-3H-cyclopenta[c]pyran-1-one
> <PUBCHEM_IUPAC_NAME_MARKUP>
4,7-dimethyl-4,4<I>a</I>,5,6,7,7<I>a</I>-hexahydro-3<I>H</I>-cyclopenta[c]pyran-1-one
> <PUBCHEM_IUPAC_NAME>
4,7-dimethyl-4,4a,5,6,7,7a-hexahydro-3H-cyclopenta[c]pyran-1-one
> <PUBCHEM_IUPAC_SYSTEMATIC_NAME>
4,7-dimethyl-4,4a,5,6,7,7a-hexahydro-3H-cyclopenta[c]pyran-1-one
> <PUBCHEM_IUPAC_TRADITIONAL_NAME>
4,7-dimethyl-4,4a,5,6,7,7a-hexahydro-3H-cyclopenta[c]pyran-1-one
> <PUBCHEM_IUPAC_INCHI>
InChI=1S/C10H16O2/c1-6-3-4-8-7(2)5-12-10(11)9(6)8/h6-9H,3-5H2,1-2H3
> <PUBCHEM_IUPAC_INCHIKEY>
LSRNBGXEEKNZHN-UHFFFAOYSA-N
> <PUBCHEM_XLOGP3_AA>
2.6
> <PUBCHEM_EXACT_MASS>
168.115029749
> <PUBCHEM_MOLECULAR_FORMULA>
C10H16O2
> <PUBCHEM_MOLECULAR_WEIGHT>
168.23
> <PUBCHEM_OPENEYE_CAN_SMILES>
CC1CCC2C1C(=O)OCC2C
> <PUBCHEM_OPENEYE_ISO_SMILES>
CC1CCC2C1C(=O)OCC2C
> <PUBCHEM_CACTVS_TPSA>
26.3
> <PUBCHEM_MONOISOTOPIC_WEIGHT>
168.115029749
> <PUBCHEM_TOTAL_CHARGE>
0
> <PUBCHEM_HEAVY_ATOM_COUNT>
12
> <PUBCHEM_ATOM_DEF_STEREO_COUNT>
0
> <PUBCHEM_ATOM_UDEF_STEREO_COUNT>
4
> <PUBCHEM_BOND_DEF_STEREO_COUNT>
0
> <PUBCHEM_BOND_UDEF_STEREO_COUNT>
0
> <PUBCHEM_ISOTOPIC_ATOM_COUNT>
0
> <PUBCHEM_COMPONENT_COUNT>
1
> <PUBCHEM_CACTVS_TAUTO_COUNT>
-1
> <PUBCHEM_COORDINATE_TYPE>
1
5
255
> <PUBCHEM_BONDANNOTATIONS>
3  6  3
4  10  3
5  11  3
7  12  3
$$$$
