519488
  -OEChem-10302200292D
 37 36  0     1  0  0  0  0  0999 V2000
    2.8660   -0.1830    0.0000 Si  0  0  0  0  0  0  0  0  0  0  0  0
    7.1962    0.3170    0.0000 Si  0  0  0  0  0  0  0  0  0  0  0  0
    3.7320    0.3170    0.0000 O   0  0  0  0  0  0  0  0  0  0  0  0
    6.3301   -0.1830    0.0000 O   0  0  0  0  0  0  0  0  0  0  0  0
    4.5981   -0.1830    0.0000 C   0  0  3  0  0  0  0  0  0  0  0  0
    5.4641    0.3170    0.0000 C   0  0  0  0  0  0  0  0  0  0  0  0
    2.0000   -0.6830    0.0000 C   0  0  0  0  0  0  0  0  0  0  0  0
    2.3660    0.6830    0.0000 C   0  0  0  0  0  0  0  0  0  0  0  0
    3.3660   -1.0490    0.0000 C   0  0  0  0  0  0  0  0  0  0  0  0
    4.5981   -1.1830    0.0000 C   0  0  0  0  0  0  0  0  0  0  0  0
    8.0622    0.8170    0.0000 C   0  0  0  0  0  0  0  0  0  0  0  0
    7.6962   -0.5490    0.0000 C   0  0  0  0  0  0  0  0  0  0  0  0
    6.6962    1.1830    0.0000 C   0  0  0  0  0  0  0  0  0  0  0  0
    4.5981    0.4370    0.0000 H   0  0  0  0  0  0  0  0  0  0  0  0
    5.8626    0.7919    0.0000 H   0  0  0  0  0  0  0  0  0  0  0  0
    5.0656    0.7919    0.0000 H   0  0  0  0  0  0  0  0  0  0  0  0
    1.6900   -0.1461    0.0000 H   0  0  0  0  0  0  0  0  0  0  0  0
    1.4631   -0.9930    0.0000 H   0  0  0  0  0  0  0  0  0  0  0  0
    2.3100   -1.2200    0.0000 H   0  0  0  0  0  0  0  0  0  0  0  0
    2.9030    0.9930    0.0000 H   0  0  0  0  0  0  0  0  0  0  0  0
    2.0560    1.2200    0.0000 H   0  0  0  0  0  0  0  0  0  0  0  0
    1.8291    0.3730    0.0000 H   0  0  0  0  0  0  0  0  0  0  0  0
    2.8291   -1.3590    0.0000 H   0  0  0  0  0  0  0  0  0  0  0  0
    3.6760   -1.5860    0.0000 H   0  0  0  0  0  0  0  0  0  0  0  0
    3.9030   -0.7390    0.0000 H   0  0  0  0  0  0  0  0  0  0  0  0
    3.9781   -1.1830    0.0000 H   0  0  0  0  0  0  0  0  0  0  0  0
    4.5981   -1.8030    0.0000 H   0  0  0  0  0  0  0  0  0  0  0  0
    5.2181   -1.1830    0.0000 H   0  0  0  0  0  0  0  0  0  0  0  0
    8.3722    0.2801    0.0000 H   0  0  0  0  0  0  0  0  0  0  0  0
    8.5991    1.1270    0.0000 H   0  0  0  0  0  0  0  0  0  0  0  0
    7.7522    1.3539    0.0000 H   0  0  0  0  0  0  0  0  0  0  0  0
    7.1592   -0.8590    0.0000 H   0  0  0  0  0  0  0  0  0  0  0  0
    8.0062   -1.0860    0.0000 H   0  0  0  0  0  0  0  0  0  0  0  0
    8.2331   -0.2390    0.0000 H   0  0  0  0  0  0  0  0  0  0  0  0
    7.2331    1.4930    0.0000 H   0  0  0  0  0  0  0  0  0  0  0  0
    6.3862    1.7200    0.0000 H   0  0  0  0  0  0  0  0  0  0  0  0
    6.1592    0.8730    0.0000 H   0  0  0  0  0  0  0  0  0  0  0  0
  1  3  1  0  0  0  0
  1  7  1  0  0  0  0
  1  8  1  0  0  0  0
  1  9  1  0  0  0  0
  2  4  1  0  0  0  0
  2 11  1  0  0  0  0
  2 12  1  0  0  0  0
  2 13  1  0  0  0  0
  3  5  1  0  0  0  0
  4  6  1  0  0  0  0
  5  6  1  0  0  0  0
  5 10  1  0  0  0  0
  5 14  1  0  0  0  0
  6 15  1  0  0  0  0
  6 16  1  0  0  0  0
  7 17  1  0  0  0  0
  7 18  1  0  0  0  0
  7 19  1  0  0  0  0
  8 20  1  0  0  0  0
  8 21  1  0  0  0  0
  8 22  1  0  0  0  0
  9 23  1  0  0  0  0
  9 24  1  0  0  0  0
  9 25  1  0  0  0  0
 10 26  1  0  0  0  0
 10 27  1  0  0  0  0
 10 28  1  0  0  0  0
 11 29  1  0  0  0  0
 11 30  1  0  0  0  0
 11 31  1  0  0  0  0
 12 32  1  0  0  0  0
 12 33  1  0  0  0  0
 12 34  1  0  0  0  0
 13 35  1  0  0  0  0
 13 36  1  0  0  0  0
 13 37  1  0  0  0  0
M  END
> <PUBCHEM_COMPOUND_CID>
519488
> <PUBCHEM_COMPOUND_CANONICALIZED>
1
> <PUBCHEM_CACTVS_COMPLEXITY>
147
> <PUBCHEM_CACTVS_HBOND_ACCEPTOR>
2
> <PUBCHEM_CACTVS_HBOND_DONOR>
0
> <PUBCHEM_CACTVS_ROTATABLE_BOND>
5
> <PUBCHEM_CACTVS_SUBSKEYS>
AAADceBwMAwAAAAAAAAAAAAAAAAAAAAAAAAAAAAAAAAAAAAAAAAAGhAAAEAACBSggAJCAAAAAAEAAAAAAAAAAAAAAAAAAAAAAAABAAAAAAAAAAAAAAAAAAAAAAAAAAAAAAAAAAAAAAAAAAAAAAAAAAAAAA==
> <PUBCHEM_IUPAC_OPENEYE_NAME>
trimethyl-(1-methyl-2-trimethylsilyloxy-ethoxy)silane
> <PUBCHEM_IUPAC_CAS_NAME>
trimethyl(1-trimethylsilyloxypropan-2-yloxy)silane
> <PUBCHEM_IUPAC_NAME_MARKUP>
trimethyl(1-trimethylsilyloxypropan-2-yloxy)silane
> <PUBCHEM_IUPAC_NAME>
trimethyl(1-trimethylsilyloxypropan-2-yloxy)silane
> <PUBCHEM_IUPAC_SYSTEMATIC_NAME>
trimethyl(1-trimethylsilyloxypropan-2-yloxy)silane
> <PUBCHEM_IUPAC_TRADITIONAL_NAME>
trimethyl-(1-methyl-2-trimethylsilyloxy-ethoxy)silane
> <PUBCHEM_IUPAC_INCHI>
InChI=1S/C9H24O2Si2/c1-9(11-13(5,6)7)8-10-12(2,3)4/h9H,8H2,1-7H3
> <PUBCHEM_IUPAC_INCHIKEY>
KNPUTZLNTMEYOY-UHFFFAOYSA-N
> <PUBCHEM_EXACT_MASS>
220.13148307
> <PUBCHEM_MOLECULAR_FORMULA>
C9H24O2Si2
> <PUBCHEM_MOLECULAR_WEIGHT>
220.46
> <PUBCHEM_OPENEYE_CAN_SMILES>
CC(CO[Si](C)(C)C)O[Si](C)(C)C
> <PUBCHEM_OPENEYE_ISO_SMILES>
CC(CO[Si](C)(C)C)O[Si](C)(C)C
> <PUBCHEM_CACTVS_TPSA>
18.5
> <PUBCHEM_MONOISOTOPIC_WEIGHT>
220.13148307
> <PUBCHEM_TOTAL_CHARGE>
0
> <PUBCHEM_HEAVY_ATOM_COUNT>
13
> <PUBCHEM_ATOM_DEF_STEREO_COUNT>
0
> <PUBCHEM_ATOM_UDEF_STEREO_COUNT>
1
> <PUBCHEM_BOND_DEF_STEREO_COUNT>
0
> <PUBCHEM_BOND_UDEF_STEREO_COUNT>
0
> <PUBCHEM_ISOTOPIC_ATOM_COUNT>
0
> <PUBCHEM_COMPONENT_COUNT>
1
> <PUBCHEM_CACTVS_TAUTO_COUNT>
1
> <PUBCHEM_COORDINATE_TYPE>
1
5
255
> <PUBCHEM_BONDANNOTATIONS>
5  10  3
$$$$
