519425
  -OEChem-10302200292D
 32 31  0     1  0  0  0  0  0999 V2000
    4.5981   -0.4720    0.0000 P   0  0  0  0  0  0  0  0  0  0  0  0
    3.7320   -0.9720    0.0000 O   0  0  0  0  0  0  0  0  0  0  0  0
    4.0981    0.3940    0.0000 O   0  0  0  0  0  0  0  0  0  0  0  0
    5.4641    1.0280    0.0000 O   0  0  0  0  0  0  0  0  0  0  0  0
    5.0981   -1.3380    0.0000 O   0  0  0  0  0  0  0  0  0  0  0  0
    5.4641    0.0280    0.0000 C   0  0  3  0  0  0  0  0  0  0  0  0
    6.3301   -0.4720    0.0000 C   0  0  0  0  0  0  0  0  0  0  0  0
    7.1962    0.0280    0.0000 C   0  0  0  0  0  0  0  0  0  0  0  0
    8.0622   -0.4720    0.0000 C   0  0  0  0  0  0  0  0  0  0  0  0
    2.8660   -0.4720    0.0000 C   0  0  0  0  0  0  0  0  0  0  0  0
    3.0981    0.3940    0.0000 C   0  0  0  0  0  0  0  0  0  0  0  0
    2.0000   -0.9720    0.0000 C   0  0  0  0  0  0  0  0  0  0  0  0
    2.5981    1.2601    0.0000 C   0  0  0  0  0  0  0  0  0  0  0  0
    6.0010    0.3380    0.0000 H   0  0  0  0  0  0  0  0  0  0  0  0
    5.9316   -0.9469    0.0000 H   0  0  0  0  0  0  0  0  0  0  0  0
    6.7287   -0.9469    0.0000 H   0  0  0  0  0  0  0  0  0  0  0  0
    7.5947    0.5030    0.0000 H   0  0  0  0  0  0  0  0  0  0  0  0
    6.7976    0.5030    0.0000 H   0  0  0  0  0  0  0  0  0  0  0  0
    7.7522   -1.0089    0.0000 H   0  0  0  0  0  0  0  0  0  0  0  0
    8.5991   -0.7820    0.0000 H   0  0  0  0  0  0  0  0  0  0  0  0
    8.3722    0.0649    0.0000 H   0  0  0  0  0  0  0  0  0  0  0  0
    6.0010    1.3380    0.0000 H   0  0  0  0  0  0  0  0  0  0  0  0
    3.2646    0.0030    0.0000 H   0  0  0  0  0  0  0  0  0  0  0  0
    2.4675    0.0030    0.0000 H   0  0  0  0  0  0  0  0  0  0  0  0
    2.5155    0.1820    0.0000 H   0  0  0  0  0  0  0  0  0  0  0  0
    3.2057   -0.2165    0.0000 H   0  0  0  0  0  0  0  0  0  0  0  0
    1.6900   -0.4351    0.0000 H   0  0  0  0  0  0  0  0  0  0  0  0
    1.4631   -1.2820    0.0000 H   0  0  0  0  0  0  0  0  0  0  0  0
    2.3100   -1.5089    0.0000 H   0  0  0  0  0  0  0  0  0  0  0  0
    3.1350    1.5701    0.0000 H   0  0  0  0  0  0  0  0  0  0  0  0
    2.2881    1.7970    0.0000 H   0  0  0  0  0  0  0  0  0  0  0  0
    2.0611    0.9501    0.0000 H   0  0  0  0  0  0  0  0  0  0  0  0
  1  2  1  0  0  0  0
  1  3  1  0  0  0  0
  1  5  2  0  0  0  0
  1  6  1  0  0  0  0
  2 10  1  0  0  0  0
  3 11  1  0  0  0  0
  4  6  1  0  0  0  0
  4 22  1  0  0  0  0
  6  7  1  0  0  0  0
  6 14  1  0  0  0  0
  7  8  1  0  0  0  0
  7 15  1  0  0  0  0
  7 16  1  0  0  0  0
  8  9  1  0  0  0  0
  8 17  1  0  0  0  0
  8 18  1  0  0  0  0
  9 19  1  0  0  0  0
  9 20  1  0  0  0  0
  9 21  1  0  0  0  0
 10 12  1  0  0  0  0
 10 23  1  0  0  0  0
 10 24  1  0  0  0  0
 11 13  1  0  0  0  0
 11 25  1  0  0  0  0
 11 26  1  0  0  0  0
 12 27  1  0  0  0  0
 12 28  1  0  0  0  0
 12 29  1  0  0  0  0
 13 30  1  0  0  0  0
 13 31  1  0  0  0  0
 13 32  1  0  0  0  0
M  END
> <PUBCHEM_COMPOUND_CID>
519425
> <PUBCHEM_COMPOUND_CANONICALIZED>
1
> <PUBCHEM_CACTVS_COMPLEXITY>
162
> <PUBCHEM_CACTVS_HBOND_ACCEPTOR>
4
> <PUBCHEM_CACTVS_HBOND_DONOR>
1
> <PUBCHEM_CACTVS_ROTATABLE_BOND>
7
> <PUBCHEM_CACTVS_SUBSKEYS>
AAADceBwOAIAAAAAAAAAAAAAAAAAAAAAAAAAAAAAAAAAAAAAAAAAGggACCAACACogAICAAAAAxAAQAAAAIAAAAAAAAAAAAAAAAAAEAAAAAAAQAAEAAAAAAAAAAAAAAAAAAAAAAAAAAAAAAAAAAAAAAAAAA==
> <PUBCHEM_IUPAC_OPENEYE_NAME>
1-diethoxyphosphorylbutan-1-ol
> <PUBCHEM_IUPAC_CAS_NAME>
1-diethoxyphosphoryl-1-butanol
> <PUBCHEM_IUPAC_NAME_MARKUP>
1-diethoxyphosphorylbutan-1-ol
> <PUBCHEM_IUPAC_NAME>
1-diethoxyphosphorylbutan-1-ol
> <PUBCHEM_IUPAC_SYSTEMATIC_NAME>
1-diethoxyphosphorylbutan-1-ol
> <PUBCHEM_IUPAC_TRADITIONAL_NAME>
1-diethoxyphosphorylbutan-1-ol
> <PUBCHEM_IUPAC_INCHI>
InChI=1S/C8H19O4P/c1-4-7-8(9)13(10,11-5-2)12-6-3/h8-9H,4-7H2,1-3H3
> <PUBCHEM_IUPAC_INCHIKEY>
QGNCNQNIDOVSQB-UHFFFAOYSA-N
> <PUBCHEM_XLOGP3_AA>
0.9
> <PUBCHEM_EXACT_MASS>
210.10209608
> <PUBCHEM_MOLECULAR_FORMULA>
C8H19O4P
> <PUBCHEM_MOLECULAR_WEIGHT>
210.21
> <PUBCHEM_OPENEYE_CAN_SMILES>
CCCC(O)P(=O)(OCC)OCC
> <PUBCHEM_OPENEYE_ISO_SMILES>
CCCC(O)P(=O)(OCC)OCC
> <PUBCHEM_CACTVS_TPSA>
55.8
> <PUBCHEM_MONOISOTOPIC_WEIGHT>
210.10209608
> <PUBCHEM_TOTAL_CHARGE>
0
> <PUBCHEM_HEAVY_ATOM_COUNT>
13
> <PUBCHEM_ATOM_DEF_STEREO_COUNT>
0
> <PUBCHEM_ATOM_UDEF_STEREO_COUNT>
1
> <PUBCHEM_BOND_DEF_STEREO_COUNT>
0
> <PUBCHEM_BOND_UDEF_STEREO_COUNT>
0
> <PUBCHEM_ISOTOPIC_ATOM_COUNT>
0
> <PUBCHEM_COMPONENT_COUNT>
1
> <PUBCHEM_CACTVS_TAUTO_COUNT>
1
> <PUBCHEM_COORDINATE_TYPE>
1
5
255
> <PUBCHEM_BONDANNOTATIONS>
6  4  3
$$$$
