519434
  -OEChem-10302200292D
 34 35  0     1  0  0  0  0  0999 V2000
    4.5981   -0.0000    0.0000 C   0  0  3  0  0  0  0  0  0  0  0  0
    4.5981    1.0000    0.0000 C   0  0  3  0  0  0  0  0  0  0  0  0
    5.4920   -0.5347    0.0000 C   0  0  3  0  0  0  0  0  0  0  0  0
    3.7320    1.5000    0.0000 C   0  0  0  0  0  0  0  0  0  0  0  0
    3.7320   -0.5000    0.0000 C   0  0  0  0  0  0  0  0  0  0  0  0
    5.4920    1.5346    0.0000 C   0  0  0  0  0  0  0  0  0  0  0  0
    2.8660    1.0000    0.0000 C   0  0  3  0  0  0  0  0  0  0  0  0
    2.8660   -0.0000    0.0000 C   0  0  0  0  0  0  0  0  0  0  0  0
    6.3981   -0.0208    0.0000 C   0  0  0  0  0  0  0  0  0  0  0  0
    6.3981    1.0208    0.0000 C   0  0  0  0  0  0  0  0  0  0  0  0
    5.4804   -1.5346    0.0000 C   0  0  0  0  0  0  0  0  0  0  0  0
    2.0000    1.5000    0.0000 C   0  0  0  0  0  0  0  0  0  0  0  0
    4.5933   -0.6200    0.0000 H   0  0  0  0  0  0  0  0  0  0  0  0
    4.5933    1.6200    0.0000 H   0  0  0  0  0  0  0  0  0  0  0  0
    6.0259   -0.8499    0.0000 H   0  0  0  0  0  0  0  0  0  0  0  0
    4.1306    1.9749    0.0000 H   0  0  0  0  0  0  0  0  0  0  0  0
    3.3335    1.9749    0.0000 H   0  0  0  0  0  0  0  0  0  0  0  0
    3.3335   -0.9750    0.0000 H   0  0  0  0  0  0  0  0  0  0  0  0
    4.1306   -0.9750    0.0000 H   0  0  0  0  0  0  0  0  0  0  0  0
    5.8856    2.0136    0.0000 H   0  0  0  0  0  0  0  0  0  0  0  0
    5.0874    2.0044    0.0000 H   0  0  0  0  0  0  0  0  0  0  0  0
    2.3291    0.6900    0.0000 H   0  0  0  0  0  0  0  0  0  0  0  0
    2.2554    0.1076    0.0000 H   0  0  0  0  0  0  0  0  0  0  0  0
    2.6540   -0.5826    0.0000 H   0  0  0  0  0  0  0  0  0  0  0  0
    6.6071   -0.6045    0.0000 H   0  0  0  0  0  0  0  0  0  0  0  0
    7.0089    0.0852    0.0000 H   0  0  0  0  0  0  0  0  0  0  0  0
    7.0089    0.9147    0.0000 H   0  0  0  0  0  0  0  0  0  0  0  0
    6.6071    1.6045    0.0000 H   0  0  0  0  0  0  0  0  0  0  0  0
    4.8605   -1.5275    0.0000 H   0  0  0  0  0  0  0  0  0  0  0  0
    5.4733   -2.1546    0.0000 H   0  0  0  0  0  0  0  0  0  0  0  0
    6.1004   -1.5418    0.0000 H   0  0  0  0  0  0  0  0  0  0  0  0
    2.3100    2.0369    0.0000 H   0  0  0  0  0  0  0  0  0  0  0  0
    1.4631    1.8100    0.0000 H   0  0  0  0  0  0  0  0  0  0  0  0
    1.6900    0.9630    0.0000 H   0  0  0  0  0  0  0  0  0  0  0  0
  1  2  1  0  0  0  0
  1  3  1  0  0  0  0
  1  5  1  0  0  0  0
  1 13  1  0  0  0  0
  2  4  1  0  0  0  0
  2  6  1  0  0  0  0
  2 14  1  0  0  0  0
  3  9  1  0  0  0  0
  3 11  1  0  0  0  0
  3 15  1  0  0  0  0
  4  7  1  0  0  0  0
  4 16  1  0  0  0  0
  4 17  1  0  0  0  0
  5  8  1  0  0  0  0
  5 18  1  0  0  0  0
  5 19  1  0  0  0  0
  6 10  1  0  0  0  0
  6 20  1  0  0  0  0
  6 21  1  0  0  0  0
  7  8  1  0  0  0  0
  7 12  1  0  0  0  0
  7 22  1  0  0  0  0
  8 23  1  0  0  0  0
  8 24  1  0  0  0  0
  9 10  1  0  0  0  0
  9 25  1  0  0  0  0
  9 26  1  0  0  0  0
 10 27  1  0  0  0  0
 10 28  1  0  0  0  0
 11 29  1  0  0  0  0
 11 30  1  0  0  0  0
 11 31  1  0  0  0  0
 12 32  1  0  0  0  0
 12 33  1  0  0  0  0
 12 34  1  0  0  0  0
M  END
> <PUBCHEM_COMPOUND_CID>
519434
> <PUBCHEM_COMPOUND_CANONICALIZED>
1
> <PUBCHEM_CACTVS_COMPLEXITY>
150
> <PUBCHEM_CACTVS_HBOND_ACCEPTOR>
0
> <PUBCHEM_CACTVS_HBOND_DONOR>
0
> <PUBCHEM_CACTVS_ROTATABLE_BOND>
0
> <PUBCHEM_CACTVS_SUBSKEYS>
AAADceBwAAAAAAAAAAAAAAAAAAAAAAAAAAAwYAAAAAAAAADAAAAAGAAAAAAADQCAAAACAAAAAAAAAAAAAAAAAAAAAAAAAAAAAAAAAAIAAAAAAAAAAAAAAAEAgMAOgAAAAAAAAACAAAQAACAAAAAAAAAAAA==
> <PUBCHEM_IUPAC_OPENEYE_NAME>
1,6-dimethyldecalin
> <PUBCHEM_IUPAC_CAS_NAME>
1,6-dimethyl-1,2,3,4,4a,5,6,7,8,8a-decahydronaphthalene
> <PUBCHEM_IUPAC_NAME_MARKUP>
1,6-dimethyl-1,2,3,4,4<I>a</I>,5,6,7,8,8<I>a</I>-decahydronaphthalene
> <PUBCHEM_IUPAC_NAME>
1,6-dimethyl-1,2,3,4,4a,5,6,7,8,8a-decahydronaphthalene
> <PUBCHEM_IUPAC_SYSTEMATIC_NAME>
1,6-dimethyl-1,2,3,4,4a,5,6,7,8,8a-decahydronaphthalene
> <PUBCHEM_IUPAC_TRADITIONAL_NAME>
1,6-dimethyldecalin
> <PUBCHEM_IUPAC_INCHI>
InChI=1S/C12H22/c1-9-6-7-12-10(2)4-3-5-11(12)8-9/h9-12H,3-8H2,1-2H3
> <PUBCHEM_IUPAC_INCHIKEY>
SXLVBBLVYUOSKX-UHFFFAOYSA-N
> <PUBCHEM_XLOGP3_AA>
5.1
> <PUBCHEM_EXACT_MASS>
166.172150702
> <PUBCHEM_MOLECULAR_FORMULA>
C12H22
> <PUBCHEM_MOLECULAR_WEIGHT>
166.30
> <PUBCHEM_OPENEYE_CAN_SMILES>
CC1CCC2C(CCCC2C1)C
> <PUBCHEM_OPENEYE_ISO_SMILES>
CC1CCC2C(CCCC2C1)C
> <PUBCHEM_CACTVS_TPSA>
0
> <PUBCHEM_MONOISOTOPIC_WEIGHT>
166.172150702
> <PUBCHEM_TOTAL_CHARGE>
0
> <PUBCHEM_HEAVY_ATOM_COUNT>
12
> <PUBCHEM_ATOM_DEF_STEREO_COUNT>
0
> <PUBCHEM_ATOM_UDEF_STEREO_COUNT>
4
> <PUBCHEM_BOND_DEF_STEREO_COUNT>
0
> <PUBCHEM_BOND_UDEF_STEREO_COUNT>
0
> <PUBCHEM_ISOTOPIC_ATOM_COUNT>
0
> <PUBCHEM_COMPONENT_COUNT>
1
> <PUBCHEM_CACTVS_TAUTO_COUNT>
1
> <PUBCHEM_COORDINATE_TYPE>
1
5
255
> <PUBCHEM_BONDANNOTATIONS>
1  5  3
2  6  3
3  11  3
7  12  3
$$$$
