519470
  -OEChem-10302200292D
 32 36  0     1  0  0  0  0  0999 V2000
    5.5535   -2.0968    0.0000 O   0  0  0  0  0  0  0  0  0  0  0  0
    4.1618    1.7270    0.0000 O   0  0  0  0  0  0  0  0  0  0  0  0
    7.2305    0.2391    0.0000 C   0  0  3  0  0  0  0  0  0  0  0  0
    7.4894    1.2050    0.0000 C   0  0  3  0  0  0  0  0  0  0  0  0
    3.3559   -1.6235    0.0000 C   0  0  3  0  0  0  0  0  0  0  0  0
    2.7825   -0.0481    0.0000 C   0  0  3  0  0  0  0  0  0  0  0  0
    5.8578   -0.3529    0.0000 C   0  0  0  0  0  0  0  0  0  0  0  0
    5.5158    0.5868    0.0000 C   0  0  0  0  0  0  0  0  0  0  0  0
    4.1735   -0.9881    0.0000 C   0  0  0  0  0  0  0  0  0  0  0  0
    3.8172   -0.0093    0.0000 C   0  0  0  0  0  0  0  0  0  0  0  0
    6.7527    2.1876    0.0000 C   0  0  0  0  0  0  0  0  0  0  0  0
    2.4980   -1.0437    0.0000 C   0  0  0  0  0  0  0  0  0  0  0  0
    5.2007   -1.1611    0.0000 C   0  0  0  0  0  0  0  0  0  0  0  0
    4.4929    0.7835    0.0000 C   0  0  0  0  0  0  0  0  0  0  0  0
    8.6295   -0.2697    0.0000 C   0  0  0  0  0  0  0  0  0  0  0  0
    8.8883    0.6962    0.0000 C   0  0  0  0  0  0  0  0  0  0  0  0
    2.3456   -1.6368    0.0000 C   0  0  0  0  0  0  0  0  0  0  0  0
    2.0000   -0.6873    0.0000 C   0  0  0  0  0  0  0  0  0  0  0  0
    7.6920    0.6531    0.0000 H   0  0  0  0  0  0  0  0  0  0  0  0
    7.8587    1.7030    0.0000 H   0  0  0  0  0  0  0  0  0  0  0  0
    3.5608   -2.2086    0.0000 H   0  0  0  0  0  0  0  0  0  0  0  0
    2.5634    0.5319    0.0000 H   0  0  0  0  0  0  0  0  0  0  0  0
    7.0705    2.7200    0.0000 H   0  0  0  0  0  0  0  0  0  0  0  0
    6.1396    2.2796    0.0000 H   0  0  0  0  0  0  0  0  0  0  0  0
    1.9230   -0.8116    0.0000 H   0  0  0  0  0  0  0  0  0  0  0  0
    2.2067   -1.5911    0.0000 H   0  0  0  0  0  0  0  0  0  0  0  0
    8.9158   -0.8196    0.0000 H   0  0  0  0  0  0  0  0  0  0  0  0
    9.4382    0.9826    0.0000 H   0  0  0  0  0  0  0  0  0  0  0  0
    1.9933   -2.1470    0.0000 H   0  0  0  0  0  0  0  0  0  0  0  0
    1.4022   -0.5229    0.0000 H   0  0  0  0  0  0  0  0  0  0  0  0
    6.1653   -2.1973    0.0000 H   0  0  0  0  0  0  0  0  0  0  0  0
    4.5658    2.1973    0.0000 H   0  0  0  0  0  0  0  0  0  0  0  0
  1 13  1  0  0  0  0
  1 31  1  0  0  0  0
  2 14  1  0  0  0  0
  2 32  1  0  0  0  0
  3  7  1  0  0  0  0
  3 11  1  0  0  0  0
  3 15  1  0  0  0  0
  3 19  1  0  0  0  0
  4  8  1  0  0  0  0
  4 11  1  0  0  0  0
  4 16  1  0  0  0  0
  4 20  1  0  0  0  0
  5  9  1  0  0  0  0
  5 12  1  0  0  0  0
  5 17  1  0  0  0  0
  5 21  1  0  0  0  0
  6 10  1  0  0  0  0
  6 12  1  0  0  0  0
  6 18  1  0  0  0  0
  6 22  1  0  0  0  0
  7  8  2  0  0  0  0
  7 13  1  0  0  0  0
  8 14  1  0  0  0  0
  9 10  1  0  0  0  0
  9 13  2  0  0  0  0
 10 14  2  0  0  0  0
 11 23  1  0  0  0  0
 11 24  1  0  0  0  0
 12 25  1  0  0  0  0
 12 26  1  0  0  0  0
 15 16  2  0  0  0  0
 15 27  1  0  0  0  0
 16 28  1  0  0  0  0
 17 18  2  0  0  0  0
 17 29  1  0  0  0  0
 18 30  1  0  0  0  0
M  END
> <PUBCHEM_COMPOUND_CID>
519470
> <PUBCHEM_COMPOUND_CANONICALIZED>
1
> <PUBCHEM_CACTVS_COMPLEXITY>
376
> <PUBCHEM_CACTVS_HBOND_ACCEPTOR>
2
> <PUBCHEM_CACTVS_HBOND_DONOR>
2
> <PUBCHEM_CACTVS_ROTATABLE_BOND>
0
> <PUBCHEM_CACTVS_SUBSKEYS>
AAADccB4MAAAAAAAAAAAAAAAAAAAAYMECAAwQIAAAAAAAGABAAAAGgAACAAADQSAmAAABoAAAgCAAiBCAAACAAAgIAAIiAAECIgIJiKCERKAcAAkwBEImAfAwPAOwQADAAAYAACCAAYAADAAAQAACAAAAA==
> <PUBCHEM_IUPAC_OPENEYE_NAME>
pentacyclo[10.2.1.15,8.02,11.04,9]hexadeca-2,4(9),6,10,13-pentaene-3,10-diol
> <PUBCHEM_IUPAC_CAS_NAME>
pentacyclo[10.2.1.15,8.02,11.04,9]hexadeca-2,4(9),6,10,13-pentaene-3,10-diol
> <PUBCHEM_IUPAC_NAME_MARKUP>
pentacyclo[10.2.1.1<SUP>5,8</SUP>.0<SUP>2,11</SUP>.0<SUP>4,9</SUP>]hexadeca-2,4(9),6,10,13-pentaene-3,10-diol
> <PUBCHEM_IUPAC_NAME>
pentacyclo[10.2.1.15,8.02,11.04,9]hexadeca-2,4(9),6,10,13-pentaene-3,10-diol
> <PUBCHEM_IUPAC_SYSTEMATIC_NAME>
pentacyclo[10.2.1.15,8.02,11.04,9]hexadeca-2,4(9),6,10,13-pentaene-3,10-diol
> <PUBCHEM_IUPAC_TRADITIONAL_NAME>
pentacyclo[10.2.1.15,8.02,11.04,9]hexadeca-2,4(9),6,10,13-pentaene-3,10-diol
> <PUBCHEM_IUPAC_INCHI>
InChI=1S/C16H14O2/c17-15-11-7-1-2-8(5-7)12(11)16(18)14-10-4-3-9(6-10)13(14)15/h1-4,7-10,17-18H,5-6H2
> <PUBCHEM_IUPAC_INCHIKEY>
RBOSFZNDAGQKRM-UHFFFAOYSA-N
> <PUBCHEM_XLOGP3_AA>
3.2
> <PUBCHEM_EXACT_MASS>
238.099379685
> <PUBCHEM_MOLECULAR_FORMULA>
C16H14O2
> <PUBCHEM_MOLECULAR_WEIGHT>
238.28
> <PUBCHEM_OPENEYE_CAN_SMILES>
C1C2C=CC1C3=C2C(=C4C5CC(C4=C3O)C=C5)O
> <PUBCHEM_OPENEYE_ISO_SMILES>
C1C2C=CC1C3=C2C(=C4C5CC(C4=C3O)C=C5)O
> <PUBCHEM_CACTVS_TPSA>
40.5
> <PUBCHEM_MONOISOTOPIC_WEIGHT>
238.099379685
> <PUBCHEM_TOTAL_CHARGE>
0
> <PUBCHEM_HEAVY_ATOM_COUNT>
18
> <PUBCHEM_ATOM_DEF_STEREO_COUNT>
0
> <PUBCHEM_ATOM_UDEF_STEREO_COUNT>
4
> <PUBCHEM_BOND_DEF_STEREO_COUNT>
0
> <PUBCHEM_BOND_UDEF_STEREO_COUNT>
0
> <PUBCHEM_ISOTOPIC_ATOM_COUNT>
0
> <PUBCHEM_COMPONENT_COUNT>
1
> <PUBCHEM_CACTVS_TAUTO_COUNT>
-1
> <PUBCHEM_COORDINATE_TYPE>
1
5
255
> <PUBCHEM_BONDANNOTATIONS>
10  14  8
3  11  3
4  11  3
5  12  3
6  12  3
7  13  8
7  8  8
8  14  8
9  10  8
9  13  8
$$$$
