519528
  -OEChem-10302200292D
 25 25  0     1  0  0  0  0  0999 V2000
    4.2690   -0.0670    0.0000 S   0  0  0  0  0  0  0  0  0  0  0  0
    3.4030   -0.5670    0.0000 S   0  0  0  0  0  0  0  0  0  0  0  0
    2.5369   -1.0670    0.0000 O   0  0  0  0  0  0  0  0  0  0  0  0
    2.9030    0.2990    0.0000 O   0  0  0  0  0  0  0  0  0  0  0  0
    3.9030   -1.4330    0.0000 O   0  0  0  0  0  0  0  0  0  0  0  0
    6.8671   -0.5670    0.0000 N   0  0  0  0  0  0  0  0  0  0  0  0
    6.0010   -0.0670    0.0000 C   0  0  3  0  0  0  0  0  0  0  0  0
    6.0010    0.9330    0.0000 C   0  0  0  0  0  0  0  0  0  0  0  0
    6.8671    1.4330    0.0000 C   0  0  0  0  0  0  0  0  0  0  0  0
    7.7331    0.9330    0.0000 C   0  0  0  0  0  0  0  0  0  0  0  0
    7.7331   -0.0670    0.0000 C   0  0  0  0  0  0  0  0  0  0  0  0
    5.1350   -0.5670    0.0000 C   0  0  0  0  0  0  0  0  0  0  0  0
    6.0010   -0.6870    0.0000 H   0  0  0  0  0  0  0  0  0  0  0  0
    5.7890    1.5156    0.0000 H   0  0  0  0  0  0  0  0  0  0  0  0
    5.3905    0.8254    0.0000 H   0  0  0  0  0  0  0  0  0  0  0  0
    7.2656    1.9080    0.0000 H   0  0  0  0  0  0  0  0  0  0  0  0
    6.4685    1.9080    0.0000 H   0  0  0  0  0  0  0  0  0  0  0  0
    8.3437    0.8254    0.0000 H   0  0  0  0  0  0  0  0  0  0  0  0
    7.9451    1.5156    0.0000 H   0  0  0  0  0  0  0  0  0  0  0  0
    7.9451   -0.6496    0.0000 H   0  0  0  0  0  0  0  0  0  0  0  0
    8.3437    0.0407    0.0000 H   0  0  0  0  0  0  0  0  0  0  0  0
    6.8671   -1.1870    0.0000 H   0  0  0  0  0  0  0  0  0  0  0  0
    4.7365   -1.0419    0.0000 H   0  0  0  0  0  0  0  0  0  0  0  0
    5.5335   -1.0419    0.0000 H   0  0  0  0  0  0  0  0  0  0  0  0
    2.0000   -0.7570    0.0000 H   0  0  0  0  0  0  0  0  0  0  0  0
  1  2  1  0  0  0  0
  1 12  1  0  0  0  0
  2  3  1  0  0  0  0
  2  4  2  0  0  0  0
  2  5  2  0  0  0  0
  3 25  1  0  0  0  0
  6  7  1  0  0  0  0
  6 11  1  0  0  0  0
  6 22  1  0  0  0  0
  7  8  1  0  0  0  0
  7 12  1  0  0  0  0
  7 13  1  0  0  0  0
  8  9  1  0  0  0  0
  8 14  1  0  0  0  0
  8 15  1  0  0  0  0
  9 10  1  0  0  0  0
  9 16  1  0  0  0  0
  9 17  1  0  0  0  0
 10 11  1  0  0  0  0
 10 18  1  0  0  0  0
 10 19  1  0  0  0  0
 11 20  1  0  0  0  0
 11 21  1  0  0  0  0
 12 23  1  0  0  0  0
 12 24  1  0  0  0  0
M  END
> <PUBCHEM_COMPOUND_CID>
519528
> <PUBCHEM_COMPOUND_CANONICALIZED>
1
> <PUBCHEM_CACTVS_COMPLEXITY>
221
> <PUBCHEM_CACTVS_HBOND_ACCEPTOR>
5
> <PUBCHEM_CACTVS_HBOND_DONOR>
2
> <PUBCHEM_CACTVS_ROTATABLE_BOND>
3
> <PUBCHEM_CACTVS_SUBSKEYS>
AAADccBiMABgAAAAAAAAAAAAAAAAAAAAAAAsAAAAAAAAAAAAAAAAHAQQCAAACCjFQASAAALAAIAAAAAAADAAAAAAAAAAAIAIAAAAAAIAgAAEAAAAEACAAAEQAAAAAAAAAAAAAAAAAAAAAAAAAAAAAAAAAA==
> <PUBCHEM_IUPAC_OPENEYE_NAME>
2-(sulfosulfanylmethyl)piperidine
> <PUBCHEM_IUPAC_CAS_NAME>
2-[(sulfothio)methyl]piperidine
> <PUBCHEM_IUPAC_NAME_MARKUP>
2-(sulfosulfanylmethyl)piperidine
> <PUBCHEM_IUPAC_NAME>
2-(sulfosulfanylmethyl)piperidine
> <PUBCHEM_IUPAC_SYSTEMATIC_NAME>
2-(sulfosulfanylmethyl)piperidine
> <PUBCHEM_IUPAC_TRADITIONAL_NAME>
2-[(sulfothio)methyl]piperidine
> <PUBCHEM_IUPAC_INCHI>
InChI=1S/C6H13NO3S2/c8-12(9,10)11-5-6-3-1-2-4-7-6/h6-7H,1-5H2,(H,8,9,10)
> <PUBCHEM_IUPAC_INCHIKEY>
IEMJBVVWJLQAOK-UHFFFAOYSA-N
> <PUBCHEM_XLOGP3_AA>
-2.2
> <PUBCHEM_EXACT_MASS>
211.03368562
> <PUBCHEM_MOLECULAR_FORMULA>
C6H13NO3S2
> <PUBCHEM_MOLECULAR_WEIGHT>
211.3
> <PUBCHEM_OPENEYE_CAN_SMILES>
C1CCNC(C1)CSS(=O)(=O)O
> <PUBCHEM_OPENEYE_ISO_SMILES>
C1CCNC(C1)CSS(=O)(=O)O
> <PUBCHEM_CACTVS_TPSA>
100
> <PUBCHEM_MONOISOTOPIC_WEIGHT>
211.03368562
> <PUBCHEM_TOTAL_CHARGE>
0
> <PUBCHEM_HEAVY_ATOM_COUNT>
12
> <PUBCHEM_ATOM_DEF_STEREO_COUNT>
0
> <PUBCHEM_ATOM_UDEF_STEREO_COUNT>
1
> <PUBCHEM_BOND_DEF_STEREO_COUNT>
0
> <PUBCHEM_BOND_UDEF_STEREO_COUNT>
0
> <PUBCHEM_ISOTOPIC_ATOM_COUNT>
0
> <PUBCHEM_COMPONENT_COUNT>
1
> <PUBCHEM_CACTVS_TAUTO_COUNT>
-1
> <PUBCHEM_COORDINATE_TYPE>
1
5
255
> <PUBCHEM_BONDANNOTATIONS>
7  12  3
$$$$
