519591
  -OEChem-10302200292D
 64 63  0     1  0  0  0  0  0999 V2000
    7.1962    1.7500    0.0000 Si  0  0  0  0  0  0  0  0  0  0  0  0
    4.5981   -1.7500    0.0000 Si  0  0  0  0  0  0  0  0  0  0  0  0
    8.9282   -0.2500    0.0000 Si  0  0  0  0  0  0  0  0  0  0  0  0
    2.8660    0.2500    0.0000 Si  0  0  0  0  0  0  0  0  0  0  0  0
    6.3301    1.2500    0.0000 O   0  0  0  0  0  0  0  0  0  0  0  0
    5.4641   -1.2500    0.0000 O   0  0  0  0  0  0  0  0  0  0  0  0
    8.0622    0.2500    0.0000 O   0  0  0  0  0  0  0  0  0  0  0  0
    3.7320   -0.2500    0.0000 O   0  0  0  0  0  0  0  0  0  0  0  0
    7.1962   -1.2500    0.0000 O   0  0  0  0  0  0  0  0  0  0  0  0
    4.5981    1.2500    0.0000 O   0  0  0  0  0  0  0  0  0  0  0  0
    6.3301    0.2500    0.0000 C   0  0  3  0  0  0  0  0  0  0  0  0
    5.4641   -0.2500    0.0000 C   0  0  3  0  0  0  0  0  0  0  0  0
    7.1962   -0.2500    0.0000 C   0  0  0  0  0  0  0  0  0  0  0  0
    4.5981    0.2500    0.0000 C   0  0  0  0  0  0  0  0  0  0  0  0
    8.0622    2.2500    0.0000 C   0  0  0  0  0  0  0  0  0  0  0  0
    6.6962    2.6160    0.0000 C   0  0  0  0  0  0  0  0  0  0  0  0
    7.6962    0.8840    0.0000 C   0  0  0  0  0  0  0  0  0  0  0  0
    3.7320   -2.2500    0.0000 C   0  0  0  0  0  0  0  0  0  0  0  0
    5.0981   -2.6160    0.0000 C   0  0  0  0  0  0  0  0  0  0  0  0
    4.0981   -0.8840    0.0000 C   0  0  0  0  0  0  0  0  0  0  0  0
    9.7942   -0.7500    0.0000 C   0  0  0  0  0  0  0  0  0  0  0  0
    9.4282    0.6160    0.0000 C   0  0  0  0  0  0  0  0  0  0  0  0
    8.4282   -1.1160    0.0000 C   0  0  0  0  0  0  0  0  0  0  0  0
    2.0000    0.7500    0.0000 C   0  0  0  0  0  0  0  0  0  0  0  0
    2.3660   -0.6160    0.0000 C   0  0  0  0  0  0  0  0  0  0  0  0
    3.3660    1.1160    0.0000 C   0  0  0  0  0  0  0  0  0  0  0  0
    6.8671    0.5600    0.0000 H   0  0  0  0  0  0  0  0  0  0  0  0
    6.0010   -0.5600    0.0000 H   0  0  0  0  0  0  0  0  0  0  0  0
    8.3722    1.7131    0.0000 H   0  0  0  0  0  0  0  0  0  0  0  0
    8.5991    2.5600    0.0000 H   0  0  0  0  0  0  0  0  0  0  0  0
    7.7522    2.7869    0.0000 H   0  0  0  0  0  0  0  0  0  0  0  0
    7.2331    2.9260    0.0000 H   0  0  0  0  0  0  0  0  0  0  0  0
    6.3862    3.1530    0.0000 H   0  0  0  0  0  0  0  0  0  0  0  0
    6.1592    2.3060    0.0000 H   0  0  0  0  0  0  0  0  0  0  0  0
    7.1592    0.5740    0.0000 H   0  0  0  0  0  0  0  0  0  0  0  0
    8.0062    0.3470    0.0000 H   0  0  0  0  0  0  0  0  0  0  0  0
    8.2331    1.1940    0.0000 H   0  0  0  0  0  0  0  0  0  0  0  0
    3.4220   -1.7131    0.0000 H   0  0  0  0  0  0  0  0  0  0  0  0
    3.1951   -2.5600    0.0000 H   0  0  0  0  0  0  0  0  0  0  0  0
    4.0420   -2.7869    0.0000 H   0  0  0  0  0  0  0  0  0  0  0  0
    4.5611   -2.9260    0.0000 H   0  0  0  0  0  0  0  0  0  0  0  0
    5.4081   -3.1530    0.0000 H   0  0  0  0  0  0  0  0  0  0  0  0
    5.6350   -2.3060    0.0000 H   0  0  0  0  0  0  0  0  0  0  0  0
    4.6350   -0.5740    0.0000 H   0  0  0  0  0  0  0  0  0  0  0  0
    3.7881   -0.3470    0.0000 H   0  0  0  0  0  0  0  0  0  0  0  0
    3.5611   -1.1940    0.0000 H   0  0  0  0  0  0  0  0  0  0  0  0
    9.4842   -1.2869    0.0000 H   0  0  0  0  0  0  0  0  0  0  0  0
   10.3312   -1.0600    0.0000 H   0  0  0  0  0  0  0  0  0  0  0  0
   10.1042   -0.2131    0.0000 H   0  0  0  0  0  0  0  0  0  0  0  0
    9.9651    0.3060    0.0000 H   0  0  0  0  0  0  0  0  0  0  0  0
    9.7382    1.1530    0.0000 H   0  0  0  0  0  0  0  0  0  0  0  0
    8.8913    0.9260    0.0000 H   0  0  0  0  0  0  0  0  0  0  0  0
    7.8913   -0.8060    0.0000 H   0  0  0  0  0  0  0  0  0  0  0  0
    8.1182   -1.6530    0.0000 H   0  0  0  0  0  0  0  0  0  0  0  0
    8.9651   -1.4260    0.0000 H   0  0  0  0  0  0  0  0  0  0  0  0
    2.3100    1.2869    0.0000 H   0  0  0  0  0  0  0  0  0  0  0  0
    1.4631    1.0600    0.0000 H   0  0  0  0  0  0  0  0  0  0  0  0
    1.6900    0.2131    0.0000 H   0  0  0  0  0  0  0  0  0  0  0  0
    1.8291   -0.3060    0.0000 H   0  0  0  0  0  0  0  0  0  0  0  0
    2.0560   -1.1530    0.0000 H   0  0  0  0  0  0  0  0  0  0  0  0
    2.9030   -0.9260    0.0000 H   0  0  0  0  0  0  0  0  0  0  0  0
    3.9030    0.8060    0.0000 H   0  0  0  0  0  0  0  0  0  0  0  0
    3.6760    1.6530    0.0000 H   0  0  0  0  0  0  0  0  0  0  0  0
    2.8291    1.4260    0.0000 H   0  0  0  0  0  0  0  0  0  0  0  0
  1  5  1  0  0  0  0
  1 15  1  0  0  0  0
  1 16  1  0  0  0  0
  1 17  1  0  0  0  0
  2  6  1  0  0  0  0
  2 18  1  0  0  0  0
  2 19  1  0  0  0  0
  2 20  1  0  0  0  0
  3  7  1  0  0  0  0
  3 21  1  0  0  0  0
  3 22  1  0  0  0  0
  3 23  1  0  0  0  0
  4  8  1  0  0  0  0
  4 24  1  0  0  0  0
  4 25  1  0  0  0  0
  4 26  1  0  0  0  0
  5 11  1  0  0  0  0
  6 12  1  0  0  0  0
  7 13  1  0  0  0  0
  8 14  1  0  0  0  0
  9 13  2  0  0  0  0
 10 14  2  0  0  0  0
 11 12  1  0  0  0  0
 11 13  1  0  0  0  0
 11 27  1  0  0  0  0
 12 14  1  0  0  0  0
 12 28  1  0  0  0  0
 15 29  1  0  0  0  0
 15 30  1  0  0  0  0
 15 31  1  0  0  0  0
 16 32  1  0  0  0  0
 16 33  1  0  0  0  0
 16 34  1  0  0  0  0
 17 35  1  0  0  0  0
 17 36  1  0  0  0  0
 17 37  1  0  0  0  0
 18 38  1  0  0  0  0
 18 39  1  0  0  0  0
 18 40  1  0  0  0  0
 19 41  1  0  0  0  0
 19 42  1  0  0  0  0
 19 43  1  0  0  0  0
 20 44  1  0  0  0  0
 20 45  1  0  0  0  0
 20 46  1  0  0  0  0
 21 47  1  0  0  0  0
 21 48  1  0  0  0  0
 21 49  1  0  0  0  0
 22 50  1  0  0  0  0
 22 51  1  0  0  0  0
 22 52  1  0  0  0  0
 23 53  1  0  0  0  0
 23 54  1  0  0  0  0
 23 55  1  0  0  0  0
 24 56  1  0  0  0  0
 24 57  1  0  0  0  0
 24 58  1  0  0  0  0
 25 59  1  0  0  0  0
 25 60  1  0  0  0  0
 25 61  1  0  0  0  0
 26 62  1  0  0  0  0
 26 63  1  0  0  0  0
 26 64  1  0  0  0  0
M  END
> <PUBCHEM_COMPOUND_CID>
519591
> <PUBCHEM_COMPOUND_CANONICALIZED>
1
> <PUBCHEM_CACTVS_COMPLEXITY>
451
> <PUBCHEM_CACTVS_HBOND_ACCEPTOR>
6
> <PUBCHEM_CACTVS_HBOND_DONOR>
0
> <PUBCHEM_CACTVS_ROTATABLE_BOND>
11
> <PUBCHEM_CACTVS_SUBSKEYS>
AAADcfB4OAwAAAAAAAAAAAAAAAAAAAAAAAAAAAAAAAAAAAAAAAAAGhAAAEAACBSggAJCCAAAAAEIAACQCAIAAAAAAAAAAAFAAAABABQAAAAAAAAFIAAAAABDAAAAAAAAAAAAAAAAAAAAAAAAAAAAAAAAAA==
> <PUBCHEM_IUPAC_OPENEYE_NAME>
bis(trimethylsilyl) 2,3-bis(trimethylsilyloxy)butanedioate
> <PUBCHEM_IUPAC_CAS_NAME>
2,3-bis(trimethylsilyloxy)butanedioic acid bis(trimethylsilyl) ester
> <PUBCHEM_IUPAC_NAME_MARKUP>
bis(trimethylsilyl) 2,3-bis(trimethylsilyloxy)butanedioate
> <PUBCHEM_IUPAC_NAME>
bis(trimethylsilyl) 2,3-bis(trimethylsilyloxy)butanedioate
> <PUBCHEM_IUPAC_SYSTEMATIC_NAME>
bis(trimethylsilyl) 2,3-bis(trimethylsilyloxy)butanedioate
> <PUBCHEM_IUPAC_TRADITIONAL_NAME>
2,3-bis(trimethylsilyloxy)succinic acid bis(trimethylsilyl) ester
> <PUBCHEM_IUPAC_INCHI>
InChI=1S/C16H38O6Si4/c1-23(2,3)19-13(15(17)21-25(7,8)9)14(20-24(4,5)6)16(18)22-26(10,11)12/h13-14H,1-12H3
> <PUBCHEM_IUPAC_INCHIKEY>
LPQBQHQEJJCWBZ-UHFFFAOYSA-N
> <PUBCHEM_EXACT_MASS>
438.17454507
> <PUBCHEM_MOLECULAR_FORMULA>
C16H38O6Si4
> <PUBCHEM_MOLECULAR_WEIGHT>
438.8
> <PUBCHEM_OPENEYE_CAN_SMILES>
C[Si](C)(C)OC(C(C(=O)O[Si](C)(C)C)O[Si](C)(C)C)C(=O)O[Si](C)(C)C
> <PUBCHEM_OPENEYE_ISO_SMILES>
C[Si](C)(C)OC(C(C(=O)O[Si](C)(C)C)O[Si](C)(C)C)C(=O)O[Si](C)(C)C
> <PUBCHEM_CACTVS_TPSA>
71.1
> <PUBCHEM_MONOISOTOPIC_WEIGHT>
438.17454507
> <PUBCHEM_TOTAL_CHARGE>
0
> <PUBCHEM_HEAVY_ATOM_COUNT>
26
> <PUBCHEM_ATOM_DEF_STEREO_COUNT>
0
> <PUBCHEM_ATOM_UDEF_STEREO_COUNT>
2
> <PUBCHEM_BOND_DEF_STEREO_COUNT>
0
> <PUBCHEM_BOND_UDEF_STEREO_COUNT>
0
> <PUBCHEM_ISOTOPIC_ATOM_COUNT>
0
> <PUBCHEM_COMPONENT_COUNT>
1
> <PUBCHEM_CACTVS_TAUTO_COUNT>
1
> <PUBCHEM_COORDINATE_TYPE>
1
5
255
> <PUBCHEM_BONDANNOTATIONS>
11  13  3
12  14  3
$$$$
