519663
  -OEChem-10302200292D
 34 36  0     1  0  0  0  0  0999 V2000
    4.9889   -1.7552    0.0000 O   0  0  0  0  0  0  0  0  0  0  0  0
    4.9889    1.7552    0.0000 O   0  0  0  0  0  0  0  0  0  0  0  0
    6.2619   -1.7320    0.0000 O   0  0  0  0  0  0  0  0  0  0  0  0
    5.2619    0.0000    0.0000 N   0  0  0  0  0  0  0  0  0  0  0  0
    6.2619    0.0000    0.0000 C   0  0  3  0  0  0  0  0  0  0  0  0
    3.7320   -0.5000    0.0000 C   0  0  0  0  0  0  0  0  0  0  0  0
    3.7320    0.5000    0.0000 C   0  0  0  0  0  0  0  0  0  0  0  0
    4.6783   -0.8047    0.0000 C   0  0  0  0  0  0  0  0  0  0  0  0
    4.6783    0.8047    0.0000 C   0  0  0  0  0  0  0  0  0  0  0  0
    6.7619   -0.8660    0.0000 C   0  0  0  0  0  0  0  0  0  0  0  0
    6.7619    0.8660    0.0000 C   0  0  0  0  0  0  0  0  0  0  0  0
    2.8660   -1.0000    0.0000 C   0  0  0  0  0  0  0  0  0  0  0  0
    2.8660    1.0000    0.0000 C   0  0  0  0  0  0  0  0  0  0  0  0
    7.7619   -0.8660    0.0000 C   0  0  0  0  0  0  0  0  0  0  0  0
    2.0000   -0.5000    0.0000 C   0  0  0  0  0  0  0  0  0  0  0  0
    2.0000    0.5000    0.0000 C   0  0  0  0  0  0  0  0  0  0  0  0
    8.2619   -1.7320    0.0000 C   0  0  0  0  0  0  0  0  0  0  0  0
    8.2619    0.0000    0.0000 C   0  0  0  0  0  0  0  0  0  0  0  0
    9.2619   -1.7320    0.0000 C   0  0  0  0  0  0  0  0  0  0  0  0
    9.2619   -0.0000    0.0000 C   0  0  0  0  0  0  0  0  0  0  0  0
    9.7619   -0.8660    0.0000 C   0  0  0  0  0  0  0  0  0  0  0  0
    5.9519    0.5369    0.0000 H   0  0  0  0  0  0  0  0  0  0  0  0
    7.2988    0.5560    0.0000 H   0  0  0  0  0  0  0  0  0  0  0  0
    7.0719    1.4030    0.0000 H   0  0  0  0  0  0  0  0  0  0  0  0
    6.2249    1.1760    0.0000 H   0  0  0  0  0  0  0  0  0  0  0  0
    2.8660   -1.6200    0.0000 H   0  0  0  0  0  0  0  0  0  0  0  0
    2.8660    1.6200    0.0000 H   0  0  0  0  0  0  0  0  0  0  0  0
    1.4631   -0.8100    0.0000 H   0  0  0  0  0  0  0  0  0  0  0  0
    1.4631    0.8100    0.0000 H   0  0  0  0  0  0  0  0  0  0  0  0
    7.9519   -2.2690    0.0000 H   0  0  0  0  0  0  0  0  0  0  0  0
    7.9519    0.5369    0.0000 H   0  0  0  0  0  0  0  0  0  0  0  0
    9.5719   -2.2690    0.0000 H   0  0  0  0  0  0  0  0  0  0  0  0
    9.5719    0.5369    0.0000 H   0  0  0  0  0  0  0  0  0  0  0  0
   10.3819   -0.8660    0.0000 H   0  0  0  0  0  0  0  0  0  0  0  0
  1  8  2  0  0  0  0
  2  9  2  0  0  0  0
  3 10  2  0  0  0  0
  4  5  1  0  0  0  0
  4  8  1  0  0  0  0
  4  9  1  0  0  0  0
  5 10  1  0  0  0  0
  5 11  1  0  0  0  0
  5 22  1  0  0  0  0
  6  7  1  0  0  0  0
  6  8  1  0  0  0  0
  6 12  2  0  0  0  0
  7  9  1  0  0  0  0
  7 13  2  0  0  0  0
 10 14  1  0  0  0  0
 11 23  1  0  0  0  0
 11 24  1  0  0  0  0
 11 25  1  0  0  0  0
 12 15  1  0  0  0  0
 12 26  1  0  0  0  0
 13 16  1  0  0  0  0
 13 27  1  0  0  0  0
 14 17  2  0  0  0  0
 14 18  1  0  0  0  0
 15 16  2  0  0  0  0
 15 28  1  0  0  0  0
 16 29  1  0  0  0  0
 17 19  1  0  0  0  0
 17 30  1  0  0  0  0
 18 20  2  0  0  0  0
 18 31  1  0  0  0  0
 19 21  2  0  0  0  0
 19 32  1  0  0  0  0
 20 21  1  0  0  0  0
 20 33  1  0  0  0  0
 21 34  1  0  0  0  0
M  END
> <PUBCHEM_COMPOUND_CID>
519663
> <PUBCHEM_COMPOUND_CANONICALIZED>
1
> <PUBCHEM_CACTVS_COMPLEXITY>
429
> <PUBCHEM_CACTVS_HBOND_ACCEPTOR>
3
> <PUBCHEM_CACTVS_HBOND_DONOR>
0
> <PUBCHEM_CACTVS_ROTATABLE_BOND>
3
> <PUBCHEM_CACTVS_SUBSKEYS>
AAADccB6MAAAAAAAAAAAAAAAAAAAAWAAAAAwYAAAAAAAAFgBQAAAHgAAAAAADCzBmAQyAIMAAACIAqFSEACCAAAkAAAIiAGIBMgIIDKAlTGEIQhghiCIiYcdiICOgAAAAAAQAAAAAAAAACAAAAAAAAAAAA==
> <PUBCHEM_IUPAC_OPENEYE_NAME>
2-(1-methyl-2-oxo-2-phenyl-ethyl)isoindoline-1,3-dione
> <PUBCHEM_IUPAC_CAS_NAME>
2-(1-oxo-1-phenylpropan-2-yl)isoindole-1,3-dione
> <PUBCHEM_IUPAC_NAME_MARKUP>
2-(1-oxo-1-phenylpropan-2-yl)isoindole-1,3-dione
> <PUBCHEM_IUPAC_NAME>
2-(1-oxo-1-phenylpropan-2-yl)isoindole-1,3-dione
> <PUBCHEM_IUPAC_SYSTEMATIC_NAME>
2-(1-oxidanylidene-1-phenyl-propan-2-yl)isoindole-1,3-dione
> <PUBCHEM_IUPAC_TRADITIONAL_NAME>
2-(2-keto-1-methyl-2-phenyl-ethyl)isoindoline-1,3-quinone
> <PUBCHEM_IUPAC_INCHI>
InChI=1S/C17H13NO3/c1-11(15(19)12-7-3-2-4-8-12)18-16(20)13-9-5-6-10-14(13)17(18)21/h2-11H,1H3
> <PUBCHEM_IUPAC_INCHIKEY>
CKLKGWHINGNHOK-UHFFFAOYSA-N
> <PUBCHEM_XLOGP3_AA>
2.7
> <PUBCHEM_EXACT_MASS>
279.08954328
> <PUBCHEM_MOLECULAR_FORMULA>
C17H13NO3
> <PUBCHEM_MOLECULAR_WEIGHT>
279.29
> <PUBCHEM_OPENEYE_CAN_SMILES>
CC(C(=O)C1=CC=CC=C1)N2C(=O)C3=CC=CC=C3C2=O
> <PUBCHEM_OPENEYE_ISO_SMILES>
CC(C(=O)C1=CC=CC=C1)N2C(=O)C3=CC=CC=C3C2=O
> <PUBCHEM_CACTVS_TPSA>
54.4
> <PUBCHEM_MONOISOTOPIC_WEIGHT>
279.08954328
> <PUBCHEM_TOTAL_CHARGE>
0
> <PUBCHEM_HEAVY_ATOM_COUNT>
21
> <PUBCHEM_ATOM_DEF_STEREO_COUNT>
0
> <PUBCHEM_ATOM_UDEF_STEREO_COUNT>
1
> <PUBCHEM_BOND_DEF_STEREO_COUNT>
0
> <PUBCHEM_BOND_UDEF_STEREO_COUNT>
0
> <PUBCHEM_ISOTOPIC_ATOM_COUNT>
0
> <PUBCHEM_COMPONENT_COUNT>
1
> <PUBCHEM_CACTVS_TAUTO_COUNT>
2
> <PUBCHEM_COORDINATE_TYPE>
1
5
255
> <PUBCHEM_BONDANNOTATIONS>
12  15  8
13  16  8
14  17  8
14  18  8
15  16  8
17  19  8
18  20  8
19  21  8
20  21  8
5  11  3
6  12  8
6  7  8
7  13  8
$$$$
