519649
  -OEChem-10302200292D
 30 30  0     1  0  0  0  0  0999 V2000
    3.6632    1.8365    0.0000 O   0  0  0  0  0  0  0  0  0  0  0  0
    5.8186    0.8706    0.0000 N   0  0  0  0  0  0  0  0  0  0  0  0
    2.4384    0.6118    0.0000 N   0  0  0  0  0  0  0  0  0  0  0  0
    5.1114   -0.8365    0.0000 C   0  0  0  0  0  0  0  0  0  0  0  0
    5.1114    0.1635    0.0000 C   0  0  3  0  0  0  0  0  0  0  0  0
    4.1114    0.1635    0.0000 C   0  0  3  0  0  0  0  0  0  0  0  0
    4.1114   -0.8365    0.0000 C   0  0  0  0  0  0  0  0  0  0  0  0
    5.1114   -1.8365    0.0000 C   0  0  0  0  0  0  0  0  0  0  0  0
    6.1114   -0.8365    0.0000 C   0  0  0  0  0  0  0  0  0  0  0  0
    3.4043    0.8706    0.0000 C   0  0  0  0  0  0  0  0  0  0  0  0
    6.7845    0.6118    0.0000 C   0  0  0  0  0  0  0  0  0  0  0  0
    5.5597    1.8365    0.0000 C   0  0  0  0  0  0  0  0  0  0  0  0
    4.8742    0.7363    0.0000 H   0  0  0  0  0  0  0  0  0  0  0  0
    4.3487    0.7363    0.0000 H   0  0  0  0  0  0  0  0  0  0  0  0
    3.4914   -0.8365    0.0000 H   0  0  0  0  0  0  0  0  0  0  0  0
    4.1114   -1.4565    0.0000 H   0  0  0  0  0  0  0  0  0  0  0  0
    4.4914   -1.8365    0.0000 H   0  0  0  0  0  0  0  0  0  0  0  0
    5.1114   -2.4565    0.0000 H   0  0  0  0  0  0  0  0  0  0  0  0
    5.7314   -1.8365    0.0000 H   0  0  0  0  0  0  0  0  0  0  0  0
    6.1114   -1.4565    0.0000 H   0  0  0  0  0  0  0  0  0  0  0  0
    6.7314   -0.8365    0.0000 H   0  0  0  0  0  0  0  0  0  0  0  0
    6.1114   -0.2165    0.0000 H   0  0  0  0  0  0  0  0  0  0  0  0
    6.6240    0.0129    0.0000 H   0  0  0  0  0  0  0  0  0  0  0  0
    7.3834    0.4513    0.0000 H   0  0  0  0  0  0  0  0  0  0  0  0
    6.9449    1.2106    0.0000 H   0  0  0  0  0  0  0  0  0  0  0  0
    6.1586    1.9970    0.0000 H   0  0  0  0  0  0  0  0  0  0  0  0
    5.3993    2.4354    0.0000 H   0  0  0  0  0  0  0  0  0  0  0  0
    4.9608    1.6760    0.0000 H   0  0  0  0  0  0  0  0  0  0  0  0
    2.0000    1.0502    0.0000 H   0  0  0  0  0  0  0  0  0  0  0  0
    2.2779    0.0129    0.0000 H   0  0  0  0  0  0  0  0  0  0  0  0
  1 10  2  0  0  0  0
  2  5  1  0  0  0  0
  2 11  1  0  0  0  0
  2 12  1  0  0  0  0
  3 10  1  0  0  0  0
  3 29  1  0  0  0  0
  3 30  1  0  0  0  0
  4  5  1  0  0  0  0
  4  7  1  0  0  0  0
  4  8  1  0  0  0  0
  4  9  1  0  0  0  0
  5  6  1  0  0  0  0
  5 13  1  0  0  0  0
  6  7  1  0  0  0  0
  6 10  1  0  0  0  0
  6 14  1  0  0  0  0
  7 15  1  0  0  0  0
  7 16  1  0  0  0  0
  8 17  1  0  0  0  0
  8 18  1  0  0  0  0
  8 19  1  0  0  0  0
  9 20  1  0  0  0  0
  9 21  1  0  0  0  0
  9 22  1  0  0  0  0
 11 23  1  0  0  0  0
 11 24  1  0  0  0  0
 11 25  1  0  0  0  0
 12 26  1  0  0  0  0
 12 27  1  0  0  0  0
 12 28  1  0  0  0  0
M  END
> <PUBCHEM_COMPOUND_CID>
519649
> <PUBCHEM_COMPOUND_CANONICALIZED>
1
> <PUBCHEM_CACTVS_COMPLEXITY>
199
> <PUBCHEM_CACTVS_HBOND_ACCEPTOR>
2
> <PUBCHEM_CACTVS_HBOND_DONOR>
1
> <PUBCHEM_CACTVS_ROTATABLE_BOND>
2
> <PUBCHEM_CACTVS_SUBSKEYS>
AAADceBzIAAAAAAAAAAAAAAAAABgAAAAAAAAAAAAAAAAAAAAAAAAHgAQAAAADyjBgAQCAANAAAAIAAEQEAAAAAAAAAAAAAEIAAAAABoAwAAEAAAAEAAAAAAYAQANAAAAAAAAAAAAAAAAAAAAAAAAAAAAAA==
> <PUBCHEM_IUPAC_OPENEYE_NAME>
2-(dimethylamino)-3,3-dimethyl-cyclobutanecarboxamide
> <PUBCHEM_IUPAC_CAS_NAME>
2-(dimethylamino)-3,3-dimethyl-1-cyclobutanecarboxamide
> <PUBCHEM_IUPAC_NAME_MARKUP>
2-(dimethylamino)-3,3-dimethylcyclobutane-1-carboxamide
> <PUBCHEM_IUPAC_NAME>
2-(dimethylamino)-3,3-dimethylcyclobutane-1-carboxamide
> <PUBCHEM_IUPAC_SYSTEMATIC_NAME>
2-(dimethylamino)-3,3-dimethyl-cyclobutane-1-carboxamide
> <PUBCHEM_IUPAC_TRADITIONAL_NAME>
2-(dimethylamino)-3,3-dimethyl-cyclobutanecarboxamide
> <PUBCHEM_IUPAC_INCHI>
InChI=1S/C9H18N2O/c1-9(2)5-6(8(10)12)7(9)11(3)4/h6-7H,5H2,1-4H3,(H2,10,12)
> <PUBCHEM_IUPAC_INCHIKEY>
DPGXRZYPRCIJLQ-UHFFFAOYSA-N
> <PUBCHEM_XLOGP3_AA>
0.5
> <PUBCHEM_EXACT_MASS>
170.141913202
> <PUBCHEM_MOLECULAR_FORMULA>
C9H18N2O
> <PUBCHEM_MOLECULAR_WEIGHT>
170.25
> <PUBCHEM_OPENEYE_CAN_SMILES>
CC1(CC(C1N(C)C)C(=O)N)C
> <PUBCHEM_OPENEYE_ISO_SMILES>
CC1(CC(C1N(C)C)C(=O)N)C
> <PUBCHEM_CACTVS_TPSA>
46.3
> <PUBCHEM_MONOISOTOPIC_WEIGHT>
170.141913202
> <PUBCHEM_TOTAL_CHARGE>
0
> <PUBCHEM_HEAVY_ATOM_COUNT>
12
> <PUBCHEM_ATOM_DEF_STEREO_COUNT>
0
> <PUBCHEM_ATOM_UDEF_STEREO_COUNT>
2
> <PUBCHEM_BOND_DEF_STEREO_COUNT>
0
> <PUBCHEM_BOND_UDEF_STEREO_COUNT>
0
> <PUBCHEM_ISOTOPIC_ATOM_COUNT>
0
> <PUBCHEM_COMPONENT_COUNT>
1
> <PUBCHEM_CACTVS_TAUTO_COUNT>
-1
> <PUBCHEM_COORDINATE_TYPE>
1
5
255
> <PUBCHEM_BONDANNOTATIONS>
5  2  3
6  10  3
$$$$
