519608
  -OEChem-10302200292D
 13 13  0     1  0  0  0  0  0999 V2000
    3.0878    1.6739    0.0000 Br  0  0  0  0  0  0  0  0  0  0  0  0
    2.0000   -1.6739    0.0000 Br  0  0  0  0  0  0  0  0  0  0  0  0
    2.2788    0.0861    0.0000 C   0  0  0  0  0  0  0  0  0  0  0  0
    3.0878    0.6739    0.0000 C   0  0  3  0  0  0  0  0  0  0  0  0
    2.5878   -0.8649    0.0000 C   0  0  3  0  0  0  0  0  0  0  0  0
    3.8968    0.0861    0.0000 C   0  0  0  0  0  0  0  0  0  0  0  0
    3.5878   -0.8649    0.0000 C   0  0  0  0  0  0  0  0  0  0  0  0
    1.9688    0.6231    0.0000 H   0  0  0  0  0  0  0  0  0  0  0  0
    1.7124   -0.1660    0.0000 H   0  0  0  0  0  0  0  0  0  0  0  0
    3.6402    0.9554    0.0000 H   0  0  0  0  0  0  0  0  0  0  0  0
    1.9754   -0.7679    0.0000 H   0  0  0  0  0  0  0  0  0  0  0  0
    4.4865    0.2777    0.0000 H   0  0  0  0  0  0  0  0  0  0  0  0
    3.9522   -1.3665    0.0000 H   0  0  0  0  0  0  0  0  0  0  0  0
  1  4  1  0  0  0  0
  2  5  1  0  0  0  0
  3  4  1  0  0  0  0
  3  5  1  0  0  0  0
  3  8  1  0  0  0  0
  3  9  1  0  0  0  0
  4  6  1  0  0  0  0
  4 10  1  0  0  0  0
  5  7  1  0  0  0  0
  5 11  1  0  0  0  0
  6  7  2  0  0  0  0
  6 12  1  0  0  0  0
  7 13  1  0  0  0  0
M  END
> <PUBCHEM_COMPOUND_CID>
519608
> <PUBCHEM_COMPOUND_CANONICALIZED>
1
> <PUBCHEM_CACTVS_COMPLEXITY>
78.1
> <PUBCHEM_CACTVS_HBOND_ACCEPTOR>
0
> <PUBCHEM_CACTVS_HBOND_DONOR>
0
> <PUBCHEM_CACTVS_ROTATABLE_BOND>
0
> <PUBCHEM_CACTVS_SUBSKEYS>
AAADcYBgAAAAGAAAAAAAAAAAAAAAAQAAAAAAAAAAAAAAAAAAAAAAGABAAAAByACAAAAAAAAAAACAACBCAAAAAAAgAAAICAAAACgAAAIAAQAAAAAAgAAIAAIAAAAAAAAAAAAAAAAAAAAAAAAAAAAAAAAAAA==
> <PUBCHEM_IUPAC_OPENEYE_NAME>
3,5-dibromocyclopentene
> <PUBCHEM_IUPAC_CAS_NAME>
3,5-dibromocyclopentene
> <PUBCHEM_IUPAC_NAME_MARKUP>
3,5-dibromocyclopentene
> <PUBCHEM_IUPAC_NAME>
3,5-dibromocyclopentene
> <PUBCHEM_IUPAC_SYSTEMATIC_NAME>
3,5-bis(bromanyl)cyclopentene
> <PUBCHEM_IUPAC_TRADITIONAL_NAME>
3,5-dibromocyclopentene
> <PUBCHEM_IUPAC_INCHI>
InChI=1S/C5H6Br2/c6-4-1-2-5(7)3-4/h1-2,4-5H,3H2
> <PUBCHEM_IUPAC_INCHIKEY>
AKAJVSSDORNOIX-UHFFFAOYSA-N
> <PUBCHEM_XLOGP3_AA>
2.4
> <PUBCHEM_EXACT_MASS>
225.88158
> <PUBCHEM_MOLECULAR_FORMULA>
C5H6Br2
> <PUBCHEM_MOLECULAR_WEIGHT>
225.91
> <PUBCHEM_OPENEYE_CAN_SMILES>
C1C(C=CC1Br)Br
> <PUBCHEM_OPENEYE_ISO_SMILES>
C1C(C=CC1Br)Br
> <PUBCHEM_CACTVS_TPSA>
0
> <PUBCHEM_MONOISOTOPIC_WEIGHT>
223.88363
> <PUBCHEM_TOTAL_CHARGE>
0
> <PUBCHEM_HEAVY_ATOM_COUNT>
7
> <PUBCHEM_ATOM_DEF_STEREO_COUNT>
0
> <PUBCHEM_ATOM_UDEF_STEREO_COUNT>
2
> <PUBCHEM_BOND_DEF_STEREO_COUNT>
0
> <PUBCHEM_BOND_UDEF_STEREO_COUNT>
0
> <PUBCHEM_ISOTOPIC_ATOM_COUNT>
0
> <PUBCHEM_COMPONENT_COUNT>
1
> <PUBCHEM_CACTVS_TAUTO_COUNT>
-1
> <PUBCHEM_COORDINATE_TYPE>
1
5
255
> <PUBCHEM_BONDANNOTATIONS>
4  1  3
5  2  3
$$$$
