519611
  -OEChem-10302200292D
 19 19  0     1  0  0  0  0  0999 V2000
    4.8660    0.6830    0.0000 O   0  0  0  0  0  0  0  0  0  0  0  0
    4.8660   -1.0490    0.0000 O   0  0  0  0  0  0  0  0  0  0  0  0
    3.3660   -0.1830    0.0000 C   0  0  3  0  0  0  0  0  0  0  0  0
    2.5000    0.3170    0.0000 C   0  0  0  0  0  0  0  0  0  0  0  0
    2.5000   -0.6830    0.0000 C   0  0  0  0  0  0  0  0  0  0  0  0
    4.3660   -0.1830    0.0000 C   0  0  0  0  0  0  0  0  0  0  0  0
    2.0000   -1.5490    0.0000 C   0  0  0  0  0  0  0  0  0  0  0  0
    5.8660    0.6830    0.0000 C   0  0  0  0  0  0  0  0  0  0  0  0
    6.3660    1.5490    0.0000 C   0  0  0  0  0  0  0  0  0  0  0  0
    3.5265   -0.7819    0.0000 H   0  0  0  0  0  0  0  0  0  0  0  0
    2.7120    0.8996    0.0000 H   0  0  0  0  0  0  0  0  0  0  0  0
    1.8894    0.4246    0.0000 H   0  0  0  0  0  0  0  0  0  0  0  0
    1.3800   -1.5490    0.0000 H   0  0  0  0  0  0  0  0  0  0  0  0
    2.3100   -2.0860    0.0000 H   0  0  0  0  0  0  0  0  0  0  0  0
    5.7584    0.0724    0.0000 H   0  0  0  0  0  0  0  0  0  0  0  0
    6.4486    0.4710    0.0000 H   0  0  0  0  0  0  0  0  0  0  0  0
    6.9030    1.2390    0.0000 H   0  0  0  0  0  0  0  0  0  0  0  0
    6.6760    2.0860    0.0000 H   0  0  0  0  0  0  0  0  0  0  0  0
    5.8291    1.8590    0.0000 H   0  0  0  0  0  0  0  0  0  0  0  0
  1  6  1  0  0  0  0
  1  8  1  0  0  0  0
  2  6  2  0  0  0  0
  3  4  1  0  0  0  0
  3  5  1  0  0  0  0
  3  6  1  0  0  0  0
  3 10  1  0  0  0  0
  4  5  1  0  0  0  0
  4 11  1  0  0  0  0
  4 12  1  0  0  0  0
  5  7  2  0  0  0  0
  7 13  1  0  0  0  0
  7 14  1  0  0  0  0
  8  9  1  0  0  0  0
  8 15  1  0  0  0  0
  8 16  1  0  0  0  0
  9 17  1  0  0  0  0
  9 18  1  0  0  0  0
  9 19  1  0  0  0  0
M  END
> <PUBCHEM_COMPOUND_CID>
519611
> <PUBCHEM_COMPOUND_CANONICALIZED>
1
> <PUBCHEM_CACTVS_COMPLEXITY>
149
> <PUBCHEM_CACTVS_HBOND_ACCEPTOR>
2
> <PUBCHEM_CACTVS_HBOND_DONOR>
0
> <PUBCHEM_CACTVS_ROTATABLE_BOND>
3
> <PUBCHEM_CACTVS_SUBSKEYS>
AAADccBgMAAAAAAAAAAAAAAAGAAAAAAAAAAAAAAAAAAAAAAAAAAAGgAAAAAADQCggAICCAAABACIAgDSCAAAAAAgAAAAAAEAAAgAABAAAQACAAAEwAAAAAAAAAAAAAAAAAAAAAAAAAAAAAAAAAAAAAAAAA==
> <PUBCHEM_IUPAC_OPENEYE_NAME>
ethyl 2-methylenecyclopropanecarboxylate
> <PUBCHEM_IUPAC_CAS_NAME>
2-methylene-1-cyclopropanecarboxylic acid ethyl ester
> <PUBCHEM_IUPAC_NAME_MARKUP>
ethyl 2-methylidenecyclopropane-1-carboxylate
> <PUBCHEM_IUPAC_NAME>
ethyl 2-methylidenecyclopropane-1-carboxylate
> <PUBCHEM_IUPAC_SYSTEMATIC_NAME>
ethyl 2-methylidenecyclopropane-1-carboxylate
> <PUBCHEM_IUPAC_TRADITIONAL_NAME>
2-methylenecyclopropanecarboxylic acid ethyl ester
> <PUBCHEM_IUPAC_INCHI>
InChI=1S/C7H10O2/c1-3-9-7(8)6-4-5(6)2/h6H,2-4H2,1H3
> <PUBCHEM_IUPAC_INCHIKEY>
SPCOBAXZQGNBHE-UHFFFAOYSA-N
> <PUBCHEM_XLOGP3_AA>
0.9
> <PUBCHEM_EXACT_MASS>
126.068079557
> <PUBCHEM_MOLECULAR_FORMULA>
C7H10O2
> <PUBCHEM_MOLECULAR_WEIGHT>
126.15
> <PUBCHEM_OPENEYE_CAN_SMILES>
CCOC(=O)C1CC1=C
> <PUBCHEM_OPENEYE_ISO_SMILES>
CCOC(=O)C1CC1=C
> <PUBCHEM_CACTVS_TPSA>
26.3
> <PUBCHEM_MONOISOTOPIC_WEIGHT>
126.068079557
> <PUBCHEM_TOTAL_CHARGE>
0
> <PUBCHEM_HEAVY_ATOM_COUNT>
9
> <PUBCHEM_ATOM_DEF_STEREO_COUNT>
0
> <PUBCHEM_ATOM_UDEF_STEREO_COUNT>
1
> <PUBCHEM_BOND_DEF_STEREO_COUNT>
0
> <PUBCHEM_BOND_UDEF_STEREO_COUNT>
0
> <PUBCHEM_ISOTOPIC_ATOM_COUNT>
0
> <PUBCHEM_COMPONENT_COUNT>
1
> <PUBCHEM_CACTVS_TAUTO_COUNT>
-1
> <PUBCHEM_COORDINATE_TYPE>
1
5
255
> <PUBCHEM_BONDANNOTATIONS>
3  6  3
$$$$
