519667
  -OEChem-10302200292D
 54 52  0     1  0  0  0  0  0999 V2000
    5.2331    0.0000    0.0000 Cl  0  0  0  0  0  0  0  0  0  0  0  0
    5.7331    4.5369    0.0000 N   0  0  0  0  0  0  0  0  0  0  0  0
    4.0010    4.5369    0.0000 C   0  0  3  0  0  0  0  0  0  0  0  0
    7.4651    4.5369    0.0000 C   0  0  3  0  0  0  0  0  0  0  0  0
    4.8671    5.0369    0.0000 C   0  0  0  0  0  0  0  0  0  0  0  0
    6.5991    5.0369    0.0000 C   0  0  0  0  0  0  0  0  0  0  0  0
    3.1350    5.0369    0.0000 C   0  0  0  0  0  0  0  0  0  0  0  0
    8.3312    5.0369    0.0000 C   0  0  0  0  0  0  0  0  0  0  0  0
    4.0010    3.5369    0.0000 C   0  0  0  0  0  0  0  0  0  0  0  0
    7.4651    3.5369    0.0000 C   0  0  0  0  0  0  0  0  0  0  0  0
    2.2690    4.5369    0.0000 C   0  0  0  0  0  0  0  0  0  0  0  0
    9.1972    4.5369    0.0000 C   0  0  0  0  0  0  0  0  0  0  0  0
    1.4030    5.0369    0.0000 C   0  0  0  0  0  0  0  0  0  0  0  0
   10.0632    5.0369    0.0000 C   0  0  0  0  0  0  0  0  0  0  0  0
    3.1350    3.0369    0.0000 C   0  0  0  0  0  0  0  0  0  0  0  0
    8.3312    3.0369    0.0000 C   0  0  0  0  0  0  0  0  0  0  0  0
    0.5369    4.5369    0.0000 C   0  0  0  0  0  0  0  0  0  0  0  0
   10.9292    4.5369    0.0000 C   0  0  0  0  0  0  0  0  0  0  0  0
    4.5380    4.2269    0.0000 H   0  0  0  0  0  0  0  0  0  0  0  0
    8.0021    4.2269    0.0000 H   0  0  0  0  0  0  0  0  0  0  0  0
    5.2656    5.5119    0.0000 H   0  0  0  0  0  0  0  0  0  0  0  0
    4.4685    5.5119    0.0000 H   0  0  0  0  0  0  0  0  0  0  0  0
    6.9976    5.5119    0.0000 H   0  0  0  0  0  0  0  0  0  0  0  0
    6.2006    5.5119    0.0000 H   0  0  0  0  0  0  0  0  0  0  0  0
    3.5335    5.5119    0.0000 H   0  0  0  0  0  0  0  0  0  0  0  0
    2.7365    5.5119    0.0000 H   0  0  0  0  0  0  0  0  0  0  0  0
    8.7297    5.5119    0.0000 H   0  0  0  0  0  0  0  0  0  0  0  0
    7.9326    5.5119    0.0000 H   0  0  0  0  0  0  0  0  0  0  0  0
    5.7331    3.9169    0.0000 H   0  0  0  0  0  0  0  0  0  0  0  0
    4.2131    2.9543    0.0000 H   0  0  0  0  0  0  0  0  0  0  0  0
    4.6116    3.6446    0.0000 H   0  0  0  0  0  0  0  0  0  0  0  0
    6.8546    3.6446    0.0000 H   0  0  0  0  0  0  0  0  0  0  0  0
    7.2531    2.9543    0.0000 H   0  0  0  0  0  0  0  0  0  0  0  0
    1.8705    4.0620    0.0000 H   0  0  0  0  0  0  0  0  0  0  0  0
    2.6675    4.0620    0.0000 H   0  0  0  0  0  0  0  0  0  0  0  0
    8.7987    4.0620    0.0000 H   0  0  0  0  0  0  0  0  0  0  0  0
    9.5957    4.0620    0.0000 H   0  0  0  0  0  0  0  0  0  0  0  0
    1.8015    5.5119    0.0000 H   0  0  0  0  0  0  0  0  0  0  0  0
    1.0044    5.5119    0.0000 H   0  0  0  0  0  0  0  0  0  0  0  0
   10.4617    5.5119    0.0000 H   0  0  0  0  0  0  0  0  0  0  0  0
    9.6647    5.5119    0.0000 H   0  0  0  0  0  0  0  0  0  0  0  0
    2.8250    3.5739    0.0000 H   0  0  0  0  0  0  0  0  0  0  0  0
    2.5981    2.7269    0.0000 H   0  0  0  0  0  0  0  0  0  0  0  0
    3.4450    2.5000    0.0000 H   0  0  0  0  0  0  0  0  0  0  0  0
    8.0212    2.5000    0.0000 H   0  0  0  0  0  0  0  0  0  0  0  0
    8.8681    2.7269    0.0000 H   0  0  0  0  0  0  0  0  0  0  0  0
    8.6412    3.5739    0.0000 H   0  0  0  0  0  0  0  0  0  0  0  0
    0.2269    5.0739    0.0000 H   0  0  0  0  0  0  0  0  0  0  0  0
    0.0000    4.2269    0.0000 H   0  0  0  0  0  0  0  0  0  0  0  0
    0.8469    4.0000    0.0000 H   0  0  0  0  0  0  0  0  0  0  0  0
   10.6192    4.0000    0.0000 H   0  0  0  0  0  0  0  0  0  0  0  0
   11.4662    4.2269    0.0000 H   0  0  0  0  0  0  0  0  0  0  0  0
   11.2392    5.0739    0.0000 H   0  0  0  0  0  0  0  0  0  0  0  0
    6.2331    0.0000    0.0000 H   0  0  0  0  0  0  0  0  0  0  0  0
  1 54  1  0  0  0  0
  2  5  1  0  0  0  0
  2  6  1  0  0  0  0
  2 29  1  0  0  0  0
  3  5  1  0  0  0  0
  3  7  1  0  0  0  0
  3  9  1  0  0  0  0
  3 19  1  0  0  0  0
  4  6  1  0  0  0  0
  4  8  1  0  0  0  0
  4 10  1  0  0  0  0
  4 20  1  0  0  0  0
  5 21  1  0  0  0  0
  5 22  1  0  0  0  0
  6 23  1  0  0  0  0
  6 24  1  0  0  0  0
  7 11  1  0  0  0  0
  7 25  1  0  0  0  0
  7 26  1  0  0  0  0
  8 12  1  0  0  0  0
  8 27  1  0  0  0  0
  8 28  1  0  0  0  0
  9 15  1  0  0  0  0
  9 30  1  0  0  0  0
  9 31  1  0  0  0  0
 10 16  1  0  0  0  0
 10 32  1  0  0  0  0
 10 33  1  0  0  0  0
 11 13  1  0  0  0  0
 11 34  1  0  0  0  0
 11 35  1  0  0  0  0
 12 14  1  0  0  0  0
 12 36  1  0  0  0  0
 12 37  1  0  0  0  0
 13 17  1  0  0  0  0
 13 38  1  0  0  0  0
 13 39  1  0  0  0  0
 14 18  1  0  0  0  0
 14 40  1  0  0  0  0
 14 41  1  0  0  0  0
 15 42  1  0  0  0  0
 15 43  1  0  0  0  0
 15 44  1  0  0  0  0
 16 45  1  0  0  0  0
 16 46  1  0  0  0  0
 16 47  1  0  0  0  0
 17 48  1  0  0  0  0
 17 49  1  0  0  0  0
 17 50  1  0  0  0  0
 18 51  1  0  0  0  0
 18 52  1  0  0  0  0
 18 53  1  0  0  0  0
M  END
> <PUBCHEM_COMPOUND_CID>
519667
> <PUBCHEM_COMPOUND_CANONICALIZED>
1
> <PUBCHEM_CACTVS_COMPLEXITY>
129
> <PUBCHEM_CACTVS_HBOND_ACCEPTOR>
1
> <PUBCHEM_CACTVS_HBOND_DONOR>
2
> <PUBCHEM_CACTVS_ROTATABLE_BOND>
12
> <PUBCHEM_CACTVS_SUBSKEYS>
AAADcfB6AAAEAAAAAAAAAAAAAAAAAAAAAAAAAAAAAAAAAAAAAAAAHAAQAAAADQDBAAQCAALAAAAAAAAAAAAAAAAAAAAAAIAIAAAAAAIAgAAEAAAAEACAAAEQgAAOAAAAAAAAAAAAAAAAAAAAAAAAAAAAAA==
> <PUBCHEM_IUPAC_OPENEYE_NAME>
2-ethyl-N-(2-ethylhexyl)hexan-1-amine;hydrochloride
> <PUBCHEM_IUPAC_CAS_NAME>
2-ethyl-N-(2-ethylhexyl)-1-hexanamine;hydrochloride
> <PUBCHEM_IUPAC_NAME_MARKUP>
2-ethyl-<I>N</I>-(2-ethylhexyl)hexan-1-amine;hydrochloride
> <PUBCHEM_IUPAC_NAME>
2-ethyl-N-(2-ethylhexyl)hexan-1-amine;hydrochloride
> <PUBCHEM_IUPAC_SYSTEMATIC_NAME>
2-ethyl-N-(2-ethylhexyl)hexan-1-amine;hydrochloride
> <PUBCHEM_IUPAC_TRADITIONAL_NAME>
bis(2-ethylhexyl)amine;hydrochloride
> <PUBCHEM_IUPAC_INCHI>
InChI=1S/C16H35N.ClH/c1-5-9-11-15(7-3)13-17-14-16(8-4)12-10-6-2;/h15-17H,5-14H2,1-4H3;1H
> <PUBCHEM_IUPAC_INCHIKEY>
UKBVMANDAGHELT-UHFFFAOYSA-N
> <PUBCHEM_EXACT_MASS>
277.2536278
> <PUBCHEM_MOLECULAR_FORMULA>
C16H36ClN
> <PUBCHEM_MOLECULAR_WEIGHT>
277.9
> <PUBCHEM_OPENEYE_CAN_SMILES>
CCCCC(CC)CNCC(CC)CCCC.Cl
> <PUBCHEM_OPENEYE_ISO_SMILES>
CCCCC(CC)CNCC(CC)CCCC.Cl
> <PUBCHEM_CACTVS_TPSA>
12
> <PUBCHEM_MONOISOTOPIC_WEIGHT>
277.2536278
> <PUBCHEM_TOTAL_CHARGE>
0
> <PUBCHEM_HEAVY_ATOM_COUNT>
18
> <PUBCHEM_ATOM_DEF_STEREO_COUNT>
0
> <PUBCHEM_ATOM_UDEF_STEREO_COUNT>
2
> <PUBCHEM_BOND_DEF_STEREO_COUNT>
0
> <PUBCHEM_BOND_UDEF_STEREO_COUNT>
0
> <PUBCHEM_ISOTOPIC_ATOM_COUNT>
0
> <PUBCHEM_COMPONENT_COUNT>
2
> <PUBCHEM_CACTVS_TAUTO_COUNT>
-1
> <PUBCHEM_COORDINATE_TYPE>
1
5
255
> <PUBCHEM_BONDANNOTATIONS>
3  9  3
4  10  3
$$$$
