519627
  -OEChem-10302200292D
 75 78  0     1  0  0  0  0  0999 V2000
    4.7353   -3.7737    0.0000 O   0  0  0  0  0  0  0  0  0  0  0  0
    2.0000   -3.2776    0.0000 O   0  0  0  0  0  0  0  0  0  0  0  0
    7.3931   -0.2252    0.0000 C   0  0  3  0  0  0  0  0  0  0  0  0
    7.3931   -1.2252    0.0000 C   0  0  3  0  0  0  0  0  0  0  0  0
    6.5271   -1.7252    0.0000 C   0  0  3  0  0  0  0  0  0  0  0  0
    5.6610   -1.2252    0.0000 C   0  0  3  0  0  0  0  0  0  0  0  0
    4.7510   -1.7321    0.0000 C   0  0  3  0  0  0  0  0  0  0  0  0
    8.3393    0.0795    0.0000 C   0  0  3  0  0  0  0  0  0  0  0  0
    6.5271    0.2748    0.0000 C   0  0  0  0  0  0  0  0  0  0  0  0
    5.6610   -0.2252    0.0000 C   0  0  0  0  0  0  0  0  0  0  0  0
    4.7430   -2.7737    0.0000 C   0  0  3  0  0  0  0  0  0  0  0  0
    8.3393   -1.5300    0.0000 C   0  0  0  0  0  0  0  0  0  0  0  0
    6.5431   -2.7668    0.0000 C   0  0  0  0  0  0  0  0  0  0  0  0
    8.9229   -0.7252    0.0000 C   0  0  0  0  0  0  0  0  0  0  0  0
    5.6451   -3.2945    0.0000 C   0  0  0  0  0  0  0  0  0  0  0  0
    3.8242   -1.1680    0.0000 C   0  0  0  0  0  0  0  0  0  0  0  0
    7.3931    0.7748    0.0000 C   0  0  0  0  0  0  0  0  0  0  0  0
    8.6500    1.0300    0.0000 C   0  0  3  0  0  0  0  0  0  0  0  0
    4.7587   -0.7321    0.0000 C   0  0  0  0  0  0  0  0  0  0  0  0
    3.8076   -3.3234    0.0000 C   0  0  0  0  0  0  0  0  0  0  0  0
    2.8763   -1.6960    0.0000 C   0  0  0  0  0  0  0  0  0  0  0  0
    2.8680   -2.7809    0.0000 C   0  0  0  0  0  0  0  0  0  0  0  0
    9.6285    1.2362    0.0000 C   0  0  0  0  0  0  0  0  0  0  0  0
    7.9821    1.7743    0.0000 C   0  0  0  0  0  0  0  0  0  0  0  0
    9.9391    2.1868    0.0000 C   0  0  0  0  0  0  0  0  0  0  0  0
   10.9176    2.3930    0.0000 C   0  0  0  0  0  0  0  0  0  0  0  0
   11.2283    3.3435    0.0000 C   0  0  0  0  0  0  0  0  0  0  0  0
   12.2068    3.5497    0.0000 C   0  0  0  0  0  0  0  0  0  0  0  0
   10.5605    4.0878    0.0000 C   0  0  0  0  0  0  0  0  0  0  0  0
    7.4587   -1.8418    0.0000 H   0  0  0  0  0  0  0  0  0  0  0  0
    7.0664   -2.0311    0.0000 H   0  0  0  0  0  0  0  0  0  0  0  0
    6.1980   -0.9152    0.0000 H   0  0  0  0  0  0  0  0  0  0  0  0
    8.9518    0.1757    0.0000 H   0  0  0  0  0  0  0  0  0  0  0  0
    6.9256    0.7497    0.0000 H   0  0  0  0  0  0  0  0  0  0  0  0
    6.1285    0.7497    0.0000 H   0  0  0  0  0  0  0  0  0  0  0  0
    5.4490    0.3574    0.0000 H   0  0  0  0  0  0  0  0  0  0  0  0
    5.0504   -0.3329    0.0000 H   0  0  0  0  0  0  0  0  0  0  0  0
    8.0883   -2.0969    0.0000 H   0  0  0  0  0  0  0  0  0  0  0  0
    8.8767   -1.8392    0.0000 H   0  0  0  0  0  0  0  0  0  0  0  0
    6.7612   -3.3472    0.0000 H   0  0  0  0  0  0  0  0  0  0  0  0
    7.1523   -2.6512    0.0000 H   0  0  0  0  0  0  0  0  0  0  0  0
    9.3838   -1.1400    0.0000 H   0  0  0  0  0  0  0  0  0  0  0  0
    9.3838   -0.3105    0.0000 H   0  0  0  0  0  0  0  0  0  0  0  0
    5.2478   -3.7705    0.0000 H   0  0  0  0  0  0  0  0  0  0  0  0
    6.0460   -3.7674    0.0000 H   0  0  0  0  0  0  0  0  0  0  0  0
    4.2324   -0.7014    0.0000 H   0  0  0  0  0  0  0  0  0  0  0  0
    3.4343   -0.6860    0.0000 H   0  0  0  0  0  0  0  0  0  0  0  0
    8.0131    0.7748    0.0000 H   0  0  0  0  0  0  0  0  0  0  0  0
    7.3931    1.3948    0.0000 H   0  0  0  0  0  0  0  0  0  0  0  0
    6.7731    0.7748    0.0000 H   0  0  0  0  0  0  0  0  0  0  0  0
    8.0433    0.9022    0.0000 H   0  0  0  0  0  0  0  0  0  0  0  0
    5.3787   -0.7369    0.0000 H   0  0  0  0  0  0  0  0  0  0  0  0
    4.7635   -0.1121    0.0000 H   0  0  0  0  0  0  0  0  0  0  0  0
    4.1388   -0.7273    0.0000 H   0  0  0  0  0  0  0  0  0  0  0  0
    3.4103   -3.7994    0.0000 H   0  0  0  0  0  0  0  0  0  0  0  0
    4.2085   -3.7963    0.0000 H   0  0  0  0  0  0  0  0  0  0  0  0
    2.6718   -1.1107    0.0000 H   0  0  0  0  0  0  0  0  0  0  0  0
    2.2647   -1.7973    0.0000 H   0  0  0  0  0  0  0  0  0  0  0  0
    9.6490    0.6166    0.0000 H   0  0  0  0  0  0  0  0  0  0  0  0
   10.2423    1.1489    0.0000 H   0  0  0  0  0  0  0  0  0  0  0  0
    5.2698   -4.0878    0.0000 H   0  0  0  0  0  0  0  0  0  0  0  0
    8.4436    2.1884    0.0000 H   0  0  0  0  0  0  0  0  0  0  0  0
    7.5681    2.2358    0.0000 H   0  0  0  0  0  0  0  0  0  0  0  0
    7.5207    1.3602    0.0000 H   0  0  0  0  0  0  0  0  0  0  0  0
    9.9186    2.8064    0.0000 H   0  0  0  0  0  0  0  0  0  0  0  0
    9.3253    2.2741    0.0000 H   0  0  0  0  0  0  0  0  0  0  0  0
   10.9382    1.7733    0.0000 H   0  0  0  0  0  0  0  0  0  0  0  0
   11.5315    2.3056    0.0000 H   0  0  0  0  0  0  0  0  0  0  0  0
   11.4209    3.9328    0.0000 H   0  0  0  0  0  0  0  0  0  0  0  0
   12.3347    2.9430    0.0000 H   0  0  0  0  0  0  0  0  0  0  0  0
   12.8135    3.6776    0.0000 H   0  0  0  0  0  0  0  0  0  0  0  0
   12.0790    4.1564    0.0000 H   0  0  0  0  0  0  0  0  0  0  0  0
   11.0219    4.5018    0.0000 H   0  0  0  0  0  0  0  0  0  0  0  0
   10.1464    4.5493    0.0000 H   0  0  0  0  0  0  0  0  0  0  0  0
   10.0990    3.6737    0.0000 H   0  0  0  0  0  0  0  0  0  0  0  0
  1 11  1  0  0  0  0
  1 61  1  0  0  0  0
  2 22  2  0  0  0  0
  3  4  1  0  0  0  0
  3  8  1  0  0  0  0
  3  9  1  0  0  0  0
  3 17  1  0  0  0  0
  4  5  1  0  0  0  0
  4 12  1  0  0  0  0
  4 30  1  0  0  0  0
  5  6  1  0  0  0  0
  5 13  1  0  0  0  0
  5 31  1  0  0  0  0
  6  7  1  0  0  0  0
  6 10  1  0  0  0  0
  6 32  1  0  0  0  0
  7 11  1  0  0  0  0
  7 16  1  0  0  0  0
  7 19  1  0  0  0  0
  8 14  1  0  0  0  0
  8 18  1  0  0  0  0
  8 33  1  0  0  0  0
  9 10  1  0  0  0  0
  9 34  1  0  0  0  0
  9 35  1  0  0  0  0
 10 36  1  0  0  0  0
 10 37  1  0  0  0  0
 11 15  1  0  0  0  0
 11 20  1  0  0  0  0
 12 14  1  0  0  0  0
 12 38  1  0  0  0  0
 12 39  1  0  0  0  0
 13 15  1  0  0  0  0
 13 40  1  0  0  0  0
 13 41  1  0  0  0  0
 14 42  1  0  0  0  0
 14 43  1  0  0  0  0
 15 44  1  0  0  0  0
 15 45  1  0  0  0  0
 16 21  1  0  0  0  0
 16 46  1  0  0  0  0
 16 47  1  0  0  0  0
 17 48  1  0  0  0  0
 17 49  1  0  0  0  0
 17 50  1  0  0  0  0
 18 23  1  0  0  0  0
 18 24  1  0  0  0  0
 18 51  1  0  0  0  0
 19 52  1  0  0  0  0
 19 53  1  0  0  0  0
 19 54  1  0  0  0  0
 20 22  1  0  0  0  0
 20 55  1  0  0  0  0
 20 56  1  0  0  0  0
 21 22  1  0  0  0  0
 21 57  1  0  0  0  0
 21 58  1  0  0  0  0
 23 25  1  0  0  0  0
 23 59  1  0  0  0  0
 23 60  1  0  0  0  0
 24 62  1  0  0  0  0
 24 63  1  0  0  0  0
 24 64  1  0  0  0  0
 25 26  1  0  0  0  0
 25 65  1  0  0  0  0
 25 66  1  0  0  0  0
 26 27  1  0  0  0  0
 26 67  1  0  0  0  0
 26 68  1  0  0  0  0
 27 28  1  0  0  0  0
 27 29  1  0  0  0  0
 27 69  1  0  0  0  0
 28 70  1  0  0  0  0
 28 71  1  0  0  0  0
 28 72  1  0  0  0  0
 29 73  1  0  0  0  0
 29 74  1  0  0  0  0
 29 75  1  0  0  0  0
M  END
> <PUBCHEM_COMPOUND_CID>
519627
> <PUBCHEM_COMPOUND_CANONICALIZED>
1
> <PUBCHEM_CACTVS_COMPLEXITY>
626
> <PUBCHEM_CACTVS_HBOND_ACCEPTOR>
2
> <PUBCHEM_CACTVS_HBOND_DONOR>
1
> <PUBCHEM_CACTVS_ROTATABLE_BOND>
5
> <PUBCHEM_CACTVS_SUBSKEYS>
AAADcfB4MAAAAAAAAAAAAAAAAAAAAYAAAAAwYMAAAAAAAGDAAAAAGgAACAAAD0SAgAACAAAAAgAIAIAQAAAAAAAAAAAAAAEAAAAAABYAAAAAQAAEIAAAAAGIzPDPgAAAAAAAAADAAAYAADAAAQAACAAAAA==
> <PUBCHEM_IUPAC_OPENEYE_NAME>
17-(1,5-dimethylhexyl)-5-hydroxy-10,13-dimethyl-2,4,6,7,8,9,11,12,14,15,16,17-dodecahydro-1H-cyclopenta[a]phenanthren-3-one
> <PUBCHEM_IUPAC_CAS_NAME>
5-hydroxy-10,13-dimethyl-17-(6-methylheptan-2-yl)-2,4,6,7,8,9,11,12,14,15,16,17-dodecahydro-1H-cyclopenta[a]phenanthren-3-one
> <PUBCHEM_IUPAC_NAME_MARKUP>
5-hydroxy-10,13-dimethyl-17-(6-methylheptan-2-yl)-2,4,6,7,8,9,11,12,14,15,16,17-dodecahydro-1<I>H</I>-cyclopenta[a]phenanthren-3-one
> <PUBCHEM_IUPAC_NAME>
5-hydroxy-10,13-dimethyl-17-(6-methylheptan-2-yl)-2,4,6,7,8,9,11,12,14,15,16,17-dodecahydro-1H-cyclopenta[a]phenanthren-3-one
> <PUBCHEM_IUPAC_SYSTEMATIC_NAME>
10,13-dimethyl-17-(6-methylheptan-2-yl)-5-oxidanyl-2,4,6,7,8,9,11,12,14,15,16,17-dodecahydro-1H-cyclopenta[a]phenanthren-3-one
> <PUBCHEM_IUPAC_TRADITIONAL_NAME>
17-(1,5-dimethylhexyl)-5-hydroxy-10,13-dimethyl-2,4,6,7,8,9,11,12,14,15,16,17-dodecahydro-1H-cyclopenta[a]phenanthren-3-one
> <PUBCHEM_IUPAC_INCHI>
InChI=1S/C27H46O2/c1-18(2)7-6-8-19(3)22-9-10-23-21-12-16-27(29)17-20(28)11-15-26(27,5)24(21)13-14-25(22,23)4/h18-19,21-24,29H,6-17H2,1-5H3
> <PUBCHEM_IUPAC_INCHIKEY>
OPSNLRNZVIABPI-UHFFFAOYSA-N
> <PUBCHEM_XLOGP3_AA>
7.5
> <PUBCHEM_EXACT_MASS>
402.349780706
> <PUBCHEM_MOLECULAR_FORMULA>
C27H46O2
> <PUBCHEM_MOLECULAR_WEIGHT>
402.7
> <PUBCHEM_OPENEYE_CAN_SMILES>
CC(C)CCCC(C)C1CCC2C1(CCC3C2CCC4(C3(CCC(=O)C4)C)O)C
> <PUBCHEM_OPENEYE_ISO_SMILES>
CC(C)CCCC(C)C1CCC2C1(CCC3C2CCC4(C3(CCC(=O)C4)C)O)C
> <PUBCHEM_CACTVS_TPSA>
37.3
> <PUBCHEM_MONOISOTOPIC_WEIGHT>
402.349780706
> <PUBCHEM_TOTAL_CHARGE>
0
> <PUBCHEM_HEAVY_ATOM_COUNT>
29
> <PUBCHEM_ATOM_DEF_STEREO_COUNT>
0
> <PUBCHEM_ATOM_UDEF_STEREO_COUNT>
8
> <PUBCHEM_BOND_DEF_STEREO_COUNT>
0
> <PUBCHEM_BOND_UDEF_STEREO_COUNT>
0
> <PUBCHEM_ISOTOPIC_ATOM_COUNT>
0
> <PUBCHEM_COMPONENT_COUNT>
1
> <PUBCHEM_CACTVS_TAUTO_COUNT>
-1
> <PUBCHEM_COORDINATE_TYPE>
1
5
255
> <PUBCHEM_BONDANNOTATIONS>
11  1  3
18  24  3
3  17  3
4  12  3
5  13  3
6  10  3
7  19  3
8  14  3
$$$$
