519729
  -OEChem-10302200292D
141142  0     1  0  0  0  0  0999 V2000
    2.8660   -1.1160    0.0000 Si  0  0  0  0  0  0  0  0  0  0  0  0
    4.5981   -3.1160    0.0000 Si  0  0  0  0  0  0  0  0  0  0  0  0
    9.7942   -3.1160    0.0000 Si  0  0  0  0  0  0  0  0  0  0  0  0
    3.2320    1.2500    0.0000 Si  0  0  0  0  0  0  0  0  0  0  0  0
   11.5263   -1.1160    0.0000 Si  0  0  0  0  0  0  0  0  0  0  0  0
   10.6603    1.3840    0.0000 Si  0  0  0  0  0  0  0  0  0  0  0  0
    8.0622    1.8840    0.0000 Si  0  0  0  0  0  0  0  0  0  0  0  0
    5.4641    3.1160    0.0000 Si  0  0  0  0  0  0  0  0  0  0  0  0
    7.1962   -1.6160    0.0000 O   0  0  0  0  0  0  0  0  0  0  0  0
    6.3301   -0.1160    0.0000 O   0  0  0  0  0  0  0  0  0  0  0  0
    8.9282    0.3840    0.0000 O   0  0  0  0  0  0  0  0  0  0  0  0
    3.7320   -1.6160    0.0000 O   0  0  0  0  0  0  0  0  0  0  0  0
    5.4641   -2.6160    0.0000 O   0  0  0  0  0  0  0  0  0  0  0  0
    8.9282   -2.6160    0.0000 O   0  0  0  0  0  0  0  0  0  0  0  0
    3.7320    0.3840    0.0000 O   0  0  0  0  0  0  0  0  0  0  0  0
   10.6603   -1.6160    0.0000 O   0  0  0  0  0  0  0  0  0  0  0  0
   10.6603    0.3840    0.0000 O   0  0  0  0  0  0  0  0  0  0  0  0
    7.1962    1.3840    0.0000 O   0  0  0  0  0  0  0  0  0  0  0  0
    4.9641    2.2500    0.0000 O   0  0  0  0  0  0  0  0  0  0  0  0
    8.0622   -1.1160    0.0000 C   0  0  3  0  0  0  0  0  0  0  0  0
    4.5981   -1.1160    0.0000 C   0  0  3  0  0  0  0  0  0  0  0  0
    5.4641   -1.6160    0.0000 C   0  0  3  0  0  0  0  0  0  0  0  0
    8.9282   -1.6160    0.0000 C   0  0  3  0  0  0  0  0  0  0  0  0
    4.5981   -0.1160    0.0000 C   0  0  3  0  0  0  0  0  0  0  0  0
    6.3301   -1.1160    0.0000 C   0  0  3  0  0  0  0  0  0  0  0  0
    9.7942   -1.1160    0.0000 C   0  0  3  0  0  0  0  0  0  0  0  0
    8.0622   -0.1160    0.0000 C   0  0  3  0  0  0  0  0  0  0  0  0
    5.4641    0.3840    0.0000 C   0  0  3  0  0  0  0  0  0  0  0  0
    9.7942   -0.1160    0.0000 C   0  0  3  0  0  0  0  0  0  0  0  0
    7.1962    0.3840    0.0000 C   0  0  0  0  0  0  0  0  0  0  0  0
    5.4641    1.3840    0.0000 C   0  0  0  0  0  0  0  0  0  0  0  0
    2.0000   -0.6160    0.0000 C   0  0  0  0  0  0  0  0  0  0  0  0
    2.3660   -1.9820    0.0000 C   0  0  0  0  0  0  0  0  0  0  0  0
    3.3660   -0.2500    0.0000 C   0  0  0  0  0  0  0  0  0  0  0  0
    3.7320   -3.6160    0.0000 C   0  0  0  0  0  0  0  0  0  0  0  0
    5.0981   -3.9820    0.0000 C   0  0  0  0  0  0  0  0  0  0  0  0
    4.0981   -2.2500    0.0000 C   0  0  0  0  0  0  0  0  0  0  0  0
   10.6603   -3.6160    0.0000 C   0  0  0  0  0  0  0  0  0  0  0  0
    9.2942   -3.9820    0.0000 C   0  0  0  0  0  0  0  0  0  0  0  0
   10.2942   -2.2500    0.0000 C   0  0  0  0  0  0  0  0  0  0  0  0
    2.3660    0.7500    0.0000 C   0  0  0  0  0  0  0  0  0  0  0  0
    2.7320    2.1160    0.0000 C   0  0  0  0  0  0  0  0  0  0  0  0
    4.0981    1.7500    0.0000 C   0  0  0  0  0  0  0  0  0  0  0  0
   12.3923   -0.6160    0.0000 C   0  0  0  0  0  0  0  0  0  0  0  0
   12.0263   -1.9820    0.0000 C   0  0  0  0  0  0  0  0  0  0  0  0
   11.0263   -0.2500    0.0000 C   0  0  0  0  0  0  0  0  0  0  0  0
   10.6603    2.3840    0.0000 C   0  0  0  0  0  0  0  0  0  0  0  0
   11.6603    1.3840    0.0000 C   0  0  0  0  0  0  0  0  0  0  0  0
    9.6602    1.3840    0.0000 C   0  0  0  0  0  0  0  0  0  0  0  0
    7.5622    2.7500    0.0000 C   0  0  0  0  0  0  0  0  0  0  0  0
    8.9282    2.3840    0.0000 C   0  0  0  0  0  0  0  0  0  0  0  0
    8.5622    1.0180    0.0000 C   0  0  0  0  0  0  0  0  0  0  0  0
    5.9641    3.9820    0.0000 C   0  0  0  0  0  0  0  0  0  0  0  0
    6.3301    2.6160    0.0000 C   0  0  0  0  0  0  0  0  0  0  0  0
    4.5981    3.6160    0.0000 C   0  0  0  0  0  0  0  0  0  0  0  0
    8.0622   -1.7360    0.0000 H   0  0  0  0  0  0  0  0  0  0  0  0
    4.0611   -0.8060    0.0000 H   0  0  0  0  0  0  0  0  0  0  0  0
    4.9272   -1.9260    0.0000 H   0  0  0  0  0  0  0  0  0  0  0  0
    8.3913   -1.9260    0.0000 H   0  0  0  0  0  0  0  0  0  0  0  0
    4.5981    0.5040    0.0000 H   0  0  0  0  0  0  0  0  0  0  0  0
    6.3301   -1.7360    0.0000 H   0  0  0  0  0  0  0  0  0  0  0  0
    9.7942   -1.7360    0.0000 H   0  0  0  0  0  0  0  0  0  0  0  0
    8.0622    0.5040    0.0000 H   0  0  0  0  0  0  0  0  0  0  0  0
    6.0010    0.6940    0.0000 H   0  0  0  0  0  0  0  0  0  0  0  0
    9.7942    0.5040    0.0000 H   0  0  0  0  0  0  0  0  0  0  0  0
    6.5856    0.4916    0.0000 H   0  0  0  0  0  0  0  0  0  0  0  0
    6.9841   -0.1986    0.0000 H   0  0  0  0  0  0  0  0  0  0  0  0
    6.0467    1.1719    0.0000 H   0  0  0  0  0  0  0  0  0  0  0  0
    4.8652    1.2235    0.0000 H   0  0  0  0  0  0  0  0  0  0  0  0
    2.3100   -0.0791    0.0000 H   0  0  0  0  0  0  0  0  0  0  0  0
    1.4631   -0.3060    0.0000 H   0  0  0  0  0  0  0  0  0  0  0  0
    1.6900   -1.1530    0.0000 H   0  0  0  0  0  0  0  0  0  0  0  0
    1.8291   -1.6720    0.0000 H   0  0  0  0  0  0  0  0  0  0  0  0
    2.0560   -2.5190    0.0000 H   0  0  0  0  0  0  0  0  0  0  0  0
    2.9030   -2.2920    0.0000 H   0  0  0  0  0  0  0  0  0  0  0  0
    3.9030   -0.5600    0.0000 H   0  0  0  0  0  0  0  0  0  0  0  0
    3.6760    0.2869    0.0000 H   0  0  0  0  0  0  0  0  0  0  0  0
    2.8291    0.0600    0.0000 H   0  0  0  0  0  0  0  0  0  0  0  0
    3.4220   -3.0791    0.0000 H   0  0  0  0  0  0  0  0  0  0  0  0
    3.1951   -3.9260    0.0000 H   0  0  0  0  0  0  0  0  0  0  0  0
    4.0420   -4.1530    0.0000 H   0  0  0  0  0  0  0  0  0  0  0  0
    4.5611   -4.2920    0.0000 H   0  0  0  0  0  0  0  0  0  0  0  0
    5.4081   -4.5190    0.0000 H   0  0  0  0  0  0  0  0  0  0  0  0
    5.6350   -3.6720    0.0000 H   0  0  0  0  0  0  0  0  0  0  0  0
    4.6350   -1.9400    0.0000 H   0  0  0  0  0  0  0  0  0  0  0  0
    3.7881   -1.7131    0.0000 H   0  0  0  0  0  0  0  0  0  0  0  0
    3.5611   -2.5600    0.0000 H   0  0  0  0  0  0  0  0  0  0  0  0
   10.3503   -4.1530    0.0000 H   0  0  0  0  0  0  0  0  0  0  0  0
   11.1972   -3.9260    0.0000 H   0  0  0  0  0  0  0  0  0  0  0  0
   10.9703   -3.0791    0.0000 H   0  0  0  0  0  0  0  0  0  0  0  0
    8.7573   -3.6720    0.0000 H   0  0  0  0  0  0  0  0  0  0  0  0
    8.9842   -4.5190    0.0000 H   0  0  0  0  0  0  0  0  0  0  0  0
    9.8312   -4.2920    0.0000 H   0  0  0  0  0  0  0  0  0  0  0  0
   10.8312   -2.5600    0.0000 H   0  0  0  0  0  0  0  0  0  0  0  0
   10.6042   -1.7131    0.0000 H   0  0  0  0  0  0  0  0  0  0  0  0
    9.7573   -1.9400    0.0000 H   0  0  0  0  0  0  0  0  0  0  0  0
    2.0560    1.2869    0.0000 H   0  0  0  0  0  0  0  0  0  0  0  0
    1.8291    0.4400    0.0000 H   0  0  0  0  0  0  0  0  0  0  0  0
    2.6760    0.2131    0.0000 H   0  0  0  0  0  0  0  0  0  0  0  0
    3.2690    2.4260    0.0000 H   0  0  0  0  0  0  0  0  0  0  0  0
    2.4220    2.6530    0.0000 H   0  0  0  0  0  0  0  0  0  0  0  0
    2.1951    1.8060    0.0000 H   0  0  0  0  0  0  0  0  0  0  0  0
    4.4081    1.2131    0.0000 H   0  0  0  0  0  0  0  0  0  0  0  0
    4.6350    2.0600    0.0000 H   0  0  0  0  0  0  0  0  0  0  0  0
    3.7881    2.2869    0.0000 H   0  0  0  0  0  0  0  0  0  0  0  0
   12.7023   -1.1530    0.0000 H   0  0  0  0  0  0  0  0  0  0  0  0
   12.9292   -0.3060    0.0000 H   0  0  0  0  0  0  0  0  0  0  0  0
   12.0823   -0.0791    0.0000 H   0  0  0  0  0  0  0  0  0  0  0  0
   11.4893   -2.2920    0.0000 H   0  0  0  0  0  0  0  0  0  0  0  0
   12.3363   -2.5190    0.0000 H   0  0  0  0  0  0  0  0  0  0  0  0
   12.5632   -1.6720    0.0000 H   0  0  0  0  0  0  0  0  0  0  0  0
   11.5632    0.0600    0.0000 H   0  0  0  0  0  0  0  0  0  0  0  0
   10.7163    0.2869    0.0000 H   0  0  0  0  0  0  0  0  0  0  0  0
   10.4893   -0.5600    0.0000 H   0  0  0  0  0  0  0  0  0  0  0  0
   11.2803    2.3840    0.0000 H   0  0  0  0  0  0  0  0  0  0  0  0
   10.6603    3.0040    0.0000 H   0  0  0  0  0  0  0  0  0  0  0  0
   10.0403    2.3840    0.0000 H   0  0  0  0  0  0  0  0  0  0  0  0
   11.6603    0.7640    0.0000 H   0  0  0  0  0  0  0  0  0  0  0  0
   12.2803    1.3840    0.0000 H   0  0  0  0  0  0  0  0  0  0  0  0
   11.6603    2.0040    0.0000 H   0  0  0  0  0  0  0  0  0  0  0  0
    9.6602    2.0040    0.0000 H   0  0  0  0  0  0  0  0  0  0  0  0
    9.0402    1.3840    0.0000 H   0  0  0  0  0  0  0  0  0  0  0  0
    9.6602    0.7640    0.0000 H   0  0  0  0  0  0  0  0  0  0  0  0
    8.0991    3.0600    0.0000 H   0  0  0  0  0  0  0  0  0  0  0  0
    7.2522    3.2869    0.0000 H   0  0  0  0  0  0  0  0  0  0  0  0
    7.0252    2.4400    0.0000 H   0  0  0  0  0  0  0  0  0  0  0  0
    9.2382    1.8470    0.0000 H   0  0  0  0  0  0  0  0  0  0  0  0
    9.4651    2.6940    0.0000 H   0  0  0  0  0  0  0  0  0  0  0  0
    8.6182    2.9209    0.0000 H   0  0  0  0  0  0  0  0  0  0  0  0
    8.0252    0.7079    0.0000 H   0  0  0  0  0  0  0  0  0  0  0  0
    8.8722    0.4810    0.0000 H   0  0  0  0  0  0  0  0  0  0  0  0
    9.0991    1.3280    0.0000 H   0  0  0  0  0  0  0  0  0  0  0  0
    6.5010    3.6720    0.0000 H   0  0  0  0  0  0  0  0  0  0  0  0
    6.2741    4.5190    0.0000 H   0  0  0  0  0  0  0  0  0  0  0  0
    5.4272    4.2920    0.0000 H   0  0  0  0  0  0  0  0  0  0  0  0
    6.0201    2.0791    0.0000 H   0  0  0  0  0  0  0  0  0  0  0  0
    6.8671    2.3060    0.0000 H   0  0  0  0  0  0  0  0  0  0  0  0
    6.6401    3.1530    0.0000 H   0  0  0  0  0  0  0  0  0  0  0  0
    4.9081    4.1530    0.0000 H   0  0  0  0  0  0  0  0  0  0  0  0
    4.0611    3.9260    0.0000 H   0  0  0  0  0  0  0  0  0  0  0  0
    4.2881    3.0791    0.0000 H   0  0  0  0  0  0  0  0  0  0  0  0
  1 12  1  0  0  0  0
  1 32  1  0  0  0  0
  1 33  1  0  0  0  0
  1 34  1  0  0  0  0
  2 13  1  0  0  0  0
  2 35  1  0  0  0  0
  2 36  1  0  0  0  0
  2 37  1  0  0  0  0
  3 14  1  0  0  0  0
  3 38  1  0  0  0  0
  3 39  1  0  0  0  0
  3 40  1  0  0  0  0
  4 15  1  0  0  0  0
  4 41  1  0  0  0  0
  4 42  1  0  0  0  0
  4 43  1  0  0  0  0
  5 16  1  0  0  0  0
  5 44  1  0  0  0  0
  5 45  1  0  0  0  0
  5 46  1  0  0  0  0
  6 17  1  0  0  0  0
  6 47  1  0  0  0  0
  6 48  1  0  0  0  0
  6 49  1  0  0  0  0
  7 18  1  0  0  0  0
  7 50  1  0  0  0  0
  7 51  1  0  0  0  0
  7 52  1  0  0  0  0
  8 19  1  0  0  0  0
  8 53  1  0  0  0  0
  8 54  1  0  0  0  0
  8 55  1  0  0  0  0
  9 20  1  0  0  0  0
  9 25  1  0  0  0  0
 10 25  1  0  0  0  0
 10 28  1  0  0  0  0
 11 27  1  0  0  0  0
 11 29  1  0  0  0  0
 12 21  1  0  0  0  0
 13 22  1  0  0  0  0
 14 23  1  0  0  0  0
 15 24  1  0  0  0  0
 16 26  1  0  0  0  0
 17 29  1  0  0  0  0
 18 30  1  0  0  0  0
 19 31  1  0  0  0  0
 20 23  1  0  0  0  0
 20 27  1  0  0  0  0
 20 56  1  0  0  0  0
 21 22  1  0  0  0  0
 21 24  1  0  0  0  0
 21 57  1  0  0  0  0
 22 25  1  0  0  0  0
 22 58  1  0  0  0  0
 23 26  1  0  0  0  0
 23 59  1  0  0  0  0
 24 28  1  0  0  0  0
 24 60  1  0  0  0  0
 25 61  1  0  0  0  0
 26 29  1  0  0  0  0
 26 62  1  0  0  0  0
 27 30  1  0  0  0  0
 27 63  1  0  0  0  0
 28 31  1  0  0  0  0
 28 64  1  0  0  0  0
 29 65  1  0  0  0  0
 30 66  1  0  0  0  0
 30 67  1  0  0  0  0
 31 68  1  0  0  0  0
 31 69  1  0  0  0  0
 32 70  1  0  0  0  0
 32 71  1  0  0  0  0
 32 72  1  0  0  0  0
 33 73  1  0  0  0  0
 33 74  1  0  0  0  0
 33 75  1  0  0  0  0
 34 76  1  0  0  0  0
 34 77  1  0  0  0  0
 34 78  1  0  0  0  0
 35 79  1  0  0  0  0
 35 80  1  0  0  0  0
 35 81  1  0  0  0  0
 36 82  1  0  0  0  0
 36 83  1  0  0  0  0
 36 84  1  0  0  0  0
 37 85  1  0  0  0  0
 37 86  1  0  0  0  0
 37 87  1  0  0  0  0
 38 88  1  0  0  0  0
 38 89  1  0  0  0  0
 38 90  1  0  0  0  0
 39 91  1  0  0  0  0
 39 92  1  0  0  0  0
 39 93  1  0  0  0  0
 40 94  1  0  0  0  0
 40 95  1  0  0  0  0
 40 96  1  0  0  0  0
 41 97  1  0  0  0  0
 41 98  1  0  0  0  0
 41 99  1  0  0  0  0
 42100  1  0  0  0  0
 42101  1  0  0  0  0
 42102  1  0  0  0  0
 43103  1  0  0  0  0
 43104  1  0  0  0  0
 43105  1  0  0  0  0
 44106  1  0  0  0  0
 44107  1  0  0  0  0
 44108  1  0  0  0  0
 45109  1  0  0  0  0
 45110  1  0  0  0  0
 45111  1  0  0  0  0
 46112  1  0  0  0  0
 46113  1  0  0  0  0
 46114  1  0  0  0  0
 47115  1  0  0  0  0
 47116  1  0  0  0  0
 47117  1  0  0  0  0
 48118  1  0  0  0  0
 48119  1  0  0  0  0
 48120  1  0  0  0  0
 49121  1  0  0  0  0
 49122  1  0  0  0  0
 49123  1  0  0  0  0
 50124  1  0  0  0  0
 50125  1  0  0  0  0
 50126  1  0  0  0  0
 51127  1  0  0  0  0
 51128  1  0  0  0  0
 51129  1  0  0  0  0
 52130  1  0  0  0  0
 52131  1  0  0  0  0
 52132  1  0  0  0  0
 53133  1  0  0  0  0
 53134  1  0  0  0  0
 53135  1  0  0  0  0
 54136  1  0  0  0  0
 54137  1  0  0  0  0
 54138  1  0  0  0  0
 55139  1  0  0  0  0
 55140  1  0  0  0  0
 55141  1  0  0  0  0
M  END
> <PUBCHEM_COMPOUND_CID>
519729
> <PUBCHEM_COMPOUND_CANONICALIZED>
1
> <PUBCHEM_CACTVS_COMPLEXITY>
1180
> <PUBCHEM_CACTVS_HBOND_ACCEPTOR>
11
> <PUBCHEM_CACTVS_HBOND_DONOR>
0
> <PUBCHEM_CACTVS_ROTATABLE_BOND>
20
> <PUBCHEM_CACTVS_SUBSKEYS>
AAADcfB8PAwAAAAAAAAAAAAAAAAAAAAAAAAkSAAAAAAAAAAAAAAAGhAAAEAACBSwgANCCAAABAEAAAAAAAAAAAAAAAAAAAAAAAARAAIAAAAiAAAFAAAGAAHAYAwAAAAAAAAAAAAAAAAAAAAAAAAAAAAAAA==
> <PUBCHEM_IUPAC_OPENEYE_NAME>
trimethyl-[[3,4,5-tris(trimethylsilyloxy)-6-[4,5,6-tris(trimethylsilyloxy)-2-(trimethylsilyloxymethyl)tetrahydropyran-3-yl]oxy-tetrahydropyran-2-yl]methoxy]silane
> <PUBCHEM_IUPAC_CAS_NAME>
trimethyl-[[3,4,5-tris(trimethylsilyloxy)-6-[[4,5,6-tris(trimethylsilyloxy)-2-(trimethylsilyloxymethyl)-3-oxanyl]oxy]-2-oxanyl]methoxy]silane
> <PUBCHEM_IUPAC_NAME_MARKUP>
trimethyl-[[3,4,5-tris(trimethylsilyloxy)-6-[4,5,6-tris(trimethylsilyloxy)-2-(trimethylsilyloxymethyl)oxan-3-yl]oxyoxan-2-yl]methoxy]silane
> <PUBCHEM_IUPAC_NAME>
trimethyl-[[3,4,5-tris(trimethylsilyloxy)-6-[4,5,6-tris(trimethylsilyloxy)-2-(trimethylsilyloxymethyl)oxan-3-yl]oxyoxan-2-yl]methoxy]silane
> <PUBCHEM_IUPAC_SYSTEMATIC_NAME>
trimethyl-[[3,4,5-tris(trimethylsilyloxy)-6-[4,5,6-tris(trimethylsilyloxy)-2-(trimethylsilyloxymethyl)oxan-3-yl]oxy-oxan-2-yl]methoxy]silane
> <PUBCHEM_IUPAC_TRADITIONAL_NAME>
trimethyl-[[3,4,5-tris(trimethylsilyloxy)-6-[4,5,6-tris(trimethylsilyloxy)-2-(trimethylsilyloxymethyl)tetrahydropyran-3-yl]oxy-tetrahydropyran-2-yl]methoxy]silane
> <PUBCHEM_IUPAC_INCHI>
InChI=1S/C36H86O11Si8/c1-48(2,3)37-25-27-29(31(43-51(10,11)12)34(46-54(19,20)21)36(40-27)47-55(22,23)24)41-35-33(45-53(16,17)18)32(44-52(13,14)15)30(42-50(7,8)9)28(39-35)26-38-49(4,5)6/h27-36H,25-26H2,1-24H3
> <PUBCHEM_IUPAC_INCHIKEY>
QJZFVYJIGWEKIR-UHFFFAOYSA-N
> <PUBCHEM_EXACT_MASS>
918.43242583
> <PUBCHEM_MOLECULAR_FORMULA>
C36H86O11Si8
> <PUBCHEM_MOLECULAR_WEIGHT>
919.7
> <PUBCHEM_OPENEYE_CAN_SMILES>
C[Si](C)(C)OCC1C(C(C(C(O1)O[Si](C)(C)C)O[Si](C)(C)C)O[Si](C)(C)C)OC2C(C(C(C(O2)CO[Si](C)(C)C)O[Si](C)(C)C)O[Si](C)(C)C)O[Si](C)(C)C
> <PUBCHEM_OPENEYE_ISO_SMILES>
C[Si](C)(C)OCC1C(C(C(C(O1)O[Si](C)(C)C)O[Si](C)(C)C)O[Si](C)(C)C)OC2C(C(C(C(O2)CO[Si](C)(C)C)O[Si](C)(C)C)O[Si](C)(C)C)O[Si](C)(C)C
> <PUBCHEM_CACTVS_TPSA>
102
> <PUBCHEM_MONOISOTOPIC_WEIGHT>
918.43242583
> <PUBCHEM_TOTAL_CHARGE>
0
> <PUBCHEM_HEAVY_ATOM_COUNT>
55
> <PUBCHEM_ATOM_DEF_STEREO_COUNT>
0
> <PUBCHEM_ATOM_UDEF_STEREO_COUNT>
10
> <PUBCHEM_BOND_DEF_STEREO_COUNT>
0
> <PUBCHEM_BOND_UDEF_STEREO_COUNT>
0
> <PUBCHEM_ISOTOPIC_ATOM_COUNT>
0
> <PUBCHEM_COMPONENT_COUNT>
1
> <PUBCHEM_CACTVS_TAUTO_COUNT>
-1
> <PUBCHEM_COORDINATE_TYPE>
1
5
255
> <PUBCHEM_BONDANNOTATIONS>
21  12  3
22  13  3
23  14  3
24  15  3
26  16  3
29  17  3
27  30  3
28  31  3
20  9  3
25  9  3
$$$$
