519774
  -OEChem-10302200292D
 11 10  0     1  0  0  0  0  0999 V2000
    5.4641   -0.2500    0.0000 Br  0  0  0  0  0  0  0  0  0  0  0  0
    4.5981    1.2500    0.0000 Cl  0  0  0  0  0  0  0  0  0  0  0  0
    2.8660    0.2500    0.0000 O   0  0  0  0  0  0  0  0  0  0  0  0
    3.7320   -1.2500    0.0000 O   0  0  0  0  0  0  0  0  0  0  0  0
    4.5981    0.2500    0.0000 C   0  0  3  0  0  0  0  0  0  0  0  0
    3.7320   -0.2500    0.0000 C   0  0  0  0  0  0  0  0  0  0  0  0
    2.0000   -0.2500    0.0000 C   0  0  0  0  0  0  0  0  0  0  0  0
    4.5981   -0.6000    0.0000 H   0  0  0  0  0  0  0  0  0  0  0  0
    1.6900    0.2869    0.0000 H   0  0  0  0  0  0  0  0  0  0  0  0
    1.4631   -0.5600    0.0000 H   0  0  0  0  0  0  0  0  0  0  0  0
    2.3100   -0.7869    0.0000 H   0  0  0  0  0  0  0  0  0  0  0  0
  1  5  1  0  0  0  0
  2  5  1  0  0  0  0
  3  6  1  0  0  0  0
  3  7  1  0  0  0  0
  4  6  2  0  0  0  0
  5  6  1  0  0  0  0
  5  8  1  0  0  0  0
  7  9  1  0  0  0  0
  7 10  1  0  0  0  0
  7 11  1  0  0  0  0
M  END
> <PUBCHEM_COMPOUND_CID>
519774
> <PUBCHEM_COMPOUND_CANONICALIZED>
1
> <PUBCHEM_CACTVS_COMPLEXITY>
75.3
> <PUBCHEM_CACTVS_HBOND_ACCEPTOR>
2
> <PUBCHEM_CACTVS_HBOND_DONOR>
0
> <PUBCHEM_CACTVS_ROTATABLE_BOND>
2
> <PUBCHEM_CACTVS_SUBSKEYS>
AAADcYBAMAAEEAAAAAAAAAAAAAAAAAAAAAAAAAAAAAAAAAAAAAAAGgJAAAABQAOAgEICCAAABAAIAACQCAAAAAAAAAAAAAAAAQBgAAAAAAAAAAAAAAAAAAAAAAAAAAAAAAAAAAAAAAAAAAAAAAAAAAAAAA==
> <PUBCHEM_IUPAC_OPENEYE_NAME>
methyl 2-bromo-2-chloro-acetate
> <PUBCHEM_IUPAC_CAS_NAME>
2-bromo-2-chloroacetic acid methyl ester
> <PUBCHEM_IUPAC_NAME_MARKUP>
methyl 2-bromo-2-chloroacetate
> <PUBCHEM_IUPAC_NAME>
methyl 2-bromo-2-chloroacetate
> <PUBCHEM_IUPAC_SYSTEMATIC_NAME>
methyl 2-bromanyl-2-chloranyl-ethanoate
> <PUBCHEM_IUPAC_TRADITIONAL_NAME>
2-bromo-2-chloro-acetic acid methyl ester
> <PUBCHEM_IUPAC_INCHI>
InChI=1S/C3H4BrClO2/c1-7-3(6)2(4)5/h2H,1H3
> <PUBCHEM_IUPAC_INCHIKEY>
WIBYPHGWXYLWQX-UHFFFAOYSA-N
> <PUBCHEM_XLOGP3_AA>
1.6
> <PUBCHEM_EXACT_MASS>
185.90832
> <PUBCHEM_MOLECULAR_FORMULA>
C3H4BrClO2
> <PUBCHEM_MOLECULAR_WEIGHT>
187.42
> <PUBCHEM_OPENEYE_CAN_SMILES>
COC(=O)C(Cl)Br
> <PUBCHEM_OPENEYE_ISO_SMILES>
COC(=O)C(Cl)Br
> <PUBCHEM_CACTVS_TPSA>
26.3
> <PUBCHEM_MONOISOTOPIC_WEIGHT>
185.90832
> <PUBCHEM_TOTAL_CHARGE>
0
> <PUBCHEM_HEAVY_ATOM_COUNT>
7
> <PUBCHEM_ATOM_DEF_STEREO_COUNT>
0
> <PUBCHEM_ATOM_UDEF_STEREO_COUNT>
1
> <PUBCHEM_BOND_DEF_STEREO_COUNT>
0
> <PUBCHEM_BOND_UDEF_STEREO_COUNT>
0
> <PUBCHEM_ISOTOPIC_ATOM_COUNT>
0
> <PUBCHEM_COMPONENT_COUNT>
1
> <PUBCHEM_CACTVS_TAUTO_COUNT>
1
> <PUBCHEM_COORDINATE_TYPE>
1
5
255
> <PUBCHEM_BONDANNOTATIONS>
5  8  3
$$$$
