519779
  -OEChem-10302200292D
 39 41  0     1  0  0  0  0  0999 V2000
    2.9986   -0.0572    0.0000 C   0  0  3  0  0  0  0  0  0  0  0  0
    5.8153    0.0280    0.0000 C   0  0  3  0  0  0  0  0  0  0  0  0
    4.6752    0.9851    0.0000 C   0  0  3  0  0  0  0  0  0  0  0  0
    4.4164    0.0192    0.0000 C   0  0  3  0  0  0  0  0  0  0  0  0
    5.3659   -0.8607    0.0000 C   0  0  3  0  0  0  0  0  0  0  0  0
    3.5009   -0.9171    0.0000 C   0  0  0  0  0  0  0  0  0  0  0  0
    4.5967    2.4459    0.0000 C   0  0  0  0  0  0  0  0  0  0  0  0
    4.4439   -1.2372    0.0000 C   0  0  0  0  0  0  0  0  0  0  0  0
    3.1954    1.6369    0.0000 C   0  0  0  0  0  0  0  0  0  0  0  0
    2.0000   -0.1109    0.0000 C   0  0  0  0  0  0  0  0  0  0  0  0
    3.6022    2.5504    0.0000 C   0  0  0  0  0  0  0  0  0  0  0  0
    6.0440   -1.5957    0.0000 C   0  0  0  0  0  0  0  0  0  0  0  0
    2.2173    1.4290    0.0000 C   0  0  0  0  0  0  0  0  0  0  0  0
    7.0195   -1.3760    0.0000 C   0  0  0  0  0  0  0  0  0  0  0  0
    5.7465   -2.5504    0.0000 C   0  0  0  0  0  0  0  0  0  0  0  0
    6.4227    0.1525    0.0000 H   0  0  0  0  0  0  0  0  0  0  0  0
    5.2299    1.2621    0.0000 H   0  0  0  0  0  0  0  0  0  0  0  0
    3.8542    0.2806    0.0000 H   0  0  0  0  0  0  0  0  0  0  0  0
    5.9800   -0.7751    0.0000 H   0  0  0  0  0  0  0  0  0  0  0  0
    2.8991   -1.0665    0.0000 H   0  0  0  0  0  0  0  0  0  0  0  0
    3.4749   -1.5365    0.0000 H   0  0  0  0  0  0  0  0  0  0  0  0
    5.2167    2.4464    0.0000 H   0  0  0  0  0  0  0  0  0  0  0  0
    4.6289    3.0650    0.0000 H   0  0  0  0  0  0  0  0  0  0  0  0
    4.0874   -1.7445    0.0000 H   0  0  0  0  0  0  0  0  0  0  0  0
    4.8304   -1.7220    0.0000 H   0  0  0  0  0  0  0  0  0  0  0  0
    1.9667    0.5082    0.0000 H   0  0  0  0  0  0  0  0  0  0  0  0
    1.3809   -0.1443    0.0000 H   0  0  0  0  0  0  0  0  0  0  0  0
    2.0333   -0.7300    0.0000 H   0  0  0  0  0  0  0  0  0  0  0  0
    3.7311    3.1569    0.0000 H   0  0  0  0  0  0  0  0  0  0  0  0
    3.0125    2.7420    0.0000 H   0  0  0  0  0  0  0  0  0  0  0  0
    5.4391   -1.7319    0.0000 H   0  0  0  0  0  0  0  0  0  0  0  0
    1.8024    1.8897    0.0000 H   0  0  0  0  0  0  0  0  0  0  0  0
    2.0257    0.8393    0.0000 H   0  0  0  0  0  0  0  0  0  0  0  0
    7.1557   -1.9808    0.0000 H   0  0  0  0  0  0  0  0  0  0  0  0
    7.6244   -1.2397    0.0000 H   0  0  0  0  0  0  0  0  0  0  0  0
    6.8833   -0.7711    0.0000 H   0  0  0  0  0  0  0  0  0  0  0  0
    5.1545   -2.3660    0.0000 H   0  0  0  0  0  0  0  0  0  0  0  0
    5.5620   -3.1423    0.0000 H   0  0  0  0  0  0  0  0  0  0  0  0
    6.3384   -2.7349    0.0000 H   0  0  0  0  0  0  0  0  0  0  0  0
  1  3  1  0  0  0  0
  1  4  1  0  0  0  0
  1  6  1  0  0  0  0
  1 10  1  0  0  0  0
  2  3  1  0  0  0  0
  2  4  1  0  0  0  0
  2  5  1  0  0  0  0
  2 16  1  0  0  0  0
  3  7  1  0  0  0  0
  3 17  1  0  0  0  0
  4  9  1  0  0  0  0
  4 18  1  0  0  0  0
  5  8  1  0  0  0  0
  5 12  1  0  0  0  0
  5 19  1  0  0  0  0
  6  8  1  0  0  0  0
  6 20  1  0  0  0  0
  6 21  1  0  0  0  0
  7 11  1  0  0  0  0
  7 22  1  0  0  0  0
  7 23  1  0  0  0  0
  8 24  1  0  0  0  0
  8 25  1  0  0  0  0
  9 11  1  0  0  0  0
  9 13  2  0  0  0  0
 10 26  1  0  0  0  0
 10 27  1  0  0  0  0
 10 28  1  0  0  0  0
 11 29  1  0  0  0  0
 11 30  1  0  0  0  0
 12 14  1  0  0  0  0
 12 15  1  0  0  0  0
 12 31  1  0  0  0  0
 13 32  1  0  0  0  0
 13 33  1  0  0  0  0
 14 34  1  0  0  0  0
 14 35  1  0  0  0  0
 14 36  1  0  0  0  0
 15 37  1  0  0  0  0
 15 38  1  0  0  0  0
 15 39  1  0  0  0  0
M  END
> <PUBCHEM_COMPOUND_CID>
519779
> <PUBCHEM_COMPOUND_CANONICALIZED>
1
> <PUBCHEM_CACTVS_COMPLEXITY>
301
> <PUBCHEM_CACTVS_HBOND_ACCEPTOR>
0
> <PUBCHEM_CACTVS_HBOND_DONOR>
0
> <PUBCHEM_CACTVS_ROTATABLE_BOND>
1
> <PUBCHEM_CACTVS_SUBSKEYS>
AAADceBwAAAAAAAAAAAAAAAAAABgAAAAAAAwYMGAAAAAAAAAAAAAGAAAAAAADwCAAAACAAAAAACAAgBCAAAAAAAgAAAAAAAAAAgAAAIAAQAAAAAAgAAAAAEAgMAPgAAAAAAAAACAAAQAACAAAAAAAAAAAA==
> <PUBCHEM_IUPAC_OPENEYE_NAME>
8-isopropyl-1-methyl-3-methylene-tricyclo[4.4.0.02,7]decane
> <PUBCHEM_IUPAC_CAS_NAME>
1-methyl-3-methylene-8-propan-2-yltricyclo[4.4.0.02,7]decane
> <PUBCHEM_IUPAC_NAME_MARKUP>
1-methyl-3-methylidene-8-propan-2-yltricyclo[4.4.0.0<SUP>2,7</SUP>]decane
> <PUBCHEM_IUPAC_NAME>
1-methyl-3-methylidene-8-propan-2-yltricyclo[4.4.0.02,7]decane
> <PUBCHEM_IUPAC_SYSTEMATIC_NAME>
1-methyl-3-methylidene-8-propan-2-yl-tricyclo[4.4.0.02,7]decane
> <PUBCHEM_IUPAC_TRADITIONAL_NAME>
8-isopropyl-1-methyl-3-methylene-tricyclo[4.4.0.02,7]decane
> <PUBCHEM_IUPAC_INCHI>
InChI=1S/C15H24/c1-9(2)11-7-8-15(4)12-6-5-10(3)14(15)13(11)12/h9,11-14H,3,5-8H2,1-2,4H3
> <PUBCHEM_IUPAC_INCHIKEY>
UPVZPMJSRSWJHQ-UHFFFAOYSA-N
> <PUBCHEM_XLOGP3_AA>
4.7
> <PUBCHEM_EXACT_MASS>
204.187800766
> <PUBCHEM_MOLECULAR_FORMULA>
C15H24
> <PUBCHEM_MOLECULAR_WEIGHT>
204.35
> <PUBCHEM_OPENEYE_CAN_SMILES>
CC(C)C1CCC2(C3C1C2C(=C)CC3)C
> <PUBCHEM_OPENEYE_ISO_SMILES>
CC(C)C1CCC2(C3C1C2C(=C)CC3)C
> <PUBCHEM_CACTVS_TPSA>
0
> <PUBCHEM_MONOISOTOPIC_WEIGHT>
204.187800766
> <PUBCHEM_TOTAL_CHARGE>
0
> <PUBCHEM_HEAVY_ATOM_COUNT>
15
> <PUBCHEM_ATOM_DEF_STEREO_COUNT>
0
> <PUBCHEM_ATOM_UDEF_STEREO_COUNT>
5
> <PUBCHEM_BOND_DEF_STEREO_COUNT>
0
> <PUBCHEM_BOND_UDEF_STEREO_COUNT>
0
> <PUBCHEM_ISOTOPIC_ATOM_COUNT>
0
> <PUBCHEM_COMPONENT_COUNT>
1
> <PUBCHEM_CACTVS_TAUTO_COUNT>
-1
> <PUBCHEM_COORDINATE_TYPE>
1
5
255
> <PUBCHEM_BONDANNOTATIONS>
1  10  3
2  5  3
3  7  3
4  9  3
5  12  3
$$$$
