519734
  -OEChem-10302200292D
 24 24  0     1  0  0  0  0  0999 V2000
    3.2601   -1.0526    0.0000 S   0  0  0  0  0  0  0  0  0  0  0  0
    4.8479   -1.8616    0.0000 S   0  0  0  0  0  0  0  0  0  0  0  0
    4.3479    1.2952    0.0000 O   0  0  0  0  0  0  0  0  0  0  0  0
    4.5691   -0.1016    0.0000 N   0  0  0  0  0  0  0  0  0  0  0  0
    2.9511   -0.1016    0.0000 C   0  0  0  0  0  0  0  0  0  0  0  0
    3.7601    0.4862    0.0000 C   0  0  3  0  0  0  0  0  0  0  0  0
    2.0000   -0.4106    0.0000 C   0  0  0  0  0  0  0  0  0  0  0  0
    2.3633    0.7075    0.0000 C   0  0  0  0  0  0  0  0  0  0  0  0
    3.1723    1.2952    0.0000 C   0  0  0  0  0  0  0  0  0  0  0  0
    4.2601   -1.0526    0.0000 C   0  0  0  0  0  0  0  0  0  0  0  0
    5.5202    0.2075    0.0000 C   0  0  0  0  0  0  0  0  0  0  0  0
    1.8084    0.1791    0.0000 H   0  0  0  0  0  0  0  0  0  0  0  0
    1.4103   -0.6022    0.0000 H   0  0  0  0  0  0  0  0  0  0  0  0
    2.1916   -1.0002    0.0000 H   0  0  0  0  0  0  0  0  0  0  0  0
    2.8649    1.0719    0.0000 H   0  0  0  0  0  0  0  0  0  0  0  0
    1.9988    1.2090    0.0000 H   0  0  0  0  0  0  0  0  0  0  0  0
    1.8617    0.3430    0.0000 H   0  0  0  0  0  0  0  0  0  0  0  0
    3.6739    1.6597    0.0000 H   0  0  0  0  0  0  0  0  0  0  0  0
    2.8079    1.7968    0.0000 H   0  0  0  0  0  0  0  0  0  0  0  0
    2.6707    0.9308    0.0000 H   0  0  0  0  0  0  0  0  0  0  0  0
    5.7117   -0.3822    0.0000 H   0  0  0  0  0  0  0  0  0  0  0  0
    6.1098    0.3990    0.0000 H   0  0  0  0  0  0  0  0  0  0  0  0
    5.3286    0.7971    0.0000 H   0  0  0  0  0  0  0  0  0  0  0  0
    4.0957    1.8616    0.0000 H   0  0  0  0  0  0  0  0  0  0  0  0
  1  5  1  0  0  0  0
  1 10  1  0  0  0  0
  2 10  2  0  0  0  0
  3  6  1  0  0  0  0
  3 24  1  0  0  0  0
  4  6  1  0  0  0  0
  4 10  1  0  0  0  0
  4 11  1  0  0  0  0
  5  6  1  0  0  0  0
  5  7  1  0  0  0  0
  5  8  1  0  0  0  0
  6  9  1  0  0  0  0
  7 12  1  0  0  0  0
  7 13  1  0  0  0  0
  7 14  1  0  0  0  0
  8 15  1  0  0  0  0
  8 16  1  0  0  0  0
  8 17  1  0  0  0  0
  9 18  1  0  0  0  0
  9 19  1  0  0  0  0
  9 20  1  0  0  0  0
 11 21  1  0  0  0  0
 11 22  1  0  0  0  0
 11 23  1  0  0  0  0
M  END
> <PUBCHEM_COMPOUND_CID>
519734
> <PUBCHEM_COMPOUND_CANONICALIZED>
1
> <PUBCHEM_CACTVS_COMPLEXITY>
205
> <PUBCHEM_CACTVS_HBOND_ACCEPTOR>
3
> <PUBCHEM_CACTVS_HBOND_DONOR>
1
> <PUBCHEM_CACTVS_ROTATABLE_BOND>
0
> <PUBCHEM_CACTVS_SUBSKEYS>
AAADccBiIABgAAAAAAAAAAAAAAAAAWAAAAAAAAAAAAAAAAAAAAAAHgQACAAADAyBwAQCAAMAAggEAAAAAAAAAABAABgAAAAIAAAAAAAgAAAEQAAAAAAAAAAAAAAIAAAAAAAAAAAAAAAAAAAAAAAAAAAAAA==
> <PUBCHEM_IUPAC_OPENEYE_NAME>
4-hydroxy-3,4,5,5-tetramethyl-thiazolidine-2-thione
> <PUBCHEM_IUPAC_CAS_NAME>
4-hydroxy-3,4,5,5-tetramethyl-2-thiazolidinethione
> <PUBCHEM_IUPAC_NAME_MARKUP>
4-hydroxy-3,4,5,5-tetramethyl-1,3-thiazolidine-2-thione
> <PUBCHEM_IUPAC_NAME>
4-hydroxy-3,4,5,5-tetramethyl-1,3-thiazolidine-2-thione
> <PUBCHEM_IUPAC_SYSTEMATIC_NAME>
3,4,5,5-tetramethyl-4-oxidanyl-1,3-thiazolidine-2-thione
> <PUBCHEM_IUPAC_TRADITIONAL_NAME>
4-hydroxy-3,4,5,5-tetramethyl-thiazolidine-2-thione
> <PUBCHEM_IUPAC_INCHI>
InChI=1S/C7H13NOS2/c1-6(2)7(3,9)8(4)5(10)11-6/h9H,1-4H3
> <PUBCHEM_IUPAC_INCHIKEY>
ZRDSOLBWCODEJO-UHFFFAOYSA-N
> <PUBCHEM_XLOGP3_AA>
1.3
> <PUBCHEM_EXACT_MASS>
191.04385639
> <PUBCHEM_MOLECULAR_FORMULA>
C7H13NOS2
> <PUBCHEM_MOLECULAR_WEIGHT>
191.3
> <PUBCHEM_OPENEYE_CAN_SMILES>
CC1(C(N(C(=S)S1)C)(C)O)C
> <PUBCHEM_OPENEYE_ISO_SMILES>
CC1(C(N(C(=S)S1)C)(C)O)C
> <PUBCHEM_CACTVS_TPSA>
80.9
> <PUBCHEM_MONOISOTOPIC_WEIGHT>
191.04385639
> <PUBCHEM_TOTAL_CHARGE>
0
> <PUBCHEM_HEAVY_ATOM_COUNT>
11
> <PUBCHEM_ATOM_DEF_STEREO_COUNT>
0
> <PUBCHEM_ATOM_UDEF_STEREO_COUNT>
1
> <PUBCHEM_BOND_DEF_STEREO_COUNT>
0
> <PUBCHEM_BOND_UDEF_STEREO_COUNT>
0
> <PUBCHEM_ISOTOPIC_ATOM_COUNT>
0
> <PUBCHEM_COMPONENT_COUNT>
1
> <PUBCHEM_CACTVS_TAUTO_COUNT>
-1
> <PUBCHEM_COORDINATE_TYPE>
1
5
255
> <PUBCHEM_BONDANNOTATIONS>
6  3  3
$$$$
