519862
  -OEChem-10302200292D
 21 20  0     1  0  0  0  0  0999 V2000
    2.0000   -0.0000    0.0000 F   0  0  0  0  0  0  0  0  0  0  0  0
    2.8660   -1.5000    0.0000 F   0  0  0  0  0  0  0  0  0  0  0  0
    6.3301    0.5000    0.0000 F   0  0  0  0  0  0  0  0  0  0  0  0
    5.4641   -1.0000    0.0000 F   0  0  0  0  0  0  0  0  0  0  0  0
    2.8660   -0.5000    0.0000 N   0  0  0  0  0  0  0  0  0  0  0  0
    5.4641    0.0000    0.0000 N   0  0  0  0  0  0  0  0  0  0  0  0
    3.7320    0.0000    0.0000 C   0  0  0  0  0  0  0  0  0  0  0  0
    4.5981    0.5000    0.0000 C   0  0  3  0  0  0  0  0  0  0  0  0
    3.2320    0.8660    0.0000 C   0  0  0  0  0  0  0  0  0  0  0  0
    4.2320   -0.8660    0.0000 C   0  0  0  0  0  0  0  0  0  0  0  0
    4.5981    1.5000    0.0000 C   0  0  0  0  0  0  0  0  0  0  0  0
    4.5981   -0.1200    0.0000 H   0  0  0  0  0  0  0  0  0  0  0  0
    3.7690    1.1760    0.0000 H   0  0  0  0  0  0  0  0  0  0  0  0
    2.9220    1.4030    0.0000 H   0  0  0  0  0  0  0  0  0  0  0  0
    2.6951    0.5560    0.0000 H   0  0  0  0  0  0  0  0  0  0  0  0
    3.6951   -1.1760    0.0000 H   0  0  0  0  0  0  0  0  0  0  0  0
    4.5420   -1.4030    0.0000 H   0  0  0  0  0  0  0  0  0  0  0  0
    4.7690   -0.5560    0.0000 H   0  0  0  0  0  0  0  0  0  0  0  0
    5.2181    1.5000    0.0000 H   0  0  0  0  0  0  0  0  0  0  0  0
    4.5981    2.1200    0.0000 H   0  0  0  0  0  0  0  0  0  0  0  0
    3.9781    1.5000    0.0000 H   0  0  0  0  0  0  0  0  0  0  0  0
  1  5  1  0  0  0  0
  2  5  1  0  0  0  0
  3  6  1  0  0  0  0
  4  6  1  0  0  0  0
  5  7  1  0  0  0  0
  6  8  1  0  0  0  0
  7  8  1  0  0  0  0
  7  9  1  0  0  0  0
  7 10  1  0  0  0  0
  8 11  1  0  0  0  0
  8 12  1  0  0  0  0
  9 13  1  0  0  0  0
  9 14  1  0  0  0  0
  9 15  1  0  0  0  0
 10 16  1  0  0  0  0
 10 17  1  0  0  0  0
 10 18  1  0  0  0  0
 11 19  1  0  0  0  0
 11 20  1  0  0  0  0
 11 21  1  0  0  0  0
M  END
> <PUBCHEM_COMPOUND_CID>
519862
> <PUBCHEM_COMPOUND_CANONICALIZED>
1
> <PUBCHEM_CACTVS_COMPLEXITY>
126
> <PUBCHEM_CACTVS_HBOND_ACCEPTOR>
6
> <PUBCHEM_CACTVS_HBOND_DONOR>
0
> <PUBCHEM_CACTVS_ROTATABLE_BOND>
1
> <PUBCHEM_CACTVS_SUBSKEYS>
AAADccBjAcAAAAAAAAAAAAAAAAAAAAAAAAAAAAAAAAAAAAAAAAAAHAACAAAADKjBAAQCAAAAAAAAAAAAAAAAAAAAAAAAAAAAAAAAQAAAAAAAAAAAAAAAAAAAAAAIAAAAAAAAAAAAAAAAAAAAAAAAAAAAAA==
> <PUBCHEM_IUPAC_OPENEYE_NAME>
N2,N2,N3,N3-tetrafluoro-2-methyl-butane-2,3-diamine
> <PUBCHEM_IUPAC_CAS_NAME>
N2,N2,N3,N3-tetrafluoro-2-methylbutane-2,3-diamine
> <PUBCHEM_IUPAC_NAME_MARKUP>
2-<I>N</I>,2-<I>N</I>,3-<I>N</I>,3-<I>N</I>-tetrafluoro-2-methylbutane-2,3-diamine
> <PUBCHEM_IUPAC_NAME>
2-N,2-N,3-N,3-N-tetrafluoro-2-methylbutane-2,3-diamine
> <PUBCHEM_IUPAC_SYSTEMATIC_NAME>
N2,N2,N3,N3-tetrakis(fluoranyl)-2-methyl-butane-2,3-diamine
> <PUBCHEM_IUPAC_TRADITIONAL_NAME>
[2-(difluoroamino)-1,1-dimethyl-propyl]-difluoro-amine
> <PUBCHEM_IUPAC_INCHI>
InChI=1S/C5H10F4N2/c1-4(10(6)7)5(2,3)11(8)9/h4H,1-3H3
> <PUBCHEM_IUPAC_INCHIKEY>
WFEFNDFIKZZYEE-UHFFFAOYSA-N
> <PUBCHEM_XLOGP3_AA>
1.6
> <PUBCHEM_EXACT_MASS>
174.07801098
> <PUBCHEM_MOLECULAR_FORMULA>
C5H10F4N2
> <PUBCHEM_MOLECULAR_WEIGHT>
174.14
> <PUBCHEM_OPENEYE_CAN_SMILES>
CC(C(C)(C)N(F)F)N(F)F
> <PUBCHEM_OPENEYE_ISO_SMILES>
CC(C(C)(C)N(F)F)N(F)F
> <PUBCHEM_CACTVS_TPSA>
6.5
> <PUBCHEM_MONOISOTOPIC_WEIGHT>
174.07801098
> <PUBCHEM_TOTAL_CHARGE>
0
> <PUBCHEM_HEAVY_ATOM_COUNT>
11
> <PUBCHEM_ATOM_DEF_STEREO_COUNT>
0
> <PUBCHEM_ATOM_UDEF_STEREO_COUNT>
1
> <PUBCHEM_BOND_DEF_STEREO_COUNT>
0
> <PUBCHEM_BOND_UDEF_STEREO_COUNT>
0
> <PUBCHEM_ISOTOPIC_ATOM_COUNT>
0
> <PUBCHEM_COMPONENT_COUNT>
1
> <PUBCHEM_CACTVS_TAUTO_COUNT>
-1
> <PUBCHEM_COORDINATE_TYPE>
1
5
255
> <PUBCHEM_BONDANNOTATIONS>
8  11  3
$$$$
