519912
  -OEChem-10302200292D
 26 24  0     1  0  0  0  0  0999 V2000
    4.0010    2.8100    0.0000 O   0  0  0  0  0  0  0  0  0  0  0  0
    4.8671    0.3100    0.0000 O   0  0  0  0  0  0  0  0  0  0  0  0
    3.1350    0.3100    0.0000 O   0  0  0  0  0  0  0  0  0  0  0  0
    6.5991    1.3100    0.0000 O   0  0  0  0  0  0  0  0  0  0  0  0
    2.2690    2.8100    0.0000 O   0  0  0  0  0  0  0  0  0  0  0  0
    0.5369    1.8100    0.0000 O   0  0  0  0  0  0  0  0  0  0  0  0
    1.4030    0.3100    0.0000 O   0  0  0  0  0  0  0  0  0  0  0  0
    3.5680    5.1200    0.0000 O   0  0  0  0  0  0  0  0  0  0  0  0
    4.0010    1.8100    0.0000 C   0  0  3  0  0  0  0  0  0  0  0  0
    4.8671    1.3100    0.0000 C   0  0  3  0  0  0  0  0  0  0  0  0
    3.1350    1.3100    0.0000 C   0  0  3  0  0  0  0  0  0  0  0  0
    5.7331    1.8100    0.0000 C   0  0  0  0  0  0  0  0  0  0  0  0
    2.2690    1.8100    0.0000 C   0  0  0  0  0  0  0  0  0  0  0  0
    1.4030    1.3100    0.0000 C   0  0  0  0  0  0  0  0  0  0  0  0
    4.5380    2.1200    0.0000 H   0  0  0  0  0  0  0  0  0  0  0  0
    4.3301    1.0000    0.0000 H   0  0  0  0  0  0  0  0  0  0  0  0
    3.6720    1.0000    0.0000 H   0  0  0  0  0  0  0  0  0  0  0  0
    6.1316    2.2849    0.0000 H   0  0  0  0  0  0  0  0  0  0  0  0
    5.3346    2.2849    0.0000 H   0  0  0  0  0  0  0  0  0  0  0  0
    4.5380    3.1200    0.0000 H   0  0  0  0  0  0  0  0  0  0  0  0
    5.4040    0.0000    0.0000 H   0  0  0  0  0  0  0  0  0  0  0  0
    2.5981    0.0000    0.0000 H   0  0  0  0  0  0  0  0  0  0  0  0
    7.1360    1.6200    0.0000 H   0  0  0  0  0  0  0  0  0  0  0  0
    0.0000    1.5000    0.0000 H   0  0  0  0  0  0  0  0  0  0  0  0
    4.1050    5.4300    0.0000 H   0  0  0  0  0  0  0  0  0  0  0  0
    3.0311    5.4300    0.0000 H   0  0  0  0  0  0  0  0  0  0  0  0
  1  9  1  0  0  0  0
  1 20  1  0  0  0  0
  2 10  1  0  0  0  0
  2 21  1  0  0  0  0
  3 11  1  0  0  0  0
  3 22  1  0  0  0  0
  4 12  1  0  0  0  0
  4 23  1  0  0  0  0
  5 13  2  0  0  0  0
  6 14  1  0  0  0  0
  6 24  1  0  0  0  0
  7 14  2  0  0  0  0
  8 25  1  0  0  0  0
  8 26  1  0  0  0  0
  9 10  1  0  0  0  0
  9 11  1  0  0  0  0
  9 15  1  0  0  0  0
 10 12  1  0  0  0  0
 10 16  1  0  0  0  0
 11 13  1  0  0  0  0
 11 17  1  0  0  0  0
 12 18  1  0  0  0  0
 12 19  1  0  0  0  0
 13 14  1  0  0  0  0
M  END
> <PUBCHEM_COMPOUND_CID>
519912
> <PUBCHEM_COMPOUND_CANONICALIZED>
1
> <PUBCHEM_CACTVS_COMPLEXITY>
201
> <PUBCHEM_CACTVS_HBOND_ACCEPTOR>
8
> <PUBCHEM_CACTVS_HBOND_DONOR>
6
> <PUBCHEM_CACTVS_ROTATABLE_BOND>
5
> <PUBCHEM_CACTVS_SUBSKEYS>
AAADccBgPAAAAAAAAAAAAAAAAAAAAAAAAAAAAAAAAAAAAAAAAAAAGgAACAAACBSggAIACAAAAgAIAICQCAIAAAAAAAAAAAFAAAABEBYAAAAAQAAFIAABAAHKbARAAAAAAAAAAAAAAAAAAAAAAAAAAAAAAA==
> <PUBCHEM_IUPAC_OPENEYE_NAME>
3,4,5,6-tetrahydroxy-2-oxo-hexanoic acid;hydrate
> <PUBCHEM_IUPAC_CAS_NAME>
3,4,5,6-tetrahydroxy-2-oxohexanoic acid;hydrate
> <PUBCHEM_IUPAC_NAME_MARKUP>
3,4,5,6-tetrahydroxy-2-oxohexanoic acid;hydrate
> <PUBCHEM_IUPAC_NAME>
3,4,5,6-tetrahydroxy-2-oxohexanoic acid;hydrate
> <PUBCHEM_IUPAC_SYSTEMATIC_NAME>
3,4,5,6-tetrakis(oxidanyl)-2-oxidanylidene-hexanoic acid;hydrate
> <PUBCHEM_IUPAC_TRADITIONAL_NAME>
3,4,5,6-tetrahydroxy-2-keto-hexanoic acid;hydrate
> <PUBCHEM_IUPAC_INCHI>
InChI=1S/C6H10O7.H2O/c7-1-2(8)3(9)4(10)5(11)6(12)13;/h2-4,7-10H,1H2,(H,12,13);1H2
> <PUBCHEM_IUPAC_INCHIKEY>
AJDGHHWRQQMMDK-UHFFFAOYSA-N
> <PUBCHEM_EXACT_MASS>
212.05321734
> <PUBCHEM_MOLECULAR_FORMULA>
C6H12O8
> <PUBCHEM_MOLECULAR_WEIGHT>
212.15
> <PUBCHEM_OPENEYE_CAN_SMILES>
C(C(C(C(C(=O)C(=O)O)O)O)O)O.O
> <PUBCHEM_OPENEYE_ISO_SMILES>
C(C(C(C(C(=O)C(=O)O)O)O)O)O.O
> <PUBCHEM_CACTVS_TPSA>
136
> <PUBCHEM_MONOISOTOPIC_WEIGHT>
212.05321734
> <PUBCHEM_TOTAL_CHARGE>
0
> <PUBCHEM_HEAVY_ATOM_COUNT>
14
> <PUBCHEM_ATOM_DEF_STEREO_COUNT>
0
> <PUBCHEM_ATOM_UDEF_STEREO_COUNT>
3
> <PUBCHEM_BOND_DEF_STEREO_COUNT>
0
> <PUBCHEM_BOND_UDEF_STEREO_COUNT>
0
> <PUBCHEM_ISOTOPIC_ATOM_COUNT>
0
> <PUBCHEM_COMPONENT_COUNT>
2
> <PUBCHEM_CACTVS_TAUTO_COUNT>
-1
> <PUBCHEM_COORDINATE_TYPE>
1
5
255
> <PUBCHEM_BONDANNOTATIONS>
9  1  3
10  2  3
11  3  3
$$$$
