519975
  -OEChem-10302200292D
 59 62  0     1  0  0  0  0  0999 V2000
    4.7950    1.0491    0.0000 O   0  0  0  0  0  0  0  0  0  0  0  0
    7.9821    2.5486    0.0000 O   0  0  0  0  0  0  0  0  0  0  0  0
    2.0000   -2.5032    0.0000 O   0  0  0  0  0  0  0  0  0  0  0  0
    5.6610    2.5491    0.0000 O   0  0  0  0  0  0  0  0  0  0  0  0
    7.3931    0.5491    0.0000 C   0  0  3  0  0  0  0  0  0  0  0  0
    7.3931   -0.4509    0.0000 C   0  0  3  0  0  0  0  0  0  0  0  0
    6.5271   -0.9509    0.0000 C   0  0  3  0  0  0  0  0  0  0  0  0
    5.6610   -0.4509    0.0000 C   0  0  3  0  0  0  0  0  0  0  0  0
    4.7510   -0.9578    0.0000 C   0  0  3  0  0  0  0  0  0  0  0  0
    6.5271    1.0491    0.0000 C   0  0  0  0  0  0  0  0  0  0  0  0
    5.6610    0.5491    0.0000 C   0  0  3  0  0  0  0  0  0  0  0  0
    8.3393    0.8538    0.0000 C   0  0  3  0  0  0  0  0  0  0  0  0
    8.3393   -0.7556    0.0000 C   0  0  0  0  0  0  0  0  0  0  0  0
    6.5431   -1.9924    0.0000 C   0  0  0  0  0  0  0  0  0  0  0  0
    8.9229    0.0491    0.0000 C   0  0  0  0  0  0  0  0  0  0  0  0
    4.7430   -1.9994    0.0000 C   0  0  0  0  0  0  0  0  0  0  0  0
    7.3931    1.5491    0.0000 C   0  0  0  0  0  0  0  0  0  0  0  0
    5.6451   -2.5202    0.0000 C   0  0  0  0  0  0  0  0  0  0  0  0
    3.8242   -0.3937    0.0000 C   0  0  0  0  0  0  0  0  0  0  0  0
    4.7587    0.0422    0.0000 C   0  0  0  0  0  0  0  0  0  0  0  0
    8.6500    1.8043    0.0000 C   0  0  0  0  0  0  0  0  0  0  0  0
    2.8763   -0.9216    0.0000 C   0  0  0  0  0  0  0  0  0  0  0  0
    3.8076   -2.5491    0.0000 C   0  0  0  0  0  0  0  0  0  0  0  0
    2.8680   -2.0066    0.0000 C   0  0  0  0  0  0  0  0  0  0  0  0
    9.6285    2.0106    0.0000 C   0  0  0  0  0  0  0  0  0  0  0  0
    4.7950    2.0491    0.0000 C   0  0  0  0  0  0  0  0  0  0  0  0
    3.9290    2.5491    0.0000 C   0  0  0  0  0  0  0  0  0  0  0  0
    7.4587   -1.0674    0.0000 H   0  0  0  0  0  0  0  0  0  0  0  0
    7.0664   -1.2568    0.0000 H   0  0  0  0  0  0  0  0  0  0  0  0
    6.1980   -0.1409    0.0000 H   0  0  0  0  0  0  0  0  0  0  0  0
    6.9256    1.5240    0.0000 H   0  0  0  0  0  0  0  0  0  0  0  0
    6.1285    1.5240    0.0000 H   0  0  0  0  0  0  0  0  0  0  0  0
    5.6610    1.1691    0.0000 H   0  0  0  0  0  0  0  0  0  0  0  0
    7.9018    1.2932    0.0000 H   0  0  0  0  0  0  0  0  0  0  0  0
    8.0883   -1.3225    0.0000 H   0  0  0  0  0  0  0  0  0  0  0  0
    8.8767   -1.0649    0.0000 H   0  0  0  0  0  0  0  0  0  0  0  0
    6.7612   -2.5728    0.0000 H   0  0  0  0  0  0  0  0  0  0  0  0
    7.1523   -1.8769    0.0000 H   0  0  0  0  0  0  0  0  0  0  0  0
    9.3838   -0.3656    0.0000 H   0  0  0  0  0  0  0  0  0  0  0  0
    9.3838    0.4638    0.0000 H   0  0  0  0  0  0  0  0  0  0  0  0
    8.0131    1.5491    0.0000 H   0  0  0  0  0  0  0  0  0  0  0  0
    7.3931    2.1691    0.0000 H   0  0  0  0  0  0  0  0  0  0  0  0
    6.7731    1.5491    0.0000 H   0  0  0  0  0  0  0  0  0  0  0  0
    5.2478   -2.9962    0.0000 H   0  0  0  0  0  0  0  0  0  0  0  0
    6.0460   -2.9931    0.0000 H   0  0  0  0  0  0  0  0  0  0  0  0
    4.2324    0.0730    0.0000 H   0  0  0  0  0  0  0  0  0  0  0  0
    3.4343    0.0884    0.0000 H   0  0  0  0  0  0  0  0  0  0  0  0
    5.3787    0.0374    0.0000 H   0  0  0  0  0  0  0  0  0  0  0  0
    4.7635    0.6622    0.0000 H   0  0  0  0  0  0  0  0  0  0  0  0
    4.1388    0.0470    0.0000 H   0  0  0  0  0  0  0  0  0  0  0  0
    2.6718   -0.3363    0.0000 H   0  0  0  0  0  0  0  0  0  0  0  0
    2.2647   -1.0230    0.0000 H   0  0  0  0  0  0  0  0  0  0  0  0
    3.8100   -3.1691    0.0000 H   0  0  0  0  0  0  0  0  0  0  0  0
    9.7563    1.4039    0.0000 H   0  0  0  0  0  0  0  0  0  0  0  0
   10.2351    2.1384    0.0000 H   0  0  0  0  0  0  0  0  0  0  0  0
    9.5006    2.6172    0.0000 H   0  0  0  0  0  0  0  0  0  0  0  0
    4.2390    3.0860    0.0000 H   0  0  0  0  0  0  0  0  0  0  0  0
    3.3920    2.8591    0.0000 H   0  0  0  0  0  0  0  0  0  0  0  0
    3.6190    2.0122    0.0000 H   0  0  0  0  0  0  0  0  0  0  0  0
  1 11  1  0  0  0  0
  1 26  1  0  0  0  0
  2 21  2  0  0  0  0
  3 24  2  0  0  0  0
  4 26  2  0  0  0  0
  5  6  1  0  0  0  0
  5 10  1  0  0  0  0
  5 12  1  0  0  0  0
  5 17  1  0  0  0  0
  6  7  1  0  0  0  0
  6 13  1  0  0  0  0
  6 28  1  0  0  0  0
  7  8  1  0  0  0  0
  7 14  1  0  0  0  0
  7 29  1  0  0  0  0
  8  9  1  0  0  0  0
  8 11  1  0  0  0  0
  8 30  1  0  0  0  0
  9 16  1  0  0  0  0
  9 19  1  0  0  0  0
  9 20  1  0  0  0  0
 10 11  1  0  0  0  0
 10 31  1  0  0  0  0
 10 32  1  0  0  0  0
 11 33  1  0  0  0  0
 12 15  1  0  0  0  0
 12 21  1  0  0  0  0
 12 34  1  0  0  0  0
 13 15  1  0  0  0  0
 13 35  1  0  0  0  0
 13 36  1  0  0  0  0
 14 18  1  0  0  0  0
 14 37  1  0  0  0  0
 14 38  1  0  0  0  0
 15 39  1  0  0  0  0
 15 40  1  0  0  0  0
 16 18  1  0  0  0  0
 16 23  2  0  0  0  0
 17 41  1  0  0  0  0
 17 42  1  0  0  0  0
 17 43  1  0  0  0  0
 18 44  1  0  0  0  0
 18 45  1  0  0  0  0
 19 22  1  0  0  0  0
 19 46  1  0  0  0  0
 19 47  1  0  0  0  0
 20 48  1  0  0  0  0
 20 49  1  0  0  0  0
 20 50  1  0  0  0  0
 21 25  1  0  0  0  0
 22 24  1  0  0  0  0
 22 51  1  0  0  0  0
 22 52  1  0  0  0  0
 23 24  1  0  0  0  0
 23 53  1  0  0  0  0
 25 54  1  0  0  0  0
 25 55  1  0  0  0  0
 25 56  1  0  0  0  0
 26 27  1  0  0  0  0
 27 57  1  0  0  0  0
 27 58  1  0  0  0  0
 27 59  1  0  0  0  0
M  END
> <PUBCHEM_COMPOUND_CID>
519975
> <PUBCHEM_COMPOUND_CANONICALIZED>
1
> <PUBCHEM_CACTVS_COMPLEXITY>
722
> <PUBCHEM_CACTVS_HBOND_ACCEPTOR>
4
> <PUBCHEM_CACTVS_HBOND_DONOR>
0
> <PUBCHEM_CACTVS_ROTATABLE_BOND>
3
> <PUBCHEM_CACTVS_SUBSKEYS>
AAADcfB4OAAAAAAAAAAAAAAAAAAAAYAAAAAwYIAAAAAAAGDAAAAAGgAAAAAADxSggAICCAAABACIAqDSCAAAAAAgAAAACAEAAEgAABIAAQACAAAEgAAIAQOIzPDPgAAAAAAAAADAAAYAADAAAQAACAAAAA==
> <PUBCHEM_IUPAC_OPENEYE_NAME>
(17-acetyl-10,13-dimethyl-3-oxo-1,2,6,7,8,9,11,12,14,15,16,17-dodecahydrocyclopenta[a]phenanthren-11-yl) acetate
> <PUBCHEM_IUPAC_CAS_NAME>
acetic acid (17-acetyl-10,13-dimethyl-3-oxo-1,2,6,7,8,9,11,12,14,15,16,17-dodecahydrocyclopenta[a]phenanthren-11-yl) ester
> <PUBCHEM_IUPAC_NAME_MARKUP>
(17-acetyl-10,13-dimethyl-3-oxo-1,2,6,7,8,9,11,12,14,15,16,17-dodecahydrocyclopenta[a]phenanthren-11-yl) acetate
> <PUBCHEM_IUPAC_NAME>
(17-acetyl-10,13-dimethyl-3-oxo-1,2,6,7,8,9,11,12,14,15,16,17-dodecahydrocyclopenta[a]phenanthren-11-yl) acetate
> <PUBCHEM_IUPAC_SYSTEMATIC_NAME>
(17-ethanoyl-10,13-dimethyl-3-oxidanylidene-1,2,6,7,8,9,11,12,14,15,16,17-dodecahydrocyclopenta[a]phenanthren-11-yl) ethanoate
> <PUBCHEM_IUPAC_TRADITIONAL_NAME>
acetic acid (17-acetyl-3-keto-10,13-dimethyl-1,2,6,7,8,9,11,12,14,15,16,17-dodecahydrocyclopenta[a]phenanthren-11-yl) ester
> <PUBCHEM_IUPAC_INCHI>
InChI=1S/C23H32O4/c1-13(24)18-7-8-19-17-6-5-15-11-16(26)9-10-22(15,3)21(17)20(27-14(2)25)12-23(18,19)4/h11,17-21H,5-10,12H2,1-4H3
> <PUBCHEM_IUPAC_INCHIKEY>
IWRPVTXREVYBHT-UHFFFAOYSA-N
> <PUBCHEM_XLOGP3>
2.9
> <PUBCHEM_EXACT_MASS>
372.23005950
> <PUBCHEM_MOLECULAR_FORMULA>
C23H32O4
> <PUBCHEM_MOLECULAR_WEIGHT>
372.5
> <PUBCHEM_OPENEYE_CAN_SMILES>
CC(=O)C1CCC2C1(CC(C3C2CCC4=CC(=O)CCC34C)OC(=O)C)C
> <PUBCHEM_OPENEYE_ISO_SMILES>
CC(=O)C1CCC2C1(CC(C3C2CCC4=CC(=O)CCC34C)OC(=O)C)C
> <PUBCHEM_CACTVS_TPSA>
60.4
> <PUBCHEM_MONOISOTOPIC_WEIGHT>
372.23005950
> <PUBCHEM_TOTAL_CHARGE>
0
> <PUBCHEM_HEAVY_ATOM_COUNT>
27
> <PUBCHEM_ATOM_DEF_STEREO_COUNT>
0
> <PUBCHEM_ATOM_UDEF_STEREO_COUNT>
7
> <PUBCHEM_BOND_DEF_STEREO_COUNT>
0
> <PUBCHEM_BOND_UDEF_STEREO_COUNT>
0
> <PUBCHEM_ISOTOPIC_ATOM_COUNT>
0
> <PUBCHEM_COMPONENT_COUNT>
1
> <PUBCHEM_CACTVS_TAUTO_COUNT>
-1
> <PUBCHEM_COORDINATE_TYPE>
1
5
255
> <PUBCHEM_BONDANNOTATIONS>
11  1  3
12  21  3
5  17  3
6  13  3
7  14  3
8  11  3
9  20  3
$$$$
