519905
  -OEChem-10302200292D
 19 19  0     1  0  0  0  0  0999 V2000
    3.7320    1.5000    0.0000 N   0  3  0  0  0  0  0  0  0  0  0  0
    2.8660    1.0000    0.0000 C   0  0  3  0  0  0  0  0  0  0  0  0
    2.8660   -0.0000    0.0000 C   0  0  0  0  0  0  0  0  0  0  0  0
    2.0000    1.5000    0.0000 C   0  0  0  0  0  0  0  0  0  0  0  0
    2.0000   -0.5000    0.0000 C   0  0  0  0  0  0  0  0  0  0  0  0
    3.7320   -0.5000    0.0000 C   0  0  0  0  0  0  0  0  0  0  0  0
    2.0000   -1.5000    0.0000 C   0  0  0  0  0  0  0  0  0  0  0  0
    3.7320   -1.5000    0.0000 C   0  0  0  0  0  0  0  0  0  0  0  0
    2.8660   -2.0000    0.0000 C   0  0  0  0  0  0  0  0  0  0  0  0
    4.5981    2.0000    0.0000 C   0  5  0  0  0  0  0  0  0  0  0  0
    2.8660    1.8500    0.0000 H   0  0  0  0  0  0  0  0  0  0  0  0
    2.3100    2.0369    0.0000 H   0  0  0  0  0  0  0  0  0  0  0  0
    1.4631    1.8100    0.0000 H   0  0  0  0  0  0  0  0  0  0  0  0
    1.6900    0.9631    0.0000 H   0  0  0  0  0  0  0  0  0  0  0  0
    1.4631   -0.1900    0.0000 H   0  0  0  0  0  0  0  0  0  0  0  0
    4.2690   -0.1900    0.0000 H   0  0  0  0  0  0  0  0  0  0  0  0
    1.4631   -1.8100    0.0000 H   0  0  0  0  0  0  0  0  0  0  0  0
    4.2690   -1.8100    0.0000 H   0  0  0  0  0  0  0  0  0  0  0  0
    2.8660   -2.6200    0.0000 H   0  0  0  0  0  0  0  0  0  0  0  0
  1  2  1  0  0  0  0
  1 10  3  0  0  0  0
  2  3  1  0  0  0  0
  2  4  1  0  0  0  0
  2 11  1  0  0  0  0
  3  5  2  0  0  0  0
  3  6  1  0  0  0  0
  4 12  1  0  0  0  0
  4 13  1  0  0  0  0
  4 14  1  0  0  0  0
  5  7  1  0  0  0  0
  5 15  1  0  0  0  0
  6  8  2  0  0  0  0
  6 16  1  0  0  0  0
  7  9  2  0  0  0  0
  7 17  1  0  0  0  0
  8  9  1  0  0  0  0
  8 18  1  0  0  0  0
  9 19  1  0  0  0  0
M  CHG  2   1   1  10  -1
M  END
> <PUBCHEM_COMPOUND_CID>
519905
> <PUBCHEM_COMPOUND_CANONICALIZED>
1
> <PUBCHEM_CACTVS_COMPLEXITY>
136
> <PUBCHEM_CACTVS_HBOND_ACCEPTOR>
1
> <PUBCHEM_CACTVS_HBOND_DONOR>
0
> <PUBCHEM_CACTVS_ROTATABLE_BOND>
1
> <PUBCHEM_CACTVS_SUBSKEYS>
AAADccByAAAAAAAAAAAAAAAAAAAAAAAAAAAwAAAAAAAAAAABAAAAHAAAAAAADCjBGAQyAIIAAACQAiBCAACCAAAgAAAIiAAABIgIICKAkRGAIABggAAIiAcQgIAOAAAAAAAAAAAAAAAAAAAAAAAAAAAAAA==
> <PUBCHEM_IUPAC_OPENEYE_NAME>
1-isocyanoethylbenzene
> <PUBCHEM_IUPAC_CAS_NAME>
1-isocyanoethylbenzene
> <PUBCHEM_IUPAC_NAME_MARKUP>
1-isocyanoethylbenzene
> <PUBCHEM_IUPAC_NAME>
1-isocyanoethylbenzene
> <PUBCHEM_IUPAC_SYSTEMATIC_NAME>
1-isocyanoethylbenzene
> <PUBCHEM_IUPAC_TRADITIONAL_NAME>
1-isocyanoethylbenzene
> <PUBCHEM_IUPAC_INCHI>
InChI=1S/C9H9N/c1-8(10-2)9-6-4-3-5-7-9/h3-8H,1H3
> <PUBCHEM_IUPAC_INCHIKEY>
KCCAPMXVCPVFEH-UHFFFAOYSA-N
> <PUBCHEM_XLOGP3_AA>
2
> <PUBCHEM_EXACT_MASS>
131.073499291
> <PUBCHEM_MOLECULAR_FORMULA>
C9H9N
> <PUBCHEM_MOLECULAR_WEIGHT>
131.17
> <PUBCHEM_OPENEYE_CAN_SMILES>
CC(C1=CC=CC=C1)[N+]#[C-]
> <PUBCHEM_OPENEYE_ISO_SMILES>
CC(C1=CC=CC=C1)[N+]#[C-]
> <PUBCHEM_CACTVS_TPSA>
4.4
> <PUBCHEM_MONOISOTOPIC_WEIGHT>
131.073499291
> <PUBCHEM_TOTAL_CHARGE>
0
> <PUBCHEM_HEAVY_ATOM_COUNT>
10
> <PUBCHEM_ATOM_DEF_STEREO_COUNT>
0
> <PUBCHEM_ATOM_UDEF_STEREO_COUNT>
1
> <PUBCHEM_BOND_DEF_STEREO_COUNT>
0
> <PUBCHEM_BOND_UDEF_STEREO_COUNT>
0
> <PUBCHEM_ISOTOPIC_ATOM_COUNT>
0
> <PUBCHEM_COMPONENT_COUNT>
1
> <PUBCHEM_CACTVS_TAUTO_COUNT>
1
> <PUBCHEM_COORDINATE_TYPE>
1
5
255
> <PUBCHEM_BONDANNOTATIONS>
2  11  3
3  5  8
3  6  8
5  7  8
6  8  8
7  9  8
8  9  8
$$$$
