520027
  -OEChem-10302200292D
 54 54  0     1  0  0  0  0  0999 V2000
    3.1740    0.0000    0.0000 Cl  0  0  0  0  0  0  0  0  0  0  0  0
    5.7280    5.2540    0.0000 O   0  0  0  0  0  0  0  0  0  0  0  0
    1.5223    5.8192    0.0000 N   0  0  0  0  0  0  0  0  0  0  0  0
    4.2280    6.1200    0.0000 C   0  0  0  0  0  0  0  0  0  0  0  0
    3.2280    6.1200    0.0000 C   0  0  0  0  0  0  0  0  0  0  0  0
    5.2280    6.1200    0.0000 C   0  0  3  0  0  0  0  0  0  0  0  0
    2.2884    6.4620    0.0000 C   0  0  3  0  0  0  0  0  0  0  0  0
    4.2280    5.1200    0.0000 C   0  0  0  0  0  0  0  0  0  0  0  0
    4.2280    7.1200    0.0000 C   0  0  0  0  0  0  0  0  0  0  0  0
    5.7280    6.9860    0.0000 C   0  0  0  0  0  0  0  0  0  0  0  0
    2.1147    7.4468    0.0000 C   0  0  0  0  0  0  0  0  0  0  0  0
    5.0941    4.6200    0.0000 C   0  0  0  0  0  0  0  0  0  0  0  0
    3.3620    7.6200    0.0000 C   0  0  0  0  0  0  0  0  0  0  0  0
    3.3620    4.6200    0.0000 C   0  0  0  0  0  0  0  0  0  0  0  0
    5.0941    7.6200    0.0000 C   0  0  0  0  0  0  0  0  0  0  0  0
    6.7280    6.9860    0.0000 C   0  0  0  0  0  0  0  0  0  0  0  0
    0.5826    6.1612    0.0000 C   0  0  0  0  0  0  0  0  0  0  0  0
    1.6959    4.8345    0.0000 C   0  0  0  0  0  0  0  0  0  0  0  0
    5.0941    3.6200    0.0000 C   0  0  0  0  0  0  0  0  0  0  0  0
    3.3620    8.6200    0.0000 C   0  0  0  0  0  0  0  0  0  0  0  0
    3.3620    3.6200    0.0000 C   0  0  0  0  0  0  0  0  0  0  0  0
    5.0941    8.6200    0.0000 C   0  0  0  0  0  0  0  0  0  0  0  0
    4.2280    3.1200    0.0000 C   0  0  0  0  0  0  0  0  0  0  0  0
    4.2280    9.1200    0.0000 C   0  0  0  0  0  0  0  0  0  0  0  0
    2.8026    5.6690    0.0000 H   0  0  0  0  0  0  0  0  0  0  0  0
    3.3357    6.7306    0.0000 H   0  0  0  0  0  0  0  0  0  0  0  0
    4.8030    5.3839    0.0000 H   0  0  0  0  0  0  0  0  0  0  0  0
    2.4360    5.6249    0.0000 H   0  0  0  0  0  0  0  0  0  0  0  0
    5.8357    7.5966    0.0000 H   0  0  0  0  0  0  0  0  0  0  0  0
    5.1454    7.1981    0.0000 H   0  0  0  0  0  0  0  0  0  0  0  0
    2.7253    7.5545    0.0000 H   0  0  0  0  0  0  0  0  0  0  0  0
    2.0070    8.0574    0.0000 H   0  0  0  0  0  0  0  0  0  0  0  0
    1.5041    7.3392    0.0000 H   0  0  0  0  0  0  0  0  0  0  0  0
    5.6310    4.9300    0.0000 H   0  0  0  0  0  0  0  0  0  0  0  0
    2.8251    7.3100    0.0000 H   0  0  0  0  0  0  0  0  0  0  0  0
    2.8251    4.9300    0.0000 H   0  0  0  0  0  0  0  0  0  0  0  0
    5.6310    7.3100    0.0000 H   0  0  0  0  0  0  0  0  0  0  0  0
    6.3480    5.2540    0.0000 H   0  0  0  0  0  0  0  0  0  0  0  0
    6.7280    6.3660    0.0000 H   0  0  0  0  0  0  0  0  0  0  0  0
    7.3480    6.9860    0.0000 H   0  0  0  0  0  0  0  0  0  0  0  0
    6.7280    7.6060    0.0000 H   0  0  0  0  0  0  0  0  0  0  0  0
    0.7947    6.7438    0.0000 H   0  0  0  0  0  0  0  0  0  0  0  0
    0.0000    6.3733    0.0000 H   0  0  0  0  0  0  0  0  0  0  0  0
    0.3706    5.5786    0.0000 H   0  0  0  0  0  0  0  0  0  0  0  0
    1.0853    4.7269    0.0000 H   0  0  0  0  0  0  0  0  0  0  0  0
    1.8035    4.2239    0.0000 H   0  0  0  0  0  0  0  0  0  0  0  0
    2.3065    4.9421    0.0000 H   0  0  0  0  0  0  0  0  0  0  0  0
    5.6310    3.3100    0.0000 H   0  0  0  0  0  0  0  0  0  0  0  0
    2.8251    8.9300    0.0000 H   0  0  0  0  0  0  0  0  0  0  0  0
    2.8251    3.3100    0.0000 H   0  0  0  0  0  0  0  0  0  0  0  0
    5.6310    8.9300    0.0000 H   0  0  0  0  0  0  0  0  0  0  0  0
    4.2280    2.5000    0.0000 H   0  0  0  0  0  0  0  0  0  0  0  0
    4.2280    9.7400    0.0000 H   0  0  0  0  0  0  0  0  0  0  0  0
    4.1740    0.0000    0.0000 H   0  0  0  0  0  0  0  0  0  0  0  0
  1 54  1  0  0  0  0
  2  6  1  0  0  0  0
  2 38  1  0  0  0  0
  3  7  1  0  0  0  0
  3 17  1  0  0  0  0
  3 18  1  0  0  0  0
  4  5  1  0  0  0  0
  4  6  1  0  0  0  0
  4  8  1  0  0  0  0
  4  9  1  0  0  0  0
  5  7  1  0  0  0  0
  5 25  1  0  0  0  0
  5 26  1  0  0  0  0
  6 10  1  0  0  0  0
  6 27  1  0  0  0  0
  7 11  1  0  0  0  0
  7 28  1  0  0  0  0
  8 12  2  0  0  0  0
  8 14  1  0  0  0  0
  9 13  2  0  0  0  0
  9 15  1  0  0  0  0
 10 16  1  0  0  0  0
 10 29  1  0  0  0  0
 10 30  1  0  0  0  0
 11 31  1  0  0  0  0
 11 32  1  0  0  0  0
 11 33  1  0  0  0  0
 12 19  1  0  0  0  0
 12 34  1  0  0  0  0
 13 20  1  0  0  0  0
 13 35  1  0  0  0  0
 14 21  2  0  0  0  0
 14 36  1  0  0  0  0
 15 22  2  0  0  0  0
 15 37  1  0  0  0  0
 16 39  1  0  0  0  0
 16 40  1  0  0  0  0
 16 41  1  0  0  0  0
 17 42  1  0  0  0  0
 17 43  1  0  0  0  0
 17 44  1  0  0  0  0
 18 45  1  0  0  0  0
 18 46  1  0  0  0  0
 18 47  1  0  0  0  0
 19 23  2  0  0  0  0
 19 48  1  0  0  0  0
 20 24  2  0  0  0  0
 20 49  1  0  0  0  0
 21 23  1  0  0  0  0
 21 50  1  0  0  0  0
 22 24  1  0  0  0  0
 22 51  1  0  0  0  0
 23 52  1  0  0  0  0
 24 53  1  0  0  0  0
M  END
> <PUBCHEM_COMPOUND_CID>
520027
> <PUBCHEM_COMPOUND_CANONICALIZED>
1
> <PUBCHEM_CACTVS_COMPLEXITY>
311
> <PUBCHEM_CACTVS_HBOND_ACCEPTOR>
2
> <PUBCHEM_CACTVS_HBOND_DONOR>
2
> <PUBCHEM_CACTVS_ROTATABLE_BOND>
7
> <PUBCHEM_CACTVS_SUBSKEYS>
AAADceB6IAAEAAAAAAAAAAAAAAAAAAAAAAAwYAAAAAAAAAABQAAAHgAACAAADjzhmAYyAIMAAgCAAiBCAAACAAAgAAAIiAAIAIgIMCKAkRCEYAAkwAEIiAewwOAPgAAAAAAAAAAAAAAAAAAAAAAAAAAAAA==
> <PUBCHEM_IUPAC_OPENEYE_NAME>
6-(dimethylamino)-4,4-diphenyl-heptan-3-ol;hydrochloride
> <PUBCHEM_IUPAC_CAS_NAME>
6-(dimethylamino)-4,4-diphenyl-3-heptanol;hydrochloride
> <PUBCHEM_IUPAC_NAME_MARKUP>
6-(dimethylamino)-4,4-diphenylheptan-3-ol;hydrochloride
> <PUBCHEM_IUPAC_NAME>
6-(dimethylamino)-4,4-diphenylheptan-3-ol;hydrochloride
> <PUBCHEM_IUPAC_SYSTEMATIC_NAME>
6-(dimethylamino)-4,4-diphenyl-heptan-3-ol;hydrochloride
> <PUBCHEM_IUPAC_TRADITIONAL_NAME>
6-(dimethylamino)-4,4-diphenyl-heptan-3-ol;hydrochloride
> <PUBCHEM_IUPAC_INCHI>
InChI=1S/C21H29NO.ClH/c1-5-20(23)21(16-17(2)22(3)4,18-12-8-6-9-13-18)19-14-10-7-11-15-19;/h6-15,17,20,23H,5,16H2,1-4H3;1H
> <PUBCHEM_IUPAC_INCHIKEY>
GMNBUMFCZAZBQG-UHFFFAOYSA-N
> <PUBCHEM_EXACT_MASS>
347.2015923
> <PUBCHEM_MOLECULAR_FORMULA>
C21H30ClNO
> <PUBCHEM_MOLECULAR_WEIGHT>
347.9
> <PUBCHEM_OPENEYE_CAN_SMILES>
CCC(C(CC(C)N(C)C)(C1=CC=CC=C1)C2=CC=CC=C2)O.Cl
> <PUBCHEM_OPENEYE_ISO_SMILES>
CCC(C(CC(C)N(C)C)(C1=CC=CC=C1)C2=CC=CC=C2)O.Cl
> <PUBCHEM_CACTVS_TPSA>
23.5
> <PUBCHEM_MONOISOTOPIC_WEIGHT>
347.2015923
> <PUBCHEM_TOTAL_CHARGE>
0
> <PUBCHEM_HEAVY_ATOM_COUNT>
24
> <PUBCHEM_ATOM_DEF_STEREO_COUNT>
0
> <PUBCHEM_ATOM_UDEF_STEREO_COUNT>
2
> <PUBCHEM_BOND_DEF_STEREO_COUNT>
0
> <PUBCHEM_BOND_UDEF_STEREO_COUNT>
0
> <PUBCHEM_ISOTOPIC_ATOM_COUNT>
0
> <PUBCHEM_COMPONENT_COUNT>
2
> <PUBCHEM_CACTVS_TAUTO_COUNT>
1
> <PUBCHEM_COORDINATE_TYPE>
1
5
255
> <PUBCHEM_BONDANNOTATIONS>
12  19  8
13  20  8
14  21  8
15  22  8
19  23  8
20  24  8
21  23  8
22  24  8
6  27  3
7  28  3
8  12  8
8  14  8
9  13  8
9  15  8
$$$$
