520051
  -OEChem-10302200292D
 34 33  0     1  0  0  0  0  0999 V2000
    3.3660    1.6760    0.0000 F   0  0  0  0  0  0  0  0  0  0  0  0
    2.0000    1.3100    0.0000 F   0  0  0  0  0  0  0  0  0  0  0  0
    2.3660   -0.0560    0.0000 F   0  0  0  0  0  0  0  0  0  0  0  0
    7.1962    0.3100    0.0000 O   0  0  0  0  0  0  0  0  0  0  0  0
    6.3301   -1.1900    0.0000 O   0  0  0  0  0  0  0  0  0  0  0  0
    6.3301    1.8100    0.0000 O   0  0  0  0  0  0  0  0  0  0  0  0
    3.7320   -0.6900    0.0000 O   0  0  0  0  0  0  0  0  0  0  0  0
    4.5981    0.8100    0.0000 N   0  0  0  0  0  0  0  0  0  0  0  0
    5.4641    0.3100    0.0000 C   0  0  3  0  0  0  0  0  0  0  0  0
    5.4641   -0.6900    0.0000 C   0  0  3  0  0  0  0  0  0  0  0  0
    6.3301    0.8100    0.0000 C   0  0  0  0  0  0  0  0  0  0  0  0
    8.9282    0.3100    0.0000 C   0  0  0  0  0  0  0  0  0  0  0  0
    4.5981   -1.1900    0.0000 C   0  0  0  0  0  0  0  0  0  0  0  0
    8.0622    0.8100    0.0000 C   0  0  0  0  0  0  0  0  0  0  0  0
    9.7942    0.8100    0.0000 C   0  0  0  0  0  0  0  0  0  0  0  0
    3.7320    0.3100    0.0000 C   0  0  0  0  0  0  0  0  0  0  0  0
   10.6603    0.3100    0.0000 C   0  0  0  0  0  0  0  0  0  0  0  0
    2.8660    0.8100    0.0000 C   0  0  0  0  0  0  0  0  0  0  0  0
    5.4641    0.9300    0.0000 H   0  0  0  0  0  0  0  0  0  0  0  0
    6.0010   -0.3800    0.0000 H   0  0  0  0  0  0  0  0  0  0  0  0
    4.5981    1.4300    0.0000 H   0  0  0  0  0  0  0  0  0  0  0  0
    8.5297   -0.1649    0.0000 H   0  0  0  0  0  0  0  0  0  0  0  0
    9.3267   -0.1649    0.0000 H   0  0  0  0  0  0  0  0  0  0  0  0
    4.2881   -0.6531    0.0000 H   0  0  0  0  0  0  0  0  0  0  0  0
    4.0611   -1.5000    0.0000 H   0  0  0  0  0  0  0  0  0  0  0  0
    4.9081   -1.7269    0.0000 H   0  0  0  0  0  0  0  0  0  0  0  0
    8.4607    1.2850    0.0000 H   0  0  0  0  0  0  0  0  0  0  0  0
    7.6636    1.2850    0.0000 H   0  0  0  0  0  0  0  0  0  0  0  0
   10.1928    1.2850    0.0000 H   0  0  0  0  0  0  0  0  0  0  0  0
    9.3957    1.2850    0.0000 H   0  0  0  0  0  0  0  0  0  0  0  0
    6.3301   -1.8100    0.0000 H   0  0  0  0  0  0  0  0  0  0  0  0
   10.3503   -0.2269    0.0000 H   0  0  0  0  0  0  0  0  0  0  0  0
   11.1972    0.0000    0.0000 H   0  0  0  0  0  0  0  0  0  0  0  0
   10.9703    0.8469    0.0000 H   0  0  0  0  0  0  0  0  0  0  0  0
  1 18  1  0  0  0  0
  2 18  1  0  0  0  0
  3 18  1  0  0  0  0
  4 11  1  0  0  0  0
  4 14  1  0  0  0  0
  5 10  1  0  0  0  0
  5 31  1  0  0  0  0
  6 11  2  0  0  0  0
  7 16  2  0  0  0  0
  8  9  1  0  0  0  0
  8 16  1  0  0  0  0
  8 21  1  0  0  0  0
  9 10  1  0  0  0  0
  9 11  1  0  0  0  0
  9 19  1  0  0  0  0
 10 13  1  0  0  0  0
 10 20  1  0  0  0  0
 12 14  1  0  0  0  0
 12 15  1  0  0  0  0
 12 22  1  0  0  0  0
 12 23  1  0  0  0  0
 13 24  1  0  0  0  0
 13 25  1  0  0  0  0
 13 26  1  0  0  0  0
 14 27  1  0  0  0  0
 14 28  1  0  0  0  0
 15 17  1  0  0  0  0
 15 29  1  0  0  0  0
 15 30  1  0  0  0  0
 16 18  1  0  0  0  0
 17 32  1  0  0  0  0
 17 33  1  0  0  0  0
 17 34  1  0  0  0  0
M  END
> <PUBCHEM_COMPOUND_CID>
520051
> <PUBCHEM_COMPOUND_CANONICALIZED>
1
> <PUBCHEM_CACTVS_COMPLEXITY>
293
> <PUBCHEM_CACTVS_HBOND_ACCEPTOR>
7
> <PUBCHEM_CACTVS_HBOND_DONOR>
2
> <PUBCHEM_CACTVS_ROTATABLE_BOND>
7
> <PUBCHEM_CACTVS_SUBSKEYS>
AAADceByOYAAAAAAAAAAAAAAAAAAAAAAAAAAAAAAAAAAAAAAAAAAHwAQCAAACDzhgBYCCALABgAIAAGQGAAAAAAAAAAAAIGIAAACEBQAACAHQAAFNgCQAAAAAAAAAAAAAAAAAAAAAAAAAAAAAAAAAAAAAA==
> <PUBCHEM_IUPAC_OPENEYE_NAME>
butyl 3-hydroxy-2-[(2,2,2-trifluoroacetyl)amino]butanoate
> <PUBCHEM_IUPAC_CAS_NAME>
3-hydroxy-2-[(2,2,2-trifluoro-1-oxoethyl)amino]butanoic acid butyl ester
> <PUBCHEM_IUPAC_NAME_MARKUP>
butyl 3-hydroxy-2-[(2,2,2-trifluoroacetyl)amino]butanoate
> <PUBCHEM_IUPAC_NAME>
butyl 3-hydroxy-2-[(2,2,2-trifluoroacetyl)amino]butanoate
> <PUBCHEM_IUPAC_SYSTEMATIC_NAME>
butyl 3-oxidanyl-2-[2,2,2-tris(fluoranyl)ethanoylamino]butanoate
> <PUBCHEM_IUPAC_TRADITIONAL_NAME>
3-hydroxy-2-[(2,2,2-trifluoroacetyl)amino]butyric acid butyl ester
> <PUBCHEM_IUPAC_INCHI>
InChI=1S/C10H16F3NO4/c1-3-4-5-18-8(16)7(6(2)15)14-9(17)10(11,12)13/h6-7,15H,3-5H2,1-2H3,(H,14,17)
> <PUBCHEM_IUPAC_INCHIKEY>
FKTFFGPAZUBWBK-UHFFFAOYSA-N
> <PUBCHEM_XLOGP3_AA>
1.6
> <PUBCHEM_EXACT_MASS>
271.10314248
> <PUBCHEM_MOLECULAR_FORMULA>
C10H16F3NO4
> <PUBCHEM_MOLECULAR_WEIGHT>
271.23
> <PUBCHEM_OPENEYE_CAN_SMILES>
CCCCOC(=O)C(C(C)O)NC(=O)C(F)(F)F
> <PUBCHEM_OPENEYE_ISO_SMILES>
CCCCOC(=O)C(C(C)O)NC(=O)C(F)(F)F
> <PUBCHEM_CACTVS_TPSA>
75.6
> <PUBCHEM_MONOISOTOPIC_WEIGHT>
271.10314248
> <PUBCHEM_TOTAL_CHARGE>
0
> <PUBCHEM_HEAVY_ATOM_COUNT>
18
> <PUBCHEM_ATOM_DEF_STEREO_COUNT>
0
> <PUBCHEM_ATOM_UDEF_STEREO_COUNT>
2
> <PUBCHEM_BOND_DEF_STEREO_COUNT>
0
> <PUBCHEM_BOND_UDEF_STEREO_COUNT>
0
> <PUBCHEM_ISOTOPIC_ATOM_COUNT>
0
> <PUBCHEM_COMPONENT_COUNT>
1
> <PUBCHEM_CACTVS_TAUTO_COUNT>
-1
> <PUBCHEM_COORDINATE_TYPE>
1
5
255
> <PUBCHEM_BONDANNOTATIONS>
10  5  3
9  11  3
$$$$
