520046
  -OEChem-10302200292D
 40 41  0     1  0  0  0  0  0999 V2000
    4.6777    0.7567    0.0000 O   0  0  0  0  0  0  0  0  0  0  0  0
    3.3268   -0.7830    0.0000 O   0  0  0  0  0  0  0  0  0  0  0  0
    2.9719    1.0575    0.0000 O   0  0  0  0  0  0  0  0  0  0  0  0
    3.6276   -2.4887    0.0000 O   0  0  0  0  0  0  0  0  0  0  0  0
    5.1777   -0.1094    0.0000 C   0  0  3  0  0  0  0  0  0  0  0  0
    4.3116   -0.6094    0.0000 C   0  0  3  0  0  0  0  0  0  0  0  0
    6.0437   -0.6094    0.0000 C   0  0  0  0  0  0  0  0  0  0  0  0
    4.3116   -1.6094    0.0000 C   0  0  0  0  0  0  0  0  0  0  0  0
    6.0437   -1.6094    0.0000 C   0  0  0  0  0  0  0  0  0  0  0  0
    5.1777   -2.1094    0.0000 C   0  0  0  0  0  0  0  0  0  0  0  0
    5.6777    0.7567    0.0000 C   0  0  0  0  0  0  0  0  0  0  0  0
    5.1777    1.6227    0.0000 C   0  0  0  0  0  0  0  0  0  0  0  0
    6.6777    0.7567    0.0000 C   0  0  0  0  0  0  0  0  0  0  0  0
    3.9117    1.3995    0.0000 C   0  0  0  0  0  0  0  0  0  0  0  0
    2.9847   -1.7226    0.0000 C   0  0  0  0  0  0  0  0  0  0  0  0
    5.6777    2.4887    0.0000 C   0  0  0  0  0  0  0  0  0  0  0  0
    7.1777    1.6227    0.0000 C   0  0  0  0  0  0  0  0  0  0  0  0
    6.6777    2.4887    0.0000 C   0  0  0  0  0  0  0  0  0  0  0  0
    4.0853    2.3843    0.0000 C   0  0  0  0  0  0  0  0  0  0  0  0
    2.0000   -1.8963    0.0000 C   0  0  0  0  0  0  0  0  0  0  0  0
    4.0996   -0.0267    0.0000 H   0  0  0  0  0  0  0  0  0  0  0  0
    6.6543   -0.7170    0.0000 H   0  0  0  0  0  0  0  0  0  0  0  0
    6.2557   -0.0267    0.0000 H   0  0  0  0  0  0  0  0  0  0  0  0
    3.7010   -1.5017    0.0000 H   0  0  0  0  0  0  0  0  0  0  0  0
    4.0996   -2.1920    0.0000 H   0  0  0  0  0  0  0  0  0  0  0  0
    6.2557   -2.1920    0.0000 H   0  0  0  0  0  0  0  0  0  0  0  0
    6.6543   -1.5017    0.0000 H   0  0  0  0  0  0  0  0  0  0  0  0
    4.7791   -2.5843    0.0000 H   0  0  0  0  0  0  0  0  0  0  0  0
    5.5762   -2.5843    0.0000 H   0  0  0  0  0  0  0  0  0  0  0  0
    4.5577    1.6227    0.0000 H   0  0  0  0  0  0  0  0  0  0  0  0
    6.9877    0.2197    0.0000 H   0  0  0  0  0  0  0  0  0  0  0  0
    5.3677    3.0257    0.0000 H   0  0  0  0  0  0  0  0  0  0  0  0
    7.7977    1.6227    0.0000 H   0  0  0  0  0  0  0  0  0  0  0  0
    6.9877    3.0257    0.0000 H   0  0  0  0  0  0  0  0  0  0  0  0
    4.6958    2.2766    0.0000 H   0  0  0  0  0  0  0  0  0  0  0  0
    4.1929    2.9949    0.0000 H   0  0  0  0  0  0  0  0  0  0  0  0
    3.4747    2.4919    0.0000 H   0  0  0  0  0  0  0  0  0  0  0  0
    1.8923   -1.2858    0.0000 H   0  0  0  0  0  0  0  0  0  0  0  0
    1.3894   -2.0041    0.0000 H   0  0  0  0  0  0  0  0  0  0  0  0
    2.1077   -2.5069    0.0000 H   0  0  0  0  0  0  0  0  0  0  0  0
  1  5  1  0  0  0  0
  1 14  1  0  0  0  0
  2  6  1  0  0  0  0
  2 15  1  0  0  0  0
  3 14  2  0  0  0  0
  4 15  2  0  0  0  0
  5  6  1  0  0  0  0
  5  7  1  0  0  0  0
  5 11  1  0  0  0  0
  6  8  1  0  0  0  0
  6 21  1  0  0  0  0
  7  9  1  0  0  0  0
  7 22  1  0  0  0  0
  7 23  1  0  0  0  0
  8 10  1  0  0  0  0
  8 24  1  0  0  0  0
  8 25  1  0  0  0  0
  9 10  1  0  0  0  0
  9 26  1  0  0  0  0
  9 27  1  0  0  0  0
 10 28  1  0  0  0  0
 10 29  1  0  0  0  0
 11 12  2  0  0  0  0
 11 13  1  0  0  0  0
 12 16  1  0  0  0  0
 12 30  1  0  0  0  0
 13 17  2  0  0  0  0
 13 31  1  0  0  0  0
 14 19  1  0  0  0  0
 15 20  1  0  0  0  0
 16 18  2  0  0  0  0
 16 32  1  0  0  0  0
 17 18  1  0  0  0  0
 17 33  1  0  0  0  0
 18 34  1  0  0  0  0
 19 35  1  0  0  0  0
 19 36  1  0  0  0  0
 19 37  1  0  0  0  0
 20 38  1  0  0  0  0
 20 39  1  0  0  0  0
 20 40  1  0  0  0  0
M  END
> <PUBCHEM_COMPOUND_CID>
520046
> <PUBCHEM_COMPOUND_CANONICALIZED>
1
> <PUBCHEM_CACTVS_COMPLEXITY>
360
> <PUBCHEM_CACTVS_HBOND_ACCEPTOR>
4
> <PUBCHEM_CACTVS_HBOND_DONOR>
0
> <PUBCHEM_CACTVS_ROTATABLE_BOND>
5
> <PUBCHEM_CACTVS_SUBSKEYS>
AAADceB4OAAAAAAAAAAAAAAAAAAAAAAAAAAwYAAAAAAAAAABAAAAGgAAAAAADFSgmAIyCIAABACIAiDSCAACAAAgAAAIiAAACIgJJiKAMRiCMAAkwAEKqAeAwOAOgAAAAAAAAAAAAAAAABCAAAAAAAAAAA==
> <PUBCHEM_IUPAC_OPENEYE_NAME>
(2-acetoxy-2-phenyl-cyclohexyl) acetate
> <PUBCHEM_IUPAC_CAS_NAME>
acetic acid (2-acetyloxy-2-phenylcyclohexyl) ester
> <PUBCHEM_IUPAC_NAME_MARKUP>
(2-acetyloxy-2-phenylcyclohexyl) acetate
> <PUBCHEM_IUPAC_NAME>
(2-acetyloxy-2-phenylcyclohexyl) acetate
> <PUBCHEM_IUPAC_SYSTEMATIC_NAME>
(2-acetyloxy-2-phenyl-cyclohexyl) ethanoate
> <PUBCHEM_IUPAC_TRADITIONAL_NAME>
acetic acid (2-acetoxy-2-phenyl-cyclohexyl) ester
> <PUBCHEM_IUPAC_INCHI>
InChI=1S/C16H20O4/c1-12(17)19-15-10-6-7-11-16(15,20-13(2)18)14-8-4-3-5-9-14/h3-5,8-9,15H,6-7,10-11H2,1-2H3
> <PUBCHEM_IUPAC_INCHIKEY>
SCUWPBGPZZKNHQ-UHFFFAOYSA-N
> <PUBCHEM_XLOGP3_AA>
2.6
> <PUBCHEM_EXACT_MASS>
276.13615911
> <PUBCHEM_MOLECULAR_FORMULA>
C16H20O4
> <PUBCHEM_MOLECULAR_WEIGHT>
276.33
> <PUBCHEM_OPENEYE_CAN_SMILES>
CC(=O)OC1CCCCC1(C2=CC=CC=C2)OC(=O)C
> <PUBCHEM_OPENEYE_ISO_SMILES>
CC(=O)OC1CCCCC1(C2=CC=CC=C2)OC(=O)C
> <PUBCHEM_CACTVS_TPSA>
52.6
> <PUBCHEM_MONOISOTOPIC_WEIGHT>
276.13615911
> <PUBCHEM_TOTAL_CHARGE>
0
> <PUBCHEM_HEAVY_ATOM_COUNT>
20
> <PUBCHEM_ATOM_DEF_STEREO_COUNT>
0
> <PUBCHEM_ATOM_UDEF_STEREO_COUNT>
2
> <PUBCHEM_BOND_DEF_STEREO_COUNT>
0
> <PUBCHEM_BOND_UDEF_STEREO_COUNT>
0
> <PUBCHEM_ISOTOPIC_ATOM_COUNT>
0
> <PUBCHEM_COMPONENT_COUNT>
1
> <PUBCHEM_CACTVS_TAUTO_COUNT>
-1
> <PUBCHEM_COORDINATE_TYPE>
1
5
255
> <PUBCHEM_BONDANNOTATIONS>
5  1  3
11  12  8
11  13  8
12  16  8
13  17  8
16  18  8
17  18  8
6  2  3
$$$$
