520065
  -OEChem-10302200292D
 36 36  0     1  0  0  0  0  0999 V2000
    3.3741   -0.6799    0.0000 C   0  0  3  0  0  0  0  0  0  0  0  0
    4.3741   -0.6799    0.0000 C   0  0  3  0  0  0  0  0  0  0  0  0
    2.6670    0.0272    0.0000 C   0  0  0  0  0  0  0  0  0  0  0  0
    5.0812    0.0272    0.0000 C   0  0  0  0  0  0  0  0  0  0  0  0
    2.6670    1.0272    0.0000 C   0  0  0  0  0  0  0  0  0  0  0  0
    5.0812    1.0272    0.0000 C   0  0  0  0  0  0  0  0  0  0  0  0
    2.9914   -1.6038    0.0000 C   0  0  0  0  0  0  0  0  0  0  0  0
    4.7568   -1.6038    0.0000 C   0  0  0  0  0  0  0  0  0  0  0  0
    3.3741    1.7343    0.0000 C   0  0  0  0  0  0  0  0  0  0  0  0
    4.3741    1.7343    0.0000 C   0  0  0  0  0  0  0  0  0  0  0  0
    2.0000   -1.7343    0.0000 C   0  0  0  0  0  0  0  0  0  0  0  0
    5.7483   -1.7343    0.0000 C   0  0  0  0  0  0  0  0  0  0  0  0
    3.7186   -1.1954    0.0000 H   0  0  0  0  0  0  0  0  0  0  0  0
    4.9822   -0.8009    0.0000 H   0  0  0  0  0  0  0  0  0  0  0  0
    2.0682    0.1877    0.0000 H   0  0  0  0  0  0  0  0  0  0  0  0
    2.3570   -0.5097    0.0000 H   0  0  0  0  0  0  0  0  0  0  0  0
    5.3912   -0.5097    0.0000 H   0  0  0  0  0  0  0  0  0  0  0  0
    5.6801    0.1877    0.0000 H   0  0  0  0  0  0  0  0  0  0  0  0
    2.3570    1.5641    0.0000 H   0  0  0  0  0  0  0  0  0  0  0  0
    2.0682    0.8667    0.0000 H   0  0  0  0  0  0  0  0  0  0  0  0
    5.6801    0.8667    0.0000 H   0  0  0  0  0  0  0  0  0  0  0  0
    5.3912    1.5641    0.0000 H   0  0  0  0  0  0  0  0  0  0  0  0
    2.9644   -2.2232    0.0000 H   0  0  0  0  0  0  0  0  0  0  0  0
    3.5968   -1.7380    0.0000 H   0  0  0  0  0  0  0  0  0  0  0  0
    4.1515   -1.7380    0.0000 H   0  0  0  0  0  0  0  0  0  0  0  0
    4.7839   -2.2232    0.0000 H   0  0  0  0  0  0  0  0  0  0  0  0
    3.5346    2.3332    0.0000 H   0  0  0  0  0  0  0  0  0  0  0  0
    2.8372    2.0443    0.0000 H   0  0  0  0  0  0  0  0  0  0  0  0
    4.9111    2.0443    0.0000 H   0  0  0  0  0  0  0  0  0  0  0  0
    4.2137    2.3332    0.0000 H   0  0  0  0  0  0  0  0  0  0  0  0
    1.9191   -1.1196    0.0000 H   0  0  0  0  0  0  0  0  0  0  0  0
    1.3853   -1.8152    0.0000 H   0  0  0  0  0  0  0  0  0  0  0  0
    2.0809   -2.3490    0.0000 H   0  0  0  0  0  0  0  0  0  0  0  0
    5.6673   -2.3490    0.0000 H   0  0  0  0  0  0  0  0  0  0  0  0
    6.3630   -1.8152    0.0000 H   0  0  0  0  0  0  0  0  0  0  0  0
    5.8292   -1.1196    0.0000 H   0  0  0  0  0  0  0  0  0  0  0  0
  1  2  1  0  0  0  0
  1  3  1  0  0  0  0
  1  7  1  0  0  0  0
  1 13  1  0  0  0  0
  2  4  1  0  0  0  0
  2  8  1  0  0  0  0
  2 14  1  0  0  0  0
  3  5  1  0  0  0  0
  3 15  1  0  0  0  0
  3 16  1  0  0  0  0
  4  6  1  0  0  0  0
  4 17  1  0  0  0  0
  4 18  1  0  0  0  0
  5  9  1  0  0  0  0
  5 19  1  0  0  0  0
  5 20  1  0  0  0  0
  6 10  1  0  0  0  0
  6 21  1  0  0  0  0
  6 22  1  0  0  0  0
  7 11  1  0  0  0  0
  7 23  1  0  0  0  0
  7 24  1  0  0  0  0
  8 12  1  0  0  0  0
  8 25  1  0  0  0  0
  8 26  1  0  0  0  0
  9 10  1  0  0  0  0
  9 27  1  0  0  0  0
  9 28  1  0  0  0  0
 10 29  1  0  0  0  0
 10 30  1  0  0  0  0
 11 31  1  0  0  0  0
 11 32  1  0  0  0  0
 11 33  1  0  0  0  0
 12 34  1  0  0  0  0
 12 35  1  0  0  0  0
 12 36  1  0  0  0  0
M  END
> <PUBCHEM_COMPOUND_CID>
520065
> <PUBCHEM_COMPOUND_CANONICALIZED>
1
> <PUBCHEM_CACTVS_COMPLEXITY>
92.6
> <PUBCHEM_CACTVS_HBOND_ACCEPTOR>
0
> <PUBCHEM_CACTVS_HBOND_DONOR>
0
> <PUBCHEM_CACTVS_ROTATABLE_BOND>
2
> <PUBCHEM_CACTVS_SUBSKEYS>
AAADceBwAAAAAAAAAAAAAAAAAAAAAAAAAAAAAAAAAAAYAAAAAAAAGAAAAAAADQCAAAACAAAAAAAAAAAAAAAAAAAAAAAAAAAAAAAAAAIAAAAAAAAAAAAAAAEAgMAOgAAAAAAAAAAAAAAAAAAAAAAAAAAAAA==
> <PUBCHEM_IUPAC_OPENEYE_NAME>
1,2-diethylcyclooctane
> <PUBCHEM_IUPAC_CAS_NAME>
1,2-diethylcyclooctane
> <PUBCHEM_IUPAC_NAME_MARKUP>
1,2-diethylcyclooctane
> <PUBCHEM_IUPAC_NAME>
1,2-diethylcyclooctane
> <PUBCHEM_IUPAC_SYSTEMATIC_NAME>
1,2-diethylcyclooctane
> <PUBCHEM_IUPAC_TRADITIONAL_NAME>
1,2-diethylcyclooctane
> <PUBCHEM_IUPAC_INCHI>
InChI=1S/C12H24/c1-3-11-9-7-5-6-8-10-12(11)4-2/h11-12H,3-10H2,1-2H3
> <PUBCHEM_IUPAC_INCHIKEY>
XDADRYBKGCGTEX-UHFFFAOYSA-N
> <PUBCHEM_XLOGP3_AA>
5.9
> <PUBCHEM_EXACT_MASS>
168.187800766
> <PUBCHEM_MOLECULAR_FORMULA>
C12H24
> <PUBCHEM_MOLECULAR_WEIGHT>
168.32
> <PUBCHEM_OPENEYE_CAN_SMILES>
CCC1CCCCCCC1CC
> <PUBCHEM_OPENEYE_ISO_SMILES>
CCC1CCCCCCC1CC
> <PUBCHEM_CACTVS_TPSA>
0
> <PUBCHEM_MONOISOTOPIC_WEIGHT>
168.187800766
> <PUBCHEM_TOTAL_CHARGE>
0
> <PUBCHEM_HEAVY_ATOM_COUNT>
12
> <PUBCHEM_ATOM_DEF_STEREO_COUNT>
0
> <PUBCHEM_ATOM_UDEF_STEREO_COUNT>
2
> <PUBCHEM_BOND_DEF_STEREO_COUNT>
0
> <PUBCHEM_BOND_UDEF_STEREO_COUNT>
0
> <PUBCHEM_ISOTOPIC_ATOM_COUNT>
0
> <PUBCHEM_COMPONENT_COUNT>
1
> <PUBCHEM_CACTVS_TAUTO_COUNT>
-1
> <PUBCHEM_COORDINATE_TYPE>
1
5
255
> <PUBCHEM_BONDANNOTATIONS>
1  7  3
2  8  3
$$$$
