520107
  -OEChem-10302200292D
 53 57  0     1  0  0  0  0  0999 V2000
    2.4105    1.7697    0.0000 O   0  0  0  0  0  0  0  0  0  0  0  0
    7.6101   -2.2416    0.0000 O   0  0  0  0  0  0  0  0  0  0  0  0
    9.0114   -1.4326    0.0000 O   0  0  0  0  0  0  0  0  0  0  0  0
    5.9529    1.2468    0.0000 C   0  0  3  0  0  0  0  0  0  0  0  0
    5.0590    1.7815    0.0000 C   0  0  3  0  0  0  0  0  0  0  0  0
    5.9529    0.2468    0.0000 C   0  0  3  0  0  0  0  0  0  0  0  0
    4.1529    1.2677    0.0000 C   0  0  3  0  0  0  0  0  0  0  0  0
    6.8189   -0.2532    0.0000 C   0  0  3  0  0  0  0  0  0  0  0  0
    5.0590   -0.2878    0.0000 C   0  0  0  0  0  0  0  0  0  0  0  0
    4.1529    0.2260    0.0000 C   0  0  0  0  0  0  0  0  0  0  0  0
    3.3906    1.9684    0.0000 C   0  0  3  0  0  0  0  0  0  0  0  0
    4.8488    2.7954    0.0000 C   0  0  0  0  0  0  0  0  0  0  0  0
    6.8189    1.7468    0.0000 C   0  0  0  0  0  0  0  0  0  0  0  0
    7.6849    0.2468    0.0000 C   0  0  0  0  0  0  0  0  0  0  0  0
    7.0281   -1.2250    0.0000 C   0  0  0  0  0  0  0  0  0  0  0  0
    3.8198    2.9107    0.0000 C   0  0  0  0  0  0  0  0  0  0  0  0
    7.6849    1.2468    0.0000 C   0  0  0  0  0  0  0  0  0  0  0  0
    3.2830    0.7743    0.0000 C   0  0  0  0  0  0  0  0  0  0  0  0
    8.0168   -1.3280    0.0000 C   0  0  0  0  0  0  0  0  0  0  0  0
    5.9529   -0.7532    0.0000 C   0  0  0  0  0  0  0  0  0  0  0  0
    8.4220   -0.4202    0.0000 C   0  0  0  0  0  0  0  0  0  0  0  0
    8.3532   -2.9107    0.0000 C   0  0  0  0  0  0  0  0  0  0  0  0
    9.2193   -2.4107    0.0000 C   0  0  0  0  0  0  0  0  0  0  0  0
    5.9577    1.8668    0.0000 H   0  0  0  0  0  0  0  0  0  0  0  0
    5.5642    2.1408    0.0000 H   0  0  0  0  0  0  0  0  0  0  0  0
    6.4898    0.5568    0.0000 H   0  0  0  0  0  0  0  0  0  0  0  0
    4.6653   -0.7668    0.0000 H   0  0  0  0  0  0  0  0  0  0  0  0
    5.4635   -0.7576    0.0000 H   0  0  0  0  0  0  0  0  0  0  0  0
    3.5420    0.3321    0.0000 H   0  0  0  0  0  0  0  0  0  0  0  0
    3.9438   -0.3577    0.0000 H   0  0  0  0  0  0  0  0  0  0  0  0
    3.0047    2.4537    0.0000 H   0  0  0  0  0  0  0  0  0  0  0  0
    5.4658    2.8567    0.0000 H   0  0  0  0  0  0  0  0  0  0  0  0
    4.8527    3.4154    0.0000 H   0  0  0  0  0  0  0  0  0  0  0  0
    7.2174    2.2218    0.0000 H   0  0  0  0  0  0  0  0  0  0  0  0
    6.4204    2.2218    0.0000 H   0  0  0  0  0  0  0  0  0  0  0  0
    6.4116   -1.2910    0.0000 H   0  0  0  0  0  0  0  0  0  0  0  0
    7.0290   -1.8450    0.0000 H   0  0  0  0  0  0  0  0  0  0  0  0
    3.9532    3.5162    0.0000 H   0  0  0  0  0  0  0  0  0  0  0  0
    3.2317    3.1070    0.0000 H   0  0  0  0  0  0  0  0  0  0  0  0
    8.2955    1.1392    0.0000 H   0  0  0  0  0  0  0  0  0  0  0  0
    7.8970    1.8294    0.0000 H   0  0  0  0  0  0  0  0  0  0  0  0
    2.9772    1.3137    0.0000 H   0  0  0  0  0  0  0  0  0  0  0  0
    2.7437    0.4685    0.0000 H   0  0  0  0  0  0  0  0  0  0  0  0
    3.5889    0.2350    0.0000 H   0  0  0  0  0  0  0  0  0  0  0  0
    5.6429   -0.2162    0.0000 H   0  0  0  0  0  0  0  0  0  0  0  0
    5.4159   -1.0632    0.0000 H   0  0  0  0  0  0  0  0  0  0  0  0
    6.2629   -1.2901    0.0000 H   0  0  0  0  0  0  0  0  0  0  0  0
    9.0286   -0.2924    0.0000 H   0  0  0  0  0  0  0  0  0  0  0  0
    2.0000    2.2344    0.0000 H   0  0  0  0  0  0  0  0  0  0  0  0
    7.8925   -3.3256    0.0000 H   0  0  0  0  0  0  0  0  0  0  0  0
    8.7177   -3.4123    0.0000 H   0  0  0  0  0  0  0  0  0  0  0  0
    9.4715   -2.9771    0.0000 H   0  0  0  0  0  0  0  0  0  0  0  0
    9.8089   -2.2191    0.0000 H   0  0  0  0  0  0  0  0  0  0  0  0
  1 11  1  0  0  0  0
  1 49  1  0  0  0  0
  2 19  1  0  0  0  0
  2 22  1  0  0  0  0
  3 19  1  0  0  0  0
  3 23  1  0  0  0  0
  4  5  1  0  0  0  0
  4  6  1  0  0  0  0
  4 13  1  0  0  0  0
  4 24  1  0  0  0  0
  5  7  1  0  0  0  0
  5 12  1  0  0  0  0
  5 25  1  0  0  0  0
  6  8  1  0  0  0  0
  6  9  1  0  0  0  0
  6 26  1  0  0  0  0
  7 10  1  0  0  0  0
  7 11  1  0  0  0  0
  7 18  1  0  0  0  0
  8 14  1  0  0  0  0
  8 15  1  0  0  0  0
  8 20  1  0  0  0  0
  9 10  1  0  0  0  0
  9 27  1  0  0  0  0
  9 28  1  0  0  0  0
 10 29  1  0  0  0  0
 10 30  1  0  0  0  0
 11 16  1  0  0  0  0
 11 31  1  0  0  0  0
 12 16  1  0  0  0  0
 12 32  1  0  0  0  0
 12 33  1  0  0  0  0
 13 17  1  0  0  0  0
 13 34  1  0  0  0  0
 13 35  1  0  0  0  0
 14 17  1  0  0  0  0
 14 21  2  0  0  0  0
 15 19  1  0  0  0  0
 15 36  1  0  0  0  0
 15 37  1  0  0  0  0
 16 38  1  0  0  0  0
 16 39  1  0  0  0  0
 17 40  1  0  0  0  0
 17 41  1  0  0  0  0
 18 42  1  0  0  0  0
 18 43  1  0  0  0  0
 18 44  1  0  0  0  0
 19 21  1  0  0  0  0
 20 45  1  0  0  0  0
 20 46  1  0  0  0  0
 20 47  1  0  0  0  0
 21 48  1  0  0  0  0
 22 23  1  0  0  0  0
 22 50  1  0  0  0  0
 22 51  1  0  0  0  0
 23 52  1  0  0  0  0
 23 53  1  0  0  0  0
M  END
> <PUBCHEM_COMPOUND_CID>
520107
> <PUBCHEM_COMPOUND_CANONICALIZED>
1
> <PUBCHEM_CACTVS_COMPLEXITY>
549
> <PUBCHEM_CACTVS_HBOND_ACCEPTOR>
3
> <PUBCHEM_CACTVS_HBOND_DONOR>
1
> <PUBCHEM_CACTVS_ROTATABLE_BOND>
0
> <PUBCHEM_CACTVS_SUBSKEYS>
AAADceB4MAAAAAAAAAAAAAAAAAAAAaIEAAAwYAAAAAAAAGDAAAAAGgAACAAADxSggAICCAAABgCAAiBCAAAAAAAgAAAACAAAAAgRFAIAIQAiUAAEgAAOIAOAwPAPgAAAAAAAAACAAAQAACAAAIAADAAAAA==
> <PUBCHEM_IUPAC_OPENEYE_NAME>
3'a,5'a-dimethylspiro[1,3-dioxolane-2,2'-3b,4,5,6,7,8,8a,8b,9,10-decahydro-3H-indeno[5,4-e]indene]-6'-ol
> <PUBCHEM_IUPAC_CAS_NAME>
3'a,5'a-dimethyl-6'-spiro[1,3-dioxolane-2,2'-3b,4,5,6,7,8,8a,8b,9,10-decahydro-3H-indeno[5,4-e]indene]ol
> <PUBCHEM_IUPAC_NAME_MARKUP>
3&apos;<I>a</I>,5&apos;<I>a</I>-dimethylspiro[1,3-dioxolane-2,2&apos;-3<I>b</I>,4,5,6,7,8,8<I>a</I>,8<I>b</I>,9,10-decahydro-3<I>H</I>-indeno[5,4-e]indene]-6&apos;-ol
> <PUBCHEM_IUPAC_NAME>
3'a,5'a-dimethylspiro[1,3-dioxolane-2,2'-3b,4,5,6,7,8,8a,8b,9,10-decahydro-3H-indeno[5,4-e]indene]-6'-ol
> <PUBCHEM_IUPAC_SYSTEMATIC_NAME>
3'a,5'a-dimethylspiro[1,3-dioxolane-2,2'-3b,4,5,6,7,8,8a,8b,9,10-decahydro-3H-indeno[5,4-e]indene]-6'-ol
> <PUBCHEM_IUPAC_TRADITIONAL_NAME>
3'a,5'a-dimethylspiro[1,3-dioxolane-2,2'-3b,4,5,6,7,8,8a,8b,9,10-decahydro-3H-inden[5,4-e]indene]-6'-ol
> <PUBCHEM_IUPAC_INCHI>
InChI=1S/C20H30O3/c1-18-8-7-16-14(15(18)5-6-17(18)21)4-3-13-11-20(12-19(13,16)2)22-9-10-23-20/h11,14-17,21H,3-10,12H2,1-2H3
> <PUBCHEM_IUPAC_INCHIKEY>
WGOIRXCGJHBAPL-UHFFFAOYSA-N
> <PUBCHEM_XLOGP3>
3.1
> <PUBCHEM_EXACT_MASS>
318.21949481
> <PUBCHEM_MOLECULAR_FORMULA>
C20H30O3
> <PUBCHEM_MOLECULAR_WEIGHT>
318.4
> <PUBCHEM_OPENEYE_CAN_SMILES>
CC12CCC3C(C1CCC2O)CCC4=CC5(CC34C)OCCO5
> <PUBCHEM_OPENEYE_ISO_SMILES>
CC12CCC3C(C1CCC2O)CCC4=CC5(CC34C)OCCO5
> <PUBCHEM_CACTVS_TPSA>
38.7
> <PUBCHEM_MONOISOTOPIC_WEIGHT>
318.21949481
> <PUBCHEM_TOTAL_CHARGE>
0
> <PUBCHEM_HEAVY_ATOM_COUNT>
23
> <PUBCHEM_ATOM_DEF_STEREO_COUNT>
0
> <PUBCHEM_ATOM_UDEF_STEREO_COUNT>
6
> <PUBCHEM_BOND_DEF_STEREO_COUNT>
0
> <PUBCHEM_BOND_UDEF_STEREO_COUNT>
0
> <PUBCHEM_ISOTOPIC_ATOM_COUNT>
0
> <PUBCHEM_COMPONENT_COUNT>
1
> <PUBCHEM_CACTVS_TAUTO_COUNT>
-1
> <PUBCHEM_COORDINATE_TYPE>
1
5
255
> <PUBCHEM_BONDANNOTATIONS>
11  1  3
4  13  3
5  12  3
6  9  3
7  18  3
8  20  3
$$$$
