520102
  -OEChem-10302200292D
 25 25  0     1  0  0  0  0  0999 V2000
    3.8660   -0.8450    0.0000 O   0  0  0  0  0  0  0  0  0  0  0  0
    2.8660    0.1550    0.0000 C   0  0  0  0  0  0  0  0  0  0  0  0
    2.0000   -0.3450    0.0000 C   0  0  0  0  0  0  0  0  0  0  0  0
    2.0000    0.6550    0.0000 C   0  0  0  0  0  0  0  0  0  0  0  0
    3.8660    0.1550    0.0000 C   0  0  3  0  0  0  0  0  0  0  0  0
    4.8660    0.1550    0.0000 C   0  0  0  0  0  0  0  0  0  0  0  0
    3.8660    1.1550    0.0000 C   0  0  0  0  0  0  0  0  0  0  0  0
    5.3660   -0.7110    0.0000 C   0  0  0  0  0  0  0  0  0  0  0  0
    6.3660   -0.7110    0.0000 C   0  0  0  0  0  0  0  0  0  0  0  0
    3.0265    0.7539    0.0000 H   0  0  0  0  0  0  0  0  0  0  0  0
    1.3894   -0.4527    0.0000 H   0  0  0  0  0  0  0  0  0  0  0  0
    2.2120   -0.9276    0.0000 H   0  0  0  0  0  0  0  0  0  0  0  0
    2.2120    1.2376    0.0000 H   0  0  0  0  0  0  0  0  0  0  0  0
    1.3894    0.7627    0.0000 H   0  0  0  0  0  0  0  0  0  0  0  0
    5.4486    0.3671    0.0000 H   0  0  0  0  0  0  0  0  0  0  0  0
    4.7584    0.7656    0.0000 H   0  0  0  0  0  0  0  0  0  0  0  0
    4.4860    1.1550    0.0000 H   0  0  0  0  0  0  0  0  0  0  0  0
    3.8660    1.7750    0.0000 H   0  0  0  0  0  0  0  0  0  0  0  0
    3.2460    1.1550    0.0000 H   0  0  0  0  0  0  0  0  0  0  0  0
    4.7834   -0.9231    0.0000 H   0  0  0  0  0  0  0  0  0  0  0  0
    5.4737   -1.3216    0.0000 H   0  0  0  0  0  0  0  0  0  0  0  0
    3.3291   -1.1550    0.0000 H   0  0  0  0  0  0  0  0  0  0  0  0
    6.3660   -1.3310    0.0000 H   0  0  0  0  0  0  0  0  0  0  0  0
    6.9860   -0.7110    0.0000 H   0  0  0  0  0  0  0  0  0  0  0  0
    6.3660   -0.0910    0.0000 H   0  0  0  0  0  0  0  0  0  0  0  0
  1  5  1  0  0  0  0
  1 22  1  0  0  0  0
  2  3  1  0  0  0  0
  2  4  1  0  0  0  0
  2  5  1  0  0  0  0
  2 10  1  0  0  0  0
  3  4  1  0  0  0  0
  3 11  1  0  0  0  0
  3 12  1  0  0  0  0
  4 13  1  0  0  0  0
  4 14  1  0  0  0  0
  5  6  1  0  0  0  0
  5  7  1  0  0  0  0
  6  8  1  0  0  0  0
  6 15  1  0  0  0  0
  6 16  1  0  0  0  0
  7 17  1  0  0  0  0
  7 18  1  0  0  0  0
  7 19  1  0  0  0  0
  8  9  1  0  0  0  0
  8 20  1  0  0  0  0
  8 21  1  0  0  0  0
  9 23  1  0  0  0  0
  9 24  1  0  0  0  0
  9 25  1  0  0  0  0
M  END
> <PUBCHEM_COMPOUND_CID>
520102
> <PUBCHEM_COMPOUND_CANONICALIZED>
1
> <PUBCHEM_CACTVS_COMPLEXITY>
96.7
> <PUBCHEM_CACTVS_HBOND_ACCEPTOR>
1
> <PUBCHEM_CACTVS_HBOND_DONOR>
1
> <PUBCHEM_CACTVS_ROTATABLE_BOND>
3
> <PUBCHEM_CACTVS_SUBSKEYS>
AAADceBwIAAAAAAAAAAAAAAAGAAAAAAAAAAAAAAAAAAAAAAAAAAAGgAACAAADUSAgAACAAAAAgAAAAAAAAAAAAAAAAAAAAAAAAAAAAIAAAAAQAAEAAAAAAEAgAAOgAAAAAAAAAAAAAAAAAAAAAAAAAAAAA==
> <PUBCHEM_IUPAC_OPENEYE_NAME>
2-cyclopropylpentan-2-ol
> <PUBCHEM_IUPAC_CAS_NAME>
2-cyclopropyl-2-pentanol
> <PUBCHEM_IUPAC_NAME_MARKUP>
2-cyclopropylpentan-2-ol
> <PUBCHEM_IUPAC_NAME>
2-cyclopropylpentan-2-ol
> <PUBCHEM_IUPAC_SYSTEMATIC_NAME>
2-cyclopropylpentan-2-ol
> <PUBCHEM_IUPAC_TRADITIONAL_NAME>
2-cyclopropylpentan-2-ol
> <PUBCHEM_IUPAC_INCHI>
InChI=1S/C8H16O/c1-3-6-8(2,9)7-4-5-7/h7,9H,3-6H2,1-2H3
> <PUBCHEM_IUPAC_INCHIKEY>
WEXFBWATVRHNFT-UHFFFAOYSA-N
> <PUBCHEM_XLOGP3_AA>
1.8
> <PUBCHEM_EXACT_MASS>
128.120115130
> <PUBCHEM_MOLECULAR_FORMULA>
C8H16O
> <PUBCHEM_MOLECULAR_WEIGHT>
128.21
> <PUBCHEM_OPENEYE_CAN_SMILES>
CCCC(C)(C1CC1)O
> <PUBCHEM_OPENEYE_ISO_SMILES>
CCCC(C)(C1CC1)O
> <PUBCHEM_CACTVS_TPSA>
20.2
> <PUBCHEM_MONOISOTOPIC_WEIGHT>
128.120115130
> <PUBCHEM_TOTAL_CHARGE>
0
> <PUBCHEM_HEAVY_ATOM_COUNT>
9
> <PUBCHEM_ATOM_DEF_STEREO_COUNT>
0
> <PUBCHEM_ATOM_UDEF_STEREO_COUNT>
1
> <PUBCHEM_BOND_DEF_STEREO_COUNT>
0
> <PUBCHEM_BOND_UDEF_STEREO_COUNT>
0
> <PUBCHEM_ISOTOPIC_ATOM_COUNT>
0
> <PUBCHEM_COMPONENT_COUNT>
1
> <PUBCHEM_CACTVS_TAUTO_COUNT>
1
> <PUBCHEM_COORDINATE_TYPE>
1
5
255
> <PUBCHEM_BONDANNOTATIONS>
5  1  3
$$$$
