520166
  -OEChem-10302200292D
 23 25  0     1  0  0  0  0  0999 V2000
    5.5321   -0.2671    0.0000 C   0  0  3  0  0  0  0  0  0  0  0  0
    4.6660   -0.7671    0.0000 C   0  0  3  0  0  0  0  0  0  0  0  0
    5.5323   -1.2676    0.0000 C   0  0  0  0  0  0  0  0  0  0  0  0
    5.5321    0.7329    0.0000 C   0  0  0  0  0  0  0  0  0  0  0  0
    3.8000   -0.2671    0.0000 C   0  0  0  0  0  0  0  0  0  0  0  0
    4.6660    1.2329    0.0000 C   0  0  0  0  0  0  0  0  0  0  0  0
    3.8000    0.7329    0.0000 C   0  0  0  0  0  0  0  0  0  0  0  0
    2.9061   -0.8018    0.0000 C   0  0  0  0  0  0  0  0  0  0  0  0
    2.9061    1.2676    0.0000 C   0  0  0  0  0  0  0  0  0  0  0  0
    2.0000   -0.2879    0.0000 C   0  0  0  0  0  0  0  0  0  0  0  0
    2.0000    0.7537    0.0000 C   0  0  0  0  0  0  0  0  0  0  0  0
    6.1521   -0.2670    0.0000 H   0  0  0  0  0  0  0  0  0  0  0  0
    4.3560   -1.3040    0.0000 H   0  0  0  0  0  0  0  0  0  0  0  0
    5.3202   -1.8501    0.0000 H   0  0  0  0  0  0  0  0  0  0  0  0
    6.1429   -1.3752    0.0000 H   0  0  0  0  0  0  0  0  0  0  0  0
    6.1426    0.6252    0.0000 H   0  0  0  0  0  0  0  0  0  0  0  0
    5.7441    1.3155    0.0000 H   0  0  0  0  0  0  0  0  0  0  0  0
    5.0646    1.7078    0.0000 H   0  0  0  0  0  0  0  0  0  0  0  0
    4.2675    1.7078    0.0000 H   0  0  0  0  0  0  0  0  0  0  0  0
    2.9132   -1.4217    0.0000 H   0  0  0  0  0  0  0  0  0  0  0  0
    2.9132    1.8875    0.0000 H   0  0  0  0  0  0  0  0  0  0  0  0
    1.4643   -0.6000    0.0000 H   0  0  0  0  0  0  0  0  0  0  0  0
    1.4643    1.0658    0.0000 H   0  0  0  0  0  0  0  0  0  0  0  0
  1  2  1  0  0  0  0
  1  3  1  0  0  0  0
  1  4  1  0  0  0  0
  1 12  1  0  0  0  0
  2  3  1  0  0  0  0
  2  5  1  0  0  0  0
  2 13  1  0  0  0  0
  3 14  1  0  0  0  0
  3 15  1  0  0  0  0
  4  6  1  0  0  0  0
  4 16  1  0  0  0  0
  4 17  1  0  0  0  0
  5  7  1  0  0  0  0
  5  8  2  0  0  0  0
  6  7  1  0  0  0  0
  6 18  1  0  0  0  0
  6 19  1  0  0  0  0
  7  9  2  0  0  0  0
  8 10  1  0  0  0  0
  8 20  1  0  0  0  0
  9 11  1  0  0  0  0
  9 21  1  0  0  0  0
 10 11  2  0  0  0  0
 10 22  1  0  0  0  0
 11 23  1  0  0  0  0
M  END
> <PUBCHEM_COMPOUND_CID>
520166
> <PUBCHEM_COMPOUND_CANONICALIZED>
1
> <PUBCHEM_CACTVS_COMPLEXITY>
161
> <PUBCHEM_CACTVS_HBOND_ACCEPTOR>
0
> <PUBCHEM_CACTVS_HBOND_DONOR>
0
> <PUBCHEM_CACTVS_ROTATABLE_BOND>
0
> <PUBCHEM_CACTVS_SUBSKEYS>
AAADccBwAAAAAAAAAAAAAAAAGAAAAAAAAAAwYAAABgAAAADBAAAAGAAAAAAADQCAGAAwAIAAAACAAiBCAAACAAAgAAAIiAAAAIgIICKAERCAIAAggAAIiAcAgMAOgAAAAAAQAACAAAQAACAAAAAAAAAAAA==
> <PUBCHEM_IUPAC_OPENEYE_NAME>
1a,2,3,7b-tetrahydro-1H-cyclopropa[a]naphthalene
> <PUBCHEM_IUPAC_CAS_NAME>
1a,2,3,7b-tetrahydro-1H-cyclopropa[a]naphthalene
> <PUBCHEM_IUPAC_NAME_MARKUP>
1<I>a</I>,2,3,7<I>b</I>-tetrahydro-1<I>H</I>-cyclopropa[a]naphthalene
> <PUBCHEM_IUPAC_NAME>
1a,2,3,7b-tetrahydro-1H-cyclopropa[a]naphthalene
> <PUBCHEM_IUPAC_SYSTEMATIC_NAME>
1a,2,3,7b-tetrahydro-1H-cyclopropa[a]naphthalene
> <PUBCHEM_IUPAC_TRADITIONAL_NAME>
1a,2,3,7b-tetrahydro-1H-cyclopropa[a]naphthalene
> <PUBCHEM_IUPAC_INCHI>
InChI=1S/C11H12/c1-2-4-10-8(3-1)5-6-9-7-11(9)10/h1-4,9,11H,5-7H2
> <PUBCHEM_IUPAC_INCHIKEY>
OJCHTVCUPYBWLX-UHFFFAOYSA-N
> <PUBCHEM_XLOGP3_AA>
3.1
> <PUBCHEM_EXACT_MASS>
144.093900383
> <PUBCHEM_MOLECULAR_FORMULA>
C11H12
> <PUBCHEM_MOLECULAR_WEIGHT>
144.21
> <PUBCHEM_OPENEYE_CAN_SMILES>
C1CC2=CC=CC=C2C3C1C3
> <PUBCHEM_OPENEYE_ISO_SMILES>
C1CC2=CC=CC=C2C3C1C3
> <PUBCHEM_CACTVS_TPSA>
0
> <PUBCHEM_MONOISOTOPIC_WEIGHT>
144.093900383
> <PUBCHEM_TOTAL_CHARGE>
0
> <PUBCHEM_HEAVY_ATOM_COUNT>
11
> <PUBCHEM_ATOM_DEF_STEREO_COUNT>
0
> <PUBCHEM_ATOM_UDEF_STEREO_COUNT>
2
> <PUBCHEM_BOND_DEF_STEREO_COUNT>
0
> <PUBCHEM_BOND_UDEF_STEREO_COUNT>
0
> <PUBCHEM_ISOTOPIC_ATOM_COUNT>
0
> <PUBCHEM_COMPONENT_COUNT>
1
> <PUBCHEM_CACTVS_TAUTO_COUNT>
-1
> <PUBCHEM_COORDINATE_TYPE>
1
5
255
> <PUBCHEM_BONDANNOTATIONS>
1  4  3
10  11  8
2  3  3
5  7  8
5  8  8
7  9  8
8  10  8
9  11  8
$$$$
