520136
  -OEChem-10302200292D
 27 27  0     1  0  0  0  0  0999 V2000
    2.5000   -0.5000    0.0000 Cl  0  0  0  0  0  0  0  0  0  0  0  0
    4.0000   -1.3660    0.0000 Cl  0  0  0  0  0  0  0  0  0  0  0  0
    4.3660    0.0000    0.0000 C   0  0  0  0  0  0  0  0  0  0  0  0
    3.5000    0.5000    0.0000 C   0  0  3  0  0  0  0  0  0  0  0  0
    3.5000   -0.5000    0.0000 C   0  0  0  0  0  0  0  0  0  0  0  0
    4.8660   -0.8660    0.0000 C   0  0  0  0  0  0  0  0  0  0  0  0
    4.8660    0.8660    0.0000 C   0  0  0  0  0  0  0  0  0  0  0  0
    3.0000    1.3660    0.0000 C   0  0  0  0  0  0  0  0  0  0  0  0
    5.8660   -0.8660    0.0000 C   0  0  0  0  0  0  0  0  0  0  0  0
    5.8660    0.8660    0.0000 C   0  0  0  0  0  0  0  0  0  0  0  0
    2.0000    1.3660    0.0000 C   0  0  0  0  0  0  0  0  0  0  0  0
    2.9011    0.3395    0.0000 H   0  0  0  0  0  0  0  0  0  0  0  0
    4.2834   -1.0781    0.0000 H   0  0  0  0  0  0  0  0  0  0  0  0
    4.9737   -1.4766    0.0000 H   0  0  0  0  0  0  0  0  0  0  0  0
    4.9737    1.4766    0.0000 H   0  0  0  0  0  0  0  0  0  0  0  0
    4.2834    1.0781    0.0000 H   0  0  0  0  0  0  0  0  0  0  0  0
    3.5826    1.5781    0.0000 H   0  0  0  0  0  0  0  0  0  0  0  0
    2.8923    1.9766    0.0000 H   0  0  0  0  0  0  0  0  0  0  0  0
    5.8660   -1.4860    0.0000 H   0  0  0  0  0  0  0  0  0  0  0  0
    6.4860   -0.8660    0.0000 H   0  0  0  0  0  0  0  0  0  0  0  0
    5.8660   -0.2460    0.0000 H   0  0  0  0  0  0  0  0  0  0  0  0
    5.8660    0.2460    0.0000 H   0  0  0  0  0  0  0  0  0  0  0  0
    6.4860    0.8660    0.0000 H   0  0  0  0  0  0  0  0  0  0  0  0
    5.8660    1.4860    0.0000 H   0  0  0  0  0  0  0  0  0  0  0  0
    2.0000    1.9860    0.0000 H   0  0  0  0  0  0  0  0  0  0  0  0
    1.3800    1.3660    0.0000 H   0  0  0  0  0  0  0  0  0  0  0  0
    2.0000    0.7460    0.0000 H   0  0  0  0  0  0  0  0  0  0  0  0
  1  5  1  0  0  0  0
  2  5  1  0  0  0  0
  3  4  1  0  0  0  0
  3  5  1  0  0  0  0
  3  6  1  0  0  0  0
  3  7  1  0  0  0  0
  4  5  1  0  0  0  0
  4  8  1  0  0  0  0
  4 12  1  0  0  0  0
  6  9  1  0  0  0  0
  6 13  1  0  0  0  0
  6 14  1  0  0  0  0
  7 10  1  0  0  0  0
  7 15  1  0  0  0  0
  7 16  1  0  0  0  0
  8 11  1  0  0  0  0
  8 17  1  0  0  0  0
  8 18  1  0  0  0  0
  9 19  1  0  0  0  0
  9 20  1  0  0  0  0
  9 21  1  0  0  0  0
 10 22  1  0  0  0  0
 10 23  1  0  0  0  0
 10 24  1  0  0  0  0
 11 25  1  0  0  0  0
 11 26  1  0  0  0  0
 11 27  1  0  0  0  0
M  END
> <PUBCHEM_COMPOUND_CID>
520136
> <PUBCHEM_COMPOUND_CANONICALIZED>
1
> <PUBCHEM_CACTVS_COMPLEXITY>
148
> <PUBCHEM_CACTVS_HBOND_ACCEPTOR>
0
> <PUBCHEM_CACTVS_HBOND_DONOR>
0
> <PUBCHEM_CACTVS_ROTATABLE_BOND>
3
> <PUBCHEM_CACTVS_SUBSKEYS>
AAADceBwAAAGAAAAAAAAAAAAGAAAAAAAAAAAAAAAAAAAAAAAAAAAGAIAAAAADwKAAIACAAAAAAAAAAAAAAAAAAAAAAAAAAAAAgAAAAIBAAAAAAAAAAAAAAEAgAAPgAAAAAAAAAAAAAAAAAAAAAAAAAAAAA==
> <PUBCHEM_IUPAC_OPENEYE_NAME>
1,1-dichloro-2,2,3-triethyl-cyclopropane
> <PUBCHEM_IUPAC_CAS_NAME>
1,1-dichloro-2,2,3-triethylcyclopropane
> <PUBCHEM_IUPAC_NAME_MARKUP>
1,1-dichloro-2,2,3-triethylcyclopropane
> <PUBCHEM_IUPAC_NAME>
1,1-dichloro-2,2,3-triethylcyclopropane
> <PUBCHEM_IUPAC_SYSTEMATIC_NAME>
1,1-bis(chloranyl)-2,2,3-triethyl-cyclopropane
> <PUBCHEM_IUPAC_TRADITIONAL_NAME>
1,1-dichloro-2,2,3-triethyl-cyclopropane
> <PUBCHEM_IUPAC_INCHI>
InChI=1S/C9H16Cl2/c1-4-7-8(5-2,6-3)9(7,10)11/h7H,4-6H2,1-3H3
> <PUBCHEM_IUPAC_INCHIKEY>
HZZCFNUFGQXPQC-UHFFFAOYSA-N
> <PUBCHEM_XLOGP3_AA>
4.2
> <PUBCHEM_EXACT_MASS>
194.0629059
> <PUBCHEM_MOLECULAR_FORMULA>
C9H16Cl2
> <PUBCHEM_MOLECULAR_WEIGHT>
195.13
> <PUBCHEM_OPENEYE_CAN_SMILES>
CCC1C(C1(Cl)Cl)(CC)CC
> <PUBCHEM_OPENEYE_ISO_SMILES>
CCC1C(C1(Cl)Cl)(CC)CC
> <PUBCHEM_CACTVS_TPSA>
0
> <PUBCHEM_MONOISOTOPIC_WEIGHT>
194.0629059
> <PUBCHEM_TOTAL_CHARGE>
0
> <PUBCHEM_HEAVY_ATOM_COUNT>
11
> <PUBCHEM_ATOM_DEF_STEREO_COUNT>
0
> <PUBCHEM_ATOM_UDEF_STEREO_COUNT>
1
> <PUBCHEM_BOND_DEF_STEREO_COUNT>
0
> <PUBCHEM_BOND_UDEF_STEREO_COUNT>
0
> <PUBCHEM_ISOTOPIC_ATOM_COUNT>
0
> <PUBCHEM_COMPONENT_COUNT>
1
> <PUBCHEM_CACTVS_TAUTO_COUNT>
1
> <PUBCHEM_COORDINATE_TYPE>
1
5
255
> <PUBCHEM_BONDANNOTATIONS>
4  8  3
$$$$
