520265
  -OEChem-10302200292D
 46 45  0     1  0  0  0  0  0999 V2000
    8.3531    4.7150    0.0000 Cl  0  0  0  0  0  0  0  0  0  0  0  0
    4.8671    6.6200    0.0000 O   0  0  0  0  0  0  0  0  0  0  0  0
    5.7331    5.1200    0.0000 O   0  0  0  0  0  0  0  0  0  0  0  0
    2.2690    4.1200    0.0000 O   0  0  0  0  0  0  0  0  0  0  0  0
    4.0010    4.1200    0.0000 N   0  0  0  0  0  0  0  0  0  0  0  0
    2.2690    8.1200    0.0000 N   0  0  0  0  0  0  0  0  0  0  0  0
    1.4030    9.6200    0.0000 N   0  0  0  0  0  0  0  0  0  0  0  0
    0.5369    8.1200    0.0000 N   0  0  0  0  0  0  0  0  0  0  0  0
    3.1350    5.6200    0.0000 C   0  0  0  0  0  0  0  0  0  0  0  0
    4.0010    5.1200    0.0000 C   0  0  3  0  0  0  0  0  0  0  0  0
    3.1350    6.6200    0.0000 C   0  0  0  0  0  0  0  0  0  0  0  0
    2.2690    7.1200    0.0000 C   0  0  0  0  0  0  0  0  0  0  0  0
    4.8671    5.6200    0.0000 C   0  0  0  0  0  0  0  0  0  0  0  0
    3.1350    3.6200    0.0000 C   0  0  0  0  0  0  0  0  0  0  0  0
    3.1350    2.6200    0.0000 C   0  0  0  0  0  0  0  0  0  0  0  0
    5.7331    7.1200    0.0000 C   0  0  0  0  0  0  0  0  0  0  0  0
    4.0010    2.1200    0.0000 C   0  0  0  0  0  0  0  0  0  0  0  0
    2.2690    2.1200    0.0000 C   0  0  0  0  0  0  0  0  0  0  0  0
    1.4030    8.6200    0.0000 C   0  0  0  0  0  0  0  0  0  0  0  0
    5.7331    8.1200    0.0000 C   0  0  0  0  0  0  0  0  0  0  0  0
    4.0010    1.1200    0.0000 C   0  0  0  0  0  0  0  0  0  0  0  0
    2.2690    1.1200    0.0000 C   0  0  0  0  0  0  0  0  0  0  0  0
    3.1350    0.6200    0.0000 C   0  0  0  0  0  0  0  0  0  0  0  0
    2.5244    5.7277    0.0000 H   0  0  0  0  0  0  0  0  0  0  0  0
    2.9230    5.0374    0.0000 H   0  0  0  0  0  0  0  0  0  0  0  0
    4.7372    4.6950    0.0000 H   0  0  0  0  0  0  0  0  0  0  0  0
    3.7456    6.5123    0.0000 H   0  0  0  0  0  0  0  0  0  0  0  0
    3.3471    7.2026    0.0000 H   0  0  0  0  0  0  0  0  0  0  0  0
    1.6584    7.2277    0.0000 H   0  0  0  0  0  0  0  0  0  0  0  0
    2.0569    6.5374    0.0000 H   0  0  0  0  0  0  0  0  0  0  0  0
    4.5380    3.8100    0.0000 H   0  0  0  0  0  0  0  0  0  0  0  0
    5.9451    6.5374    0.0000 H   0  0  0  0  0  0  0  0  0  0  0  0
    6.3437    7.2277    0.0000 H   0  0  0  0  0  0  0  0  0  0  0  0
    4.5380    2.4300    0.0000 H   0  0  0  0  0  0  0  0  0  0  0  0
    1.7320    2.4300    0.0000 H   0  0  0  0  0  0  0  0  0  0  0  0
    6.3531    8.1200    0.0000 H   0  0  0  0  0  0  0  0  0  0  0  0
    5.7331    8.7400    0.0000 H   0  0  0  0  0  0  0  0  0  0  0  0
    5.1131    8.1200    0.0000 H   0  0  0  0  0  0  0  0  0  0  0  0
    4.5380    0.8100    0.0000 H   0  0  0  0  0  0  0  0  0  0  0  0
    1.7320    0.8100    0.0000 H   0  0  0  0  0  0  0  0  0  0  0  0
    3.1350    0.0000    0.0000 H   0  0  0  0  0  0  0  0  0  0  0  0
    0.8660    9.9300    0.0000 H   0  0  0  0  0  0  0  0  0  0  0  0
    1.9399    9.9300    0.0000 H   0  0  0  0  0  0  0  0  0  0  0  0
    0.0000    8.4300    0.0000 H   0  0  0  0  0  0  0  0  0  0  0  0
    0.5369    7.5000    0.0000 H   0  0  0  0  0  0  0  0  0  0  0  0
    9.3531    4.7150    0.0000 H   0  0  0  0  0  0  0  0  0  0  0  0
  1 46  1  0  0  0  0
  2 13  1  0  0  0  0
  2 16  1  0  0  0  0
  3 13  2  0  0  0  0
  4 14  2  0  0  0  0
  5 10  1  0  0  0  0
  5 14  1  0  0  0  0
  5 31  1  0  0  0  0
  6 12  1  0  0  0  0
  6 19  2  0  0  0  0
  7 19  1  0  0  0  0
  7 42  1  0  0  0  0
  7 43  1  0  0  0  0
  8 19  1  0  0  0  0
  8 44  1  0  0  0  0
  8 45  1  0  0  0  0
  9 10  1  0  0  0  0
  9 11  1  0  0  0  0
  9 24  1  0  0  0  0
  9 25  1  0  0  0  0
 10 13  1  0  0  0  0
 10 26  1  0  0  0  0
 11 12  1  0  0  0  0
 11 27  1  0  0  0  0
 11 28  1  0  0  0  0
 12 29  1  0  0  0  0
 12 30  1  0  0  0  0
 14 15  1  0  0  0  0
 15 17  2  0  0  0  0
 15 18  1  0  0  0  0
 16 20  1  0  0  0  0
 16 32  1  0  0  0  0
 16 33  1  0  0  0  0
 17 21  1  0  0  0  0
 17 34  1  0  0  0  0
 18 22  2  0  0  0  0
 18 35  1  0  0  0  0
 20 36  1  0  0  0  0
 20 37  1  0  0  0  0
 20 38  1  0  0  0  0
 21 23  2  0  0  0  0
 21 39  1  0  0  0  0
 22 23  1  0  0  0  0
 22 40  1  0  0  0  0
 23 41  1  0  0  0  0
M  END
> <PUBCHEM_COMPOUND_CID>
520265
> <PUBCHEM_COMPOUND_CANONICALIZED>
1
> <PUBCHEM_CACTVS_COMPLEXITY>
388
> <PUBCHEM_CACTVS_HBOND_ACCEPTOR>
4
> <PUBCHEM_CACTVS_HBOND_DONOR>
4
> <PUBCHEM_CACTVS_ROTATABLE_BOND>
9
> <PUBCHEM_CACTVS_SUBSKEYS>
AAADceBzsAAEAAAAAAAAAAAAAAAAAAAAAAAwAAAAAAAAAAABAAAAHgAQAAAADCjhmAYzCILABACoAiHSPACCAAEkAAAIiIGIBMgKIDKAlTGHIQhklgCYiYeYmQCOAAAAAAAAAAAAAAAAAAAAAAAAAAAAAA==
> <PUBCHEM_IUPAC_OPENEYE_NAME>
ethyl 2-benzamido-5-guanidino-pentanoate;hydrochloride
> <PUBCHEM_IUPAC_CAS_NAME>
2-benzamido-5-(diaminomethylideneamino)pentanoic acid ethyl ester;hydrochloride
> <PUBCHEM_IUPAC_NAME_MARKUP>
ethyl 2-benzamido-5-(diaminomethylideneamino)pentanoate;hydrochloride
> <PUBCHEM_IUPAC_NAME>
ethyl 2-benzamido-5-(diaminomethylideneamino)pentanoate;hydrochloride
> <PUBCHEM_IUPAC_SYSTEMATIC_NAME>
ethyl 2-benzamido-5-[bis(azanyl)methylideneamino]pentanoate;hydrochloride
> <PUBCHEM_IUPAC_TRADITIONAL_NAME>
2-benzamido-5-guanidino-valeric acid ethyl ester;hydrochloride
> <PUBCHEM_IUPAC_INCHI>
InChI=1S/C15H22N4O3.ClH/c1-2-22-14(21)12(9-6-10-18-15(16)17)19-13(20)11-7-4-3-5-8-11;/h3-5,7-8,12H,2,6,9-10H2,1H3,(H,19,20)(H4,16,17,18);1H
> <PUBCHEM_IUPAC_INCHIKEY>
HIXDELXKSSLIKB-UHFFFAOYSA-N
> <PUBCHEM_EXACT_MASS>
342.1458683
> <PUBCHEM_MOLECULAR_FORMULA>
C15H23ClN4O3
> <PUBCHEM_MOLECULAR_WEIGHT>
342.82
> <PUBCHEM_OPENEYE_CAN_SMILES>
CCOC(=O)C(CCCN=C(N)N)NC(=O)C1=CC=CC=C1.Cl
> <PUBCHEM_OPENEYE_ISO_SMILES>
CCOC(=O)C(CCCN=C(N)N)NC(=O)C1=CC=CC=C1.Cl
> <PUBCHEM_CACTVS_TPSA>
120
> <PUBCHEM_MONOISOTOPIC_WEIGHT>
342.1458683
> <PUBCHEM_TOTAL_CHARGE>
0
> <PUBCHEM_HEAVY_ATOM_COUNT>
23
> <PUBCHEM_ATOM_DEF_STEREO_COUNT>
0
> <PUBCHEM_ATOM_UDEF_STEREO_COUNT>
1
> <PUBCHEM_BOND_DEF_STEREO_COUNT>
0
> <PUBCHEM_BOND_UDEF_STEREO_COUNT>
0
> <PUBCHEM_ISOTOPIC_ATOM_COUNT>
0
> <PUBCHEM_COMPONENT_COUNT>
2
> <PUBCHEM_CACTVS_TAUTO_COUNT>
4
> <PUBCHEM_COORDINATE_TYPE>
1
5
255
> <PUBCHEM_BONDANNOTATIONS>
10  26  3
15  17  8
15  18  8
17  21  8
18  22  8
21  23  8
22  23  8
$$$$
