520339
  -OEChem-10302200292D
 59 59  0     1  0  0  0  0  0999 V2000
    6.3301    1.1830    0.0000 Si  0  0  0  0  0  0  0  0  0  0  0  0
    5.4641    3.6830    0.0000 Si  0  0  0  0  0  0  0  0  0  0  0  0
    2.8660   -3.8170    0.0000 Si  0  0  0  0  0  0  0  0  0  0  0  0
    5.4641    0.6830    0.0000 O   0  0  0  0  0  0  0  0  0  0  0  0
    5.4641    2.6830    0.0000 O   0  0  0  0  0  0  0  0  0  0  0  0
    3.7320   -3.3170    0.0000 O   0  0  0  0  0  0  0  0  0  0  0  0
    3.7320    2.6830    0.0000 O   0  0  0  0  0  0  0  0  0  0  0  0
    4.5981    1.1830    0.0000 C   0  0  3  0  0  0  0  0  0  0  0  0
    3.7320    0.6830    0.0000 C   0  0  0  0  0  0  0  0  0  0  0  0
    3.7320   -0.3170    0.0000 C   0  0  0  0  0  0  0  0  0  0  0  0
    4.5981    2.1830    0.0000 C   0  0  0  0  0  0  0  0  0  0  0  0
    7.1962    1.6830    0.0000 C   0  0  0  0  0  0  0  0  0  0  0  0
    6.8301    0.3170    0.0000 C   0  0  0  0  0  0  0  0  0  0  0  0
    5.8301    2.0490    0.0000 C   0  0  0  0  0  0  0  0  0  0  0  0
    5.4641    4.6830    0.0000 C   0  0  0  0  0  0  0  0  0  0  0  0
    6.4641    3.6830    0.0000 C   0  0  0  0  0  0  0  0  0  0  0  0
    4.4641    3.6830    0.0000 C   0  0  0  0  0  0  0  0  0  0  0  0
    4.5981   -0.8170    0.0000 C   0  0  0  0  0  0  0  0  0  0  0  0
    2.8660   -0.8170    0.0000 C   0  0  0  0  0  0  0  0  0  0  0  0
    3.7320   -2.3170    0.0000 C   0  0  0  0  0  0  0  0  0  0  0  0
    4.5981   -1.8170    0.0000 C   0  0  0  0  0  0  0  0  0  0  0  0
    2.8660   -1.8170    0.0000 C   0  0  0  0  0  0  0  0  0  0  0  0
    2.0000   -4.3170    0.0000 C   0  0  0  0  0  0  0  0  0  0  0  0
    3.3660   -4.6830    0.0000 C   0  0  0  0  0  0  0  0  0  0  0  0
    2.3660   -2.9510    0.0000 C   0  0  0  0  0  0  0  0  0  0  0  0
    4.5981    0.5630    0.0000 H   0  0  0  0  0  0  0  0  0  0  0  0
    3.5200    1.2656    0.0000 H   0  0  0  0  0  0  0  0  0  0  0  0
    3.1215    0.5754    0.0000 H   0  0  0  0  0  0  0  0  0  0  0  0
    7.5062    1.1461    0.0000 H   0  0  0  0  0  0  0  0  0  0  0  0
    7.7331    1.9930    0.0000 H   0  0  0  0  0  0  0  0  0  0  0  0
    6.8862    2.2200    0.0000 H   0  0  0  0  0  0  0  0  0  0  0  0
    6.2932    0.0070    0.0000 H   0  0  0  0  0  0  0  0  0  0  0  0
    7.1401   -0.2199    0.0000 H   0  0  0  0  0  0  0  0  0  0  0  0
    7.3671    0.6270    0.0000 H   0  0  0  0  0  0  0  0  0  0  0  0
    6.3671    2.3590    0.0000 H   0  0  0  0  0  0  0  0  0  0  0  0
    5.5201    2.5860    0.0000 H   0  0  0  0  0  0  0  0  0  0  0  0
    5.2932    1.7390    0.0000 H   0  0  0  0  0  0  0  0  0  0  0  0
    6.0841    4.6830    0.0000 H   0  0  0  0  0  0  0  0  0  0  0  0
    5.4641    5.3030    0.0000 H   0  0  0  0  0  0  0  0  0  0  0  0
    4.8441    4.6830    0.0000 H   0  0  0  0  0  0  0  0  0  0  0  0
    6.4641    3.0630    0.0000 H   0  0  0  0  0  0  0  0  0  0  0  0
    7.0841    3.6830    0.0000 H   0  0  0  0  0  0  0  0  0  0  0  0
    6.4641    4.3030    0.0000 H   0  0  0  0  0  0  0  0  0  0  0  0
    4.4641    4.3030    0.0000 H   0  0  0  0  0  0  0  0  0  0  0  0
    3.8441    3.6830    0.0000 H   0  0  0  0  0  0  0  0  0  0  0  0
    4.4641    3.0630    0.0000 H   0  0  0  0  0  0  0  0  0  0  0  0
    5.1350   -0.5070    0.0000 H   0  0  0  0  0  0  0  0  0  0  0  0
    2.3291   -0.5070    0.0000 H   0  0  0  0  0  0  0  0  0  0  0  0
    5.1350   -2.1270    0.0000 H   0  0  0  0  0  0  0  0  0  0  0  0
    2.3291   -2.1270    0.0000 H   0  0  0  0  0  0  0  0  0  0  0  0
    1.6900   -3.7800    0.0000 H   0  0  0  0  0  0  0  0  0  0  0  0
    1.4631   -4.6270    0.0000 H   0  0  0  0  0  0  0  0  0  0  0  0
    2.3100   -4.8539    0.0000 H   0  0  0  0  0  0  0  0  0  0  0  0
    2.8291   -4.9930    0.0000 H   0  0  0  0  0  0  0  0  0  0  0  0
    3.6760   -5.2200    0.0000 H   0  0  0  0  0  0  0  0  0  0  0  0
    3.9030   -4.3730    0.0000 H   0  0  0  0  0  0  0  0  0  0  0  0
    2.9030   -2.6410    0.0000 H   0  0  0  0  0  0  0  0  0  0  0  0
    2.0560   -2.4140    0.0000 H   0  0  0  0  0  0  0  0  0  0  0  0
    1.8291   -3.2610    0.0000 H   0  0  0  0  0  0  0  0  0  0  0  0
  1  4  1  0  0  0  0
  1 12  1  0  0  0  0
  1 13  1  0  0  0  0
  1 14  1  0  0  0  0
  2  5  1  0  0  0  0
  2 15  1  0  0  0  0
  2 16  1  0  0  0  0
  2 17  1  0  0  0  0
  3  6  1  0  0  0  0
  3 23  1  0  0  0  0
  3 24  1  0  0  0  0
  3 25  1  0  0  0  0
  4  8  1  0  0  0  0
  5 11  1  0  0  0  0
  6 20  1  0  0  0  0
  7 11  2  0  0  0  0
  8  9  1  0  0  0  0
  8 11  1  0  0  0  0
  8 26  1  0  0  0  0
  9 10  1  0  0  0  0
  9 27  1  0  0  0  0
  9 28  1  0  0  0  0
 10 18  2  0  0  0  0
 10 19  1  0  0  0  0
 12 29  1  0  0  0  0
 12 30  1  0  0  0  0
 12 31  1  0  0  0  0
 13 32  1  0  0  0  0
 13 33  1  0  0  0  0
 13 34  1  0  0  0  0
 14 35  1  0  0  0  0
 14 36  1  0  0  0  0
 14 37  1  0  0  0  0
 15 38  1  0  0  0  0
 15 39  1  0  0  0  0
 15 40  1  0  0  0  0
 16 41  1  0  0  0  0
 16 42  1  0  0  0  0
 16 43  1  0  0  0  0
 17 44  1  0  0  0  0
 17 45  1  0  0  0  0
 17 46  1  0  0  0  0
 18 21  1  0  0  0  0
 18 47  1  0  0  0  0
 19 22  2  0  0  0  0
 19 48  1  0  0  0  0
 20 21  2  0  0  0  0
 20 22  1  0  0  0  0
 21 49  1  0  0  0  0
 22 50  1  0  0  0  0
 23 51  1  0  0  0  0
 23 52  1  0  0  0  0
 23 53  1  0  0  0  0
 24 54  1  0  0  0  0
 24 55  1  0  0  0  0
 24 56  1  0  0  0  0
 25 57  1  0  0  0  0
 25 58  1  0  0  0  0
 25 59  1  0  0  0  0
M  END
> <PUBCHEM_COMPOUND_CID>
520339
> <PUBCHEM_COMPOUND_CANONICALIZED>
1
> <PUBCHEM_CACTVS_COMPLEXITY>
427
> <PUBCHEM_CACTVS_HBOND_ACCEPTOR>
4
> <PUBCHEM_CACTVS_HBOND_DONOR>
0
> <PUBCHEM_CACTVS_ROTATABLE_BOND>
9
> <PUBCHEM_CACTVS_SUBSKEYS>
AAADcfB4OAwAAAAAAAAAAAAAAAAAAAAAAAAwAAAAAAAAAAABAAAAGhAAAEAADBSgmAJyDoAAAAGIAiDSCAICAAAgIAAIiAFGCIgJJjKAERKAMAAkwBEIiAeIyKCOIAAAAAAAAABAAAAAAAAAAAAAAAAAAA==
> <PUBCHEM_IUPAC_OPENEYE_NAME>
trimethylsilyl 2-trimethylsilyloxy-3-(4-trimethylsilyloxyphenyl)propanoate
> <PUBCHEM_IUPAC_CAS_NAME>
2-trimethylsilyloxy-3-(4-trimethylsilyloxyphenyl)propanoic acid trimethylsilyl ester
> <PUBCHEM_IUPAC_NAME_MARKUP>
trimethylsilyl 2-trimethylsilyloxy-3-(4-trimethylsilyloxyphenyl)propanoate
> <PUBCHEM_IUPAC_NAME>
trimethylsilyl 2-trimethylsilyloxy-3-(4-trimethylsilyloxyphenyl)propanoate
> <PUBCHEM_IUPAC_SYSTEMATIC_NAME>
trimethylsilyl 2-trimethylsilyloxy-3-(4-trimethylsilyloxyphenyl)propanoate
> <PUBCHEM_IUPAC_TRADITIONAL_NAME>
2-trimethylsilyloxy-3-(4-trimethylsilyloxyphenyl)propionic acid trimethylsilyl ester
> <PUBCHEM_IUPAC_INCHI>
InChI=1S/C18H34O4Si3/c1-23(2,3)20-16-12-10-15(11-13-16)14-17(21-24(4,5)6)18(19)22-25(7,8)9/h10-13,17H,14H2,1-9H3
> <PUBCHEM_IUPAC_INCHIKEY>
ZSYIYFFJWIPCPN-UHFFFAOYSA-N
> <PUBCHEM_EXACT_MASS>
398.17648916
> <PUBCHEM_MOLECULAR_FORMULA>
C18H34O4Si3
> <PUBCHEM_MOLECULAR_WEIGHT>
398.7
> <PUBCHEM_OPENEYE_CAN_SMILES>
C[Si](C)(C)OC1=CC=C(C=C1)CC(C(=O)O[Si](C)(C)C)O[Si](C)(C)C
> <PUBCHEM_OPENEYE_ISO_SMILES>
C[Si](C)(C)OC1=CC=C(C=C1)CC(C(=O)O[Si](C)(C)C)O[Si](C)(C)C
> <PUBCHEM_CACTVS_TPSA>
44.8
> <PUBCHEM_MONOISOTOPIC_WEIGHT>
398.17648916
> <PUBCHEM_TOTAL_CHARGE>
0
> <PUBCHEM_HEAVY_ATOM_COUNT>
25
> <PUBCHEM_ATOM_DEF_STEREO_COUNT>
0
> <PUBCHEM_ATOM_UDEF_STEREO_COUNT>
1
> <PUBCHEM_BOND_DEF_STEREO_COUNT>
0
> <PUBCHEM_BOND_UDEF_STEREO_COUNT>
0
> <PUBCHEM_ISOTOPIC_ATOM_COUNT>
0
> <PUBCHEM_COMPONENT_COUNT>
1
> <PUBCHEM_CACTVS_TAUTO_COUNT>
1
> <PUBCHEM_COORDINATE_TYPE>
1
5
255
> <PUBCHEM_BONDANNOTATIONS>
10  18  8
10  19  8
18  21  8
19  22  8
20  21  8
20  22  8
8  9  3
$$$$
