520359
  -OEChem-10302200292D
 43 42  0     1  0  0  0  0  0999 V2000
    2.0000    2.9330    0.0000 F   0  0  0  0  0  0  0  0  0  0  0  0
    2.3660    1.5670    0.0000 F   0  0  0  0  0  0  0  0  0  0  0  0
    3.3660    3.2990    0.0000 F   0  0  0  0  0  0  0  0  0  0  0  0
    8.9282   -3.0670    0.0000 F   0  0  0  0  0  0  0  0  0  0  0  0
    7.5622   -3.4330    0.0000 F   0  0  0  0  0  0  0  0  0  0  0  0
    8.5622   -1.7010    0.0000 F   0  0  0  0  0  0  0  0  0  0  0  0
    7.1962    1.9330    0.0000 O   0  0  0  0  0  0  0  0  0  0  0  0
    6.3301    3.4330    0.0000 O   0  0  0  0  0  0  0  0  0  0  0  0
    3.7320    0.9330    0.0000 O   0  0  0  0  0  0  0  0  0  0  0  0
    6.3301   -2.5670    0.0000 O   0  0  0  0  0  0  0  0  0  0  0  0
    4.5981    2.4330    0.0000 N   0  0  0  0  0  0  0  0  0  0  0  0
    7.1962   -1.0670    0.0000 N   0  0  0  0  0  0  0  0  0  0  0  0
    5.4641    0.9330    0.0000 C   0  0  0  0  0  0  0  0  0  0  0  0
    5.4641    1.9330    0.0000 C   0  0  3  0  0  0  0  0  0  0  0  0
    6.3301    0.4330    0.0000 C   0  0  0  0  0  0  0  0  0  0  0  0
    6.3301   -0.5670    0.0000 C   0  0  0  0  0  0  0  0  0  0  0  0
    6.3301    2.4330    0.0000 C   0  0  0  0  0  0  0  0  0  0  0  0
    8.0622    2.4330    0.0000 C   0  0  0  0  0  0  0  0  0  0  0  0
    8.9282    1.9330    0.0000 C   0  0  0  0  0  0  0  0  0  0  0  0
    9.7942    2.4330    0.0000 C   0  0  0  0  0  0  0  0  0  0  0  0
    3.7320    1.9330    0.0000 C   0  0  0  0  0  0  0  0  0  0  0  0
   10.6603    1.9330    0.0000 C   0  0  0  0  0  0  0  0  0  0  0  0
    7.1962   -2.0670    0.0000 C   0  0  0  0  0  0  0  0  0  0  0  0
    2.8660    2.4330    0.0000 C   0  0  0  0  0  0  0  0  0  0  0  0
    8.0622   -2.5670    0.0000 C   0  0  0  0  0  0  0  0  0  0  0  0
    4.8535    1.0407    0.0000 H   0  0  0  0  0  0  0  0  0  0  0  0
    5.2520    0.3504    0.0000 H   0  0  0  0  0  0  0  0  0  0  0  0
    5.4641    2.5530    0.0000 H   0  0  0  0  0  0  0  0  0  0  0  0
    6.9407    0.3254    0.0000 H   0  0  0  0  0  0  0  0  0  0  0  0
    6.5422    1.0156    0.0000 H   0  0  0  0  0  0  0  0  0  0  0  0
    5.7196   -0.4593    0.0000 H   0  0  0  0  0  0  0  0  0  0  0  0
    6.1181   -1.1496    0.0000 H   0  0  0  0  0  0  0  0  0  0  0  0
    4.5981    3.0530    0.0000 H   0  0  0  0  0  0  0  0  0  0  0  0
    8.4607    2.9080    0.0000 H   0  0  0  0  0  0  0  0  0  0  0  0
    7.6636    2.9080    0.0000 H   0  0  0  0  0  0  0  0  0  0  0  0
    8.5297    1.4581    0.0000 H   0  0  0  0  0  0  0  0  0  0  0  0
    9.3267    1.4581    0.0000 H   0  0  0  0  0  0  0  0  0  0  0  0
    7.7331   -0.7570    0.0000 H   0  0  0  0  0  0  0  0  0  0  0  0
   10.1928    2.9080    0.0000 H   0  0  0  0  0  0  0  0  0  0  0  0
    9.3957    2.9080    0.0000 H   0  0  0  0  0  0  0  0  0  0  0  0
   10.3503    1.3961    0.0000 H   0  0  0  0  0  0  0  0  0  0  0  0
   11.1972    1.6230    0.0000 H   0  0  0  0  0  0  0  0  0  0  0  0
   10.9703    2.4700    0.0000 H   0  0  0  0  0  0  0  0  0  0  0  0
  1 24  1  0  0  0  0
  2 24  1  0  0  0  0
  3 24  1  0  0  0  0
  4 25  1  0  0  0  0
  5 25  1  0  0  0  0
  6 25  1  0  0  0  0
  7 17  1  0  0  0  0
  7 18  1  0  0  0  0
  8 17  2  0  0  0  0
  9 21  2  0  0  0  0
 10 23  2  0  0  0  0
 11 14  1  0  0  0  0
 11 21  1  0  0  0  0
 11 33  1  0  0  0  0
 12 16  1  0  0  0  0
 12 23  1  0  0  0  0
 12 38  1  0  0  0  0
 13 14  1  0  0  0  0
 13 15  1  0  0  0  0
 13 26  1  0  0  0  0
 13 27  1  0  0  0  0
 14 17  1  0  0  0  0
 14 28  1  0  0  0  0
 15 16  1  0  0  0  0
 15 29  1  0  0  0  0
 15 30  1  0  0  0  0
 16 31  1  0  0  0  0
 16 32  1  0  0  0  0
 18 19  1  0  0  0  0
 18 34  1  0  0  0  0
 18 35  1  0  0  0  0
 19 20  1  0  0  0  0
 19 36  1  0  0  0  0
 19 37  1  0  0  0  0
 20 22  1  0  0  0  0
 20 39  1  0  0  0  0
 20 40  1  0  0  0  0
 21 24  1  0  0  0  0
 22 41  1  0  0  0  0
 22 42  1  0  0  0  0
 22 43  1  0  0  0  0
 23 25  1  0  0  0  0
M  END
> <PUBCHEM_COMPOUND_CID>
520359
> <PUBCHEM_COMPOUND_CANONICALIZED>
1
> <PUBCHEM_CACTVS_COMPLEXITY>
464
> <PUBCHEM_CACTVS_HBOND_ACCEPTOR>
10
> <PUBCHEM_CACTVS_HBOND_DONOR>
2
> <PUBCHEM_CACTVS_ROTATABLE_BOND>
10
> <PUBCHEM_CACTVS_SUBSKEYS>
AAADceBzOcAAAAAAAAAAAAAAAAAAAAAAAAAAAAAAAAAAAAAAAAAAHwAQAAAACCjhgBYCCALABAAIAAGQGAAAAAAAAAAAAIGIAAACABIAgCAHAAAEFgCQAACYEQIAAAAAAAAAAAAAAAAAAAAAAAAAAAAAAA==
> <PUBCHEM_IUPAC_OPENEYE_NAME>
butyl 2,5-bis[(2,2,2-trifluoroacetyl)amino]pentanoate
> <PUBCHEM_IUPAC_CAS_NAME>
2,5-bis[(2,2,2-trifluoro-1-oxoethyl)amino]pentanoic acid butyl ester
> <PUBCHEM_IUPAC_NAME_MARKUP>
butyl 2,5-bis[(2,2,2-trifluoroacetyl)amino]pentanoate
> <PUBCHEM_IUPAC_NAME>
butyl 2,5-bis[(2,2,2-trifluoroacetyl)amino]pentanoate
> <PUBCHEM_IUPAC_SYSTEMATIC_NAME>
butyl 2,5-bis[2,2,2-tris(fluoranyl)ethanoylamino]pentanoate
> <PUBCHEM_IUPAC_TRADITIONAL_NAME>
2,5-bis[(2,2,2-trifluoroacetyl)amino]valeric acid butyl ester
> <PUBCHEM_IUPAC_INCHI>
InChI=1S/C13H18F6N2O4/c1-2-3-7-25-9(22)8(21-11(24)13(17,18)19)5-4-6-20-10(23)12(14,15)16/h8H,2-7H2,1H3,(H,20,23)(H,21,24)
> <PUBCHEM_IUPAC_INCHIKEY>
LMGYQYJQQMTKTR-UHFFFAOYSA-N
> <PUBCHEM_XLOGP3_AA>
3
> <PUBCHEM_EXACT_MASS>
380.11707603
> <PUBCHEM_MOLECULAR_FORMULA>
C13H18F6N2O4
> <PUBCHEM_MOLECULAR_WEIGHT>
380.28
> <PUBCHEM_OPENEYE_CAN_SMILES>
CCCCOC(=O)C(CCCNC(=O)C(F)(F)F)NC(=O)C(F)(F)F
> <PUBCHEM_OPENEYE_ISO_SMILES>
CCCCOC(=O)C(CCCNC(=O)C(F)(F)F)NC(=O)C(F)(F)F
> <PUBCHEM_CACTVS_TPSA>
84.5
> <PUBCHEM_MONOISOTOPIC_WEIGHT>
380.11707603
> <PUBCHEM_TOTAL_CHARGE>
0
> <PUBCHEM_HEAVY_ATOM_COUNT>
25
> <PUBCHEM_ATOM_DEF_STEREO_COUNT>
0
> <PUBCHEM_ATOM_UDEF_STEREO_COUNT>
1
> <PUBCHEM_BOND_DEF_STEREO_COUNT>
0
> <PUBCHEM_BOND_UDEF_STEREO_COUNT>
0
> <PUBCHEM_ISOTOPIC_ATOM_COUNT>
0
> <PUBCHEM_COMPONENT_COUNT>
1
> <PUBCHEM_CACTVS_TAUTO_COUNT>
-1
> <PUBCHEM_COORDINATE_TYPE>
1
5
255
> <PUBCHEM_BONDANNOTATIONS>
14  13  3
$$$$
