520321
  -OEChem-10302200292D
 30 31  0     1  0  0  0  0  0999 V2000
    4.1756    2.3217    0.0000 O   0  0  0  0  0  0  0  0  0  0  0  0
    5.5768    1.3036    0.0000 O   0  0  0  0  0  0  0  0  0  0  0  0
    3.0878   -0.0262    0.0000 N   0  0  0  0  0  0  0  0  0  0  0  0
    3.8968    0.5616    0.0000 N   0  0  0  0  0  0  0  0  0  0  0  0
    2.5878    1.5127    0.0000 C   0  0  3  0  0  0  0  0  0  0  0  0
    2.2788    0.5616    0.0000 C   0  0  0  0  0  0  0  0  0  0  0  0
    3.5878    1.5127    0.0000 C   0  0  0  0  0  0  0  0  0  0  0  0
    2.0000    2.3217    0.0000 C   0  0  0  0  0  0  0  0  0  0  0  0
    3.0878   -1.0262    0.0000 C   0  0  0  0  0  0  0  0  0  0  0  0
    2.2218   -1.5262    0.0000 C   0  0  0  0  0  0  0  0  0  0  0  0
    3.9538   -1.5262    0.0000 C   0  0  0  0  0  0  0  0  0  0  0  0
    2.2218   -2.5262    0.0000 C   0  0  0  0  0  0  0  0  0  0  0  0
    3.9538   -2.5262    0.0000 C   0  0  0  0  0  0  0  0  0  0  0  0
    3.0878   -3.0262    0.0000 C   0  0  0  0  0  0  0  0  0  0  0  0
    5.1701    2.2172    0.0000 C   0  0  0  0  0  0  0  0  0  0  0  0
    5.7579    3.0262    0.0000 C   0  0  0  0  0  0  0  0  0  0  0  0
    1.9754    1.4157    0.0000 H   0  0  0  0  0  0  0  0  0  0  0  0
    1.7124    0.8138    0.0000 H   0  0  0  0  0  0  0  0  0  0  0  0
    1.9688    0.0247    0.0000 H   0  0  0  0  0  0  0  0  0  0  0  0
    2.5016    2.6861    0.0000 H   0  0  0  0  0  0  0  0  0  0  0  0
    1.6356    2.8233    0.0000 H   0  0  0  0  0  0  0  0  0  0  0  0
    1.4984    1.9573    0.0000 H   0  0  0  0  0  0  0  0  0  0  0  0
    1.6848   -1.2162    0.0000 H   0  0  0  0  0  0  0  0  0  0  0  0
    4.4908   -1.2162    0.0000 H   0  0  0  0  0  0  0  0  0  0  0  0
    1.6848   -2.8362    0.0000 H   0  0  0  0  0  0  0  0  0  0  0  0
    4.4908   -2.8362    0.0000 H   0  0  0  0  0  0  0  0  0  0  0  0
    3.0878   -3.6462    0.0000 H   0  0  0  0  0  0  0  0  0  0  0  0
    6.2595    2.6618    0.0000 H   0  0  0  0  0  0  0  0  0  0  0  0
    6.1223    3.5278    0.0000 H   0  0  0  0  0  0  0  0  0  0  0  0
    5.2563    3.3906    0.0000 H   0  0  0  0  0  0  0  0  0  0  0  0
  1  7  1  0  0  0  0
  1 15  1  0  0  0  0
  2 15  2  0  0  0  0
  3  4  1  0  0  0  0
  3  6  1  0  0  0  0
  3  9  1  0  0  0  0
  4  7  2  0  0  0  0
  5  6  1  0  0  0  0
  5  7  1  0  0  0  0
  5  8  1  0  0  0  0
  5 17  1  0  0  0  0
  6 18  1  0  0  0  0
  6 19  1  0  0  0  0
  8 20  1  0  0  0  0
  8 21  1  0  0  0  0
  8 22  1  0  0  0  0
  9 10  2  0  0  0  0
  9 11  1  0  0  0  0
 10 12  1  0  0  0  0
 10 23  1  0  0  0  0
 11 13  2  0  0  0  0
 11 24  1  0  0  0  0
 12 14  2  0  0  0  0
 12 25  1  0  0  0  0
 13 14  1  0  0  0  0
 13 26  1  0  0  0  0
 14 27  1  0  0  0  0
 15 16  1  0  0  0  0
 16 28  1  0  0  0  0
 16 29  1  0  0  0  0
 16 30  1  0  0  0  0
M  END
> <PUBCHEM_COMPOUND_CID>
520321
> <PUBCHEM_COMPOUND_CANONICALIZED>
1
> <PUBCHEM_CACTVS_COMPLEXITY>
295
> <PUBCHEM_CACTVS_HBOND_ACCEPTOR>
4
> <PUBCHEM_CACTVS_HBOND_DONOR>
0
> <PUBCHEM_CACTVS_ROTATABLE_BOND>
3
> <PUBCHEM_CACTVS_SUBSKEYS>
AAADccBzMAAAAAAAAAAAAAAAAAAAAQAAAAAwAAAAAAAAAAABAAAAHgAIAAAADQjBkAQyyIIABACoACTySACSBAAhAgAYiAA4ZIgIICLAkZGGIAhiiADIyAcQAAAAAAAAAAAAAAAAAAAAAAAAAAAAAAAAAA==
> <PUBCHEM_IUPAC_OPENEYE_NAME>
(4-methyl-2-phenyl-3,4-dihydropyrazol-5-yl) acetate
> <PUBCHEM_IUPAC_CAS_NAME>
acetic acid (4-methyl-2-phenyl-3,4-dihydropyrazol-5-yl) ester
> <PUBCHEM_IUPAC_NAME_MARKUP>
(4-methyl-2-phenyl-3,4-dihydropyrazol-5-yl) acetate
> <PUBCHEM_IUPAC_NAME>
(4-methyl-2-phenyl-3,4-dihydropyrazol-5-yl) acetate
> <PUBCHEM_IUPAC_SYSTEMATIC_NAME>
(4-methyl-2-phenyl-3,4-dihydropyrazol-5-yl) ethanoate
> <PUBCHEM_IUPAC_TRADITIONAL_NAME>
acetic acid (4-methyl-1-phenyl-2-pyrazolin-3-yl) ester
> <PUBCHEM_IUPAC_INCHI>
InChI=1S/C12H14N2O2/c1-9-8-14(11-6-4-3-5-7-11)13-12(9)16-10(2)15/h3-7,9H,8H2,1-2H3
> <PUBCHEM_IUPAC_INCHIKEY>
XPGTVRIUDBONFO-UHFFFAOYSA-N
> <PUBCHEM_XLOGP3_AA>
2.3
> <PUBCHEM_EXACT_MASS>
218.105527694
> <PUBCHEM_MOLECULAR_FORMULA>
C12H14N2O2
> <PUBCHEM_MOLECULAR_WEIGHT>
218.25
> <PUBCHEM_OPENEYE_CAN_SMILES>
CC1CN(N=C1OC(=O)C)C2=CC=CC=C2
> <PUBCHEM_OPENEYE_ISO_SMILES>
CC1CN(N=C1OC(=O)C)C2=CC=CC=C2
> <PUBCHEM_CACTVS_TPSA>
41.9
> <PUBCHEM_MONOISOTOPIC_WEIGHT>
218.105527694
> <PUBCHEM_TOTAL_CHARGE>
0
> <PUBCHEM_HEAVY_ATOM_COUNT>
16
> <PUBCHEM_ATOM_DEF_STEREO_COUNT>
0
> <PUBCHEM_ATOM_UDEF_STEREO_COUNT>
1
> <PUBCHEM_BOND_DEF_STEREO_COUNT>
0
> <PUBCHEM_BOND_UDEF_STEREO_COUNT>
0
> <PUBCHEM_ISOTOPIC_ATOM_COUNT>
0
> <PUBCHEM_COMPONENT_COUNT>
1
> <PUBCHEM_CACTVS_TAUTO_COUNT>
-1
> <PUBCHEM_COORDINATE_TYPE>
1
5
255
> <PUBCHEM_BONDANNOTATIONS>
10  12  8
11  13  8
12  14  8
13  14  8
5  8  3
9  10  8
9  11  8
$$$$
