520348
  -OEChem-10302200292D
 19 20  0     1  0  0  0  0  0999 V2000
    3.0083   -0.5000    0.0000 C   0  0  3  0  0  0  0  0  0  0  0  0
    3.0083    0.5000    0.0000 C   0  0  3  0  0  0  0  0  0  0  0  0
    2.0000   -0.5041    0.0000 C   0  0  0  0  0  0  0  0  0  0  0  0
    2.0000    0.5041    0.0000 C   0  0  0  0  0  0  0  0  0  0  0  0
    3.9593   -0.8090    0.0000 C   0  0  0  0  0  0  0  0  0  0  0  0
    3.9593    0.8090    0.0000 C   0  0  0  0  0  0  0  0  0  0  0  0
    4.5471   -0.0000    0.0000 C   0  0  0  0  0  0  0  0  0  0  0  0
    2.9126   -1.1126    0.0000 H   0  0  0  0  0  0  0  0  0  0  0  0
    2.9126    1.1126    0.0000 H   0  0  0  0  0  0  0  0  0  0  0  0
    1.3800   -0.5050    0.0000 H   0  0  0  0  0  0  0  0  0  0  0  0
    2.0017   -1.1241    0.0000 H   0  0  0  0  0  0  0  0  0  0  0  0
    2.0017    1.1241    0.0000 H   0  0  0  0  0  0  0  0  0  0  0  0
    1.3800    0.5050    0.0000 H   0  0  0  0  0  0  0  0  0  0  0  0
    3.7072   -1.3754    0.0000 H   0  0  0  0  0  0  0  0  0  0  0  0
    4.4963   -1.1190    0.0000 H   0  0  0  0  0  0  0  0  0  0  0  0
    4.4963    1.1190    0.0000 H   0  0  0  0  0  0  0  0  0  0  0  0
    3.7072    1.3754    0.0000 H   0  0  0  0  0  0  0  0  0  0  0  0
    5.0079   -0.4149    0.0000 H   0  0  0  0  0  0  0  0  0  0  0  0
    5.0079    0.4149    0.0000 H   0  0  0  0  0  0  0  0  0  0  0  0
  1  2  1  0  0  0  0
  1  3  1  0  0  0  0
  1  5  1  0  0  0  0
  1  8  1  0  0  0  0
  2  4  1  0  0  0  0
  2  6  1  0  0  0  0
  2  9  1  0  0  0  0
  3  4  1  0  0  0  0
  3 10  1  0  0  0  0
  3 11  1  0  0  0  0
  4 12  1  0  0  0  0
  4 13  1  0  0  0  0
  5  7  1  0  0  0  0
  5 14  1  0  0  0  0
  5 15  1  0  0  0  0
  6  7  1  0  0  0  0
  6 16  1  0  0  0  0
  6 17  1  0  0  0  0
  7 18  1  0  0  0  0
  7 19  1  0  0  0  0
M  END
> <PUBCHEM_COMPOUND_CID>
520348
> <PUBCHEM_COMPOUND_CANONICALIZED>
1
> <PUBCHEM_CACTVS_COMPLEXITY>
66.1
> <PUBCHEM_CACTVS_HBOND_ACCEPTOR>
0
> <PUBCHEM_CACTVS_HBOND_DONOR>
0
> <PUBCHEM_CACTVS_ROTATABLE_BOND>
0
> <PUBCHEM_CACTVS_SUBSKEYS>
AAADccBgAAAAAAAAAAAAAAAAAABgAYAAAAAAAAAABgAAAAAAAAAAGAAAAAAADQCAAAAAAAAAAAAAAAAAAAAAAAAAAAAAAAAAAAAAAAIAAAAAAAAAAAAAAAEAgAAOgAAAAAAAAAAAAAAAAAAAAAAACAAAAA==
> <PUBCHEM_IUPAC_OPENEYE_NAME>
bicyclo[3.2.0]heptane
> <PUBCHEM_IUPAC_CAS_NAME>
bicyclo[3.2.0]heptane
> <PUBCHEM_IUPAC_NAME_MARKUP>
bicyclo[3.2.0]heptane
> <PUBCHEM_IUPAC_NAME>
bicyclo[3.2.0]heptane
> <PUBCHEM_IUPAC_SYSTEMATIC_NAME>
bicyclo[3.2.0]heptane
> <PUBCHEM_IUPAC_TRADITIONAL_NAME>
bicyclo[3.2.0]heptane
> <PUBCHEM_IUPAC_INCHI>
InChI=1S/C7H12/c1-2-6-4-5-7(6)3-1/h6-7H,1-5H2
> <PUBCHEM_IUPAC_INCHIKEY>
AWYMFBJJKFTCFO-UHFFFAOYSA-N
> <PUBCHEM_XLOGP3_AA>
3
> <PUBCHEM_EXACT_MASS>
96.093900383
> <PUBCHEM_MOLECULAR_FORMULA>
C7H12
> <PUBCHEM_MOLECULAR_WEIGHT>
96.17
> <PUBCHEM_OPENEYE_CAN_SMILES>
C1CC2CCC2C1
> <PUBCHEM_OPENEYE_ISO_SMILES>
C1CC2CCC2C1
> <PUBCHEM_CACTVS_TPSA>
0
> <PUBCHEM_MONOISOTOPIC_WEIGHT>
96.093900383
> <PUBCHEM_TOTAL_CHARGE>
0
> <PUBCHEM_HEAVY_ATOM_COUNT>
7
> <PUBCHEM_ATOM_DEF_STEREO_COUNT>
0
> <PUBCHEM_ATOM_UDEF_STEREO_COUNT>
2
> <PUBCHEM_BOND_DEF_STEREO_COUNT>
0
> <PUBCHEM_BOND_UDEF_STEREO_COUNT>
0
> <PUBCHEM_ISOTOPIC_ATOM_COUNT>
0
> <PUBCHEM_COMPONENT_COUNT>
1
> <PUBCHEM_CACTVS_TAUTO_COUNT>
-1
> <PUBCHEM_COORDINATE_TYPE>
1
5
255
> <PUBCHEM_BONDANNOTATIONS>
1  5  3
2  6  3
$$$$
