520424
  -OEChem-10302200292D
 14 14  0     1  0  0  0  0  0999 V2000
    4.8660    1.1160    0.0000 O   0  0  0  0  0  0  0  0  0  0  0  0
    3.3660    0.2500    0.0000 C   0  0  3  0  0  0  0  0  0  0  0  0
    2.5000    0.7500    0.0000 C   0  0  0  0  0  0  0  0  0  0  0  0
    2.5000   -0.2500    0.0000 C   0  0  0  0  0  0  0  0  0  0  0  0
    4.3660    0.2500    0.0000 C   0  0  0  0  0  0  0  0  0  0  0  0
    2.0000   -1.1160    0.0000 C   0  0  0  0  0  0  0  0  0  0  0  0
    3.5860   -0.5710    0.0000 H   0  0  0  0  0  0  0  0  0  0  0  0
    2.7120    1.3326    0.0000 H   0  0  0  0  0  0  0  0  0  0  0  0
    1.8894    0.8577    0.0000 H   0  0  0  0  0  0  0  0  0  0  0  0
    4.2584   -0.3606    0.0000 H   0  0  0  0  0  0  0  0  0  0  0  0
    4.9486    0.0379    0.0000 H   0  0  0  0  0  0  0  0  0  0  0  0
    1.3800   -1.1160    0.0000 H   0  0  0  0  0  0  0  0  0  0  0  0
    2.3100   -1.6530    0.0000 H   0  0  0  0  0  0  0  0  0  0  0  0
    5.4860    1.1160    0.0000 H   0  0  0  0  0  0  0  0  0  0  0  0
  1  5  1  0  0  0  0
  1 14  1  0  0  0  0
  2  3  1  0  0  0  0
  2  4  1  0  0  0  0
  2  5  1  0  0  0  0
  2  7  1  0  0  0  0
  3  4  1  0  0  0  0
  3  8  1  0  0  0  0
  3  9  1  0  0  0  0
  4  6  2  0  0  0  0
  5 10  1  0  0  0  0
  5 11  1  0  0  0  0
  6 12  1  0  0  0  0
  6 13  1  0  0  0  0
M  END
> <PUBCHEM_COMPOUND_CID>
520424
> <PUBCHEM_COMPOUND_CANONICALIZED>
1
> <PUBCHEM_CACTVS_COMPLEXITY>
76
> <PUBCHEM_CACTVS_HBOND_ACCEPTOR>
1
> <PUBCHEM_CACTVS_HBOND_DONOR>
1
> <PUBCHEM_CACTVS_ROTATABLE_BOND>
1
> <PUBCHEM_CACTVS_SUBSKEYS>
AAADccBgIAAAAAAAAAAAAAAAGAAAAAAAAAAAAAAAAAAAAAAAAAAAGgAACAAADQCggAIAAAAAAgCAAgBCAAAAAAAgAAAAAAAAAAgAEAAAAQAAQAAEwAAAAAAAAAAAAAAAAAAAAAAAAAAAAAAAAAAAAAAAAA==
> <PUBCHEM_IUPAC_OPENEYE_NAME>
(2-methylenecyclopropyl)methanol
> <PUBCHEM_IUPAC_CAS_NAME>
(2-methylenecyclopropyl)methanol
> <PUBCHEM_IUPAC_NAME_MARKUP>
(2-methylidenecyclopropyl)methanol
> <PUBCHEM_IUPAC_NAME>
(2-methylidenecyclopropyl)methanol
> <PUBCHEM_IUPAC_SYSTEMATIC_NAME>
(2-methylidenecyclopropyl)methanol
> <PUBCHEM_IUPAC_TRADITIONAL_NAME>
(2-methylenecyclopropyl)methanol
> <PUBCHEM_IUPAC_INCHI>
InChI=1S/C5H8O/c1-4-2-5(4)3-6/h5-6H,1-3H2
> <PUBCHEM_IUPAC_INCHIKEY>
CQFQAARMEJVWAL-UHFFFAOYSA-N
> <PUBCHEM_XLOGP3_AA>
0.1
> <PUBCHEM_EXACT_MASS>
84.057514874
> <PUBCHEM_MOLECULAR_FORMULA>
C5H8O
> <PUBCHEM_MOLECULAR_WEIGHT>
84.12
> <PUBCHEM_OPENEYE_CAN_SMILES>
C=C1CC1CO
> <PUBCHEM_OPENEYE_ISO_SMILES>
C=C1CC1CO
> <PUBCHEM_CACTVS_TPSA>
20.2
> <PUBCHEM_MONOISOTOPIC_WEIGHT>
84.057514874
> <PUBCHEM_TOTAL_CHARGE>
0
> <PUBCHEM_HEAVY_ATOM_COUNT>
6
> <PUBCHEM_ATOM_DEF_STEREO_COUNT>
0
> <PUBCHEM_ATOM_UDEF_STEREO_COUNT>
1
> <PUBCHEM_BOND_DEF_STEREO_COUNT>
0
> <PUBCHEM_BOND_UDEF_STEREO_COUNT>
0
> <PUBCHEM_ISOTOPIC_ATOM_COUNT>
0
> <PUBCHEM_COMPONENT_COUNT>
1
> <PUBCHEM_CACTVS_TAUTO_COUNT>
1
> <PUBCHEM_COORDINATE_TYPE>
1
5
255
> <PUBCHEM_BONDANNOTATIONS>
2  7  3
$$$$
