520404
  -OEChem-10302200292D
 30 30  0     1  0  0  0  0  0999 V2000
    3.0878   -0.0761    0.0000 C   0  0  3  0  0  0  0  0  0  0  0  0
    2.5878   -1.6149    0.0000 C   0  0  3  0  0  0  0  0  0  0  0  0
    2.2788   -0.6639    0.0000 C   0  0  0  0  0  0  0  0  0  0  0  0
    3.8968   -0.6639    0.0000 C   0  0  0  0  0  0  0  0  0  0  0  0
    3.5878   -1.6149    0.0000 C   0  0  0  0  0  0  0  0  0  0  0  0
    3.0878    0.9239    0.0000 C   0  0  0  0  0  0  0  0  0  0  0  0
    3.9538    1.4239    0.0000 C   0  0  0  0  0  0  0  0  0  0  0  0
    2.0000   -2.4239    0.0000 C   0  0  0  0  0  0  0  0  0  0  0  0
    3.9538    2.4239    0.0000 C   0  0  0  0  0  0  0  0  0  0  0  0
    4.8198    0.9239    0.0000 C   0  0  0  0  0  0  0  0  0  0  0  0
    3.8451    0.3098    0.0000 H   0  0  0  0  0  0  0  0  0  0  0  0
    1.7482   -1.4819    0.0000 H   0  0  0  0  0  0  0  0  0  0  0  0
    1.9688   -0.1269    0.0000 H   0  0  0  0  0  0  0  0  0  0  0  0
    1.7124   -0.9160    0.0000 H   0  0  0  0  0  0  0  0  0  0  0  0
    4.4632   -0.9160    0.0000 H   0  0  0  0  0  0  0  0  0  0  0  0
    4.2068   -0.1269    0.0000 H   0  0  0  0  0  0  0  0  0  0  0  0
    3.5230   -2.2315    0.0000 H   0  0  0  0  0  0  0  0  0  0  0  0
    4.1942   -1.7438    0.0000 H   0  0  0  0  0  0  0  0  0  0  0  0
    2.8757    1.5065    0.0000 H   0  0  0  0  0  0  0  0  0  0  0  0
    2.4772    0.8163    0.0000 H   0  0  0  0  0  0  0  0  0  0  0  0
    3.9538    0.8039    0.0000 H   0  0  0  0  0  0  0  0  0  0  0  0
    1.4984   -2.0595    0.0000 H   0  0  0  0  0  0  0  0  0  0  0  0
    1.6356   -2.9255    0.0000 H   0  0  0  0  0  0  0  0  0  0  0  0
    2.5016   -2.7884    0.0000 H   0  0  0  0  0  0  0  0  0  0  0  0
    4.5738    2.4239    0.0000 H   0  0  0  0  0  0  0  0  0  0  0  0
    3.9538    3.0439    0.0000 H   0  0  0  0  0  0  0  0  0  0  0  0
    3.3338    2.4239    0.0000 H   0  0  0  0  0  0  0  0  0  0  0  0
    4.5098    0.3870    0.0000 H   0  0  0  0  0  0  0  0  0  0  0  0
    5.3568    0.6139    0.0000 H   0  0  0  0  0  0  0  0  0  0  0  0
    5.1298    1.4609    0.0000 H   0  0  0  0  0  0  0  0  0  0  0  0
  1  3  1  0  0  0  0
  1  4  1  0  0  0  0
  1  6  1  0  0  0  0
  1 11  1  0  0  0  0
  2  3  1  0  0  0  0
  2  5  1  0  0  0  0
  2  8  1  0  0  0  0
  2 12  1  0  0  0  0
  3 13  1  0  0  0  0
  3 14  1  0  0  0  0
  4  5  1  0  0  0  0
  4 15  1  0  0  0  0
  4 16  1  0  0  0  0
  5 17  1  0  0  0  0
  5 18  1  0  0  0  0
  6  7  1  0  0  0  0
  6 19  1  0  0  0  0
  6 20  1  0  0  0  0
  7  9  1  0  0  0  0
  7 10  1  0  0  0  0
  7 21  1  0  0  0  0
  8 22  1  0  0  0  0
  8 23  1  0  0  0  0
  8 24  1  0  0  0  0
  9 25  1  0  0  0  0
  9 26  1  0  0  0  0
  9 27  1  0  0  0  0
 10 28  1  0  0  0  0
 10 29  1  0  0  0  0
 10 30  1  0  0  0  0
M  END
> <PUBCHEM_COMPOUND_CID>
520404
> <PUBCHEM_COMPOUND_CANONICALIZED>
1
> <PUBCHEM_CACTVS_COMPLEXITY>
94.2
> <PUBCHEM_CACTVS_HBOND_ACCEPTOR>
0
> <PUBCHEM_CACTVS_HBOND_DONOR>
0
> <PUBCHEM_CACTVS_ROTATABLE_BOND>
2
> <PUBCHEM_CACTVS_SUBSKEYS>
AAADceBwAAAAAAAAAAAAAAAAAAAAAYAAAAAAAAAAAAAAAAAAAAAAGAAAAAAADQCAAAACAAAAAAAAAAAAAAAAAAAAAAAAAAAAAAAAAAIAAAAAAAAAAAAAAAEAgMAOAAAAAAAAAAAAAAAAAAAAAQAAAAAAAA==
> <PUBCHEM_IUPAC_OPENEYE_NAME>
1-isobutyl-3-methyl-cyclopentane
> <PUBCHEM_IUPAC_CAS_NAME>
1-methyl-3-(2-methylpropyl)cyclopentane
> <PUBCHEM_IUPAC_NAME_MARKUP>
1-methyl-3-(2-methylpropyl)cyclopentane
> <PUBCHEM_IUPAC_NAME>
1-methyl-3-(2-methylpropyl)cyclopentane
> <PUBCHEM_IUPAC_SYSTEMATIC_NAME>
1-methyl-3-(2-methylpropyl)cyclopentane
> <PUBCHEM_IUPAC_TRADITIONAL_NAME>
1-isobutyl-3-methyl-cyclopentane
> <PUBCHEM_IUPAC_INCHI>
InChI=1S/C10H20/c1-8(2)6-10-5-4-9(3)7-10/h8-10H,4-7H2,1-3H3
> <PUBCHEM_IUPAC_INCHIKEY>
GTALJEOQBKHHJE-UHFFFAOYSA-N
> <PUBCHEM_XLOGP3_AA>
4.5
> <PUBCHEM_EXACT_MASS>
140.156500638
> <PUBCHEM_MOLECULAR_FORMULA>
C10H20
> <PUBCHEM_MOLECULAR_WEIGHT>
140.27
> <PUBCHEM_OPENEYE_CAN_SMILES>
CC1CCC(C1)CC(C)C
> <PUBCHEM_OPENEYE_ISO_SMILES>
CC1CCC(C1)CC(C)C
> <PUBCHEM_CACTVS_TPSA>
0
> <PUBCHEM_MONOISOTOPIC_WEIGHT>
140.156500638
> <PUBCHEM_TOTAL_CHARGE>
0
> <PUBCHEM_HEAVY_ATOM_COUNT>
10
> <PUBCHEM_ATOM_DEF_STEREO_COUNT>
0
> <PUBCHEM_ATOM_UDEF_STEREO_COUNT>
2
> <PUBCHEM_BOND_DEF_STEREO_COUNT>
0
> <PUBCHEM_BOND_UDEF_STEREO_COUNT>
0
> <PUBCHEM_ISOTOPIC_ATOM_COUNT>
0
> <PUBCHEM_COMPONENT_COUNT>
1
> <PUBCHEM_CACTVS_TAUTO_COUNT>
1
> <PUBCHEM_COORDINATE_TYPE>
1
5
255
> <PUBCHEM_BONDANNOTATIONS>
1  11  3
2  12  3
$$$$
