520490
  -OEChem-10302200292D
 20 19  0     1  0  0  0  0  0999 V2000
    4.0981    0.6160    0.0000 Cl  0  0  0  0  0  0  0  0  0  0  0  0
    6.8301   -0.1160    0.0000 Cl  0  0  0  0  0  0  0  0  0  0  0  0
    8.0622    1.7500    0.0000 Cl  0  0  0  0  0  0  0  0  0  0  0  0
    2.0000   -1.7500    0.0000 Cl  0  0  0  0  0  0  0  0  0  0  0  0
    2.3660   -0.3840    0.0000 Cl  0  0  0  0  0  0  0  0  0  0  0  0
    5.9641   -0.6160    0.0000 F   0  0  0  0  0  0  0  0  0  0  0  0
    4.9641    1.1160    0.0000 F   0  0  0  0  0  0  0  0  0  0  0  0
    5.0981   -1.1160    0.0000 F   0  0  0  0  0  0  0  0  0  0  0  0
    5.8301    1.6160    0.0000 F   0  0  0  0  0  0  0  0  0  0  0  0
    3.2320    0.1160    0.0000 F   0  0  0  0  0  0  0  0  0  0  0  0
    4.2320   -1.6160    0.0000 F   0  0  0  0  0  0  0  0  0  0  0  0
    7.6962    0.3840    0.0000 F   0  0  0  0  0  0  0  0  0  0  0  0
    6.6962    2.1160    0.0000 F   0  0  0  0  0  0  0  0  0  0  0  0
    3.3660   -2.1160    0.0000 F   0  0  0  0  0  0  0  0  0  0  0  0
    5.4641    0.2500    0.0000 C   0  0  0  0  0  0  0  0  0  0  0  0
    4.5981   -0.2500    0.0000 C   0  0  3  0  0  0  0  0  0  0  0  0
    6.3301    0.7500    0.0000 C   0  0  3  0  0  0  0  0  0  0  0  0
    3.7320   -0.7500    0.0000 C   0  0  0  0  0  0  0  0  0  0  0  0
    7.1962    1.2500    0.0000 C   0  0  0  0  0  0  0  0  0  0  0  0
    2.8660   -1.2500    0.0000 C   0  0  0  0  0  0  0  0  0  0  0  0
  1 16  1  0  0  0  0
  2 17  1  0  0  0  0
  3 19  1  0  0  0  0
  4 20  1  0  0  0  0
  5 20  1  0  0  0  0
  6 15  1  0  0  0  0
  7 15  1  0  0  0  0
  8 16  1  0  0  0  0
  9 17  1  0  0  0  0
 10 18  1  0  0  0  0
 11 18  1  0  0  0  0
 12 19  1  0  0  0  0
 13 19  1  0  0  0  0
 14 20  1  0  0  0  0
 15 16  1  0  0  0  0
 15 17  1  0  0  0  0
 16 18  1  0  0  0  0
 17 19  1  0  0  0  0
 18 20  1  0  0  0  0
M  END
> <PUBCHEM_COMPOUND_CID>
520490
> <PUBCHEM_COMPOUND_CANONICALIZED>
1
> <PUBCHEM_CACTVS_COMPLEXITY>
387
> <PUBCHEM_CACTVS_HBOND_ACCEPTOR>
9
> <PUBCHEM_CACTVS_HBOND_DONOR>
0
> <PUBCHEM_CACTVS_ROTATABLE_BOND>
5
> <PUBCHEM_CACTVS_SUBSKEYS>
AAADcQBgAcAHAAAAAAAAAAAAAAAAAAAAAAAAAAAAAAAAAAAAAAAACQIAAAAACAIAAJAAAAAAAAAAAAAAAAAAAAAAAAAAAEAAAgAAAAIBAAAAAAAAAAAAAAEAAAAAAAAAAAAAAAAAAAAAAAAAAAAAAAAAAA==
> <PUBCHEM_IUPAC_OPENEYE_NAME>
1,1,3,5,6-pentachloro-1,2,2,3,4,4,5,6,6-nonafluoro-hexane
> <PUBCHEM_IUPAC_CAS_NAME>
1,1,3,5,6-pentachloro-1,2,2,3,4,4,5,6,6-nonafluorohexane
> <PUBCHEM_IUPAC_NAME_MARKUP>
1,1,3,5,6-pentachloro-1,2,2,3,4,4,5,6,6-nonafluorohexane
> <PUBCHEM_IUPAC_NAME>
1,1,3,5,6-pentachloro-1,2,2,3,4,4,5,6,6-nonafluorohexane
> <PUBCHEM_IUPAC_SYSTEMATIC_NAME>
1,1,3,5,6-pentakis(chloranyl)-1,2,2,3,4,4,5,6,6-nonakis(fluoranyl)hexane
> <PUBCHEM_IUPAC_TRADITIONAL_NAME>
1,1,3,5,6-pentachloro-1,2,2,3,4,4,5,6,6-nonafluoro-hexane
> <PUBCHEM_IUPAC_INCHI>
InChI=1S/C6Cl5F9/c7-1(12,4(16,17)5(9,10)18)3(14,15)2(8,13)6(11,19)20
> <PUBCHEM_IUPAC_INCHIKEY>
DVAVTWDOWVBESE-UHFFFAOYSA-N
> <PUBCHEM_XLOGP3_AA>
6.4
> <PUBCHEM_EXACT_MASS>
419.826942
> <PUBCHEM_MOLECULAR_FORMULA>
C6Cl5F9
> <PUBCHEM_MOLECULAR_WEIGHT>
420.3
> <PUBCHEM_OPENEYE_CAN_SMILES>
C(C(C(C(F)(Cl)Cl)(F)F)(F)Cl)(C(C(F)(F)Cl)(F)Cl)(F)F
> <PUBCHEM_OPENEYE_ISO_SMILES>
C(C(C(C(F)(Cl)Cl)(F)F)(F)Cl)(C(C(F)(F)Cl)(F)Cl)(F)F
> <PUBCHEM_CACTVS_TPSA>
0
> <PUBCHEM_MONOISOTOPIC_WEIGHT>
417.829892
> <PUBCHEM_TOTAL_CHARGE>
0
> <PUBCHEM_HEAVY_ATOM_COUNT>
20
> <PUBCHEM_ATOM_DEF_STEREO_COUNT>
0
> <PUBCHEM_ATOM_UDEF_STEREO_COUNT>
2
> <PUBCHEM_BOND_DEF_STEREO_COUNT>
0
> <PUBCHEM_BOND_UDEF_STEREO_COUNT>
0
> <PUBCHEM_ISOTOPIC_ATOM_COUNT>
0
> <PUBCHEM_COMPONENT_COUNT>
1
> <PUBCHEM_CACTVS_TAUTO_COUNT>
-1
> <PUBCHEM_COORDINATE_TYPE>
1
5
255
> <PUBCHEM_BONDANNOTATIONS>
16  8  3
17  9  3
$$$$
