520469
  -OEChem-10302200292D
 61 62  0     1  0  0  0  0  0999 V2000
    6.5985    0.9306    0.0000 O   0  0  0  0  0  0  0  0  0  0  0  0
    7.1962   -0.3511    0.0000 O   0  0  0  0  0  0  0  0  0  0  0  0
    5.4641   -0.3511    0.0000 O   0  0  0  0  0  0  0  0  0  0  0  0
    9.1532    1.3417    0.0000 O   0  0  0  0  0  0  0  0  0  0  0  0
    7.9367    3.1454    0.0000 O   0  0  0  0  0  0  0  0  0  0  0  0
    7.1962   -2.3511    0.0000 O   0  0  0  0  0  0  0  0  0  0  0  0
    5.4641   -3.3511    0.0000 O   0  0  0  0  0  0  0  0  0  0  0  0
    3.7320   -2.3511    0.0000 O   0  0  0  0  0  0  0  0  0  0  0  0
    8.1870   -1.0173    0.0000 O   0  0  0  0  0  0  0  0  0  0  0  0
    4.9182    2.1711    0.0000 O   0  0  0  0  0  0  0  0  0  0  0  0
    3.7320    0.6489    0.0000 O   0  0  0  0  0  0  0  0  0  0  0  0
   10.6825    2.1549    0.0000 O   0  5  0  0  0  0  0  0  0  0  0  0
    9.2137    3.0727    0.0000 O   0  0  0  0  0  0  0  0  0  0  0  0
    7.6359    4.8511    0.0000 O   0  5  0  0  0  0  0  0  0  0  0  0
    6.3091    3.7377    0.0000 O   0  0  0  0  0  0  0  0  0  0  0  0
    8.0622   -3.8511    0.0000 O   0  5  0  0  0  0  0  0  0  0  0  0
    6.3301   -3.8511    0.0000 O   0  0  0  0  0  0  0  0  0  0  0  0
    4.5981   -4.8511    0.0000 O   0  5  0  0  0  0  0  0  0  0  0  0
    3.7320   -3.3511    0.0000 O   0  0  0  0  0  0  0  0  0  0  0  0
    2.0000   -2.3511    0.0000 O   0  5  0  0  0  0  0  0  0  0  0  0
    2.8660   -0.8511    0.0000 O   0  0  0  0  0  0  0  0  0  0  0  0
    9.9022   -1.2584    0.0000 O   0  5  0  0  0  0  0  0  0  0  0  0
    8.8358   -2.6232    0.0000 O   0  0  0  0  0  0  0  0  0  0  0  0
    3.2030    2.4121    0.0000 O   0  5  0  0  0  0  0  0  0  0  0  0
    4.2694    3.7770    0.0000 O   0  0  0  0  0  0  0  0  0  0  0  0
    2.5240    2.0886    0.0000 O   0  5  0  0  0  0  0  0  0  0  0  0
    2.0000    0.6489    0.0000 O   0  0  0  0  0  0  0  0  0  0  0  0
    9.6831    2.1898    0.0000 N   0  3  0  0  0  0  0  0  0  0  0  0
    7.2939    3.9114    0.0000 N   0  3  0  0  0  0  0  0  0  0  0  0
    7.1962   -3.3511    0.0000 N   0  3  0  0  0  0  0  0  0  0  0  0
    4.5981   -3.8511    0.0000 N   0  3  0  0  0  0  0  0  0  0  0  0
    2.8660   -1.8511    0.0000 N   0  3  0  0  0  0  0  0  0  0  0  0
    8.9750   -1.6330    0.0000 N   0  3  0  0  0  0  0  0  0  0  0  0
    4.1302    2.7867    0.0000 N   0  3  0  0  0  0  0  0  0  0  0  0
    2.8660    1.1489    0.0000 N   0  3  0  0  0  0  0  0  0  0  0  0
    7.5382    0.5886    0.0000 C   0  0  3  0  0  0  0  0  0  0  0  0
    8.1538    1.3766    0.0000 C   0  0  3  0  0  0  0  0  0  0  0  0
    7.5946    2.2057    0.0000 C   0  0  3  0  0  0  0  0  0  0  0  0
    6.6334    1.9300    0.0000 C   0  0  3  0  0  0  0  0  0  0  0  0
    6.3301   -0.8511    0.0000 C   0  0  3  0  0  0  0  0  0  0  0  0
    6.3301   -1.8511    0.0000 C   0  0  3  0  0  0  0  0  0  0  0  0
    5.4641   -2.3511    0.0000 C   0  0  3  0  0  0  0  0  0  0  0  0
    4.5981   -1.8511    0.0000 C   0  0  3  0  0  0  0  0  0  0  0  0
    4.5981   -0.8511    0.0000 C   0  0  3  0  0  0  0  0  0  0  0  0
    8.3262   -0.0271    0.0000 C   0  0  0  0  0  0  0  0  0  0  0  0
    5.8454    2.5457    0.0000 C   0  0  0  0  0  0  0  0  0  0  0  0
    3.7320   -0.3511    0.0000 C   0  0  0  0  0  0  0  0  0  0  0  0
    8.5659    2.1200    0.0000 H   0  0  0  0  0  0  0  0  0  0  0  0
    8.4383    2.3092    0.0000 H   0  0  0  0  0  0  0  0  0  0  0  0
    5.8630    1.5708    0.0000 H   0  0  0  0  0  0  0  0  0  0  0  0
    6.3301   -0.0011    0.0000 H   0  0  0  0  0  0  0  0  0  0  0  0
    7.0662   -1.4261    0.0000 H   0  0  0  0  0  0  0  0  0  0  0  0
    4.7280   -2.7761    0.0000 H   0  0  0  0  0  0  0  0  0  0  0  0
    3.8620   -1.4261    0.0000 H   0  0  0  0  0  0  0  0  0  0  0  0
    4.5981   -0.0011    0.0000 H   0  0  0  0  0  0  0  0  0  0  0  0
    8.9158   -0.2186    0.0000 H   0  0  0  0  0  0  0  0  0  0  0  0
    8.6173    0.5204    0.0000 H   0  0  0  0  0  0  0  0  0  0  0  0
    6.3061    2.9605    0.0000 H   0  0  0  0  0  0  0  0  0  0  0  0
    5.5168    3.0715    0.0000 H   0  0  0  0  0  0  0  0  0  0  0  0
    3.1215   -0.2434    0.0000 H   0  0  0  0  0  0  0  0  0  0  0  0
    3.5200   -0.9337    0.0000 H   0  0  0  0  0  0  0  0  0  0  0  0
  1 36  1  0  0  0  0
  1 39  1  0  0  0  0
  2 36  1  0  0  0  0
  2 40  1  0  0  0  0
  3 40  1  0  0  0  0
  3 44  1  0  0  0  0
  4 28  1  0  0  0  0
  4 37  1  0  0  0  0
  5 29  1  0  0  0  0
  5 38  1  0  0  0  0
  6 30  1  0  0  0  0
  6 41  1  0  0  0  0
  7 31  1  0  0  0  0
  7 42  1  0  0  0  0
  8 32  1  0  0  0  0
  8 43  1  0  0  0  0
  9 33  1  0  0  0  0
  9 45  1  0  0  0  0
 10 34  1  0  0  0  0
 10 46  1  0  0  0  0
 11 35  1  0  0  0  0
 11 47  1  0  0  0  0
 12 28  1  0  0  0  0
 13 28  2  0  0  0  0
 14 29  1  0  0  0  0
 15 29  2  0  0  0  0
 16 30  1  0  0  0  0
 17 30  2  0  0  0  0
 18 31  1  0  0  0  0
 19 31  2  0  0  0  0
 20 32  1  0  0  0  0
 21 32  2  0  0  0  0
 22 33  1  0  0  0  0
 23 33  2  0  0  0  0
 24 34  1  0  0  0  0
 25 34  2  0  0  0  0
 26 35  1  0  0  0  0
 27 35  2  0  0  0  0
 36 37  1  0  0  0  0
 36 45  1  0  0  0  0
 37 38  1  0  0  0  0
 37 48  1  0  0  0  0
 38 39  1  0  0  0  0
 38 49  1  0  0  0  0
 39 46  1  0  0  0  0
 39 50  1  0  0  0  0
 40 41  1  0  0  0  0
 40 51  1  0  0  0  0
 41 42  1  0  0  0  0
 41 52  1  0  0  0  0
 42 43  1  0  0  0  0
 42 53  1  0  0  0  0
 43 44  1  0  0  0  0
 43 54  1  0  0  0  0
 44 47  1  0  0  0  0
 44 55  1  0  0  0  0
 45 56  1  0  0  0  0
 45 57  1  0  0  0  0
 46 58  1  0  0  0  0
 46 59  1  0  0  0  0
 47 60  1  0  0  0  0
 47 61  1  0  0  0  0
M  CHG  8  12  -1  14  -1  16  -1  18  -1  20  -1  22  -1  24  -1  26  -1
M  CHG  8  28   1  29   1  30   1  31   1  32   1  33   1  34   1  35   1
M  END
> <PUBCHEM_COMPOUND_CID>
520469
> <PUBCHEM_COMPOUND_CANONICALIZED>
1
> <PUBCHEM_CACTVS_COMPLEXITY>
1190
> <PUBCHEM_CACTVS_HBOND_ACCEPTOR>
27
> <PUBCHEM_CACTVS_HBOND_DONOR>
0
> <PUBCHEM_CACTVS_ROTATABLE_BOND>
13
> <PUBCHEM_CACTVS_SUBSKEYS>
AAADccBz/gAAAAAAAAAAAAAAAAAAASAAAAAkAAAAAAAAAAAAAAAAGgAEAAAACBSwgAMACAAARAABAAAAAQAAAAAAAAAAAAAAAAARAAIAAAAiAAAFAAAGAAHAYAwAAAAAAAAAAAAAAAAAAAAAAAAAAAAAAA==
> <PUBCHEM_IUPAC_OPENEYE_NAME>
[2-[3,4-dinitrooxy-2,5-bis(nitrooxymethyl)tetrahydrofuran-2-yl]oxy-3,5-dinitrooxy-6-(nitrooxymethyl)tetrahydropyran-4-yl] nitrate
> <PUBCHEM_IUPAC_CAS_NAME>
nitric acid [2-[[3,4-dinitrooxy-2,5-bis(nitrooxymethyl)-2-oxolanyl]oxy]-3,5-dinitrooxy-6-(nitrooxymethyl)-4-oxanyl] ester
> <PUBCHEM_IUPAC_NAME_MARKUP>
[2-[3,4-dinitrooxy-2,5-bis(nitrooxymethyl)oxolan-2-yl]oxy-3,5-dinitrooxy-6-(nitrooxymethyl)oxan-4-yl] nitrate
> <PUBCHEM_IUPAC_NAME>
[2-[3,4-dinitrooxy-2,5-bis(nitrooxymethyl)oxolan-2-yl]oxy-3,5-dinitrooxy-6-(nitrooxymethyl)oxan-4-yl] nitrate
> <PUBCHEM_IUPAC_SYSTEMATIC_NAME>
[2-[3,4-dinitrooxy-2,5-bis(nitrooxymethyl)oxolan-2-yl]oxy-3,5-dinitrooxy-6-(nitrooxymethyl)oxan-4-yl] nitrate
> <PUBCHEM_IUPAC_TRADITIONAL_NAME>
nitric acid [2-[3,4-dinitrooxy-2,5-bis(nitrooxymethyl)tetrahydrofuran-2-yl]oxy-3,5-dinitrooxy-6-(nitrooxymethyl)tetrahydropyran-4-yl] ester
> <PUBCHEM_IUPAC_INCHI>
InChI=1S/C12H14N8O27/c21-13(22)37-1-4-6(43-16(27)28)8(45-18(31)32)9(46-19(33)34)11(40-4)42-12(3-39-15(25)26)10(47-20(35)36)7(44-17(29)30)5(41-12)2-38-14(23)24/h4-11H,1-3H2
> <PUBCHEM_IUPAC_INCHIKEY>
OTDZXQINPOLBHS-UHFFFAOYSA-N
> <PUBCHEM_XLOGP3_AA>
2.1
> <PUBCHEM_EXACT_MASS>
701.99683720
> <PUBCHEM_MOLECULAR_FORMULA>
C12H14N8O27
> <PUBCHEM_MOLECULAR_WEIGHT>
702.28
> <PUBCHEM_OPENEYE_CAN_SMILES>
C(C1C(C(C(C(O1)OC2(C(C(C(O2)CO[N+](=O)[O-])O[N+](=O)[O-])O[N+](=O)[O-])CO[N+](=O)[O-])O[N+](=O)[O-])O[N+](=O)[O-])O[N+](=O)[O-])O[N+](=O)[O-]
> <PUBCHEM_OPENEYE_ISO_SMILES>
C(C1C(C(C(C(O1)OC2(C(C(C(O2)CO[N+](=O)[O-])O[N+](=O)[O-])O[N+](=O)[O-])CO[N+](=O)[O-])O[N+](=O)[O-])O[N+](=O)[O-])O[N+](=O)[O-])O[N+](=O)[O-]
> <PUBCHEM_CACTVS_TPSA>
468
> <PUBCHEM_MONOISOTOPIC_WEIGHT>
701.99683720
> <PUBCHEM_TOTAL_CHARGE>
0
> <PUBCHEM_HEAVY_ATOM_COUNT>
47
> <PUBCHEM_ATOM_DEF_STEREO_COUNT>
0
> <PUBCHEM_ATOM_UDEF_STEREO_COUNT>
9
> <PUBCHEM_BOND_DEF_STEREO_COUNT>
0
> <PUBCHEM_BOND_UDEF_STEREO_COUNT>
0
> <PUBCHEM_ISOTOPIC_ATOM_COUNT>
0
> <PUBCHEM_COMPONENT_COUNT>
1
> <PUBCHEM_CACTVS_TAUTO_COUNT>
1
> <PUBCHEM_COORDINATE_TYPE>
1
5
255
> <PUBCHEM_BONDANNOTATIONS>
36  45  3
37  48  3
38  49  3
39  50  3
40  51  3
41  52  3
42  53  3
43  54  3
44  55  3
$$$$
