520526
  -OEChem-10302200292D
 37 36  0     1  0  0  0  0  0999 V2000
    4.0000    0.1340    0.0000 P   0  0  0  0  0  0  0  0  0  0  0  0
    3.1340   -0.3660    0.0000 O   0  0  0  0  0  0  0  0  0  0  0  0
    3.5000    1.0000    0.0000 O   0  0  0  0  0  0  0  0  0  0  0  0
    4.5000   -0.7321    0.0000 O   0  0  0  0  0  0  0  0  0  0  0  0
    6.5981    0.6340    0.0000 O   0  0  0  0  0  0  0  0  0  0  0  0
    5.7320   -0.8660    0.0000 O   0  0  0  0  0  0  0  0  0  0  0  0
    4.8660    0.6340    0.0000 C   0  0  3  0  0  0  0  0  0  0  0  0
    3.1340   -1.3660    0.0000 C   0  0  0  0  0  0  0  0  0  0  0  0
    2.5000    1.0000    0.0000 C   0  0  0  0  0  0  0  0  0  0  0  0
    4.8660    1.6340    0.0000 C   0  0  0  0  0  0  0  0  0  0  0  0
    5.7320    0.1340    0.0000 C   0  0  0  0  0  0  0  0  0  0  0  0
    2.2680   -1.8660    0.0000 C   0  0  0  0  0  0  0  0  0  0  0  0
    4.0000   -1.8660    0.0000 C   0  0  0  0  0  0  0  0  0  0  0  0
    2.0000    1.8660    0.0000 C   0  0  0  0  0  0  0  0  0  0  0  0
    2.0000    0.1340    0.0000 C   0  0  0  0  0  0  0  0  0  0  0  0
    7.4641    0.1340    0.0000 C   0  0  0  0  0  0  0  0  0  0  0  0
    4.3291    0.9440    0.0000 H   0  0  0  0  0  0  0  0  0  0  0  0
    3.6709   -1.0560    0.0000 H   0  0  0  0  0  0  0  0  0  0  0  0
    2.8100    0.4631    0.0000 H   0  0  0  0  0  0  0  0  0  0  0  0
    5.4860    1.6340    0.0000 H   0  0  0  0  0  0  0  0  0  0  0  0
    4.8660    2.2540    0.0000 H   0  0  0  0  0  0  0  0  0  0  0  0
    4.2460    1.6340    0.0000 H   0  0  0  0  0  0  0  0  0  0  0  0
    1.9580   -1.3291    0.0000 H   0  0  0  0  0  0  0  0  0  0  0  0
    1.7310   -2.1760    0.0000 H   0  0  0  0  0  0  0  0  0  0  0  0
    2.5780   -2.4030    0.0000 H   0  0  0  0  0  0  0  0  0  0  0  0
    3.6900   -2.4030    0.0000 H   0  0  0  0  0  0  0  0  0  0  0  0
    4.5369   -2.1760    0.0000 H   0  0  0  0  0  0  0  0  0  0  0  0
    4.3100   -1.3291    0.0000 H   0  0  0  0  0  0  0  0  0  0  0  0
    2.5369    2.1760    0.0000 H   0  0  0  0  0  0  0  0  0  0  0  0
    1.6900    2.4030    0.0000 H   0  0  0  0  0  0  0  0  0  0  0  0
    1.4631    1.5560    0.0000 H   0  0  0  0  0  0  0  0  0  0  0  0
    1.4631    0.4440    0.0000 H   0  0  0  0  0  0  0  0  0  0  0  0
    1.6900   -0.4030    0.0000 H   0  0  0  0  0  0  0  0  0  0  0  0
    2.5369   -0.1760    0.0000 H   0  0  0  0  0  0  0  0  0  0  0  0
    7.1541   -0.4030    0.0000 H   0  0  0  0  0  0  0  0  0  0  0  0
    8.0010   -0.1760    0.0000 H   0  0  0  0  0  0  0  0  0  0  0  0
    7.7741    0.6709    0.0000 H   0  0  0  0  0  0  0  0  0  0  0  0
  1  2  1  0  0  0  0
  1  3  1  0  0  0  0
  1  4  2  0  0  0  0
  1  7  1  0  0  0  0
  2  8  1  0  0  0  0
  3  9  1  0  0  0  0
  5 11  1  0  0  0  0
  5 16  1  0  0  0  0
  6 11  2  0  0  0  0
  7 10  1  0  0  0  0
  7 11  1  0  0  0  0
  7 17  1  0  0  0  0
  8 12  1  0  0  0  0
  8 13  1  0  0  0  0
  8 18  1  0  0  0  0
  9 14  1  0  0  0  0
  9 15  1  0  0  0  0
  9 19  1  0  0  0  0
 10 20  1  0  0  0  0
 10 21  1  0  0  0  0
 10 22  1  0  0  0  0
 12 23  1  0  0  0  0
 12 24  1  0  0  0  0
 12 25  1  0  0  0  0
 13 26  1  0  0  0  0
 13 27  1  0  0  0  0
 13 28  1  0  0  0  0
 14 29  1  0  0  0  0
 14 30  1  0  0  0  0
 14 31  1  0  0  0  0
 15 32  1  0  0  0  0
 15 33  1  0  0  0  0
 15 34  1  0  0  0  0
 16 35  1  0  0  0  0
 16 36  1  0  0  0  0
 16 37  1  0  0  0  0
M  END
> <PUBCHEM_COMPOUND_CID>
520526
> <PUBCHEM_COMPOUND_CANONICALIZED>
1
> <PUBCHEM_CACTVS_COMPLEXITY>
260
> <PUBCHEM_CACTVS_HBOND_ACCEPTOR>
5
> <PUBCHEM_CACTVS_HBOND_DONOR>
0
> <PUBCHEM_CACTVS_ROTATABLE_BOND>
7
> <PUBCHEM_CACTVS_SUBSKEYS>
AAADceBwOAIAAAAAAAAAAAAAAAAAAAAAAAAAAAAAAAAAAAAAAAAAGggAACAACBSogAICCAAABRAIQACQCIAAAAAAAAAAAAEAAAAAAAAAAAAAAAAAAAAAAAAAAAAAAAAAAAAAAAAAAAAAAAAAAAAAAAAAAA==
> <PUBCHEM_IUPAC_OPENEYE_NAME>
methyl 2-diisopropoxyphosphorylpropanoate
> <PUBCHEM_IUPAC_CAS_NAME>
2-di(propan-2-yloxy)phosphorylpropanoic acid methyl ester
> <PUBCHEM_IUPAC_NAME_MARKUP>
methyl 2-di(propan-2-yloxy)phosphorylpropanoate
> <PUBCHEM_IUPAC_NAME>
methyl 2-di(propan-2-yloxy)phosphorylpropanoate
> <PUBCHEM_IUPAC_SYSTEMATIC_NAME>
methyl 2-di(propan-2-yloxy)phosphorylpropanoate
> <PUBCHEM_IUPAC_TRADITIONAL_NAME>
2-diisopropoxyphosphorylpropionic acid methyl ester
> <PUBCHEM_IUPAC_INCHI>
InChI=1S/C10H21O5P/c1-7(2)14-16(12,15-8(3)4)9(5)10(11)13-6/h7-9H,1-6H3
> <PUBCHEM_IUPAC_INCHIKEY>
VYFHWHULKKBRCX-UHFFFAOYSA-N
> <PUBCHEM_XLOGP3_AA>
1.4
> <PUBCHEM_EXACT_MASS>
252.11266076
> <PUBCHEM_MOLECULAR_FORMULA>
C10H21O5P
> <PUBCHEM_MOLECULAR_WEIGHT>
252.24
> <PUBCHEM_OPENEYE_CAN_SMILES>
CC(C)OP(=O)(C(C)C(=O)OC)OC(C)C
> <PUBCHEM_OPENEYE_ISO_SMILES>
CC(C)OP(=O)(C(C)C(=O)OC)OC(C)C
> <PUBCHEM_CACTVS_TPSA>
61.8
> <PUBCHEM_MONOISOTOPIC_WEIGHT>
252.11266076
> <PUBCHEM_TOTAL_CHARGE>
0
> <PUBCHEM_HEAVY_ATOM_COUNT>
16
> <PUBCHEM_ATOM_DEF_STEREO_COUNT>
0
> <PUBCHEM_ATOM_UDEF_STEREO_COUNT>
1
> <PUBCHEM_BOND_DEF_STEREO_COUNT>
0
> <PUBCHEM_BOND_UDEF_STEREO_COUNT>
0
> <PUBCHEM_ISOTOPIC_ATOM_COUNT>
0
> <PUBCHEM_COMPONENT_COUNT>
1
> <PUBCHEM_CACTVS_TAUTO_COUNT>
-1
> <PUBCHEM_COORDINATE_TYPE>
1
5
255
> <PUBCHEM_BONDANNOTATIONS>
7  10  3
$$$$
