520510
  -OEChem-10302200292D
 30 30  0     1  0  0  0  0  0999 V2000
    5.3424    1.0171    0.0000 O   0  0  0  0  0  0  0  0  0  0  0  0
    3.9411    2.0352    0.0000 O   0  0  0  0  0  0  0  0  0  0  0  0
    2.9511   -0.2751    0.0000 C   0  0  0  0  0  0  0  0  0  0  0  0
    3.7601    0.3126    0.0000 C   0  0  3  0  0  0  0  0  0  0  0  0
    3.2601   -1.2262    0.0000 C   0  0  3  0  0  0  0  0  0  0  0  0
    4.5691   -0.2751    0.0000 C   0  0  0  0  0  0  0  0  0  0  0  0
    4.2601   -1.2262    0.0000 C   0  0  0  0  0  0  0  0  0  0  0  0
    2.0000   -0.5842    0.0000 C   0  0  0  0  0  0  0  0  0  0  0  0
    2.3633    0.5339    0.0000 C   0  0  0  0  0  0  0  0  0  0  0  0
    3.1723    1.1217    0.0000 C   0  0  0  0  0  0  0  0  0  0  0  0
    2.6723   -2.0352    0.0000 C   0  0  0  0  0  0  0  0  0  0  0  0
    4.3479    1.1217    0.0000 C   0  0  0  0  0  0  0  0  0  0  0  0
    2.6477   -1.1292    0.0000 H   0  0  0  0  0  0  0  0  0  0  0  0
    5.1355   -0.5273    0.0000 H   0  0  0  0  0  0  0  0  0  0  0  0
    4.8791    0.2618    0.0000 H   0  0  0  0  0  0  0  0  0  0  0  0
    4.1953   -1.8428    0.0000 H   0  0  0  0  0  0  0  0  0  0  0  0
    4.8665   -1.3551    0.0000 H   0  0  0  0  0  0  0  0  0  0  0  0
    1.8084    0.0055    0.0000 H   0  0  0  0  0  0  0  0  0  0  0  0
    1.4103   -0.7757    0.0000 H   0  0  0  0  0  0  0  0  0  0  0  0
    2.1916   -1.1738    0.0000 H   0  0  0  0  0  0  0  0  0  0  0  0
    2.8649    0.8983    0.0000 H   0  0  0  0  0  0  0  0  0  0  0  0
    1.9988    1.0355    0.0000 H   0  0  0  0  0  0  0  0  0  0  0  0
    1.8617    0.1695    0.0000 H   0  0  0  0  0  0  0  0  0  0  0  0
    3.6739    1.4861    0.0000 H   0  0  0  0  0  0  0  0  0  0  0  0
    2.8079    1.6233    0.0000 H   0  0  0  0  0  0  0  0  0  0  0  0
    2.6707    0.7572    0.0000 H   0  0  0  0  0  0  0  0  0  0  0  0
    2.1707   -1.6708    0.0000 H   0  0  0  0  0  0  0  0  0  0  0  0
    2.3079   -2.5368    0.0000 H   0  0  0  0  0  0  0  0  0  0  0  0
    3.1739   -2.3996    0.0000 H   0  0  0  0  0  0  0  0  0  0  0  0
    5.7068    1.5187    0.0000 H   0  0  0  0  0  0  0  0  0  0  0  0
  1 12  1  0  0  0  0
  1 30  1  0  0  0  0
  2 12  2  0  0  0  0
  3  4  1  0  0  0  0
  3  5  1  0  0  0  0
  3  8  1  0  0  0  0
  3  9  1  0  0  0  0
  4  6  1  0  0  0  0
  4 10  1  0  0  0  0
  4 12  1  0  0  0  0
  5  7  1  0  0  0  0
  5 11  1  0  0  0  0
  5 13  1  0  0  0  0
  6  7  1  0  0  0  0
  6 14  1  0  0  0  0
  6 15  1  0  0  0  0
  7 16  1  0  0  0  0
  7 17  1  0  0  0  0
  8 18  1  0  0  0  0
  8 19  1  0  0  0  0
  8 20  1  0  0  0  0
  9 21  1  0  0  0  0
  9 22  1  0  0  0  0
  9 23  1  0  0  0  0
 10 24  1  0  0  0  0
 10 25  1  0  0  0  0
 10 26  1  0  0  0  0
 11 27  1  0  0  0  0
 11 28  1  0  0  0  0
 11 29  1  0  0  0  0
M  END
> <PUBCHEM_COMPOUND_CID>
520510
> <PUBCHEM_COMPOUND_CANONICALIZED>
1
> <PUBCHEM_CACTVS_COMPLEXITY>
208
> <PUBCHEM_CACTVS_HBOND_ACCEPTOR>
2
> <PUBCHEM_CACTVS_HBOND_DONOR>
1
> <PUBCHEM_CACTVS_ROTATABLE_BOND>
1
> <PUBCHEM_CACTVS_SUBSKEYS>
AAADceBwMAAAAAAAAAAAAAAAAAAAAYAAAAAAAAAAAAAAAAAAAAAAGgAACAAADwCAgAACCAAAAgAIAACQCAAAAAAAAAAAAAEAAAAAABIAAAAAQAAEAAAAAAGIyHCPgAAAAAAAAAAAAAAAAAAAAQAACAAAAA==
> <PUBCHEM_IUPAC_OPENEYE_NAME>
1,2,2,3-tetramethylcyclopentanecarboxylic acid
> <PUBCHEM_IUPAC_CAS_NAME>
1,2,2,3-tetramethyl-1-cyclopentanecarboxylic acid
> <PUBCHEM_IUPAC_NAME_MARKUP>
1,2,2,3-tetramethylcyclopentane-1-carboxylic acid
> <PUBCHEM_IUPAC_NAME>
1,2,2,3-tetramethylcyclopentane-1-carboxylic acid
> <PUBCHEM_IUPAC_SYSTEMATIC_NAME>
1,2,2,3-tetramethylcyclopentane-1-carboxylic acid
> <PUBCHEM_IUPAC_TRADITIONAL_NAME>
1,2,2,3-tetramethylcyclopentanecarboxylic acid
> <PUBCHEM_IUPAC_INCHI>
InChI=1S/C10H18O2/c1-7-5-6-10(4,8(11)12)9(7,2)3/h7H,5-6H2,1-4H3,(H,11,12)
> <PUBCHEM_IUPAC_INCHIKEY>
JDFOIACPOPEQLS-UHFFFAOYSA-N
> <PUBCHEM_XLOGP3_AA>
2.8
> <PUBCHEM_EXACT_MASS>
170.130679813
> <PUBCHEM_MOLECULAR_FORMULA>
C10H18O2
> <PUBCHEM_MOLECULAR_WEIGHT>
170.25
> <PUBCHEM_OPENEYE_CAN_SMILES>
CC1CCC(C1(C)C)(C)C(=O)O
> <PUBCHEM_OPENEYE_ISO_SMILES>
CC1CCC(C1(C)C)(C)C(=O)O
> <PUBCHEM_CACTVS_TPSA>
37.3
> <PUBCHEM_MONOISOTOPIC_WEIGHT>
170.130679813
> <PUBCHEM_TOTAL_CHARGE>
0
> <PUBCHEM_HEAVY_ATOM_COUNT>
12
> <PUBCHEM_ATOM_DEF_STEREO_COUNT>
0
> <PUBCHEM_ATOM_UDEF_STEREO_COUNT>
2
> <PUBCHEM_BOND_DEF_STEREO_COUNT>
0
> <PUBCHEM_BOND_UDEF_STEREO_COUNT>
0
> <PUBCHEM_ISOTOPIC_ATOM_COUNT>
0
> <PUBCHEM_COMPONENT_COUNT>
1
> <PUBCHEM_CACTVS_TAUTO_COUNT>
1
> <PUBCHEM_COORDINATE_TYPE>
1
5
255
> <PUBCHEM_BONDANNOTATIONS>
4  10  3
5  11  3
$$$$
