520558
  -OEChem-10302200292D
 57 57  0     1  0  0  0  0  0999 V2000
    3.7601   -7.6597    0.0000 O   0  0  0  0  0  0  0  0  0  0  0  0
    5.5202   -7.3809    0.0000 O   0  0  0  0  0  0  0  0  0  0  0  0
    2.0000   -7.3809    0.0000 O   0  0  0  0  0  0  0  0  0  0  0  0
    5.5720    1.5784    0.0000 C   0  0  0  0  0  0  0  0  0  0  0  0
    5.1653    2.4920    0.0000 C   0  0  0  0  0  0  0  0  0  0  0  0
    4.9843    0.7694    0.0000 C   0  0  0  0  0  0  0  0  0  0  0  0
    5.7531    3.3010    0.0000 C   0  0  0  0  0  0  0  0  0  0  0  0
    5.3910   -0.1441    0.0000 C   0  0  0  0  0  0  0  0  0  0  0  0
    5.3464    4.2146    0.0000 C   0  0  0  0  0  0  0  0  0  0  0  0
    4.8032   -0.9531    0.0000 C   0  0  0  0  0  0  0  0  0  0  0  0
    5.9342    5.0236    0.0000 C   0  0  0  0  0  0  0  0  0  0  0  0
    5.2100   -1.8667    0.0000 C   0  0  0  0  0  0  0  0  0  0  0  0
    5.5274    5.9371    0.0000 C   0  0  0  0  0  0  0  0  0  0  0  0
    4.6222   -2.6757    0.0000 C   0  0  0  0  0  0  0  0  0  0  0  0
    4.2601   -6.1208    0.0000 C   0  0  3  0  0  0  0  0  0  0  0  0
    4.8479   -5.3118    0.0000 C   0  0  0  0  0  0  0  0  0  0  0  0
    6.1152    6.7461    0.0000 C   0  0  0  0  0  0  0  0  0  0  0  0
    3.2601   -6.1208    0.0000 C   0  0  0  0  0  0  0  0  0  0  0  0
    5.0289   -3.5892    0.0000 C   0  0  0  0  0  0  0  0  0  0  0  0
    4.4411   -4.3983    0.0000 C   0  0  0  0  0  0  0  0  0  0  0  0
    4.5691   -7.0719    0.0000 C   0  0  0  0  0  0  0  0  0  0  0  0
    2.9511   -7.0719    0.0000 C   0  0  0  0  0  0  0  0  0  0  0  0
    5.7085    7.6597    0.0000 C   0  0  0  0  0  0  0  0  0  0  0  0
    6.0027    1.1324    0.0000 H   0  0  0  0  0  0  0  0  0  0  0  0
    6.0861    1.9251    0.0000 H   0  0  0  0  0  0  0  0  0  0  0  0
    4.7346    2.9380    0.0000 H   0  0  0  0  0  0  0  0  0  0  0  0
    4.6513    2.1453    0.0000 H   0  0  0  0  0  0  0  0  0  0  0  0
    4.5536    1.2154    0.0000 H   0  0  0  0  0  0  0  0  0  0  0  0
    4.4703    0.4227    0.0000 H   0  0  0  0  0  0  0  0  0  0  0  0
    6.1838    2.8550    0.0000 H   0  0  0  0  0  0  0  0  0  0  0  0
    6.2671    3.6477    0.0000 H   0  0  0  0  0  0  0  0  0  0  0  0
    5.8217   -0.5901    0.0000 H   0  0  0  0  0  0  0  0  0  0  0  0
    5.9050    0.2026    0.0000 H   0  0  0  0  0  0  0  0  0  0  0  0
    4.9157    4.6605    0.0000 H   0  0  0  0  0  0  0  0  0  0  0  0
    4.8324    3.8678    0.0000 H   0  0  0  0  0  0  0  0  0  0  0  0
    4.3725   -0.5072    0.0000 H   0  0  0  0  0  0  0  0  0  0  0  0
    4.2892   -1.2998    0.0000 H   0  0  0  0  0  0  0  0  0  0  0  0
    6.3648    4.5776    0.0000 H   0  0  0  0  0  0  0  0  0  0  0  0
    6.4482    5.3703    0.0000 H   0  0  0  0  0  0  0  0  0  0  0  0
    5.6406   -2.3127    0.0000 H   0  0  0  0  0  0  0  0  0  0  0  0
    5.7240   -1.5200    0.0000 H   0  0  0  0  0  0  0  0  0  0  0  0
    5.0967    6.3831    0.0000 H   0  0  0  0  0  0  0  0  0  0  0  0
    5.0134    5.5904    0.0000 H   0  0  0  0  0  0  0  0  0  0  0  0
    4.1915   -2.2297    0.0000 H   0  0  0  0  0  0  0  0  0  0  0  0
    4.1082   -3.0224    0.0000 H   0  0  0  0  0  0  0  0  0  0  0  0
    4.8724   -6.2178    0.0000 H   0  0  0  0  0  0  0  0  0  0  0  0
    5.2786   -5.7578    0.0000 H   0  0  0  0  0  0  0  0  0  0  0  0
    5.3619   -4.9651    0.0000 H   0  0  0  0  0  0  0  0  0  0  0  0
    6.5459    6.3001    0.0000 H   0  0  0  0  0  0  0  0  0  0  0  0
    6.6292    7.0928    0.0000 H   0  0  0  0  0  0  0  0  0  0  0  0
    3.3249   -5.5042    0.0000 H   0  0  0  0  0  0  0  0  0  0  0  0
    2.6536   -5.9919    0.0000 H   0  0  0  0  0  0  0  0  0  0  0  0
    5.6455   -3.6541    0.0000 H   0  0  0  0  0  0  0  0  0  0  0  0
    3.8245   -4.3335    0.0000 H   0  0  0  0  0  0  0  0  0  0  0  0
    6.2749    7.9118    0.0000 H   0  0  0  0  0  0  0  0  0  0  0  0
    5.4563    8.2261    0.0000 H   0  0  0  0  0  0  0  0  0  0  0  0
    5.1421    7.4075    0.0000 H   0  0  0  0  0  0  0  0  0  0  0  0
  1 21  1  0  0  0  0
  1 22  1  0  0  0  0
  2 21  2  0  0  0  0
  3 22  2  0  0  0  0
  4  5  1  0  0  0  0
  4  6  1  0  0  0  0
  4 24  1  0  0  0  0
  4 25  1  0  0  0  0
  5  7  1  0  0  0  0
  5 26  1  0  0  0  0
  5 27  1  0  0  0  0
  6  8  1  0  0  0  0
  6 28  1  0  0  0  0
  6 29  1  0  0  0  0
  7  9  1  0  0  0  0
  7 30  1  0  0  0  0
  7 31  1  0  0  0  0
  8 10  1  0  0  0  0
  8 32  1  0  0  0  0
  8 33  1  0  0  0  0
  9 11  1  0  0  0  0
  9 34  1  0  0  0  0
  9 35  1  0  0  0  0
 10 12  1  0  0  0  0
 10 36  1  0  0  0  0
 10 37  1  0  0  0  0
 11 13  1  0  0  0  0
 11 38  1  0  0  0  0
 11 39  1  0  0  0  0
 12 14  1  0  0  0  0
 12 40  1  0  0  0  0
 12 41  1  0  0  0  0
 13 17  1  0  0  0  0
 13 42  1  0  0  0  0
 13 43  1  0  0  0  0
 14 19  1  0  0  0  0
 14 44  1  0  0  0  0
 14 45  1  0  0  0  0
 15 16  1  0  0  0  0
 15 18  1  0  0  0  0
 15 21  1  0  0  0  0
 15 46  1  0  0  0  0
 16 20  1  0  0  0  0
 16 47  1  0  0  0  0
 16 48  1  0  0  0  0
 17 23  1  0  0  0  0
 17 49  1  0  0  0  0
 17 50  1  0  0  0  0
 18 22  1  0  0  0  0
 18 51  1  0  0  0  0
 18 52  1  0  0  0  0
 19 20  2  3  0  0  0
 19 53  1  0  0  0  0
 20 54  1  0  0  0  0
 23 55  1  0  0  0  0
 23 56  1  0  0  0  0
 23 57  1  0  0  0  0
M  END
> <PUBCHEM_COMPOUND_CID>
520558
> <PUBCHEM_COMPOUND_CANONICALIZED>
1
> <PUBCHEM_CACTVS_COMPLEXITY>
360
> <PUBCHEM_CACTVS_HBOND_ACCEPTOR>
3
> <PUBCHEM_CACTVS_HBOND_DONOR>
0
> <PUBCHEM_CACTVS_ROTATABLE_BOND>
14
> <PUBCHEM_CACTVS_SUBSKEYS>
AAADcfB4MAAAAAAAAAAAAAAAAAAAASAAAAAAAAAAAAAAAAAAAAAAGgAAAAAADQCAgAACCAAABACIACDSCAAAAAAgAAAICAEAAAgAABIAAQACAAAEgAAIAAOLgIAKAAAAAAAAAAAAAAAAAAAAAAAAAAAAAA==
> <PUBCHEM_IUPAC_OPENEYE_NAME>
3-hexadec-2-enyltetrahydrofuran-2,5-dione
> <PUBCHEM_IUPAC_CAS_NAME>
3-hexadec-2-enyloxolane-2,5-dione
> <PUBCHEM_IUPAC_NAME_MARKUP>
3-hexadec-2-enyloxolane-2,5-dione
> <PUBCHEM_IUPAC_NAME>
3-hexadec-2-enyloxolane-2,5-dione
> <PUBCHEM_IUPAC_SYSTEMATIC_NAME>
3-hexadec-2-enyloxolane-2,5-dione
> <PUBCHEM_IUPAC_TRADITIONAL_NAME>
3-hexadec-2-enyltetrahydrofuran-2,5-quinone
> <PUBCHEM_IUPAC_INCHI>
InChI=1S/C20H34O3/c1-2-3-4-5-6-7-8-9-10-11-12-13-14-15-16-18-17-19(21)23-20(18)22/h14-15,18H,2-13,16-17H2,1H3
> <PUBCHEM_IUPAC_INCHIKEY>
MZDVKESGWJINHY-UHFFFAOYSA-N
> <PUBCHEM_XLOGP3_AA>
7.3
> <PUBCHEM_EXACT_MASS>
322.25079494
> <PUBCHEM_MOLECULAR_FORMULA>
C20H34O3
> <PUBCHEM_MOLECULAR_WEIGHT>
322.5
> <PUBCHEM_OPENEYE_CAN_SMILES>
CCCCCCCCCCCCCC=CCC1CC(=O)OC1=O
> <PUBCHEM_OPENEYE_ISO_SMILES>
CCCCCCCCCCCCCC=CCC1CC(=O)OC1=O
> <PUBCHEM_CACTVS_TPSA>
43.4
> <PUBCHEM_MONOISOTOPIC_WEIGHT>
322.25079494
> <PUBCHEM_TOTAL_CHARGE>
0
> <PUBCHEM_HEAVY_ATOM_COUNT>
23
> <PUBCHEM_ATOM_DEF_STEREO_COUNT>
0
> <PUBCHEM_ATOM_UDEF_STEREO_COUNT>
1
> <PUBCHEM_BOND_DEF_STEREO_COUNT>
0
> <PUBCHEM_BOND_UDEF_STEREO_COUNT>
1
> <PUBCHEM_ISOTOPIC_ATOM_COUNT>
0
> <PUBCHEM_COMPONENT_COUNT>
1
> <PUBCHEM_CACTVS_TAUTO_COUNT>
-1
> <PUBCHEM_COORDINATE_TYPE>
1
5
255
> <PUBCHEM_BONDANNOTATIONS>
15  16  3
19  20  1
$$$$
