520664
  -OEChem-10302200292D
 57 59  0     1  0  0  0  0  0999 V2000
    4.2176    0.9725    0.0000 O   0  0  0  0  0  0  0  0  0  0  0  0
    3.7127    0.4457    0.0000 O   0  0  0  0  0  0  0  0  0  0  0  0
    6.2527   -0.0431    0.0000 O   0  0  0  0  0  0  0  0  0  0  0  0
    2.0000    0.4569    0.0000 O   0  0  0  0  0  0  0  0  0  0  0  0
    6.1132   -2.2167    0.0000 O   0  0  0  0  0  0  0  0  0  0  0  0
    7.1188   -1.5208    0.0000 O   0  0  0  0  0  0  0  0  0  0  0  0
    4.8884   -3.4414    0.0000 O   0  0  0  0  0  0  0  0  0  0  0  0
    4.5594    2.8899    0.0000 N   0  3  3  0  0  0  0  0  0  0  0  0
    4.5594    1.9122    0.0000 C   0  0  3  0  0  0  0  0  0  0  0  0
    3.5395    3.1343    0.0000 C   0  0  0  0  0  0  0  0  0  0  0  0
    3.7127    1.4234    0.0000 C   0  0  3  0  0  0  0  0  0  0  0  0
    3.0181    2.3522    0.0000 C   0  0  0  0  0  0  0  0  0  0  0  0
    5.4949    3.1560    0.0000 C   0  0  0  0  0  0  0  0  0  0  0  0
    5.4061    1.4234    0.0000 C   0  0  0  0  0  0  0  0  0  0  0  0
    4.5384    3.8897    0.0000 C   0  0  0  0  0  0  0  0  0  0  0  0
    6.1032    2.3522    0.0000 C   0  0  0  0  0  0  0  0  0  0  0  0
    5.4061    0.4457    0.0000 C   0  0  0  0  0  0  0  0  0  0  0  0
    2.8660   -0.0431    0.0000 C   0  0  0  0  0  0  0  0  0  0  0  0
    5.4061   -1.5096    0.0000 C   0  0  3  0  0  0  0  0  0  0  0  0
    6.2527   -1.0208    0.0000 C   0  0  0  0  0  0  0  0  0  0  0  0
    2.8660   -1.0208    0.0000 C   0  0  0  0  0  0  0  0  0  0  0  0
    4.5594   -1.0208    0.0000 C   0  0  3  0  0  0  0  0  0  0  0  0
    3.7127   -1.5096    0.0000 C   0  0  0  0  0  0  0  0  0  0  0  0
    5.1473   -2.4755    0.0000 C   0  0  0  0  0  0  0  0  0  0  0  0
    4.5594   -0.0208    0.0000 C   0  0  0  0  0  0  0  0  0  0  0  0
    2.0000   -1.5208    0.0000 C   0  0  0  0  0  0  0  0  0  0  0  0
    5.8544   -3.1826    0.0000 C   0  0  0  0  0  0  0  0  0  0  0  0
    2.0000   -2.5208    0.0000 C   0  0  0  0  0  0  0  0  0  0  0  0
    6.5616   -3.8897    0.0000 C   0  0  0  0  0  0  0  0  0  0  0  0
    3.7538    3.7161    0.0000 H   0  0  0  0  0  0  0  0  0  0  0  0
    2.9869    3.4153    0.0000 H   0  0  0  0  0  0  0  0  0  0  0  0
    3.1244    1.2278    0.0000 H   0  0  0  0  0  0  0  0  0  0  0  0
    2.5446    2.7523    0.0000 H   0  0  0  0  0  0  0  0  0  0  0  0
    2.5669    1.9270    0.0000 H   0  0  0  0  0  0  0  0  0  0  0  0
    6.0316    3.4664    0.0000 H   0  0  0  0  0  0  0  0  0  0  0  0
    5.2530    3.7269    0.0000 H   0  0  0  0  0  0  0  0  0  0  0  0
    5.1583    3.9027    0.0000 H   0  0  0  0  0  0  0  0  0  0  0  0
    4.5254    4.5095    0.0000 H   0  0  0  0  0  0  0  0  0  0  0  0
    3.9186    3.8767    0.0000 H   0  0  0  0  0  0  0  0  0  0  0  0
    6.7232    2.3534    0.0000 H   0  0  0  0  0  0  0  0  0  0  0  0
    4.8000    0.7604    0.0000 H   0  0  0  0  0  0  0  0  0  0  0  0
    4.7955    0.5534    0.0000 H   0  0  0  0  0  0  0  0  0  0  0  0
    5.1940   -0.1369    0.0000 H   0  0  0  0  0  0  0  0  0  0  0  0
    5.0964   -0.7108    0.0000 H   0  0  0  0  0  0  0  0  0  0  0  0
    3.7127   -2.1296    0.0000 H   0  0  0  0  0  0  0  0  0  0  0  0
    4.5484   -2.3150    0.0000 H   0  0  0  0  0  0  0  0  0  0  0  0
    4.9868   -3.0744    0.0000 H   0  0  0  0  0  0  0  0  0  0  0  0
    5.7462   -2.6360    0.0000 H   0  0  0  0  0  0  0  0  0  0  0  0
    5.1794   -0.0207    0.0000 H   0  0  0  0  0  0  0  0  0  0  0  0
    4.5594    0.5992    0.0000 H   0  0  0  0  0  0  0  0  0  0  0  0
    3.9394   -0.0208    0.0000 H   0  0  0  0  0  0  0  0  0  0  0  0
    1.4631   -1.2108    0.0000 H   0  0  0  0  0  0  0  0  0  0  0  0
    1.4631   -2.8308    0.0000 H   0  0  0  0  0  0  0  0  0  0  0  0
    2.5370   -2.8308    0.0000 H   0  0  0  0  0  0  0  0  0  0  0  0
    6.1232   -4.3281    0.0000 H   0  0  0  0  0  0  0  0  0  0  0  0
    7.0000   -4.3281    0.0000 H   0  0  0  0  0  0  0  0  0  0  0  0
    7.0000   -3.4513    0.0000 H   0  0  0  0  0  0  0  0  0  0  0  0
  1  9  1  0  0  0  0
  1 41  1  0  0  0  0
  2 11  1  0  0  0  0
  2 18  1  0  0  0  0
  3 17  1  0  0  0  0
  3 20  1  0  0  0  0
  4 18  2  0  0  0  0
  5 19  1  0  0  0  0
  5 27  1  0  0  0  0
  6 20  2  0  0  0  0
  7 27  2  0  0  0  0
  8  9  1  0  0  0  0
  8 10  1  0  0  0  0
  8 13  1  0  0  0  0
  8 15  1  0  0  0  0
  9 11  1  0  0  0  0
  9 14  1  0  0  0  0
 10 12  1  0  0  0  0
 10 30  1  0  0  0  0
 10 31  1  0  0  0  0
 11 12  1  0  0  0  0
 11 32  1  0  0  0  0
 12 33  1  0  0  0  0
 12 34  1  0  0  0  0
 13 16  1  0  0  0  0
 13 35  1  0  0  0  0
 13 36  1  0  0  0  0
 14 16  2  0  0  0  0
 14 17  1  0  0  0  0
 15 37  1  0  0  0  0
 15 38  1  0  0  0  0
 15 39  1  0  0  0  0
 16 40  1  0  0  0  0
 17 42  1  0  0  0  0
 17 43  1  0  0  0  0
 18 21  1  0  0  0  0
 19 20  1  0  0  0  0
 19 22  1  0  0  0  0
 19 24  1  0  0  0  0
 21 23  2  3  0  0  0
 21 26  1  0  0  0  0
 22 23  1  0  0  0  0
 22 25  1  0  0  0  0
 22 44  1  0  0  0  0
 23 45  1  0  0  0  0
 24 46  1  0  0  0  0
 24 47  1  0  0  0  0
 24 48  1  0  0  0  0
 25 49  1  0  0  0  0
 25 50  1  0  0  0  0
 25 51  1  0  0  0  0
 26 28  2  0  0  0  0
 26 52  1  0  0  0  0
 27 29  1  0  0  0  0
 28 53  1  0  0  0  0
 28 54  1  0  0  0  0
 29 55  1  0  0  0  0
 29 56  1  0  0  0  0
 29 57  1  0  0  0  0
M  CHG  1   8   1
M  END
> <PUBCHEM_COMPOUND_CID>
520664
> <PUBCHEM_COMPOUND_CANONICALIZED>
1
> <PUBCHEM_CACTVS_COMPLEXITY>
831
> <PUBCHEM_CACTVS_HBOND_ACCEPTOR>
7
> <PUBCHEM_CACTVS_HBOND_DONOR>
1
> <PUBCHEM_CACTVS_ROTATABLE_BOND>
3
> <PUBCHEM_CACTVS_SUBSKEYS>
AAADceB6OAAAAAAAAAAAAAAAAAAAAWIAAAAAAAAAAAAQAAAAAAAAHgAACAAADVzhgAYCCAMABgCIAiDSCAKAAAAgAAAICAFIAEgLBBIAoQQHUAAHwACbsYPwQAAIgAAAAAAAAAAAAAAAAAAAAAAAAAAAAA==
> <PUBCHEM_IUPAC_OPENEYE_NAME>
(17-hydroxy-6,7,14-trimethyl-3,8-dioxo-4-vinyl-2,9-dioxa-14-azoniatricyclo[9.5.1.014,17]heptadeca-4,11-dien-7-yl) acetate
> <PUBCHEM_IUPAC_CAS_NAME>
acetic acid (4-ethenyl-17-hydroxy-6,7,14-trimethyl-3,8-dioxo-2,9-dioxa-14-azoniatricyclo[9.5.1.014,17]heptadeca-4,11-dien-7-yl) ester
> <PUBCHEM_IUPAC_NAME_MARKUP>
(4-ethenyl-17-hydroxy-6,7,14-trimethyl-3,8-dioxo-2,9-dioxa-14-azoniatricyclo[9.5.1.0<SUP>14,17</SUP>]heptadeca-4,11-dien-7-yl) acetate
> <PUBCHEM_IUPAC_NAME>
(4-ethenyl-17-hydroxy-6,7,14-trimethyl-3,8-dioxo-2,9-dioxa-14-azoniatricyclo[9.5.1.014,17]heptadeca-4,11-dien-7-yl) acetate
> <PUBCHEM_IUPAC_SYSTEMATIC_NAME>
[4-ethenyl-6,7,14-trimethyl-17-oxidanyl-3,8-bis(oxidanylidene)-2,9-dioxa-14-azoniatricyclo[9.5.1.014,17]heptadeca-4,11-dien-7-yl] ethanoate
> <PUBCHEM_IUPAC_TRADITIONAL_NAME>
acetic acid (17-hydroxy-3,8-diketo-6,7,14-trimethyl-4-vinyl-2,9-dioxa-14-azoniatricyclo[9.5.1.014,17]heptadeca-4,11-dien-7-yl) ester
> <PUBCHEM_IUPAC_INCHI>
InChI=1S/C21H28NO7/c1-6-15-11-13(2)20(4,29-14(3)23)19(25)27-12-16-7-9-22(5)10-8-17(21(16,22)26)28-18(15)24/h6-7,11,13,17,26H,1,8-10,12H2,2-5H3/q+1
> <PUBCHEM_IUPAC_INCHIKEY>
NEHWGXHBNGZJNY-UHFFFAOYSA-N
> <PUBCHEM_XLOGP3_AA>
0.9
> <PUBCHEM_EXACT_MASS>
406.18657723
> <PUBCHEM_MOLECULAR_FORMULA>
C21H28NO7+
> <PUBCHEM_MOLECULAR_WEIGHT>
406.4
> <PUBCHEM_OPENEYE_CAN_SMILES>
CC1C=C(C(=O)OC2CC[N+]3(C2(C(=CC3)COC(=O)C1(C)OC(=O)C)O)C)C=C
> <PUBCHEM_OPENEYE_ISO_SMILES>
CC1C=C(C(=O)OC2CC[N+]3(C2(C(=CC3)COC(=O)C1(C)OC(=O)C)O)C)C=C
> <PUBCHEM_CACTVS_TPSA>
99.1
> <PUBCHEM_MONOISOTOPIC_WEIGHT>
406.18657723
> <PUBCHEM_TOTAL_CHARGE>
1
> <PUBCHEM_HEAVY_ATOM_COUNT>
29
> <PUBCHEM_ATOM_DEF_STEREO_COUNT>
0
> <PUBCHEM_ATOM_UDEF_STEREO_COUNT>
5
> <PUBCHEM_BOND_DEF_STEREO_COUNT>
0
> <PUBCHEM_BOND_UDEF_STEREO_COUNT>
1
> <PUBCHEM_ISOTOPIC_ATOM_COUNT>
0
> <PUBCHEM_COMPONENT_COUNT>
1
> <PUBCHEM_CACTVS_TAUTO_COUNT>
-1
> <PUBCHEM_COORDINATE_TYPE>
1
5
255
> <PUBCHEM_BONDANNOTATIONS>
9  1  3
11  12  3
19  24  3
21  23  1
22  25  3
8  15  3
$$$$
