520619
  -OEChem-10302200292D
 28 27  0     1  0  0  0  0  0999 V2000
    4.5981   -1.3450    0.0000 O   0  0  0  0  0  0  0  0  0  0  0  0
    5.4641    1.1550    0.0000 O   0  0  0  0  0  0  0  0  0  0  0  0
    6.3301   -1.3450    0.0000 O   0  0  0  0  0  0  0  0  0  0  0  0
    8.0622   -0.3450    0.0000 O   0  0  0  0  0  0  0  0  0  0  0  0
    2.8660    1.6550    0.0000 O   0  0  0  0  0  0  0  0  0  0  0  0
    2.8660   -0.3450    0.0000 N   0  0  0  0  0  0  0  0  0  0  0  0
    4.5981   -0.3450    0.0000 C   0  0  3  0  0  0  0  0  0  0  0  0
    5.4641    0.1550    0.0000 C   0  0  3  0  0  0  0  0  0  0  0  0
    3.7320    0.1550    0.0000 C   0  0  3  0  0  0  0  0  0  0  0  0
    6.3301   -0.3450    0.0000 C   0  0  3  0  0  0  0  0  0  0  0  0
    7.1962    0.1550    0.0000 C   0  0  0  0  0  0  0  0  0  0  0  0
    3.7320    1.1550    0.0000 C   0  0  0  0  0  0  0  0  0  0  0  0
    2.0000    0.1550    0.0000 C   0  0  0  0  0  0  0  0  0  0  0  0
    5.1350   -0.6550    0.0000 H   0  0  0  0  0  0  0  0  0  0  0  0
    6.0010    0.4650    0.0000 H   0  0  0  0  0  0  0  0  0  0  0  0
    3.7320   -0.4650    0.0000 H   0  0  0  0  0  0  0  0  0  0  0  0
    6.8671   -0.6550    0.0000 H   0  0  0  0  0  0  0  0  0  0  0  0
    7.5947    0.6299    0.0000 H   0  0  0  0  0  0  0  0  0  0  0  0
    6.7976    0.6299    0.0000 H   0  0  0  0  0  0  0  0  0  0  0  0
    2.8660   -0.9650    0.0000 H   0  0  0  0  0  0  0  0  0  0  0  0
    4.2690    1.4650    0.0000 H   0  0  0  0  0  0  0  0  0  0  0  0
    4.0611   -1.6550    0.0000 H   0  0  0  0  0  0  0  0  0  0  0  0
    6.0010    1.4650    0.0000 H   0  0  0  0  0  0  0  0  0  0  0  0
    6.8671   -1.6550    0.0000 H   0  0  0  0  0  0  0  0  0  0  0  0
    2.3100    0.6919    0.0000 H   0  0  0  0  0  0  0  0  0  0  0  0
    1.4631    0.4650    0.0000 H   0  0  0  0  0  0  0  0  0  0  0  0
    1.6900   -0.3819    0.0000 H   0  0  0  0  0  0  0  0  0  0  0  0
    8.5991   -0.0350    0.0000 H   0  0  0  0  0  0  0  0  0  0  0  0
  1  7  1  0  0  0  0
  1 22  1  0  0  0  0
  2  8  1  0  0  0  0
  2 23  1  0  0  0  0
  3 10  1  0  0  0  0
  3 24  1  0  0  0  0
  4 11  1  0  0  0  0
  4 28  1  0  0  0  0
  5 12  2  0  0  0  0
  6  9  1  0  0  0  0
  6 13  1  0  0  0  0
  6 20  1  0  0  0  0
  7  8  1  0  0  0  0
  7  9  1  0  0  0  0
  7 14  1  0  0  0  0
  8 10  1  0  0  0  0
  8 15  1  0  0  0  0
  9 12  1  0  0  0  0
  9 16  1  0  0  0  0
 10 11  1  0  0  0  0
 10 17  1  0  0  0  0
 11 18  1  0  0  0  0
 11 19  1  0  0  0  0
 12 21  1  0  0  0  0
 13 25  1  0  0  0  0
 13 26  1  0  0  0  0
 13 27  1  0  0  0  0
M  END
> <PUBCHEM_COMPOUND_CID>
520619
> <PUBCHEM_COMPOUND_CANONICALIZED>
1
> <PUBCHEM_CACTVS_COMPLEXITY>
154
> <PUBCHEM_CACTVS_HBOND_ACCEPTOR>
6
> <PUBCHEM_CACTVS_HBOND_DONOR>
5
> <PUBCHEM_CACTVS_ROTATABLE_BOND>
6
> <PUBCHEM_CACTVS_SUBSKEYS>
AAADccBiOAAAAAAAAAAAAAAAAAAAAAAAAAAAAAAAAAAAAAAAAAAAHgAQCAAACDzhgAYCAALAAgAIAAgQgAAAAAAAAAAAAIGIAAADEBYAgCAEQAAHMAARAAH6XANAAAAAAAAAAAAAAAAAAAAAAAAAAAAAAA==
> <PUBCHEM_IUPAC_OPENEYE_NAME>
3,4,5,6-tetrahydroxy-2-(methylamino)hexanal
> <PUBCHEM_IUPAC_CAS_NAME>
3,4,5,6-tetrahydroxy-2-(methylamino)hexanal
> <PUBCHEM_IUPAC_NAME_MARKUP>
3,4,5,6-tetrahydroxy-2-(methylamino)hexanal
> <PUBCHEM_IUPAC_NAME>
3,4,5,6-tetrahydroxy-2-(methylamino)hexanal
> <PUBCHEM_IUPAC_SYSTEMATIC_NAME>
2-(methylamino)-3,4,5,6-tetrakis(oxidanyl)hexanal
> <PUBCHEM_IUPAC_TRADITIONAL_NAME>
3,4,5,6-tetrahydroxy-2-(methylamino)hexanal
> <PUBCHEM_IUPAC_INCHI>
InChI=1S/C7H15NO5/c1-8-4(2-9)6(12)7(13)5(11)3-10/h2,4-8,10-13H,3H2,1H3
> <PUBCHEM_IUPAC_INCHIKEY>
LDDMACCNBZAMSG-UHFFFAOYSA-N
> <PUBCHEM_XLOGP3_AA>
-3.2
> <PUBCHEM_EXACT_MASS>
193.09502258
> <PUBCHEM_MOLECULAR_FORMULA>
C7H15NO5
> <PUBCHEM_MOLECULAR_WEIGHT>
193.20
> <PUBCHEM_OPENEYE_CAN_SMILES>
CNC(C=O)C(C(C(CO)O)O)O
> <PUBCHEM_OPENEYE_ISO_SMILES>
CNC(C=O)C(C(C(CO)O)O)O
> <PUBCHEM_CACTVS_TPSA>
110
> <PUBCHEM_MONOISOTOPIC_WEIGHT>
193.09502258
> <PUBCHEM_TOTAL_CHARGE>
0
> <PUBCHEM_HEAVY_ATOM_COUNT>
13
> <PUBCHEM_ATOM_DEF_STEREO_COUNT>
0
> <PUBCHEM_ATOM_UDEF_STEREO_COUNT>
4
> <PUBCHEM_BOND_DEF_STEREO_COUNT>
0
> <PUBCHEM_BOND_UDEF_STEREO_COUNT>
0
> <PUBCHEM_ISOTOPIC_ATOM_COUNT>
0
> <PUBCHEM_COMPONENT_COUNT>
1
> <PUBCHEM_CACTVS_TAUTO_COUNT>
-1
> <PUBCHEM_COORDINATE_TYPE>
1
5
255
> <PUBCHEM_BONDANNOTATIONS>
7  1  3
8  2  3
10  3  3
9  12  3
$$$$
