520697
  -OEChem-10302200292D
 57 60  0     1  0  0  0  0  0999 V2000
    6.5270    1.4215    0.0000 O   0  0  0  0  0  0  0  0  0  0  0  0
    3.7320   -2.1309    0.0000 O   0  0  0  0  0  0  0  0  0  0  0  0
   10.3820    2.1767    0.0000 O   0  0  0  0  0  0  0  0  0  0  0  0
    2.8718   -0.6275    0.0000 O   0  0  0  0  0  0  0  0  0  0  0  0
    7.3931   -0.0785    0.0000 C   0  0  3  0  0  0  0  0  0  0  0  0
    6.4831   -0.5854    0.0000 C   0  0  3  0  0  0  0  0  0  0  0  0
    8.2591   -0.5785    0.0000 C   0  0  3  0  0  0  0  0  0  0  0  0
    9.1251   -0.0785    0.0000 C   0  0  3  0  0  0  0  0  0  0  0  0
    6.4750   -1.6270    0.0000 C   0  0  3  0  0  0  0  0  0  0  0  0
    9.1251    0.9215    0.0000 C   0  0  3  0  0  0  0  0  0  0  0  0
    7.3931    0.9215    0.0000 C   0  0  3  0  0  0  0  0  0  0  0  0
    8.2752   -1.6200    0.0000 C   0  0  0  0  0  0  0  0  0  0  0  0
    8.2591    1.4215    0.0000 C   0  0  0  0  0  0  0  0  0  0  0  0
    7.3771   -2.1478    0.0000 C   0  0  0  0  0  0  0  0  0  0  0  0
    5.5562   -0.0213    0.0000 C   0  0  0  0  0  0  0  0  0  0  0  0
   10.0713   -0.3833    0.0000 C   0  0  0  0  0  0  0  0  0  0  0  0
    5.5396   -2.1767    0.0000 C   0  0  0  0  0  0  0  0  0  0  0  0
    6.4908    0.4146    0.0000 C   0  0  0  0  0  0  0  0  0  0  0  0
   10.0713    1.2262    0.0000 C   0  0  0  0  0  0  0  0  0  0  0  0
    4.6084   -0.5493    0.0000 C   0  0  0  0  0  0  0  0  0  0  0  0
   10.6550    0.4215    0.0000 C   0  0  0  0  0  0  0  0  0  0  0  0
    4.6000   -1.6342    0.0000 C   0  0  3  0  0  0  0  0  0  0  0  0
    9.1251    1.9215    0.0000 C   0  0  0  0  0  0  0  0  0  0  0  0
    2.8680   -1.6275    0.0000 C   0  0  0  0  0  0  0  0  0  0  0  0
    2.0000   -2.1242    0.0000 C   0  0  0  0  0  0  0  0  0  0  0  0
    7.9300    0.2315    0.0000 H   0  0  0  0  0  0  0  0  0  0  0  0
    8.7984   -0.8844    0.0000 H   0  0  0  0  0  0  0  0  0  0  0  0
    9.1907   -0.6951    0.0000 H   0  0  0  0  0  0  0  0  0  0  0  0
    6.4774   -2.2470    0.0000 H   0  0  0  0  0  0  0  0  0  0  0  0
    6.8561    0.6115    0.0000 H   0  0  0  0  0  0  0  0  0  0  0  0
    8.4932   -2.2004    0.0000 H   0  0  0  0  0  0  0  0  0  0  0  0
    8.8843   -1.5046    0.0000 H   0  0  0  0  0  0  0  0  0  0  0  0
    8.6576    1.8964    0.0000 H   0  0  0  0  0  0  0  0  0  0  0  0
    7.8606    1.8964    0.0000 H   0  0  0  0  0  0  0  0  0  0  0  0
    6.9798   -2.6238    0.0000 H   0  0  0  0  0  0  0  0  0  0  0  0
    7.7781   -2.6207    0.0000 H   0  0  0  0  0  0  0  0  0  0  0  0
    5.9644    0.4454    0.0000 H   0  0  0  0  0  0  0  0  0  0  0  0
    5.1663    0.4607    0.0000 H   0  0  0  0  0  0  0  0  0  0  0  0
    9.8203   -0.9502    0.0000 H   0  0  0  0  0  0  0  0  0  0  0  0
   10.6087   -0.6925    0.0000 H   0  0  0  0  0  0  0  0  0  0  0  0
    5.1423   -2.6527    0.0000 H   0  0  0  0  0  0  0  0  0  0  0  0
    5.9406   -2.6496    0.0000 H   0  0  0  0  0  0  0  0  0  0  0  0
    7.1108    0.4098    0.0000 H   0  0  0  0  0  0  0  0  0  0  0  0
    6.4956    1.0346    0.0000 H   0  0  0  0  0  0  0  0  0  0  0  0
    5.8708    0.4194    0.0000 H   0  0  0  0  0  0  0  0  0  0  0  0
    4.4038    0.0360    0.0000 H   0  0  0  0  0  0  0  0  0  0  0  0
    3.9967   -0.6506    0.0000 H   0  0  0  0  0  0  0  0  0  0  0  0
   11.1158    0.0067    0.0000 H   0  0  0  0  0  0  0  0  0  0  0  0
   11.1158    0.8362    0.0000 H   0  0  0  0  0  0  0  0  0  0  0  0
    4.0648   -1.3211    0.0000 H   0  0  0  0  0  0  0  0  0  0  0  0
    9.7451    1.9215    0.0000 H   0  0  0  0  0  0  0  0  0  0  0  0
    9.1251    2.5415    0.0000 H   0  0  0  0  0  0  0  0  0  0  0  0
    8.5051    1.9215    0.0000 H   0  0  0  0  0  0  0  0  0  0  0  0
    6.5270    2.0415    0.0000 H   0  0  0  0  0  0  0  0  0  0  0  0
    1.6921   -1.5861    0.0000 H   0  0  0  0  0  0  0  0  0  0  0  0
    1.4619   -2.4321    0.0000 H   0  0  0  0  0  0  0  0  0  0  0  0
    2.3079   -2.6623    0.0000 H   0  0  0  0  0  0  0  0  0  0  0  0
  1 11  1  0  0  0  0
  1 54  1  0  0  0  0
  2 22  1  0  0  0  0
  2 24  1  0  0  0  0
  3 19  2  0  0  0  0
  4 24  2  0  0  0  0
  5  6  1  0  0  0  0
  5  7  1  0  0  0  0
  5 11  1  0  0  0  0
  5 26  1  0  0  0  0
  6  9  1  0  0  0  0
  6 15  1  0  0  0  0
  6 18  1  0  0  0  0
  7  8  1  0  0  0  0
  7 12  1  0  0  0  0
  7 27  1  0  0  0  0
  8 10  1  0  0  0  0
  8 16  1  0  0  0  0
  8 28  1  0  0  0  0
  9 14  1  0  0  0  0
  9 17  1  0  0  0  0
  9 29  1  0  0  0  0
 10 13  1  0  0  0  0
 10 19  1  0  0  0  0
 10 23  1  0  0  0  0
 11 13  1  0  0  0  0
 11 30  1  0  0  0  0
 12 14  1  0  0  0  0
 12 31  1  0  0  0  0
 12 32  1  0  0  0  0
 13 33  1  0  0  0  0
 13 34  1  0  0  0  0
 14 35  1  0  0  0  0
 14 36  1  0  0  0  0
 15 20  1  0  0  0  0
 15 37  1  0  0  0  0
 15 38  1  0  0  0  0
 16 21  1  0  0  0  0
 16 39  1  0  0  0  0
 16 40  1  0  0  0  0
 17 22  1  0  0  0  0
 17 41  1  0  0  0  0
 17 42  1  0  0  0  0
 18 43  1  0  0  0  0
 18 44  1  0  0  0  0
 18 45  1  0  0  0  0
 19 21  1  0  0  0  0
 20 22  1  0  0  0  0
 20 46  1  0  0  0  0
 20 47  1  0  0  0  0
 21 48  1  0  0  0  0
 21 49  1  0  0  0  0
 22 50  1  0  0  0  0
 23 51  1  0  0  0  0
 23 52  1  0  0  0  0
 23 53  1  0  0  0  0
 24 25  1  0  0  0  0
 25 55  1  0  0  0  0
 25 56  1  0  0  0  0
 25 57  1  0  0  0  0
M  END
> <PUBCHEM_COMPOUND_CID>
520697
> <PUBCHEM_COMPOUND_CANONICALIZED>
1
> <PUBCHEM_CACTVS_COMPLEXITY>
586
> <PUBCHEM_CACTVS_HBOND_ACCEPTOR>
4
> <PUBCHEM_CACTVS_HBOND_DONOR>
1
> <PUBCHEM_CACTVS_ROTATABLE_BOND>
2
> <PUBCHEM_CACTVS_SUBSKEYS>
AAADcfB4OAAAAAAAAAAAAAAAAAAAAYAAAAAwYMAAAAAAAGDAAAAAGgAACAAADxSggAICCAAABgAIAICQCAAAAAAAAAAAAAEAAAAAEBIAAAACQAAEAAAAAAGKyPCPgAAAAAAAAADAAAYAADAAAAAACAAAAA==
> <PUBCHEM_IUPAC_OPENEYE_NAME>
(11-hydroxy-10,13-dimethyl-17-oxo-1,2,3,4,5,6,7,8,9,11,12,14,15,16-tetradecahydrocyclopenta[a]phenanthren-3-yl) acetate
> <PUBCHEM_IUPAC_CAS_NAME>
acetic acid (11-hydroxy-10,13-dimethyl-17-oxo-1,2,3,4,5,6,7,8,9,11,12,14,15,16-tetradecahydrocyclopenta[a]phenanthren-3-yl) ester
> <PUBCHEM_IUPAC_NAME_MARKUP>
(11-hydroxy-10,13-dimethyl-17-oxo-1,2,3,4,5,6,7,8,9,11,12,14,15,16-tetradecahydrocyclopenta[a]phenanthren-3-yl) acetate
> <PUBCHEM_IUPAC_NAME>
(11-hydroxy-10,13-dimethyl-17-oxo-1,2,3,4,5,6,7,8,9,11,12,14,15,16-tetradecahydrocyclopenta[a]phenanthren-3-yl) acetate
> <PUBCHEM_IUPAC_SYSTEMATIC_NAME>
(10,13-dimethyl-11-oxidanyl-17-oxidanylidene-1,2,3,4,5,6,7,8,9,11,12,14,15,16-tetradecahydrocyclopenta[a]phenanthren-3-yl) ethanoate
> <PUBCHEM_IUPAC_TRADITIONAL_NAME>
acetic acid (11-hydroxy-17-keto-10,13-dimethyl-1,2,3,4,5,6,7,8,9,11,12,14,15,16-tetradecahydrocyclopenta[a]phenanthren-3-yl) ester
> <PUBCHEM_IUPAC_INCHI>
InChI=1S/C21H32O4/c1-12(22)25-14-8-9-20(2)13(10-14)4-5-15-16-6-7-18(24)21(16,3)11-17(23)19(15)20/h13-17,19,23H,4-11H2,1-3H3
> <PUBCHEM_IUPAC_INCHIKEY>
CEFAOKKMPAXYIR-UHFFFAOYSA-N
> <PUBCHEM_XLOGP3>
3.1
> <PUBCHEM_EXACT_MASS>
348.23005950
> <PUBCHEM_MOLECULAR_FORMULA>
C21H32O4
> <PUBCHEM_MOLECULAR_WEIGHT>
348.5
> <PUBCHEM_OPENEYE_CAN_SMILES>
CC(=O)OC1CCC2(C(C1)CCC3C2C(CC4(C3CCC4=O)C)O)C
> <PUBCHEM_OPENEYE_ISO_SMILES>
CC(=O)OC1CCC2(C(C1)CCC3C2C(CC4(C3CCC4=O)C)O)C
> <PUBCHEM_CACTVS_TPSA>
63.6
> <PUBCHEM_MONOISOTOPIC_WEIGHT>
348.23005950
> <PUBCHEM_TOTAL_CHARGE>
0
> <PUBCHEM_HEAVY_ATOM_COUNT>
25
> <PUBCHEM_ATOM_DEF_STEREO_COUNT>
0
> <PUBCHEM_ATOM_UDEF_STEREO_COUNT>
8
> <PUBCHEM_BOND_DEF_STEREO_COUNT>
0
> <PUBCHEM_BOND_UDEF_STEREO_COUNT>
0
> <PUBCHEM_ISOTOPIC_ATOM_COUNT>
0
> <PUBCHEM_COMPONENT_COUNT>
1
> <PUBCHEM_CACTVS_TAUTO_COUNT>
-1
> <PUBCHEM_COORDINATE_TYPE>
1
5
255
> <PUBCHEM_BONDANNOTATIONS>
11  1  3
10  23  3
22  2  3
5  11  3
6  18  3
7  12  3
8  16  3
9  14  3
$$$$
