520667
  -OEChem-10302200292D
 15 15  0     1  0  0  0  0  0999 V2000
    3.7601   -1.1739    0.0000 O   0  0  0  0  0  0  0  0  0  0  0  0
    4.8479    1.1739    0.0000 O   0  0  0  0  0  0  0  0  0  0  0  0
    2.9511   -0.5861    0.0000 C   0  0  3  0  0  0  0  0  0  0  0  0
    3.2601    0.3649    0.0000 C   0  0  0  0  0  0  0  0  0  0  0  0
    4.5691   -0.5861    0.0000 C   0  0  0  0  0  0  0  0  0  0  0  0
    4.2601    0.3649    0.0000 C   0  0  0  0  0  0  0  0  0  0  0  0
    2.0000   -0.8952    0.0000 C   0  0  0  0  0  0  0  0  0  0  0  0
    2.8181   -1.4257    0.0000 H   0  0  0  0  0  0  0  0  0  0  0  0
    3.3249    0.9815    0.0000 H   0  0  0  0  0  0  0  0  0  0  0  0
    2.6536    0.4938    0.0000 H   0  0  0  0  0  0  0  0  0  0  0  0
    4.8791   -1.1231    0.0000 H   0  0  0  0  0  0  0  0  0  0  0  0
    5.1355   -0.3340    0.0000 H   0  0  0  0  0  0  0  0  0  0  0  0
    1.8084   -0.3055    0.0000 H   0  0  0  0  0  0  0  0  0  0  0  0
    1.4103   -1.0868    0.0000 H   0  0  0  0  0  0  0  0  0  0  0  0
    2.1916   -1.4848    0.0000 H   0  0  0  0  0  0  0  0  0  0  0  0
  1  3  1  0  0  0  0
  1  5  1  0  0  0  0
  2  6  2  0  0  0  0
  3  4  1  0  0  0  0
  3  7  1  0  0  0  0
  3  8  1  0  0  0  0
  4  6  1  0  0  0  0
  4  9  1  0  0  0  0
  4 10  1  0  0  0  0
  5  6  1  0  0  0  0
  5 11  1  0  0  0  0
  5 12  1  0  0  0  0
  7 13  1  0  0  0  0
  7 14  1  0  0  0  0
  7 15  1  0  0  0  0
M  END
> <PUBCHEM_COMPOUND_CID>
520667
> <PUBCHEM_COMPOUND_CANONICALIZED>
1
> <PUBCHEM_CACTVS_COMPLEXITY>
88.1
> <PUBCHEM_CACTVS_HBOND_ACCEPTOR>
2
> <PUBCHEM_CACTVS_HBOND_DONOR>
0
> <PUBCHEM_CACTVS_ROTATABLE_BOND>
0
> <PUBCHEM_CACTVS_SUBSKEYS>
AAADccBgMAAAAAAAAAAAAAAAAAAAASAAAAAAAAAAAAAAAAAAAAAAGgAAAAAACBSggAICAAAABAAIAIAQAAIAAAAAAAAAAAFAAAAAABYAAAQCAAAEIAAAAACAAAAAAAAAAAAAAAAAAAAAAAAAAAAAAAAAAA==
> <PUBCHEM_IUPAC_OPENEYE_NAME>
5-methyltetrahydrofuran-3-one
> <PUBCHEM_IUPAC_CAS_NAME>
5-methyl-3-oxolanone
> <PUBCHEM_IUPAC_NAME_MARKUP>
5-methyloxolan-3-one
> <PUBCHEM_IUPAC_NAME>
5-methyloxolan-3-one
> <PUBCHEM_IUPAC_SYSTEMATIC_NAME>
5-methyloxolan-3-one
> <PUBCHEM_IUPAC_TRADITIONAL_NAME>
5-methyltetrahydrofuran-3-one
> <PUBCHEM_IUPAC_INCHI>
InChI=1S/C5H8O2/c1-4-2-5(6)3-7-4/h4H,2-3H2,1H3
> <PUBCHEM_IUPAC_INCHIKEY>
YJZXJDJWRQIWDL-UHFFFAOYSA-N
> <PUBCHEM_XLOGP3_AA>
0.1
> <PUBCHEM_EXACT_MASS>
100.052429494
> <PUBCHEM_MOLECULAR_FORMULA>
C5H8O2
> <PUBCHEM_MOLECULAR_WEIGHT>
100.12
> <PUBCHEM_OPENEYE_CAN_SMILES>
CC1CC(=O)CO1
> <PUBCHEM_OPENEYE_ISO_SMILES>
CC1CC(=O)CO1
> <PUBCHEM_CACTVS_TPSA>
26.3
> <PUBCHEM_MONOISOTOPIC_WEIGHT>
100.052429494
> <PUBCHEM_TOTAL_CHARGE>
0
> <PUBCHEM_HEAVY_ATOM_COUNT>
7
> <PUBCHEM_ATOM_DEF_STEREO_COUNT>
0
> <PUBCHEM_ATOM_UDEF_STEREO_COUNT>
1
> <PUBCHEM_BOND_DEF_STEREO_COUNT>
0
> <PUBCHEM_BOND_UDEF_STEREO_COUNT>
0
> <PUBCHEM_ISOTOPIC_ATOM_COUNT>
0
> <PUBCHEM_COMPONENT_COUNT>
1
> <PUBCHEM_CACTVS_TAUTO_COUNT>
3
> <PUBCHEM_COORDINATE_TYPE>
1
5
255
> <PUBCHEM_BONDANNOTATIONS>
3  8  3
$$$$
