520769
  -OEChem-10302200292D
 10 10  0     1  0  0  0  0  0999 V2000
    2.0000    0.7500    0.0000 F   0  0  0  0  0  0  0  0  0  0  0  0
    2.3660   -0.6160    0.0000 F   0  0  0  0  0  0  0  0  0  0  0  0
    3.3660    1.1160    0.0000 F   0  0  0  0  0  0  0  0  0  0  0  0
    4.2320   -1.1160    0.0000 O   0  0  0  0  0  0  0  0  0  0  0  0
    3.7320   -0.2500    0.0000 C   0  0  3  0  0  0  0  0  0  0  0  0
    4.7320   -0.2500    0.0000 C   0  0  0  0  0  0  0  0  0  0  0  0
    2.8660    0.2500    0.0000 C   0  0  0  0  0  0  0  0  0  0  0  0
    3.1310   -0.8510    0.0000 H   0  0  0  0  0  0  0  0  0  0  0  0
    5.3147   -0.4621    0.0000 H   0  0  0  0  0  0  0  0  0  0  0  0
    4.8397    0.3606    0.0000 H   0  0  0  0  0  0  0  0  0  0  0  0
  1  7  1  0  0  0  0
  2  7  1  0  0  0  0
  3  7  1  0  0  0  0
  4  5  1  0  0  0  0
  4  6  1  0  0  0  0
  5  6  1  0  0  0  0
  5  7  1  0  0  0  0
  5  8  1  0  0  0  0
  6  9  1  0  0  0  0
  6 10  1  0  0  0  0
M  END
> <PUBCHEM_COMPOUND_CID>
520769
> <PUBCHEM_COMPOUND_CANONICALIZED>
1
> <PUBCHEM_CACTVS_COMPLEXITY>
76.7
> <PUBCHEM_CACTVS_HBOND_ACCEPTOR>
4
> <PUBCHEM_CACTVS_HBOND_DONOR>
0
> <PUBCHEM_CACTVS_ROTATABLE_BOND>
0
> <PUBCHEM_CACTVS_SUBSKEYS>
AAADcQBAIYAAAAAAAAAAAAAAEgAAAAAAAAAAAAAAAAAAAAAAAAAAGwAAAAAACBSggBIAAAAABAAAAAAAAAAAAAAAAAAAAAAAAAAAAAAAAAAAAAAAAAAAAAAAAAAAAAAAAAAAAAAAAAAAAAAAAAAAAAAAAA==
> <PUBCHEM_IUPAC_OPENEYE_NAME>
2-(trifluoromethyl)oxirane
> <PUBCHEM_IUPAC_CAS_NAME>
2-(trifluoromethyl)oxirane
> <PUBCHEM_IUPAC_NAME_MARKUP>
2-(trifluoromethyl)oxirane
> <PUBCHEM_IUPAC_NAME>
2-(trifluoromethyl)oxirane
> <PUBCHEM_IUPAC_SYSTEMATIC_NAME>
2-(trifluoromethyl)oxirane
> <PUBCHEM_IUPAC_TRADITIONAL_NAME>
2-(trifluoromethyl)oxirane
> <PUBCHEM_IUPAC_INCHI>
InChI=1S/C3H3F3O/c4-3(5,6)2-1-7-2/h2H,1H2
> <PUBCHEM_IUPAC_INCHIKEY>
AQZRARFZZMGLHL-UHFFFAOYSA-N
> <PUBCHEM_XLOGP3_AA>
1
> <PUBCHEM_EXACT_MASS>
112.01359920
> <PUBCHEM_MOLECULAR_FORMULA>
C3H3F3O
> <PUBCHEM_MOLECULAR_WEIGHT>
112.05
> <PUBCHEM_OPENEYE_CAN_SMILES>
C1C(O1)C(F)(F)F
> <PUBCHEM_OPENEYE_ISO_SMILES>
C1C(O1)C(F)(F)F
> <PUBCHEM_CACTVS_TPSA>
12.5
> <PUBCHEM_MONOISOTOPIC_WEIGHT>
112.01359920
> <PUBCHEM_TOTAL_CHARGE>
0
> <PUBCHEM_HEAVY_ATOM_COUNT>
7
> <PUBCHEM_ATOM_DEF_STEREO_COUNT>
0
> <PUBCHEM_ATOM_UDEF_STEREO_COUNT>
1
> <PUBCHEM_BOND_DEF_STEREO_COUNT>
0
> <PUBCHEM_BOND_UDEF_STEREO_COUNT>
0
> <PUBCHEM_ISOTOPIC_ATOM_COUNT>
0
> <PUBCHEM_COMPONENT_COUNT>
1
> <PUBCHEM_CACTVS_TAUTO_COUNT>
1
> <PUBCHEM_COORDINATE_TYPE>
1
5
255
> <PUBCHEM_BONDANNOTATIONS>
5  8  3
$$$$
