520803
  -OEChem-10302200292D
 47 50  0     1  0  0  0  0  0999 V2000
    3.5748    2.9599    0.0000 O   0  0  0  0  0  0  0  0  0  0  0  0
    4.6501    2.4881    0.0000 O   0  0  0  0  0  0  0  0  0  0  0  0
    2.4657   -3.3412    0.0000 O   0  0  0  0  0  0  0  0  0  0  0  0
    2.0861    3.9290    0.0000 O   0  0  0  0  0  0  0  0  0  0  0  0
    3.7841   -0.0119    0.0000 C   0  0  3  0  0  0  0  0  0  0  0  0
    3.8001   -1.0534    0.0000 C   0  0  3  0  0  0  0  0  0  0  0  0
    2.9180    0.4881    0.0000 C   0  0  3  0  0  0  0  0  0  0  0  0
    2.9021   -1.5812    0.0000 C   0  0  3  0  0  0  0  0  0  0  0  0
    2.9180    1.4881    0.0000 C   0  0  3  0  0  0  0  0  0  0  0  0
    2.0080   -0.0188    0.0000 C   0  0  0  0  0  0  0  0  0  0  0  0
    2.0000   -1.0604    0.0000 C   0  0  0  0  0  0  0  0  0  0  0  0
    3.7841    1.9881    0.0000 C   0  0  3  0  0  0  0  0  0  0  0  0
    4.6501    0.4881    0.0000 C   0  0  0  0  0  0  0  0  0  0  0  0
    4.5732   -1.7423    0.0000 C   0  0  0  0  0  0  0  0  0  0  0  0
    3.1278   -2.5917    0.0000 C   0  0  3  0  0  0  0  0  0  0  0  0
    4.6501    1.4881    0.0000 C   0  0  0  0  0  0  0  0  0  0  0  0
    4.1585   -2.6911    0.0000 C   0  0  0  0  0  0  0  0  0  0  0  0
    2.1810    2.1552    0.0000 C   0  0  0  0  0  0  0  0  0  0  0  0
    2.0399   -2.0878    0.0000 C   0  0  0  0  0  0  0  0  0  0  0  0
    2.0520    0.9881    0.0000 C   0  0  0  0  0  0  0  0  0  0  0  0
    2.5861    3.0630    0.0000 C   0  0  0  0  0  0  0  0  0  0  0  0
    4.3234   -0.3178    0.0000 H   0  0  0  0  0  0  0  0  0  0  0  0
    4.3639   -0.7954    0.0000 H   0  0  0  0  0  0  0  0  0  0  0  0
    3.4550    0.7981    0.0000 H   0  0  0  0  0  0  0  0  0  0  0  0
    1.8035    0.5665    0.0000 H   0  0  0  0  0  0  0  0  0  0  0  0
    1.3964   -0.1201    0.0000 H   0  0  0  0  0  0  0  0  0  0  0  0
    1.3900   -0.9496    0.0000 H   0  0  0  0  0  0  0  0  0  0  0  0
    1.7864   -1.6424    0.0000 H   0  0  0  0  0  0  0  0  0  0  0  0
    4.8621   -0.0945    0.0000 H   0  0  0  0  0  0  0  0  0  0  0  0
    5.2607    0.5958    0.0000 H   0  0  0  0  0  0  0  0  0  0  0  0
    5.1120   -2.0490    0.0000 H   0  0  0  0  0  0  0  0  0  0  0  0
    4.9347   -1.2387    0.0000 H   0  0  0  0  0  0  0  0  0  0  0  0
    3.3552   -3.1685    0.0000 H   0  0  0  0  0  0  0  0  0  0  0  0
    5.2607    1.3804    0.0000 H   0  0  0  0  0  0  0  0  0  0  0  0
    4.8621    2.0707    0.0000 H   0  0  0  0  0  0  0  0  0  0  0  0
    4.0344   -3.2986    0.0000 H   0  0  0  0  0  0  0  0  0  0  0  0
    4.7495   -2.8784    0.0000 H   0  0  0  0  0  0  0  0  0  0  0  0
    1.6445    2.4660    0.0000 H   0  0  0  0  0  0  0  0  0  0  0  0
    1.8156    1.6543    0.0000 H   0  0  0  0  0  0  0  0  0  0  0  0
    1.7258   -1.5533    0.0000 H   0  0  0  0  0  0  0  0  0  0  0  0
    1.5054   -2.4020    0.0000 H   0  0  0  0  0  0  0  0  0  0  0  0
    2.3541   -2.6224    0.0000 H   0  0  0  0  0  0  0  0  0  0  0  0
    1.7420    1.5250    0.0000 H   0  0  0  0  0  0  0  0  0  0  0  0
    1.5151    0.6781    0.0000 H   0  0  0  0  0  0  0  0  0  0  0  0
    2.3620    0.4512    0.0000 H   0  0  0  0  0  0  0  0  0  0  0  0
    4.6501    3.1081    0.0000 H   0  0  0  0  0  0  0  0  0  0  0  0
    2.6628   -3.9290    0.0000 H   0  0  0  0  0  0  0  0  0  0  0  0
  1 12  1  0  0  0  0
  1 21  1  0  0  0  0
  2 12  1  0  0  0  0
  2 46  1  0  0  0  0
  3 15  1  0  0  0  0
  3 47  1  0  0  0  0
  4 21  2  0  0  0  0
  5  6  1  0  0  0  0
  5  7  1  0  0  0  0
  5 13  1  0  0  0  0
  5 22  1  0  0  0  0
  6  8  1  0  0  0  0
  6 14  1  0  0  0  0
  6 23  1  0  0  0  0
  7  9  1  0  0  0  0
  7 10  1  0  0  0  0
  7 24  1  0  0  0  0
  8 11  1  0  0  0  0
  8 15  1  0  0  0  0
  8 19  1  0  0  0  0
  9 12  1  0  0  0  0
  9 18  1  0  0  0  0
  9 20  1  0  0  0  0
 10 11  1  0  0  0  0
 10 25  1  0  0  0  0
 10 26  1  0  0  0  0
 11 27  1  0  0  0  0
 11 28  1  0  0  0  0
 12 16  1  0  0  0  0
 13 16  1  0  0  0  0
 13 29  1  0  0  0  0
 13 30  1  0  0  0  0
 14 17  1  0  0  0  0
 14 31  1  0  0  0  0
 14 32  1  0  0  0  0
 15 17  1  0  0  0  0
 15 33  1  0  0  0  0
 16 34  1  0  0  0  0
 16 35  1  0  0  0  0
 17 36  1  0  0  0  0
 17 37  1  0  0  0  0
 18 21  1  0  0  0  0
 18 38  1  0  0  0  0
 18 39  1  0  0  0  0
 19 40  1  0  0  0  0
 19 41  1  0  0  0  0
 19 42  1  0  0  0  0
 20 43  1  0  0  0  0
 20 44  1  0  0  0  0
 20 45  1  0  0  0  0
M  END
> <PUBCHEM_COMPOUND_CID>
520803
> <PUBCHEM_COMPOUND_CANONICALIZED>
1
> <PUBCHEM_CACTVS_COMPLEXITY>
491
> <PUBCHEM_CACTVS_HBOND_ACCEPTOR>
4
> <PUBCHEM_CACTVS_HBOND_DONOR>
2
> <PUBCHEM_CACTVS_ROTATABLE_BOND>
0
> <PUBCHEM_CACTVS_SUBSKEYS>
AAADceB4OAAAAAAAAAAAAAAAAAAAAaIAAAAwYAAAAAAAAGjAAAAAGgAACAAADxSggAICCAAABgAIAACQCAAAAAAAAAAAAAEAAAAQEBIAAAACQAAEAAAEAAHKyPCPgAAAAAAAAADAAAYAADAAAIAADAAAAA==
> <PUBCHEM_IUPAC_OPENEYE_NAME>
6,10a-dihydroxy-3a,5a-dimethyl-3b,4,5,6,7,8,8a,8b,9,10-decahydro-3H-indeno[5,4-e]benzofuran-2-one
> <PUBCHEM_IUPAC_CAS_NAME>
6,10a-dihydroxy-3a,5a-dimethyl-3b,4,5,6,7,8,8a,8b,9,10-decahydro-3H-indeno[5,4-e]benzofuran-2-one
> <PUBCHEM_IUPAC_NAME_MARKUP>
6,10<I>a</I>-dihydroxy-3<I>a</I>,5<I>a</I>-dimethyl-3<I>b</I>,4,5,6,7,8,8<I>a</I>,8<I>b</I>,9,10-decahydro-3<I>H</I>-indeno[5,4-e][1]benzofuran-2-one
> <PUBCHEM_IUPAC_NAME>
6,10a-dihydroxy-3a,5a-dimethyl-3b,4,5,6,7,8,8a,8b,9,10-decahydro-3H-indeno[5,4-e][1]benzofuran-2-one
> <PUBCHEM_IUPAC_SYSTEMATIC_NAME>
3a,5a-dimethyl-6,10a-bis(oxidanyl)-3b,4,5,6,7,8,8a,8b,9,10-decahydro-3H-indeno[5,4-e][1]benzofuran-2-one
> <PUBCHEM_IUPAC_TRADITIONAL_NAME>
6,10a-dihydroxy-3a,5a-dimethyl-3b,4,5,6,7,8,8a,8b,9,10-decahydro-3H-indeno[5,4-e]benzofuran-2-one
> <PUBCHEM_IUPAC_INCHI>
InChI=1S/C17H26O4/c1-15-7-6-12-10(11(15)3-4-13(15)18)5-8-17(20)16(12,2)9-14(19)21-17/h10-13,18,20H,3-9H2,1-2H3
> <PUBCHEM_IUPAC_INCHIKEY>
WAJSBKRXXSZNLG-UHFFFAOYSA-N
> <PUBCHEM_XLOGP3_AA>
2.2
> <PUBCHEM_EXACT_MASS>
294.18310931
> <PUBCHEM_MOLECULAR_FORMULA>
C17H26O4
> <PUBCHEM_MOLECULAR_WEIGHT>
294.4
> <PUBCHEM_OPENEYE_CAN_SMILES>
CC12CCC3C(C1CCC2O)CCC4(C3(CC(=O)O4)C)O
> <PUBCHEM_OPENEYE_ISO_SMILES>
CC12CCC3C(C1CCC2O)CCC4(C3(CC(=O)O4)C)O
> <PUBCHEM_CACTVS_TPSA>
66.8
> <PUBCHEM_MONOISOTOPIC_WEIGHT>
294.18310931
> <PUBCHEM_TOTAL_CHARGE>
0
> <PUBCHEM_HEAVY_ATOM_COUNT>
21
> <PUBCHEM_ATOM_DEF_STEREO_COUNT>
0
> <PUBCHEM_ATOM_UDEF_STEREO_COUNT>
7
> <PUBCHEM_BOND_DEF_STEREO_COUNT>
0
> <PUBCHEM_BOND_UDEF_STEREO_COUNT>
0
> <PUBCHEM_ISOTOPIC_ATOM_COUNT>
0
> <PUBCHEM_COMPONENT_COUNT>
1
> <PUBCHEM_CACTVS_TAUTO_COUNT>
-1
> <PUBCHEM_COORDINATE_TYPE>
1
5
255
> <PUBCHEM_BONDANNOTATIONS>
12  2  3
15  3  3
5  13  3
6  14  3
7  10  3
8  19  3
9  20  3
$$$$
