520893
  -OEChem-10302200292D
 51 54  0     1  0  0  0  0  0999 V2000
    9.2814    1.9728    0.0000 F   0  0  0  0  0  0  0  0  0  0  0  0
    8.1640    2.3380    0.0000 F   0  0  0  0  0  0  0  0  0  0  0  0
    2.0000   -1.4701    0.0000 F   0  0  0  0  0  0  0  0  0  0  0  0
    2.4967   -2.3380    0.0000 F   0  0  0  0  0  0  0  0  0  0  0  0
    5.7931    0.0817    0.0000 C   0  0  3  0  0  0  0  0  0  0  0  0
    6.6591   -0.4183    0.0000 C   0  0  3  0  0  0  0  0  0  0  0  0
    7.5251    0.0817    0.0000 C   0  0  3  0  0  0  0  0  0  0  0  0
    4.8831   -0.4251    0.0000 C   0  0  3  0  0  0  0  0  0  0  0  0
    7.5251    1.0817    0.0000 C   0  0  3  0  0  0  0  0  0  0  0  0
    4.8750   -1.4667    0.0000 C   0  0  3  0  0  0  0  0  0  0  0  0
    5.7931    1.0817    0.0000 C   0  0  0  0  0  0  0  0  0  0  0  0
    6.6591    1.5817    0.0000 C   0  0  0  0  0  0  0  0  0  0  0  0
    6.6752   -1.4598    0.0000 C   0  0  0  0  0  0  0  0  0  0  0  0
    8.4713   -0.2230    0.0000 C   0  0  0  0  0  0  0  0  0  0  0  0
    5.7771   -1.9875    0.0000 C   0  0  0  0  0  0  0  0  0  0  0  0
    8.4713    1.3864    0.0000 C   0  0  0  0  0  0  0  0  0  0  0  0
    3.9562    0.1390    0.0000 C   0  0  0  0  0  0  0  0  0  0  0  0
    9.0550    0.5817    0.0000 C   0  0  0  0  0  0  0  0  0  0  0  0
    3.9396   -2.0164    0.0000 C   0  0  0  0  0  0  0  0  0  0  0  0
    4.8908    0.5748    0.0000 C   0  0  0  0  0  0  0  0  0  0  0  0
    7.5251    2.0817    0.0000 C   0  0  0  0  0  0  0  0  0  0  0  0
    3.0084   -0.3890    0.0000 C   0  0  0  0  0  0  0  0  0  0  0  0
    3.0000   -1.4740    0.0000 C   0  0  0  0  0  0  0  0  0  0  0  0
    6.3300    0.3917    0.0000 H   0  0  0  0  0  0  0  0  0  0  0  0
    7.1984   -0.7241    0.0000 H   0  0  0  0  0  0  0  0  0  0  0  0
    7.5907   -0.5348    0.0000 H   0  0  0  0  0  0  0  0  0  0  0  0
    4.8774   -2.0867    0.0000 H   0  0  0  0  0  0  0  0  0  0  0  0
    5.5810    1.6643    0.0000 H   0  0  0  0  0  0  0  0  0  0  0  0
    5.1825    0.9741    0.0000 H   0  0  0  0  0  0  0  0  0  0  0  0
    7.0576    2.0567    0.0000 H   0  0  0  0  0  0  0  0  0  0  0  0
    6.2606    2.0567    0.0000 H   0  0  0  0  0  0  0  0  0  0  0  0
    6.8932   -2.0402    0.0000 H   0  0  0  0  0  0  0  0  0  0  0  0
    7.2843   -1.3443    0.0000 H   0  0  0  0  0  0  0  0  0  0  0  0
    8.2203   -0.7899    0.0000 H   0  0  0  0  0  0  0  0  0  0  0  0
    9.0087   -0.5322    0.0000 H   0  0  0  0  0  0  0  0  0  0  0  0
    5.3798   -2.4635    0.0000 H   0  0  0  0  0  0  0  0  0  0  0  0
    6.1781   -2.4604    0.0000 H   0  0  0  0  0  0  0  0  0  0  0  0
    4.3644    0.6056    0.0000 H   0  0  0  0  0  0  0  0  0  0  0  0
    3.5663    0.6210    0.0000 H   0  0  0  0  0  0  0  0  0  0  0  0
    9.5158    0.1670    0.0000 H   0  0  0  0  0  0  0  0  0  0  0  0
    9.5158    0.9964    0.0000 H   0  0  0  0  0  0  0  0  0  0  0  0
    3.5423   -2.4924    0.0000 H   0  0  0  0  0  0  0  0  0  0  0  0
    4.3406   -2.4893    0.0000 H   0  0  0  0  0  0  0  0  0  0  0  0
    5.5108    0.5701    0.0000 H   0  0  0  0  0  0  0  0  0  0  0  0
    4.8956    1.1948    0.0000 H   0  0  0  0  0  0  0  0  0  0  0  0
    4.2708    0.5796    0.0000 H   0  0  0  0  0  0  0  0  0  0  0  0
    8.1451    2.0817    0.0000 H   0  0  0  0  0  0  0  0  0  0  0  0
    7.5251    2.7017    0.0000 H   0  0  0  0  0  0  0  0  0  0  0  0
    6.9051    2.0817    0.0000 H   0  0  0  0  0  0  0  0  0  0  0  0
    2.8038    0.1963    0.0000 H   0  0  0  0  0  0  0  0  0  0  0  0
    2.3967   -0.4904    0.0000 H   0  0  0  0  0  0  0  0  0  0  0  0
  1 16  1  0  0  0  0
  2 16  1  0  0  0  0
  3 23  1  0  0  0  0
  4 23  1  0  0  0  0
  5  6  1  0  0  0  0
  5  8  1  0  0  0  0
  5 11  1  0  0  0  0
  5 24  1  0  0  0  0
  6  7  1  0  0  0  0
  6 13  1  0  0  0  0
  6 25  1  0  0  0  0
  7  9  1  0  0  0  0
  7 14  1  0  0  0  0
  7 26  1  0  0  0  0
  8 10  1  0  0  0  0
  8 17  1  0  0  0  0
  8 20  1  0  0  0  0
  9 12  1  0  0  0  0
  9 16  1  0  0  0  0
  9 21  1  0  0  0  0
 10 15  1  0  0  0  0
 10 19  1  0  0  0  0
 10 27  1  0  0  0  0
 11 12  1  0  0  0  0
 11 28  1  0  0  0  0
 11 29  1  0  0  0  0
 12 30  1  0  0  0  0
 12 31  1  0  0  0  0
 13 15  1  0  0  0  0
 13 32  1  0  0  0  0
 13 33  1  0  0  0  0
 14 18  1  0  0  0  0
 14 34  1  0  0  0  0
 14 35  1  0  0  0  0
 15 36  1  0  0  0  0
 15 37  1  0  0  0  0
 16 18  1  0  0  0  0
 17 22  1  0  0  0  0
 17 38  1  0  0  0  0
 17 39  1  0  0  0  0
 18 40  1  0  0  0  0
 18 41  1  0  0  0  0
 19 23  1  0  0  0  0
 19 42  1  0  0  0  0
 19 43  1  0  0  0  0
 20 44  1  0  0  0  0
 20 45  1  0  0  0  0
 20 46  1  0  0  0  0
 21 47  1  0  0  0  0
 21 48  1  0  0  0  0
 21 49  1  0  0  0  0
 22 23  1  0  0  0  0
 22 50  1  0  0  0  0
 22 51  1  0  0  0  0
M  END
> <PUBCHEM_COMPOUND_CID>
520893
> <PUBCHEM_COMPOUND_CANONICALIZED>
1
> <PUBCHEM_CACTVS_COMPLEXITY>
502
> <PUBCHEM_CACTVS_HBOND_ACCEPTOR>
4
> <PUBCHEM_CACTVS_HBOND_DONOR>
0
> <PUBCHEM_CACTVS_ROTATABLE_BOND>
0
> <PUBCHEM_CACTVS_SUBSKEYS>
AAADceB4AcAAAAAAAAAAAAAAAAAAAYAAAAAwYMAAAAAAAGDAAAAAGQAAAAAADwCAABACAAAAAAAAAAAAAAAAAAAAAAAAAAAAAAAAAAIAAAAAAAAAAAAAAAEAgMAPgAAAAAAAAACAAAQAACAAAAAACAAAAA==
> <PUBCHEM_IUPAC_OPENEYE_NAME>
3,3,17,17-tetrafluoro-10,13-dimethyl-2,4,5,6,7,8,9,11,12,14,15,16-dodecahydro-1H-cyclopenta[a]phenanthrene
> <PUBCHEM_IUPAC_CAS_NAME>
3,3,17,17-tetrafluoro-10,13-dimethyl-2,4,5,6,7,8,9,11,12,14,15,16-dodecahydro-1H-cyclopenta[a]phenanthrene
> <PUBCHEM_IUPAC_NAME_MARKUP>
3,3,17,17-tetrafluoro-10,13-dimethyl-2,4,5,6,7,8,9,11,12,14,15,16-dodecahydro-1<I>H</I>-cyclopenta[a]phenanthrene
> <PUBCHEM_IUPAC_NAME>
3,3,17,17-tetrafluoro-10,13-dimethyl-2,4,5,6,7,8,9,11,12,14,15,16-dodecahydro-1H-cyclopenta[a]phenanthrene
> <PUBCHEM_IUPAC_SYSTEMATIC_NAME>
3,3,17,17-tetrakis(fluoranyl)-10,13-dimethyl-2,4,5,6,7,8,9,11,12,14,15,16-dodecahydro-1H-cyclopenta[a]phenanthrene
> <PUBCHEM_IUPAC_TRADITIONAL_NAME>
3,3,17,17-tetrafluoro-10,13-dimethyl-2,4,5,6,7,8,9,11,12,14,15,16-dodecahydro-1H-cyclopenta[a]phenanthrene
> <PUBCHEM_IUPAC_INCHI>
InChI=1S/C19H28F4/c1-16-9-10-18(20,21)11-12(16)3-4-13-14(16)5-7-17(2)15(13)6-8-19(17,22)23/h12-15H,3-11H2,1-2H3
> <PUBCHEM_IUPAC_INCHIKEY>
QXAFOMSOCXJHRA-UHFFFAOYSA-N
> <PUBCHEM_XLOGP3_AA>
6.8
> <PUBCHEM_EXACT_MASS>
332.21271354
> <PUBCHEM_MOLECULAR_FORMULA>
C19H28F4
> <PUBCHEM_MOLECULAR_WEIGHT>
332.4
> <PUBCHEM_OPENEYE_CAN_SMILES>
CC12CCC(CC1CCC3C2CCC4(C3CCC4(F)F)C)(F)F
> <PUBCHEM_OPENEYE_ISO_SMILES>
CC12CCC(CC1CCC3C2CCC4(C3CCC4(F)F)C)(F)F
> <PUBCHEM_CACTVS_TPSA>
0
> <PUBCHEM_MONOISOTOPIC_WEIGHT>
332.21271354
> <PUBCHEM_TOTAL_CHARGE>
0
> <PUBCHEM_HEAVY_ATOM_COUNT>
23
> <PUBCHEM_ATOM_DEF_STEREO_COUNT>
0
> <PUBCHEM_ATOM_UDEF_STEREO_COUNT>
6
> <PUBCHEM_BOND_DEF_STEREO_COUNT>
0
> <PUBCHEM_BOND_UDEF_STEREO_COUNT>
0
> <PUBCHEM_ISOTOPIC_ATOM_COUNT>
0
> <PUBCHEM_COMPONENT_COUNT>
1
> <PUBCHEM_CACTVS_TAUTO_COUNT>
-1
> <PUBCHEM_COORDINATE_TYPE>
1
5
255
> <PUBCHEM_BONDANNOTATIONS>
10  15  3
5  11  3
6  13  3
7  14  3
8  20  3
9  21  3
$$$$
