520852
  -OEChem-10302200292D
 14 13  0     1  0  0  0  0  0999 V2000
    3.2320    0.6160    0.0000 Cl  0  0  0  0  0  0  0  0  0  0  0  0
    5.0981   -0.6160    0.0000 Cl  0  0  0  0  0  0  0  0  0  0  0  0
    2.0000   -1.2500    0.0000 Cl  0  0  0  0  0  0  0  0  0  0  0  0
    2.3660    0.1160    0.0000 Cl  0  0  0  0  0  0  0  0  0  0  0  0
    6.3301    1.2500    0.0000 Cl  0  0  0  0  0  0  0  0  0  0  0  0
    5.9641   -0.1160    0.0000 Cl  0  0  0  0  0  0  0  0  0  0  0  0
    4.2320   -1.1160    0.0000 F   0  0  0  0  0  0  0  0  0  0  0  0
    4.0981    1.1160    0.0000 F   0  0  0  0  0  0  0  0  0  0  0  0
    3.3660   -1.6160    0.0000 F   0  0  0  0  0  0  0  0  0  0  0  0
    4.9641    1.6160    0.0000 F   0  0  0  0  0  0  0  0  0  0  0  0
    3.7320   -0.2500    0.0000 C   0  0  3  0  0  0  0  0  0  0  0  0
    4.5981    0.2500    0.0000 C   0  0  3  0  0  0  0  0  0  0  0  0
    2.8660   -0.7500    0.0000 C   0  0  0  0  0  0  0  0  0  0  0  0
    5.4641    0.7500    0.0000 C   0  0  0  0  0  0  0  0  0  0  0  0
  1 11  1  0  0  0  0
  2 12  1  0  0  0  0
  3 13  1  0  0  0  0
  4 13  1  0  0  0  0
  5 14  1  0  0  0  0
  6 14  1  0  0  0  0
  7 11  1  0  0  0  0
  8 12  1  0  0  0  0
  9 13  1  0  0  0  0
 10 14  1  0  0  0  0
 11 12  1  0  0  0  0
 11 13  1  0  0  0  0
 12 14  1  0  0  0  0
M  END
> <PUBCHEM_COMPOUND_CID>
520852
> <PUBCHEM_COMPOUND_CANONICALIZED>
1
> <PUBCHEM_CACTVS_COMPLEXITY>
210
> <PUBCHEM_CACTVS_HBOND_ACCEPTOR>
4
> <PUBCHEM_CACTVS_HBOND_DONOR>
0
> <PUBCHEM_CACTVS_ROTATABLE_BOND>
3
> <PUBCHEM_CACTVS_SUBSKEYS>
AAADcQBgAcAHAAAAAAAAAAAAAAAAAAAAAAAAAAAAAAAAAAAAAAAACQIAAAAACAIAAIAAAAAAAAAAAAAAAAAAAAAAAAAAAEAAAgAAAAABAAAAAAAAAAAAAAAAAAAAAAAAAAAAAAAAAAAAAAAAAAAAAAAAAA==
> <PUBCHEM_IUPAC_OPENEYE_NAME>
1,1,2,3,4,4-hexachloro-1,2,3,4-tetrafluoro-butane
> <PUBCHEM_IUPAC_CAS_NAME>
1,1,2,3,4,4-hexachloro-1,2,3,4-tetrafluorobutane
> <PUBCHEM_IUPAC_NAME_MARKUP>
1,1,2,3,4,4-hexachloro-1,2,3,4-tetrafluorobutane
> <PUBCHEM_IUPAC_NAME>
1,1,2,3,4,4-hexachloro-1,2,3,4-tetrafluorobutane
> <PUBCHEM_IUPAC_SYSTEMATIC_NAME>
1,1,2,3,4,4-hexakis(chloranyl)-1,2,3,4-tetrakis(fluoranyl)butane
> <PUBCHEM_IUPAC_TRADITIONAL_NAME>
1,1,2,3,4,4-hexachloro-1,2,3,4-tetrafluoro-butane
> <PUBCHEM_IUPAC_INCHI>
InChI=1S/C4Cl6F4/c5-1(11,3(7,8)13)2(6,12)4(9,10)14
> <PUBCHEM_IUPAC_INCHIKEY>
WWVUFVKMWDUDBV-UHFFFAOYSA-N
> <PUBCHEM_XLOGP3_AA>
5.3
> <PUBCHEM_EXACT_MASS>
335.803779
> <PUBCHEM_MOLECULAR_FORMULA>
C4Cl6F4
> <PUBCHEM_MOLECULAR_WEIGHT>
336.7
> <PUBCHEM_OPENEYE_CAN_SMILES>
C(C(C(F)(Cl)Cl)(F)Cl)(C(F)(Cl)Cl)(F)Cl
> <PUBCHEM_OPENEYE_ISO_SMILES>
C(C(C(F)(Cl)Cl)(F)Cl)(C(F)(Cl)Cl)(F)Cl
> <PUBCHEM_CACTVS_TPSA>
0
> <PUBCHEM_MONOISOTOPIC_WEIGHT>
333.806729
> <PUBCHEM_TOTAL_CHARGE>
0
> <PUBCHEM_HEAVY_ATOM_COUNT>
14
> <PUBCHEM_ATOM_DEF_STEREO_COUNT>
0
> <PUBCHEM_ATOM_UDEF_STEREO_COUNT>
2
> <PUBCHEM_BOND_DEF_STEREO_COUNT>
0
> <PUBCHEM_BOND_UDEF_STEREO_COUNT>
0
> <PUBCHEM_ISOTOPIC_ATOM_COUNT>
0
> <PUBCHEM_COMPONENT_COUNT>
1
> <PUBCHEM_CACTVS_TAUTO_COUNT>
-1
> <PUBCHEM_COORDINATE_TYPE>
1
5
255
> <PUBCHEM_BONDANNOTATIONS>
11  7  3
12  8  3
$$$$
