520806
  -OEChem-10302200292D
 19 19  0     1  0  0  0  0  0999 V2000
    3.3660   -1.6830    0.0000 O   0  0  0  0  0  0  0  0  0  0  0  0
    2.8660   -0.8170    0.0000 C   0  0  3  0  0  0  0  0  0  0  0  0
    3.8660   -0.8170    0.0000 C   0  0  0  0  0  0  0  0  0  0  0  0
    2.8660    0.1830    0.0000 C   0  0  0  0  0  0  0  0  0  0  0  0
    2.0000   -1.3170    0.0000 C   0  0  0  0  0  0  0  0  0  0  0  0
    2.0000    0.6830    0.0000 C   0  0  0  0  0  0  0  0  0  0  0  0
    2.0000    1.6830    0.0000 C   0  0  0  0  0  0  0  0  0  0  0  0
    4.4486   -1.0290    0.0000 H   0  0  0  0  0  0  0  0  0  0  0  0
    3.9737   -0.2064    0.0000 H   0  0  0  0  0  0  0  0  0  0  0  0
    3.4766    0.0754    0.0000 H   0  0  0  0  0  0  0  0  0  0  0  0
    3.0781    0.7656    0.0000 H   0  0  0  0  0  0  0  0  0  0  0  0
    1.6900   -0.7801    0.0000 H   0  0  0  0  0  0  0  0  0  0  0  0
    1.4631   -1.6270    0.0000 H   0  0  0  0  0  0  0  0  0  0  0  0
    2.3100   -1.8539    0.0000 H   0  0  0  0  0  0  0  0  0  0  0  0
    1.3894    0.7907    0.0000 H   0  0  0  0  0  0  0  0  0  0  0  0
    1.7880    0.1004    0.0000 H   0  0  0  0  0  0  0  0  0  0  0  0
    2.6200    1.6830    0.0000 H   0  0  0  0  0  0  0  0  0  0  0  0
    2.0000    2.3030    0.0000 H   0  0  0  0  0  0  0  0  0  0  0  0
    1.3800    1.6830    0.0000 H   0  0  0  0  0  0  0  0  0  0  0  0
  1  2  1  0  0  0  0
  1  3  1  0  0  0  0
  2  3  1  0  0  0  0
  2  4  1  0  0  0  0
  2  5  1  0  0  0  0
  3  8  1  0  0  0  0
  3  9  1  0  0  0  0
  4  6  1  0  0  0  0
  4 10  1  0  0  0  0
  4 11  1  0  0  0  0
  5 12  1  0  0  0  0
  5 13  1  0  0  0  0
  5 14  1  0  0  0  0
  6  7  1  0  0  0  0
  6 15  1  0  0  0  0
  6 16  1  0  0  0  0
  7 17  1  0  0  0  0
  7 18  1  0  0  0  0
  7 19  1  0  0  0  0
M  END
> <PUBCHEM_COMPOUND_CID>
520806
> <PUBCHEM_COMPOUND_CANONICALIZED>
1
> <PUBCHEM_CACTVS_COMPLEXITY>
70.6
> <PUBCHEM_CACTVS_HBOND_ACCEPTOR>
1
> <PUBCHEM_CACTVS_HBOND_DONOR>
0
> <PUBCHEM_CACTVS_ROTATABLE_BOND>
2
> <PUBCHEM_CACTVS_SUBSKEYS>
AAADccBgIAAAAAAAAAAAAAAAEgAAAAAAAAAAAAAAAAAAAAAAAAAAGgAAAAAADESggAICAAAABAAAAAAAAAAAAAAAAAAAAAAAAAAAAAIAAAAAAAAEAAAAAACAAAAMAAAAAAAAAAAAAAAAAAAAAAAAAAAAAA==
> <PUBCHEM_IUPAC_OPENEYE_NAME>
2-methyl-2-propyl-oxirane
> <PUBCHEM_IUPAC_CAS_NAME>
2-methyl-2-propyloxirane
> <PUBCHEM_IUPAC_NAME_MARKUP>
2-methyl-2-propyloxirane
> <PUBCHEM_IUPAC_NAME>
2-methyl-2-propyloxirane
> <PUBCHEM_IUPAC_SYSTEMATIC_NAME>
2-methyl-2-propyl-oxirane
> <PUBCHEM_IUPAC_TRADITIONAL_NAME>
2-methyl-2-propyl-oxirane
> <PUBCHEM_IUPAC_INCHI>
InChI=1S/C6H12O/c1-3-4-6(2)5-7-6/h3-5H2,1-2H3
> <PUBCHEM_IUPAC_INCHIKEY>
FFXMEOKFDOVSGT-UHFFFAOYSA-N
> <PUBCHEM_XLOGP3_AA>
1.4
> <PUBCHEM_EXACT_MASS>
100.088815002
> <PUBCHEM_MOLECULAR_FORMULA>
C6H12O
> <PUBCHEM_MOLECULAR_WEIGHT>
100.16
> <PUBCHEM_OPENEYE_CAN_SMILES>
CCCC1(CO1)C
> <PUBCHEM_OPENEYE_ISO_SMILES>
CCCC1(CO1)C
> <PUBCHEM_CACTVS_TPSA>
12.5
> <PUBCHEM_MONOISOTOPIC_WEIGHT>
100.088815002
> <PUBCHEM_TOTAL_CHARGE>
0
> <PUBCHEM_HEAVY_ATOM_COUNT>
7
> <PUBCHEM_ATOM_DEF_STEREO_COUNT>
0
> <PUBCHEM_ATOM_UDEF_STEREO_COUNT>
1
> <PUBCHEM_BOND_DEF_STEREO_COUNT>
0
> <PUBCHEM_BOND_UDEF_STEREO_COUNT>
0
> <PUBCHEM_ISOTOPIC_ATOM_COUNT>
0
> <PUBCHEM_COMPONENT_COUNT>
1
> <PUBCHEM_CACTVS_TAUTO_COUNT>
1
> <PUBCHEM_COORDINATE_TYPE>
1
5
255
> <PUBCHEM_BONDANNOTATIONS>
2  5  3
$$$$
