520882
  -OEChem-10302200292D
179180  0     1  0  0  0  0  0999 V2000
    4.5981   11.7606    0.0000 S   0  0  0  0  0  0  0  0  0  0  0  0
    4.5981    8.0286    0.0000 S   0  0  0  0  0  0  0  0  0  0  0  0
    0.8660    9.8946    0.0000 S   0  0  0  0  0  0  0  0  0  0  0  0
   14.0751    4.5888    0.0000 O   0  0  0  0  0  0  0  0  0  0  0  0
   14.2518   15.8181    0.0000 O   0  0  0  0  0  0  0  0  0  0  0  0
   12.8150    5.8488    0.0000 O   0  0  0  0  0  0  0  0  0  0  0  0
   13.2812   14.3236    0.0000 O   0  0  0  0  0  0  0  0  0  0  0  0
   12.3150    3.3100    0.0000 O   0  0  0  0  0  0  0  0  0  0  0  0
   12.2643   16.7030    0.0000 O   0  0  0  0  0  0  0  0  0  0  0  0
   13.6592    6.5451    0.0000 O   0  0  0  0  0  0  0  0  0  0  0  0
   14.2518   13.8181    0.0000 O   0  0  0  0  0  0  0  0  0  0  0  0
   17.4635    5.3090    0.0000 O   0  0  0  0  0  0  0  0  0  0  0  0
   17.7159   15.8181    0.0000 O   0  0  0  0  0  0  0  0  0  0  0  0
   10.5829    3.3100    0.0000 O   0  0  0  0  0  0  0  0  0  0  0  0
   10.5701   16.3429    0.0000 O   0  0  0  0  0  0  0  0  0  0  0  0
   15.1455    7.8833    0.0000 O   0  0  0  0  0  0  0  0  0  0  0  0
   15.9838   12.8181    0.0000 O   0  0  0  0  0  0  0  0  0  0  0  0
   10.9182    4.0888    0.0000 O   0  0  0  0  0  0  0  0  0  0  0  0
   10.9371   14.4817    0.0000 O   0  0  0  0  0  0  0  0  0  0  0  0
   10.5829    0.3100    0.0000 O   0  0  0  0  0  0  0  0  0  0  0  0
    9.9464   19.2773    0.0000 O   0  0  0  0  0  0  0  0  0  0  0  0
    8.8509    1.3100    0.0000 O   0  0  0  0  0  0  0  0  0  0  0  0
    8.4601   17.9391    0.0000 O   0  0  0  0  0  0  0  0  0  0  0  0
    9.8118    4.5377    0.0000 O   0  0  0  0  0  0  0  0  0  0  0  0
   10.1089   15.3418    0.0000 O   0  0  0  0  0  0  0  0  0  0  0  0
    8.8509    4.3100    0.0000 O   0  0  0  0  0  0  0  0  0  0  0  0
    7.9248   16.2918    0.0000 O   0  0  0  0  0  0  0  0  0  0  0  0
    3.7320   11.2606    0.0000 O   0  5  0  0  0  0  0  0  0  0  0  0
    4.0981   12.6266    0.0000 O   0  5  0  0  0  0  0  0  0  0  0  0
    3.7320    7.5286    0.0000 O   0  5  0  0  0  0  0  0  0  0  0  0
    4.0981    8.8946    0.0000 O   0  5  0  0  0  0  0  0  0  0  0  0
    0.0000    9.3946    0.0000 O   0  5  0  0  0  0  0  0  0  0  0  0
    0.3660   10.7606    0.0000 O   0  5  0  0  0  0  0  0  0  0  0  0
    5.4641   12.2606    0.0000 O   0  0  0  0  0  0  0  0  0  0  0  0
    5.0981   10.8946    0.0000 O   0  0  0  0  0  0  0  0  0  0  0  0
    5.4641    8.5286    0.0000 O   0  0  0  0  0  0  0  0  0  0  0  0
    5.0981    7.1625    0.0000 O   0  0  0  0  0  0  0  0  0  0  0  0
    1.7320   10.3946    0.0000 O   0  0  0  0  0  0  0  0  0  0  0  0
    1.3660    9.0286    0.0000 O   0  0  0  0  0  0  0  0  0  0  0  0
   15.9772    3.9707    0.0000 N   0  3  0  0  0  0  0  0  0  0  0  0
   15.9838   16.8181    0.0000 N   0  3  0  0  0  0  0  0  0  0  0  0
   17.0477    7.2653    0.0000 N   0  3  0  0  0  0  0  0  0  0  0  0
   17.7159   13.8181    0.0000 N   0  3  0  0  0  0  0  0  0  0  0  0
   12.3150    1.3100    0.0000 N   0  3  0  0  0  0  0  0  0  0  0  0
   11.8485   18.6593    0.0000 N   0  3  0  0  0  0  0  0  0  0  0  0
   16.3373    2.2765    0.0000 N   0  0  0  0  0  0  0  0  0  0  0  0
   17.6245    3.4355    0.0000 N   0  0  0  0  0  0  0  0  0  0  0  0
   15.9838   18.5502    0.0000 N   0  0  0  0  0  0  0  0  0  0  0  0
   17.4838   17.6842    0.0000 N   0  0  0  0  0  0  0  0  0  0  0  0
   18.3348    8.4243    0.0000 N   0  0  0  0  0  0  0  0  0  0  0  0
   16.6875    8.9595    0.0000 N   0  0  0  0  0  0  0  0  0  0  0  0
   19.2159   12.9521    0.0000 N   0  0  0  0  0  0  0  0  0  0  0  0
   17.7159   12.0861    0.0000 N   0  0  0  0  0  0  0  0  0  0  0  0
   14.8182    5.2579    0.0000 C   0  0  3  0  0  0  0  0  0  0  0  0
   15.1178   15.3181    0.0000 C   0  0  3  0  0  0  0  0  0  0  0  0
   15.7693    4.9489    0.0000 C   0  0  3  0  0  0  0  0  0  0  0  0
   15.9838   15.8181    0.0000 C   0  0  3  0  0  0  0  0  0  0  0  0
   14.6103    6.2360    0.0000 C   0  0  3  0  0  0  0  0  0  0  0  0
   15.1178   14.3181    0.0000 C   0  0  3  0  0  0  0  0  0  0  0  0
   16.5124    5.6180    0.0000 C   0  0  3  0  0  0  0  0  0  0  0  0
   16.8499   15.3181    0.0000 C   0  0  3  0  0  0  0  0  0  0  0  0
   16.3045    6.5962    0.0000 C   0  0  3  0  0  0  0  0  0  0  0  0
   16.8499   14.3181    0.0000 C   0  0  3  0  0  0  0  0  0  0  0  0
   15.3535    6.9052    0.0000 C   0  0  3  0  0  0  0  0  0  0  0  0
   15.9838   13.8181    0.0000 C   0  0  3  0  0  0  0  0  0  0  0  0
   12.3150    4.3100    0.0000 C   0  0  3  0  0  0  0  0  0  0  0  0
   12.4722   15.7249    0.0000 C   0  0  3  0  0  0  0  0  0  0  0  0
   13.1240    4.8978    0.0000 C   0  0  3  0  0  0  0  0  0  0  0  0
   13.3858   15.3181    0.0000 C   0  0  3  0  0  0  0  0  0  0  0  0
   11.5060    4.8978    0.0000 C   0  0  3  0  0  0  0  0  0  0  0  0
   11.8031   14.9817    0.0000 C   0  0  3  0  0  0  0  0  0  0  0  0
   11.8150    5.8488    0.0000 C   0  0  3  0  0  0  0  0  0  0  0  0
   12.3031   14.1157    0.0000 C   0  0  3  0  0  0  0  0  0  0  0  0
   11.4490    1.8100    0.0000 C   0  0  3  0  0  0  0  0  0  0  0  0
   11.1053   17.9902    0.0000 C   0  0  3  0  0  0  0  0  0  0  0  0
   11.4490    2.8100    0.0000 C   0  0  3  0  0  0  0  0  0  0  0  0
   11.3133   17.0120    0.0000 C   0  0  3  0  0  0  0  0  0  0  0  0
   10.5829    1.3100    0.0000 C   0  0  3  0  0  0  0  0  0  0  0  0
   10.1543   18.2992    0.0000 C   0  0  3  0  0  0  0  0  0  0  0  0
    9.7169    1.8100    0.0000 C   0  0  3  0  0  0  0  0  0  0  0  0
    9.4111   17.6301    0.0000 C   0  0  3  0  0  0  0  0  0  0  0  0
    9.7169    2.8100    0.0000 C   0  0  3  0  0  0  0  0  0  0  0  0
    9.6190   16.6519    0.0000 C   0  0  3  0  0  0  0  0  0  0  0  0
   11.2272    6.6579    0.0000 C   0  0  0  0  0  0  0  0  0  0  0  0
   11.8964   13.2021    0.0000 C   0  0  0  0  0  0  0  0  0  0  0  0
   10.5549    5.2068    0.0000 C   0  0  0  0  0  0  0  0  0  0  0  0
   11.0599   15.6508    0.0000 C   0  0  0  0  0  0  0  0  0  0  0  0
   16.6463    3.2276    0.0000 C   0  0  0  0  0  0  0  0  0  0  0  0
   16.4838   17.6842    0.0000 C   0  0  0  0  0  0  0  0  0  0  0  0
    8.8509    3.3100    0.0000 C   0  0  0  0  0  0  0  0  0  0  0  0
    8.8759   15.9828    0.0000 C   0  0  0  0  0  0  0  0  0  0  0  0
   17.3567    8.2164    0.0000 C   0  0  0  0  0  0  0  0  0  0  0  0
   18.2160   12.9522    0.0000 C   0  0  0  0  0  0  0  0  0  0  0  0
   13.1810    0.8100    0.0000 C   0  0  0  0  0  0  0  0  0  0  0  0
   12.5916   19.3284    0.0000 C   0  0  0  0  0  0  0  0  0  0  0  0
   14.9471    4.6514    0.0000 H   0  0  0  0  0  0  0  0  0  0  0  0
   15.1178   15.9381    0.0000 H   0  0  0  0  0  0  0  0  0  0  0  0
   16.3589    4.7573    0.0000 H   0  0  0  0  0  0  0  0  0  0  0  0
   15.4469   16.1281    0.0000 H   0  0  0  0  0  0  0  0  0  0  0  0
   14.4814    6.8425    0.0000 H   0  0  0  0  0  0  0  0  0  0  0  0
   14.5809   14.6281    0.0000 H   0  0  0  0  0  0  0  0  0  0  0  0
   16.9732    6.0329    0.0000 H   0  0  0  0  0  0  0  0  0  0  0  0
   16.8499   15.9381    0.0000 H   0  0  0  0  0  0  0  0  0  0  0  0
   16.8942    6.4046    0.0000 H   0  0  0  0  0  0  0  0  0  0  0  0
   17.3868   14.6281    0.0000 H   0  0  0  0  0  0  0  0  0  0  0  0
   15.8142    7.3200    0.0000 H   0  0  0  0  0  0  0  0  0  0  0  0
   16.5208   13.5081    0.0000 H   0  0  0  0  0  0  0  0  0  0  0  0
   12.8674    4.0285    0.0000 H   0  0  0  0  0  0  0  0  0  0  0  0
   11.8733   15.8853    0.0000 H   0  0  0  0  0  0  0  0  0  0  0  0
   13.2210    4.2854    0.0000 H   0  0  0  0  0  0  0  0  0  0  0  0
   13.3533   15.9373    0.0000 H   0  0  0  0  0  0  0  0  0  0  0  0
   12.0965    6.4013    0.0000 H   0  0  0  0  0  0  0  0  0  0  0  0
   12.6933   13.6339    0.0000 H   0  0  0  0  0  0  0  0  0  0  0  0
   11.4490    1.1900    0.0000 H   0  0  0  0  0  0  0  0  0  0  0  0
   11.6950   17.7986    0.0000 H   0  0  0  0  0  0  0  0  0  0  0  0
   11.9859    2.5000    0.0000 H   0  0  0  0  0  0  0  0  0  0  0  0
   11.4422   16.4056    0.0000 H   0  0  0  0  0  0  0  0  0  0  0  0
   15.5164    3.5559    0.0000 H   0  0  0  0  0  0  0  0  0  0  0  0
   15.4469   17.1281    0.0000 H   0  0  0  0  0  0  0  0  0  0  0  0
   11.1199    1.0000    0.0000 H   0  0  0  0  0  0  0  0  0  0  0  0
    9.5646   18.4908    0.0000 H   0  0  0  0  0  0  0  0  0  0  0  0
   17.6373    7.0737    0.0000 H   0  0  0  0  0  0  0  0  0  0  0  0
   18.2528   14.1281    0.0000 H   0  0  0  0  0  0  0  0  0  0  0  0
    9.1800    2.1200    0.0000 H   0  0  0  0  0  0  0  0  0  0  0  0
    8.9504   17.2152    0.0000 H   0  0  0  0  0  0  0  0  0  0  0  0
    9.7169    3.4300    0.0000 H   0  0  0  0  0  0  0  0  0  0  0  0
    9.7480   16.0455    0.0000 H   0  0  0  0  0  0  0  0  0  0  0  0
   11.7288    7.0223    0.0000 H   0  0  0  0  0  0  0  0  0  0  0  0
   10.8628    7.1594    0.0000 H   0  0  0  0  0  0  0  0  0  0  0  0
   10.7256    6.2934    0.0000 H   0  0  0  0  0  0  0  0  0  0  0  0
   11.3300   13.4543    0.0000 H   0  0  0  0  0  0  0  0  0  0  0  0
   11.6442   12.6357    0.0000 H   0  0  0  0  0  0  0  0  0  0  0  0
   12.4628   12.9500    0.0000 H   0  0  0  0  0  0  0  0  0  0  0  0
   12.0050    0.7731    0.0000 H   0  0  0  0  0  0  0  0  0  0  0  0
   12.6250    1.8469    0.0000 H   0  0  0  0  0  0  0  0  0  0  0  0
   11.4336   19.1201    0.0000 H   0  0  0  0  0  0  0  0  0  0  0  0
   12.2633   18.1986    0.0000 H   0  0  0  0  0  0  0  0  0  0  0  0
   10.4260    5.8132    0.0000 H   0  0  0  0  0  0  0  0  0  0  0  0
   11.1889   16.2573    0.0000 H   0  0  0  0  0  0  0  0  0  0  0  0
   13.5303    7.1515    0.0000 H   0  0  0  0  0  0  0  0  0  0  0  0
   14.2518   13.1981    0.0000 H   0  0  0  0  0  0  0  0  0  0  0  0
   17.9242    5.7239    0.0000 H   0  0  0  0  0  0  0  0  0  0  0  0
   18.2528   15.5081    0.0000 H   0  0  0  0  0  0  0  0  0  0  0  0
   14.5559    8.0749    0.0000 H   0  0  0  0  0  0  0  0  0  0  0  0
   15.4469   12.5081    0.0000 H   0  0  0  0  0  0  0  0  0  0  0  0
   11.1704    3.5224    0.0000 H   0  0  0  0  0  0  0  0  0  0  0  0
   10.9371   13.8617    0.0000 H   0  0  0  0  0  0  0  0  0  0  0  0
    8.2403    3.4177    0.0000 H   0  0  0  0  0  0  0  0  0  0  0  0
    8.6388    2.7274    0.0000 H   0  0  0  0  0  0  0  0  0  0  0  0
    8.5848   15.4354    0.0000 H   0  0  0  0  0  0  0  0  0  0  0  0
    9.3645   15.6011    0.0000 H   0  0  0  0  0  0  0  0  0  0  0  0
   12.8710    0.2731    0.0000 H   0  0  0  0  0  0  0  0  0  0  0  0
   13.7180    0.5000    0.0000 H   0  0  0  0  0  0  0  0  0  0  0  0
   13.4910    1.3469    0.0000 H   0  0  0  0  0  0  0  0  0  0  0  0
   13.0065   18.8677    0.0000 H   0  0  0  0  0  0  0  0  0  0  0  0
   13.0524   19.7433    0.0000 H   0  0  0  0  0  0  0  0  0  0  0  0
   12.1768   19.7892    0.0000 H   0  0  0  0  0  0  0  0  0  0  0  0
   10.0460    0.0000    0.0000 H   0  0  0  0  0  0  0  0  0  0  0  0
    9.3567   19.4689    0.0000 H   0  0  0  0  0  0  0  0  0  0  0  0
    8.3140    1.6200    0.0000 H   0  0  0  0  0  0  0  0  0  0  0  0
    8.3312   18.5455    0.0000 H   0  0  0  0  0  0  0  0  0  0  0  0
   16.7522    1.8158    0.0000 H   0  0  0  0  0  0  0  0  0  0  0  0
   15.7308    2.1476    0.0000 H   0  0  0  0  0  0  0  0  0  0  0  0
   18.0393    2.9747    0.0000 H   0  0  0  0  0  0  0  0  0  0  0  0
   17.8161    4.0252    0.0000 H   0  0  0  0  0  0  0  0  0  0  0  0
   16.2938   19.0871    0.0000 H   0  0  0  0  0  0  0  0  0  0  0  0
   15.3638   18.5502    0.0000 H   0  0  0  0  0  0  0  0  0  0  0  0
   17.7938   18.2211    0.0000 H   0  0  0  0  0  0  0  0  0  0  0  0
   17.7938   17.1472    0.0000 H   0  0  0  0  0  0  0  0  0  0  0  0
   18.5264    9.0139    0.0000 H   0  0  0  0  0  0  0  0  0  0  0  0
   18.7497    7.9635    0.0000 H   0  0  0  0  0  0  0  0  0  0  0  0
   16.8791    9.5491    0.0000 H   0  0  0  0  0  0  0  0  0  0  0  0
   16.0811    8.8306    0.0000 H   0  0  0  0  0  0  0  0  0  0  0  0
   19.5259   12.4152    0.0000 H   0  0  0  0  0  0  0  0  0  0  0  0
   19.5259   13.4890    0.0000 H   0  0  0  0  0  0  0  0  0  0  0  0
   18.0259   11.5491    0.0000 H   0  0  0  0  0  0  0  0  0  0  0  0
   17.0959   12.0861    0.0000 H   0  0  0  0  0  0  0  0  0  0  0  0
    8.3140    4.6200    0.0000 H   0  0  0  0  0  0  0  0  0  0  0  0
    7.4641   15.8769    0.0000 H   0  0  0  0  0  0  0  0  0  0  0  0
  1 28  1  0  0  0  0
  1 29  1  0  0  0  0
  1 34  2  0  0  0  0
  1 35  2  0  0  0  0
  2 30  1  0  0  0  0
  2 31  1  0  0  0  0
  2 36  2  0  0  0  0
  2 37  2  0  0  0  0
  3 32  1  0  0  0  0
  3 33  1  0  0  0  0
  3 38  2  0  0  0  0
  3 39  2  0  0  0  0
  4 54  1  0  0  0  0
  4 68  1  0  0  0  0
  5 55  1  0  0  0  0
  5 69  1  0  0  0  0
  6 68  1  0  0  0  0
  6 72  1  0  0  0  0
  7 69  1  0  0  0  0
  7 73  1  0  0  0  0
  8 66  1  0  0  0  0
  8 76  1  0  0  0  0
  9 67  1  0  0  0  0
  9 77  1  0  0  0  0
 10 58  1  0  0  0  0
 10140  1  0  0  0  0
 11 59  1  0  0  0  0
 11141  1  0  0  0  0
 12 60  1  0  0  0  0
 12142  1  0  0  0  0
 13 61  1  0  0  0  0
 13143  1  0  0  0  0
 14 76  1  0  0  0  0
 14 82  1  0  0  0  0
 15 77  1  0  0  0  0
 15 83  1  0  0  0  0
 16 64  1  0  0  0  0
 16144  1  0  0  0  0
 17 65  1  0  0  0  0
 17145  1  0  0  0  0
 18 70  1  0  0  0  0
 18146  1  0  0  0  0
 19 71  1  0  0  0  0
 19147  1  0  0  0  0
 20 78  1  0  0  0  0
 20158  1  0  0  0  0
 21 79  1  0  0  0  0
 21159  1  0  0  0  0
 22 80  1  0  0  0  0
 22160  1  0  0  0  0
 23 81  1  0  0  0  0
 23161  1  0  0  0  0
 24 86  2  0  0  0  0
 25 87  2  0  0  0  0
 26 90  1  0  0  0  0
 26178  1  0  0  0  0
 27 91  1  0  0  0  0
 27179  1  0  0  0  0
 40 56  1  0  0  0  0
 40 88  2  0  0  0  0
 40118  1  0  0  0  0
 41 57  1  0  0  0  0
 41 89  2  0  0  0  0
 41119  1  0  0  0  0
 42 62  1  0  0  0  0
 42 92  2  0  0  0  0
 42122  1  0  0  0  0
 43 63  1  0  0  0  0
 43 93  2  0  0  0  0
 43123  1  0  0  0  0
 44 74  1  0  0  0  0
 44 94  1  0  0  0  0
 44134  1  0  0  0  0
 44135  1  0  0  0  0
 45 75  1  0  0  0  0
 45 95  1  0  0  0  0
 45136  1  0  0  0  0
 45137  1  0  0  0  0
 46 88  1  0  0  0  0
 46162  1  0  0  0  0
 46163  1  0  0  0  0
 47 88  1  0  0  0  0
 47164  1  0  0  0  0
 47165  1  0  0  0  0
 48 89  1  0  0  0  0
 48166  1  0  0  0  0
 48167  1  0  0  0  0
 49 89  1  0  0  0  0
 49168  1  0  0  0  0
 49169  1  0  0  0  0
 50 92  1  0  0  0  0
 50170  1  0  0  0  0
 50171  1  0  0  0  0
 51 92  1  0  0  0  0
 51172  1  0  0  0  0
 51173  1  0  0  0  0
 52 93  1  0  0  0  0
 52174  1  0  0  0  0
 52175  1  0  0  0  0
 53 93  1  0  0  0  0
 53176  1  0  0  0  0
 53177  1  0  0  0  0
 54 56  1  0  0  0  0
 54 58  1  0  0  0  0
 54 96  1  0  0  0  0
 55 57  1  0  0  0  0
 55 59  1  0  0  0  0
 55 97  1  0  0  0  0
 56 60  1  0  0  0  0
 56 98  1  0  0  0  0
 57 61  1  0  0  0  0
 57 99  1  0  0  0  0
 58 64  1  0  0  0  0
 58100  1  0  0  0  0
 59 65  1  0  0  0  0
 59101  1  0  0  0  0
 60 62  1  0  0  0  0
 60102  1  0  0  0  0
 61 63  1  0  0  0  0
 61103  1  0  0  0  0
 62 64  1  0  0  0  0
 62104  1  0  0  0  0
 63 65  1  0  0  0  0
 63105  1  0  0  0  0
 64106  1  0  0  0  0
 65107  1  0  0  0  0
 66 68  1  0  0  0  0
 66 70  1  0  0  0  0
 66108  1  0  0  0  0
 67 69  1  0  0  0  0
 67 71  1  0  0  0  0
 67109  1  0  0  0  0
 68110  1  0  0  0  0
 69111  1  0  0  0  0
 70 72  1  0  0  0  0
 70 86  1  0  0  0  0
 71 73  1  0  0  0  0
 71 87  1  0  0  0  0
 72 84  1  0  0  0  0
 72112  1  0  0  0  0
 73 85  1  0  0  0  0
 73113  1  0  0  0  0
 74 76  1  0  0  0  0
 74 78  1  0  0  0  0
 74114  1  0  0  0  0
 75 77  1  0  0  0  0
 75 79  1  0  0  0  0
 75115  1  0  0  0  0
 76116  1  0  0  0  0
 77117  1  0  0  0  0
 78 80  1  0  0  0  0
 78120  1  0  0  0  0
 79 81  1  0  0  0  0
 79121  1  0  0  0  0
 80 82  1  0  0  0  0
 80124  1  0  0  0  0
 81 83  1  0  0  0  0
 81125  1  0  0  0  0
 82 90  1  0  0  0  0
 82126  1  0  0  0  0
 83 91  1  0  0  0  0
 83127  1  0  0  0  0
 84128  1  0  0  0  0
 84129  1  0  0  0  0
 84130  1  0  0  0  0
 85131  1  0  0  0  0
 85132  1  0  0  0  0
 85133  1  0  0  0  0
 86138  1  0  0  0  0
 87139  1  0  0  0  0
 90148  1  0  0  0  0
 90149  1  0  0  0  0
 91150  1  0  0  0  0
 91151  1  0  0  0  0
 94152  1  0  0  0  0
 94153  1  0  0  0  0
 94154  1  0  0  0  0
 95155  1  0  0  0  0
 95156  1  0  0  0  0
 95157  1  0  0  0  0
M  CHG  8  28  -1  29  -1  30  -1  31  -1  32  -1  33  -1  40   1  41   1
M  CHG  4  42   1  43   1  44   1  45   1
M  END
> <PUBCHEM_COMPOUND_CID>
520882
> <PUBCHEM_COMPOUND_CANONICALIZED>
1
> <PUBCHEM_CACTVS_COMPLEXITY>
1000
> <PUBCHEM_CACTVS_HBOND_ACCEPTOR>
36
> <PUBCHEM_CACTVS_HBOND_DONOR>
28
> <PUBCHEM_CACTVS_ROTATABLE_BOND>
18
> <PUBCHEM_CACTVS_SUBSKEYS>
AAADcfB//gBgAAAAAAAAAAAAAAAAASJAAAA0aIEAAAAAAAAAAAAAHgAQCAAADHzxgAcDCALABgAoAAgQpDIAAAGAAAAAAIFIAAATEBYAwAAnQAAHMAAXAAHycA8KAAAAAAAAAAACgAAUCACgAAAAAAAAAA==
> <PUBCHEM_IUPAC_OPENEYE_NAME>
[2-[2-[2,4-bis(diaminomethyleneammonio)-3,5,6-trihydroxy-cyclohexoxy]-4-formyl-4-hydroxy-5-methyl-tetrahydrofuran-3-yl]oxy-4,5-dihydroxy-6-(hydroxymethyl)tetrahydropyran-3-yl]-methyl-ammonium;trisulfate
> <PUBCHEM_IUPAC_CAS_NAME>
[2-[[2-[2,4-bis(diaminomethylideneammonio)-3,5,6-trihydroxycyclohexyl]oxy-4-formyl-4-hydroxy-5-methyl-3-oxolanyl]oxy]-4,5-dihydroxy-6-(hydroxymethyl)-3-oxanyl]-methylammonium;trisulfate
> <PUBCHEM_IUPAC_NAME_MARKUP>
[2-[2-[2,4-bis(diaminomethylideneazaniumyl)-3,5,6-trihydroxycyclohexyl]oxy-4-formyl-4-hydroxy-5-methyloxolan-3-yl]oxy-4,5-dihydroxy-6-(hydroxymethyl)oxan-3-yl]-methylazanium;trisulfate
> <PUBCHEM_IUPAC_NAME>
[2-[2-[2,4-bis(diaminomethylideneazaniumyl)-3,5,6-trihydroxycyclohexyl]oxy-4-formyl-4-hydroxy-5-methyloxolan-3-yl]oxy-4,5-dihydroxy-6-(hydroxymethyl)oxan-3-yl]-methylazanium;trisulfate
> <PUBCHEM_IUPAC_SYSTEMATIC_NAME>
bis(azanyl)methylidene-[3-[bis(azanyl)methylideneazaniumyl]-4-[3-[6-(hydroxymethyl)-3-(methylazaniumyl)-4,5-bis(oxidanyl)oxan-2-yl]oxy-4-methanoyl-5-methyl-4-oxidanyl-oxolan-2-yl]oxy-2,5,6-tris(oxidanyl)cyclohexyl]azanium;trisulfate
> <PUBCHEM_IUPAC_TRADITIONAL_NAME>
[2-[2-[2,4-bis(diaminomethyleneammonio)-3,5,6-trihydroxy-cyclohexoxy]-4-formyl-4-hydroxy-5-methyl-tetrahydrofuran-3-yl]oxy-4,5-dihydroxy-6-methylol-tetrahydropyran-3-yl]-methyl-ammonium;trisulfate
> <PUBCHEM_IUPAC_INCHI>
InChI=1S/2C21H39N7O12.3H2O4S/c2*1-5-21(36,4-30)16(40-17-9(26-2)13(34)10(31)6(3-29)38-17)18(37-5)39-15-8(28-20(24)25)11(32)7(27-19(22)23)12(33)14(15)35;3*1-5(2,3)4/h2*4-18,26,29,31-36H,3H2,1-2H3,(H4,22,23,27)(H4,24,25,28);3*(H2,1,2,3,4)
> <PUBCHEM_IUPAC_INCHIKEY>
QTENRWWVYAAPBI-UHFFFAOYSA-N
> <PUBCHEM_EXACT_MASS>
1456.4334786
> <PUBCHEM_MOLECULAR_FORMULA>
C42H84N14O36S3
> <PUBCHEM_MOLECULAR_WEIGHT>
1457.4
> <PUBCHEM_OPENEYE_CAN_SMILES>
CC1C(C(C(O1)OC2C(C(C(C(C2O)O)[NH+]=C(N)N)O)[NH+]=C(N)N)OC3C(C(C(C(O3)CO)O)O)[NH2+]C)(C=O)O.CC1C(C(C(O1)OC2C(C(C(C(C2O)O)[NH+]=C(N)N)O)[NH+]=C(N)N)OC3C(C(C(C(O3)CO)O)O)[NH2+]C)(C=O)O.[O-]S(=O)(=O)[O-].[O-]S(=O)(=O)[O-].[O-]S(=O)(=O)[O-]
> <PUBCHEM_OPENEYE_ISO_SMILES>
CC1C(C(C(O1)OC2C(C(C(C(C2O)O)[NH+]=C(N)N)O)[NH+]=C(N)N)OC3C(C(C(C(O3)CO)O)O)[NH2+]C)(C=O)O.CC1C(C(C(O1)OC2C(C(C(C(C2O)O)[NH+]=C(N)N)O)[NH+]=C(N)N)OC3C(C(C(C(O3)CO)O)O)[NH2+]C)(C=O)O.[O-]S(=O)(=O)[O-].[O-]S(=O)(=O)[O-].[O-]S(=O)(=O)[O-]
> <PUBCHEM_CACTVS_TPSA>
954
> <PUBCHEM_MONOISOTOPIC_WEIGHT>
1456.4334786
> <PUBCHEM_TOTAL_CHARGE>
0
> <PUBCHEM_HEAVY_ATOM_COUNT>
95
> <PUBCHEM_ATOM_DEF_STEREO_COUNT>
0
> <PUBCHEM_ATOM_UDEF_STEREO_COUNT>
30
> <PUBCHEM_BOND_DEF_STEREO_COUNT>
0
> <PUBCHEM_BOND_UDEF_STEREO_COUNT>
0
> <PUBCHEM_ISOTOPIC_ATOM_COUNT>
0
> <PUBCHEM_COMPONENT_COUNT>
5
> <PUBCHEM_CACTVS_TAUTO_COUNT>
-1
> <PUBCHEM_COORDINATE_TYPE>
1
5
255
> <PUBCHEM_BONDANNOTATIONS>
58  10  3
59  11  3
60  12  3
61  13  3
64  16  3
65  17  3
70  18  3
71  19  3
78  20  3
79  21  3
80  22  3
81  23  3
54  4  3
68  4  3
56  40  3
57  41  3
62  42  3
63  43  3
74  44  3
75  45  3
55  5  3
69  5  3
72  84  3
73  85  3
66  8  3
76  8  3
82  90  3
83  91  3
67  9  3
77  9  3
$$$$
