520957
  -OEChem-10302200292D
 39 41  0     1  0  0  0  0  0999 V2000
    2.9986   -0.4478    0.0000 C   0  0  3  0  0  0  0  0  0  0  0  0
    5.8153   -0.3626    0.0000 C   0  0  3  0  0  0  0  0  0  0  0  0
    4.6752    0.5945    0.0000 C   0  0  3  0  0  0  0  0  0  0  0  0
    4.4164   -0.3714    0.0000 C   0  0  3  0  0  0  0  0  0  0  0  0
    5.7037   -1.3660    0.0000 C   0  0  0  0  0  0  0  0  0  0  0  0
    3.1706   -1.4426    0.0000 C   0  0  0  0  0  0  0  0  0  0  0  0
    4.5967    2.0552    0.0000 C   0  0  0  0  0  0  0  0  0  0  0  0
    3.1954    1.2462    0.0000 C   0  0  0  0  0  0  0  0  0  0  0  0
    4.9617   -2.0506    0.0000 C   0  0  0  0  0  0  0  0  0  0  0  0
    2.0000   -0.5016    0.0000 C   0  0  0  0  0  0  0  0  0  0  0  0
    3.9526   -2.0811    0.0000 C   0  0  0  0  0  0  0  0  0  0  0  0
    3.6022    2.1598    0.0000 C   0  0  0  0  0  0  0  0  0  0  0  0
    6.7035   -1.3854    0.0000 C   0  0  0  0  0  0  0  0  0  0  0  0
    6.3119   -2.1598    0.0000 C   0  0  0  0  0  0  0  0  0  0  0  0
    2.2173    1.0383    0.0000 C   0  0  0  0  0  0  0  0  0  0  0  0
    6.3909   -0.1322    0.0000 H   0  0  0  0  0  0  0  0  0  0  0  0
    5.2299    0.8714    0.0000 H   0  0  0  0  0  0  0  0  0  0  0  0
    3.8542   -0.1100    0.0000 H   0  0  0  0  0  0  0  0  0  0  0  0
    2.5546   -1.3720    0.0000 H   0  0  0  0  0  0  0  0  0  0  0  0
    2.9295   -2.0138    0.0000 H   0  0  0  0  0  0  0  0  0  0  0  0
    5.2167    2.0558    0.0000 H   0  0  0  0  0  0  0  0  0  0  0  0
    4.6289    2.6744    0.0000 H   0  0  0  0  0  0  0  0  0  0  0  0
    4.8053   -2.6505    0.0000 H   0  0  0  0  0  0  0  0  0  0  0  0
    5.4934   -2.3695    0.0000 H   0  0  0  0  0  0  0  0  0  0  0  0
    1.9667    0.1175    0.0000 H   0  0  0  0  0  0  0  0  0  0  0  0
    1.3809   -0.5349    0.0000 H   0  0  0  0  0  0  0  0  0  0  0  0
    2.0333   -1.1207    0.0000 H   0  0  0  0  0  0  0  0  0  0  0  0
    3.4412   -2.4316    0.0000 H   0  0  0  0  0  0  0  0  0  0  0  0
    4.1450   -2.6705    0.0000 H   0  0  0  0  0  0  0  0  0  0  0  0
    3.2922    2.6967    0.0000 H   0  0  0  0  0  0  0  0  0  0  0  0
    6.6915   -2.0053    0.0000 H   0  0  0  0  0  0  0  0  0  0  0  0
    7.3234   -1.3974    0.0000 H   0  0  0  0  0  0  0  0  0  0  0  0
    6.7156   -0.7655    0.0000 H   0  0  0  0  0  0  0  0  0  0  0  0
    5.8198   -2.5369    0.0000 H   0  0  0  0  0  0  0  0  0  0  0  0
    6.6890   -2.6519    0.0000 H   0  0  0  0  0  0  0  0  0  0  0  0
    6.8041   -1.7827    0.0000 H   0  0  0  0  0  0  0  0  0  0  0  0
    2.0884    1.6448    0.0000 H   0  0  0  0  0  0  0  0  0  0  0  0
    1.6108    0.9094    0.0000 H   0  0  0  0  0  0  0  0  0  0  0  0
    2.3462    0.4319    0.0000 H   0  0  0  0  0  0  0  0  0  0  0  0
  1  3  1  0  0  0  0
  1  4  1  0  0  0  0
  1  6  1  0  0  0  0
  1 10  1  0  0  0  0
  2  3  1  0  0  0  0
  2  4  1  0  0  0  0
  2  5  1  0  0  0  0
  2 16  1  0  0  0  0
  3  7  1  0  0  0  0
  3 17  1  0  0  0  0
  4  8  1  0  0  0  0
  4 18  1  0  0  0  0
  5  9  1  0  0  0  0
  5 13  1  0  0  0  0
  5 14  1  0  0  0  0
  6 11  1  0  0  0  0
  6 19  1  0  0  0  0
  6 20  1  0  0  0  0
  7 12  1  0  0  0  0
  7 21  1  0  0  0  0
  7 22  1  0  0  0  0
  8 12  2  0  0  0  0
  8 15  1  0  0  0  0
  9 11  1  0  0  0  0
  9 23  1  0  0  0  0
  9 24  1  0  0  0  0
 10 25  1  0  0  0  0
 10 26  1  0  0  0  0
 10 27  1  0  0  0  0
 11 28  1  0  0  0  0
 11 29  1  0  0  0  0
 12 30  1  0  0  0  0
 13 31  1  0  0  0  0
 13 32  1  0  0  0  0
 13 33  1  0  0  0  0
 14 34  1  0  0  0  0
 14 35  1  0  0  0  0
 14 36  1  0  0  0  0
 15 37  1  0  0  0  0
 15 38  1  0  0  0  0
 15 39  1  0  0  0  0
M  END
> <PUBCHEM_COMPOUND_CID>
520957
> <PUBCHEM_COMPOUND_CANONICALIZED>
1
> <PUBCHEM_CACTVS_COMPLEXITY>
323
> <PUBCHEM_CACTVS_HBOND_ACCEPTOR>
0
> <PUBCHEM_CACTVS_HBOND_DONOR>
0
> <PUBCHEM_CACTVS_ROTATABLE_BOND>
0
> <PUBCHEM_CACTVS_SUBSKEYS>
AAADceBwAAAAAAAAAAAAAAAAAABgAAAAAAAgQAAABgwAAAAAAAAAGAAAAAAADwCAAAACAAAAAACAAiBCAAAAAAAgAAAACAAAAAgAAAIAAQAAAAAAgAAIAAMAgMAPgAAAAAAAAAAAAAAAAAAAAAAAAAAAAA==
> <PUBCHEM_IUPAC_OPENEYE_NAME>
2,6,6,9-tetramethyltricyclo[5.4.0.02,8]undec-9-ene
> <PUBCHEM_IUPAC_CAS_NAME>
2,6,6,9-tetramethyltricyclo[5.4.0.02,8]undec-9-ene
> <PUBCHEM_IUPAC_NAME_MARKUP>
2,6,6,9-tetramethyltricyclo[5.4.0.0<SUP>2,8</SUP>]undec-9-ene
> <PUBCHEM_IUPAC_NAME>
2,6,6,9-tetramethyltricyclo[5.4.0.02,8]undec-9-ene
> <PUBCHEM_IUPAC_SYSTEMATIC_NAME>
2,6,6,9-tetramethyltricyclo[5.4.0.02,8]undec-9-ene
> <PUBCHEM_IUPAC_TRADITIONAL_NAME>
2,6,6,9-tetramethyltricyclo[5.4.0.02,8]undec-9-ene
> <PUBCHEM_IUPAC_INCHI>
InChI=1S/C15H24/c1-10-6-7-11-13-12(10)15(11,4)9-5-8-14(13,2)3/h6,11-13H,5,7-9H2,1-4H3
> <PUBCHEM_IUPAC_INCHIKEY>
HICYDYJTCDBHMZ-UHFFFAOYSA-N
> <PUBCHEM_XLOGP3_AA>
4.6
> <PUBCHEM_EXACT_MASS>
204.187800766
> <PUBCHEM_MOLECULAR_FORMULA>
C15H24
> <PUBCHEM_MOLECULAR_WEIGHT>
204.35
> <PUBCHEM_OPENEYE_CAN_SMILES>
CC1=CCC2C3C1C2(CCCC3(C)C)C
> <PUBCHEM_OPENEYE_ISO_SMILES>
CC1=CCC2C3C1C2(CCCC3(C)C)C
> <PUBCHEM_CACTVS_TPSA>
0
> <PUBCHEM_MONOISOTOPIC_WEIGHT>
204.187800766
> <PUBCHEM_TOTAL_CHARGE>
0
> <PUBCHEM_HEAVY_ATOM_COUNT>
15
> <PUBCHEM_ATOM_DEF_STEREO_COUNT>
0
> <PUBCHEM_ATOM_UDEF_STEREO_COUNT>
4
> <PUBCHEM_BOND_DEF_STEREO_COUNT>
0
> <PUBCHEM_BOND_UDEF_STEREO_COUNT>
0
> <PUBCHEM_ISOTOPIC_ATOM_COUNT>
0
> <PUBCHEM_COMPONENT_COUNT>
1
> <PUBCHEM_CACTVS_TAUTO_COUNT>
-1
> <PUBCHEM_COORDINATE_TYPE>
1
5
255
> <PUBCHEM_BONDANNOTATIONS>
1  10  3
2  5  3
3  7  3
4  8  3
$$$$
