520915
  -OEChem-10302200292D
 50 54  0     1  0  0  0  0  0999 V2000
    3.0974    0.3028    0.0000 O   0  0  0  0  0  0  0  0  0  0  0  0
    2.8660   -2.1521    0.0000 O   0  0  0  0  0  0  0  0  0  0  0  0
    2.8660    2.6521    0.0000 O   0  0  0  0  0  0  0  0  0  0  0  0
    3.7320   -3.6522    0.0000 O   0  0  0  0  0  0  0  0  0  0  0  0
    7.0267   -0.7011    0.0000 N   0  0  3  0  0  0  0  0  0  0  0  0
    4.5557   -0.2255    0.0000 C   0  0  3  0  0  0  0  0  0  0  0  0
    5.3794   -0.7011    0.0000 C   0  0  3  0  0  0  0  0  0  0  0  0
    3.7320   -0.7011    0.0000 C   0  0  3  0  0  0  0  0  0  0  0  0
    6.2030   -0.2255    0.0000 C   0  0  3  0  0  0  0  0  0  0  0  0
    5.1052    0.4719    0.0000 C   0  0  0  0  0  0  0  0  0  0  0  0
    4.5557    0.7255    0.0000 C   0  0  0  0  0  0  0  0  0  0  0  0
    5.3794   -1.6522    0.0000 C   0  0  0  0  0  0  0  0  0  0  0  0
    3.7320   -1.6522    0.0000 C   0  0  3  0  0  0  0  0  0  0  0  0
    6.2030    0.7255    0.0000 C   0  0  0  0  0  0  0  0  0  0  0  0
    4.5557   -2.1277    0.0000 C   0  0  0  0  0  0  0  0  0  0  0  0
    6.4579    0.4719    0.0000 C   0  0  0  0  0  0  0  0  0  0  0  0
    5.3794    1.2011    0.0000 C   0  0  0  0  0  0  0  0  0  0  0  0
    3.7320    1.2011    0.0000 C   0  0  0  0  0  0  0  0  0  0  0  0
    7.7078   -1.4332    0.0000 C   0  0  0  0  0  0  0  0  0  0  0  0
    5.3794    2.1521    0.0000 C   0  0  0  0  0  0  0  0  0  0  0  0
    3.7320    2.1521    0.0000 C   0  0  0  0  0  0  0  0  0  0  0  0
    4.5557    2.6277    0.0000 C   0  0  0  0  0  0  0  0  0  0  0  0
    2.8660   -3.1521    0.0000 C   0  0  0  0  0  0  0  0  0  0  0  0
    2.0000   -3.6522    0.0000 C   0  0  0  0  0  0  0  0  0  0  0  0
    2.8660    3.6522    0.0000 C   0  0  0  0  0  0  0  0  0  0  0  0
    5.9163   -1.0111    0.0000 H   0  0  0  0  0  0  0  0  0  0  0  0
    3.1365   -0.8735    0.0000 H   0  0  0  0  0  0  0  0  0  0  0  0
    6.7400    0.0845    0.0000 H   0  0  0  0  0  0  0  0  0  0  0  0
    5.2420    1.0766    0.0000 H   0  0  0  0  0  0  0  0  0  0  0  0
    4.5456    0.7387    0.0000 H   0  0  0  0  0  0  0  0  0  0  0  0
    5.5914   -2.2348    0.0000 H   0  0  0  0  0  0  0  0  0  0  0  0
    5.9899   -1.5445    0.0000 H   0  0  0  0  0  0  0  0  0  0  0  0
    3.7320   -2.2722    0.0000 H   0  0  0  0  0  0  0  0  0  0  0  0
    6.8136    0.6179    0.0000 H   0  0  0  0  0  0  0  0  0  0  0  0
    6.4151    1.3081    0.0000 H   0  0  0  0  0  0  0  0  0  0  0  0
    4.1572   -2.6026    0.0000 H   0  0  0  0  0  0  0  0  0  0  0  0
    4.9542   -2.6026    0.0000 H   0  0  0  0  0  0  0  0  0  0  0  0
    7.0500    0.6557    0.0000 H   0  0  0  0  0  0  0  0  0  0  0  0
    6.3649    1.0849    0.0000 H   0  0  0  0  0  0  0  0  0  0  0  0
    7.2539   -1.8555    0.0000 H   0  0  0  0  0  0  0  0  0  0  0  0
    8.1302   -1.8871    0.0000 H   0  0  0  0  0  0  0  0  0  0  0  0
    8.1618   -1.0109    0.0000 H   0  0  0  0  0  0  0  0  0  0  0  0
    5.9163    2.4622    0.0000 H   0  0  0  0  0  0  0  0  0  0  0  0
    4.5557    3.2477    0.0000 H   0  0  0  0  0  0  0  0  0  0  0  0
    1.6900   -3.1152    0.0000 H   0  0  0  0  0  0  0  0  0  0  0  0
    1.4631   -3.9622    0.0000 H   0  0  0  0  0  0  0  0  0  0  0  0
    2.3100   -4.1891    0.0000 H   0  0  0  0  0  0  0  0  0  0  0  0
    3.4860    3.6522    0.0000 H   0  0  0  0  0  0  0  0  0  0  0  0
    2.8660    4.2722    0.0000 H   0  0  0  0  0  0  0  0  0  0  0  0
    2.2460    3.6522    0.0000 H   0  0  0  0  0  0  0  0  0  0  0  0
  1  8  1  0  0  0  0
  1 18  1  0  0  0  0
  2 13  1  0  0  0  0
  2 23  1  0  0  0  0
  3 21  1  0  0  0  0
  3 25  1  0  0  0  0
  4 23  2  0  0  0  0
  5  9  1  0  0  0  0
  5 16  1  0  0  0  0
  5 19  1  0  0  0  0
  6  7  1  0  0  0  0
  6  8  1  0  0  0  0
  6 10  1  0  0  0  0
  6 11  1  0  0  0  0
  7  9  1  0  0  0  0
  7 12  1  0  0  0  0
  7 26  1  0  0  0  0
  8 13  1  0  0  0  0
  8 27  1  0  0  0  0
  9 14  1  0  0  0  0
  9 28  1  0  0  0  0
 10 16  1  0  0  0  0
 10 29  1  0  0  0  0
 10 30  1  0  0  0  0
 11 17  2  0  0  0  0
 11 18  1  0  0  0  0
 12 15  1  0  0  0  0
 12 31  1  0  0  0  0
 12 32  1  0  0  0  0
 13 15  1  0  0  0  0
 13 33  1  0  0  0  0
 14 17  1  0  0  0  0
 14 34  1  0  0  0  0
 14 35  1  0  0  0  0
 15 36  1  0  0  0  0
 15 37  1  0  0  0  0
 16 38  1  0  0  0  0
 16 39  1  0  0  0  0
 17 20  1  0  0  0  0
 18 21  2  0  0  0  0
 19 40  1  0  0  0  0
 19 41  1  0  0  0  0
 19 42  1  0  0  0  0
 20 22  2  0  0  0  0
 20 43  1  0  0  0  0
 21 22  1  0  0  0  0
 22 44  1  0  0  0  0
 23 24  1  0  0  0  0
 24 45  1  0  0  0  0
 24 46  1  0  0  0  0
 24 47  1  0  0  0  0
 25 48  1  0  0  0  0
 25 49  1  0  0  0  0
 25 50  1  0  0  0  0
M  END
> <PUBCHEM_COMPOUND_CID>
520915
> <PUBCHEM_COMPOUND_CANONICALIZED>
1
> <PUBCHEM_CACTVS_COMPLEXITY>
568
> <PUBCHEM_CACTVS_HBOND_ACCEPTOR>
5
> <PUBCHEM_CACTVS_HBOND_DONOR>
0
> <PUBCHEM_CACTVS_ROTATABLE_BOND>
3
> <PUBCHEM_CACTVS_SUBSKEYS>
AAADceB6OAAAAAAAAAAAAAAAAAAAASAAAAA8YMEAAAAWAEjxAAAAHgAAAAAADzzhmAYyDoMABACIAiDSCAACCAAgIAAIiAAOiIgNJiKEsRuGOCKkwBGKqAew8P8PoAABAAAYQADQAAaAADSAAAAAAAAAAA==
> <PUBCHEM_IUPAC_OPENEYE_NAME>
(9-methoxy-3-methyl-2,4,4a,5,6,7,7a,13-octahydro-1H-4,12-methanobenzofuro[3,2-e]isoquinolin-7-yl) acetate
> <PUBCHEM_IUPAC_CAS_NAME>
acetic acid (9-methoxy-3-methyl-2,4,4a,5,6,7,7a,13-octahydro-1H-4,12-methanobenzofuro[3,2-e]isoquinolin-7-yl) ester
> <PUBCHEM_IUPAC_NAME_MARKUP>
(9-methoxy-3-methyl-2,4,4<I>a</I>,5,6,7,7<I>a</I>,13-octahydro-1<I>H</I>-4,12-methanobenzofuro[3,2-e]isoquinolin-7-yl) acetate
> <PUBCHEM_IUPAC_NAME>
(9-methoxy-3-methyl-2,4,4a,5,6,7,7a,13-octahydro-1H-4,12-methanobenzofuro[3,2-e]isoquinolin-7-yl) acetate
> <PUBCHEM_IUPAC_SYSTEMATIC_NAME>
(9-methoxy-3-methyl-2,4,4a,5,6,7,7a,13-octahydro-1H-4,12-methanobenzofuro[3,2-e]isoquinolin-7-yl) ethanoate
> <PUBCHEM_IUPAC_TRADITIONAL_NAME>
acetic acid (9-methoxy-3-methyl-2,4,4a,5,6,7,7a,13-octahydro-1H-4,12-methanobenzofuro[3,2-e]isoquinolin-7-yl) ester
> <PUBCHEM_IUPAC_INCHI>
InChI=1S/C20H25NO4/c1-11(22)24-16-7-5-13-14-10-12-4-6-15(23-3)18-17(12)20(13,19(16)25-18)8-9-21(14)2/h4,6,13-14,16,19H,5,7-10H2,1-3H3
> <PUBCHEM_IUPAC_INCHIKEY>
LGGDXXJAGWBUSL-UHFFFAOYSA-N
> <PUBCHEM_XLOGP3_AA>
2.7
> <PUBCHEM_EXACT_MASS>
343.17835828
> <PUBCHEM_MOLECULAR_FORMULA>
C20H25NO4
> <PUBCHEM_MOLECULAR_WEIGHT>
343.4
> <PUBCHEM_OPENEYE_CAN_SMILES>
CC(=O)OC1CCC2C3CC4=C5C2(C1OC5=C(C=C4)OC)CCN3C
> <PUBCHEM_OPENEYE_ISO_SMILES>
CC(=O)OC1CCC2C3CC4=C5C2(C1OC5=C(C=C4)OC)CCN3C
> <PUBCHEM_CACTVS_TPSA>
48
> <PUBCHEM_MONOISOTOPIC_WEIGHT>
343.17835828
> <PUBCHEM_TOTAL_CHARGE>
0
> <PUBCHEM_HEAVY_ATOM_COUNT>
25
> <PUBCHEM_ATOM_DEF_STEREO_COUNT>
0
> <PUBCHEM_ATOM_UDEF_STEREO_COUNT>
5
> <PUBCHEM_BOND_DEF_STEREO_COUNT>
0
> <PUBCHEM_BOND_UDEF_STEREO_COUNT>
0
> <PUBCHEM_ISOTOPIC_ATOM_COUNT>
0
> <PUBCHEM_COMPONENT_COUNT>
1
> <PUBCHEM_CACTVS_TAUTO_COUNT>
-1
> <PUBCHEM_COORDINATE_TYPE>
1
5
255
> <PUBCHEM_BONDANNOTATIONS>
8  1  3
11  17  8
11  18  8
17  20  8
18  21  8
13  2  3
20  22  8
21  22  8
6  10  3
7  12  3
9  14  3
$$$$
