521048
  -OEChem-10302200292D
 22 20  0     1  0  0  0  0  0999 V2000
    1.7690    0.0000    0.0000 Cl  0  0  0  0  0  0  0  0  0  0  0  0
    2.2690    3.1200    0.0000 S   0  0  0  0  0  0  0  0  0  0  0  0
    0.5369    5.1200    0.0000 N   0  0  0  0  0  0  0  0  0  0  0  0
    1.4030    4.6200    0.0000 C   0  0  3  0  0  0  0  0  0  0  0  0
    2.2690    5.1200    0.0000 C   0  0  0  0  0  0  0  0  0  0  0  0
    3.1350    4.6200    0.0000 C   0  0  0  0  0  0  0  0  0  0  0  0
    1.4030    3.6200    0.0000 C   0  0  0  0  0  0  0  0  0  0  0  0
    4.0010    5.1200    0.0000 C   0  0  0  0  0  0  0  0  0  0  0  0
    1.4030    5.2400    0.0000 H   0  0  0  0  0  0  0  0  0  0  0  0
    2.6675    5.5950    0.0000 H   0  0  0  0  0  0  0  0  0  0  0  0
    1.8705    5.5950    0.0000 H   0  0  0  0  0  0  0  0  0  0  0  0
    2.7365    4.1450    0.0000 H   0  0  0  0  0  0  0  0  0  0  0  0
    3.5335    4.1450    0.0000 H   0  0  0  0  0  0  0  0  0  0  0  0
    0.7924    3.7277    0.0000 H   0  0  0  0  0  0  0  0  0  0  0  0
    1.1909    3.0374    0.0000 H   0  0  0  0  0  0  0  0  0  0  0  0
    4.3110    4.5831    0.0000 H   0  0  0  0  0  0  0  0  0  0  0  0
    4.5380    5.4300    0.0000 H   0  0  0  0  0  0  0  0  0  0  0  0
    3.6910    5.6569    0.0000 H   0  0  0  0  0  0  0  0  0  0  0  0
    0.0000    4.8100    0.0000 H   0  0  0  0  0  0  0  0  0  0  0  0
    0.5369    5.7400    0.0000 H   0  0  0  0  0  0  0  0  0  0  0  0
    2.2690    2.5000    0.0000 H   0  0  0  0  0  0  0  0  0  0  0  0
    2.7690    0.0000    0.0000 H   0  0  0  0  0  0  0  0  0  0  0  0
  1 22  1  0  0  0  0
  2  7  1  0  0  0  0
  2 21  1  0  0  0  0
  3  4  1  0  0  0  0
  3 19  1  0  0  0  0
  3 20  1  0  0  0  0
  4  5  1  0  0  0  0
  4  7  1  0  0  0  0
  4  9  1  0  0  0  0
  5  6  1  0  0  0  0
  5 10  1  0  0  0  0
  5 11  1  0  0  0  0
  6  8  1  0  0  0  0
  6 12  1  0  0  0  0
  6 13  1  0  0  0  0
  7 14  1  0  0  0  0
  7 15  1  0  0  0  0
  8 16  1  0  0  0  0
  8 17  1  0  0  0  0
  8 18  1  0  0  0  0
M  END
> <PUBCHEM_COMPOUND_CID>
521048
> <PUBCHEM_COMPOUND_CANONICALIZED>
1
> <PUBCHEM_CACTVS_COMPLEXITY>
39.1
> <PUBCHEM_CACTVS_HBOND_ACCEPTOR>
2
> <PUBCHEM_CACTVS_HBOND_DONOR>
3
> <PUBCHEM_CACTVS_ROTATABLE_BOND>
3
> <PUBCHEM_CACTVS_SUBSKEYS>
AAADccBiAABEAAAAAAAAAAAAAAAAAAAAAAAAAAAAAAAAAAAAAAAAHAQQAAAACCjFQASCAABAAAQAAAAAAAAAAAAAAAAAAIAAAAAAAAIAgAAAAAAAEAAAAAAAAAAAAAAAAAAAAAAAAAAAAAAAAAAAAAAAAA==
> <PUBCHEM_IUPAC_OPENEYE_NAME>
2-aminopentane-1-thiol;hydrochloride
> <PUBCHEM_IUPAC_CAS_NAME>
2-amino-1-pentanethiol;hydrochloride
> <PUBCHEM_IUPAC_NAME_MARKUP>
2-aminopentane-1-thiol;hydrochloride
> <PUBCHEM_IUPAC_NAME>
2-aminopentane-1-thiol;hydrochloride
> <PUBCHEM_IUPAC_SYSTEMATIC_NAME>
2-azanylpentane-1-thiol;hydrochloride
> <PUBCHEM_IUPAC_TRADITIONAL_NAME>
2-aminopentane-1-thiol;hydrochloride
> <PUBCHEM_IUPAC_INCHI>
InChI=1S/C5H13NS.ClH/c1-2-3-5(6)4-7;/h5,7H,2-4,6H2,1H3;1H
> <PUBCHEM_IUPAC_INCHIKEY>
OKVWROWEQAKUSG-UHFFFAOYSA-N
> <PUBCHEM_EXACT_MASS>
155.0535483
> <PUBCHEM_MOLECULAR_FORMULA>
C5H14ClNS
> <PUBCHEM_MOLECULAR_WEIGHT>
155.69
> <PUBCHEM_OPENEYE_CAN_SMILES>
CCCC(CS)N.Cl
> <PUBCHEM_OPENEYE_ISO_SMILES>
CCCC(CS)N.Cl
> <PUBCHEM_CACTVS_TPSA>
27
> <PUBCHEM_MONOISOTOPIC_WEIGHT>
155.0535483
> <PUBCHEM_TOTAL_CHARGE>
0
> <PUBCHEM_HEAVY_ATOM_COUNT>
8
> <PUBCHEM_ATOM_DEF_STEREO_COUNT>
0
> <PUBCHEM_ATOM_UDEF_STEREO_COUNT>
1
> <PUBCHEM_BOND_DEF_STEREO_COUNT>
0
> <PUBCHEM_BOND_UDEF_STEREO_COUNT>
0
> <PUBCHEM_ISOTOPIC_ATOM_COUNT>
0
> <PUBCHEM_COMPONENT_COUNT>
2
> <PUBCHEM_CACTVS_TAUTO_COUNT>
-1
> <PUBCHEM_COORDINATE_TYPE>
1
5
255
> <PUBCHEM_BONDANNOTATIONS>
4  3  3
$$$$
