521064
  -OEChem-10302200292D
 24 23  0     1  0  0  0  0  0999 V2000
    4.5981   -1.0950    0.0000 O   0  0  0  0  0  0  0  0  0  0  0  0
    2.8660   -0.0950    0.0000 O   0  0  0  0  0  0  0  0  0  0  0  0
    3.7320    1.4050    0.0000 O   0  0  0  0  0  0  0  0  0  0  0  0
    5.4641    0.4050    0.0000 C   0  0  3  0  0  0  0  0  0  0  0  0
    6.3301   -0.0950    0.0000 C   0  0  0  0  0  0  0  0  0  0  0  0
    4.5981   -0.0950    0.0000 C   0  0  3  0  0  0  0  0  0  0  0  0
    5.4641    1.4050    0.0000 C   0  0  0  0  0  0  0  0  0  0  0  0
    7.1962    0.4050    0.0000 C   0  0  0  0  0  0  0  0  0  0  0  0
    3.7320    0.4050    0.0000 C   0  0  0  0  0  0  0  0  0  0  0  0
    2.0000    0.4050    0.0000 C   0  0  0  0  0  0  0  0  0  0  0  0
    6.2002    0.8300    0.0000 H   0  0  0  0  0  0  0  0  0  0  0  0
    5.3342   -0.5200    0.0000 H   0  0  0  0  0  0  0  0  0  0  0  0
    5.9316   -0.5699    0.0000 H   0  0  0  0  0  0  0  0  0  0  0  0
    6.7287   -0.5699    0.0000 H   0  0  0  0  0  0  0  0  0  0  0  0
    6.0841    1.4050    0.0000 H   0  0  0  0  0  0  0  0  0  0  0  0
    5.4641    2.0250    0.0000 H   0  0  0  0  0  0  0  0  0  0  0  0
    4.8441    1.4050    0.0000 H   0  0  0  0  0  0  0  0  0  0  0  0
    7.5062   -0.1319    0.0000 H   0  0  0  0  0  0  0  0  0  0  0  0
    7.7331    0.7150    0.0000 H   0  0  0  0  0  0  0  0  0  0  0  0
    6.8862    0.9419    0.0000 H   0  0  0  0  0  0  0  0  0  0  0  0
    4.0611   -1.4050    0.0000 H   0  0  0  0  0  0  0  0  0  0  0  0
    2.3100    0.9419    0.0000 H   0  0  0  0  0  0  0  0  0  0  0  0
    1.4631    0.7150    0.0000 H   0  0  0  0  0  0  0  0  0  0  0  0
    1.6900   -0.1319    0.0000 H   0  0  0  0  0  0  0  0  0  0  0  0
  1  6  1  0  0  0  0
  1 21  1  0  0  0  0
  2  9  1  0  0  0  0
  2 10  1  0  0  0  0
  3  9  2  0  0  0  0
  4  5  1  0  0  0  0
  4  6  1  0  0  0  0
  4  7  1  0  0  0  0
  4 11  1  0  0  0  0
  5  8  1  0  0  0  0
  5 13  1  0  0  0  0
  5 14  1  0  0  0  0
  6  9  1  0  0  0  0
  6 12  1  0  0  0  0
  7 15  1  0  0  0  0
  7 16  1  0  0  0  0
  7 17  1  0  0  0  0
  8 18  1  0  0  0  0
  8 19  1  0  0  0  0
  8 20  1  0  0  0  0
 10 22  1  0  0  0  0
 10 23  1  0  0  0  0
 10 24  1  0  0  0  0
M  END
> <PUBCHEM_COMPOUND_CID>
521064
> <PUBCHEM_COMPOUND_CANONICALIZED>
1
> <PUBCHEM_CACTVS_COMPLEXITY>
111
> <PUBCHEM_CACTVS_HBOND_ACCEPTOR>
3
> <PUBCHEM_CACTVS_HBOND_DONOR>
1
> <PUBCHEM_CACTVS_ROTATABLE_BOND>
4
> <PUBCHEM_CACTVS_SUBSKEYS>
AAADccBgMAAAAAAAAAAAAAAAAAAAAAAAAAAAAAAAAAAAAAAAAAAAGgAACAAADRSggAICCAAABgAIAACQCAIAAAAAAAAAAAFAAAABEBIAAAAAQAAEAAADAACIAAAKAAAAAAAAAAAAAAAAAAAAAAAAAAAAAA==
> <PUBCHEM_IUPAC_OPENEYE_NAME>
methyl 2-hydroxy-3-methyl-pentanoate
> <PUBCHEM_IUPAC_CAS_NAME>
2-hydroxy-3-methylpentanoic acid methyl ester
> <PUBCHEM_IUPAC_NAME_MARKUP>
methyl 2-hydroxy-3-methylpentanoate
> <PUBCHEM_IUPAC_NAME>
methyl 2-hydroxy-3-methylpentanoate
> <PUBCHEM_IUPAC_SYSTEMATIC_NAME>
methyl 3-methyl-2-oxidanyl-pentanoate
> <PUBCHEM_IUPAC_TRADITIONAL_NAME>
2-hydroxy-3-methyl-valeric acid methyl ester
> <PUBCHEM_IUPAC_INCHI>
InChI=1S/C7H14O3/c1-4-5(2)6(8)7(9)10-3/h5-6,8H,4H2,1-3H3
> <PUBCHEM_IUPAC_INCHIKEY>
OQXGUAUSWWFHOM-UHFFFAOYSA-N
> <PUBCHEM_XLOGP3_AA>
1.2
> <PUBCHEM_EXACT_MASS>
146.094294304
> <PUBCHEM_MOLECULAR_FORMULA>
C7H14O3
> <PUBCHEM_MOLECULAR_WEIGHT>
146.18
> <PUBCHEM_OPENEYE_CAN_SMILES>
CCC(C)C(C(=O)OC)O
> <PUBCHEM_OPENEYE_ISO_SMILES>
CCC(C)C(C(=O)OC)O
> <PUBCHEM_CACTVS_TPSA>
46.5
> <PUBCHEM_MONOISOTOPIC_WEIGHT>
146.094294304
> <PUBCHEM_TOTAL_CHARGE>
0
> <PUBCHEM_HEAVY_ATOM_COUNT>
10
> <PUBCHEM_ATOM_DEF_STEREO_COUNT>
0
> <PUBCHEM_ATOM_UDEF_STEREO_COUNT>
2
> <PUBCHEM_BOND_DEF_STEREO_COUNT>
0
> <PUBCHEM_BOND_UDEF_STEREO_COUNT>
0
> <PUBCHEM_ISOTOPIC_ATOM_COUNT>
0
> <PUBCHEM_COMPONENT_COUNT>
1
> <PUBCHEM_CACTVS_TAUTO_COUNT>
1
> <PUBCHEM_COORDINATE_TYPE>
1
5
255
> <PUBCHEM_BONDANNOTATIONS>
4  11  3
6  12  3
$$$$
