521144
  -OEChem-10302200292D
 48 52  0     1  0  0  0  0  0999 V2000
    4.6946   -2.1808    0.0000 O   0  0  0  0  0  0  0  0  0  0  0  0
    2.0000   -2.7224    0.0000 O   0  0  0  0  0  0  0  0  0  0  0  0
    2.4657    3.6553    0.0000 O   0  0  0  0  0  0  0  0  0  0  0  0
    2.9059   -4.2432    0.0000 O   0  0  0  0  0  0  0  0  0  0  0  0
    2.9180   -1.1739    0.0000 C   0  0  3  0  0  0  0  0  0  0  0  0
    3.7841   -1.6739    0.0000 C   0  0  3  0  0  0  0  0  0  0  0  0
    2.9180   -0.1739    0.0000 C   0  0  3  0  0  0  0  0  0  0  0  0
    3.7841    0.3261    0.0000 C   0  0  3  0  0  0  0  0  0  0  0  0
    3.8001    1.3676    0.0000 C   0  0  3  0  0  0  0  0  0  0  0  0
    2.9021    1.8954    0.0000 C   0  0  3  0  0  0  0  0  0  0  0  0
    3.8001   -2.7154    0.0000 C   0  0  3  0  0  0  0  0  0  0  0  0
    4.6501   -1.1739    0.0000 C   0  0  0  0  0  0  0  0  0  0  0  0
    4.6501   -0.1739    0.0000 C   0  0  0  0  0  0  0  0  0  0  0  0
    2.0080    0.3329    0.0000 C   0  0  0  0  0  0  0  0  0  0  0  0
    2.0000    1.3745    0.0000 C   0  0  0  0  0  0  0  0  0  0  0  0
    4.5732    2.0565    0.0000 C   0  0  0  0  0  0  0  0  0  0  0  0
    3.1278    2.9059    0.0000 C   0  0  3  0  0  0  0  0  0  0  0  0
    2.0080   -1.6808    0.0000 C   0  0  0  0  0  0  0  0  0  0  0  0
    2.0520   -0.6739    0.0000 C   0  0  0  0  0  0  0  0  0  0  0  0
    4.1585    3.0053    0.0000 C   0  0  0  0  0  0  0  0  0  0  0  0
    2.0399    2.4020    0.0000 C   0  0  0  0  0  0  0  0  0  0  0  0
    2.9021   -3.2432    0.0000 C   0  0  0  0  0  0  0  0  0  0  0  0
    3.4550   -0.4839    0.0000 H   0  0  0  0  0  0  0  0  0  0  0  0
    4.3234    0.6319    0.0000 H   0  0  0  0  0  0  0  0  0  0  0  0
    4.3639    1.1096    0.0000 H   0  0  0  0  0  0  0  0  0  0  0  0
    4.1162   -3.2488    0.0000 H   0  0  0  0  0  0  0  0  0  0  0  0
    4.8621   -1.7565    0.0000 H   0  0  0  0  0  0  0  0  0  0  0  0
    5.2607   -1.0662    0.0000 H   0  0  0  0  0  0  0  0  0  0  0  0
    5.2607   -0.2816    0.0000 H   0  0  0  0  0  0  0  0  0  0  0  0
    4.8621    0.4087    0.0000 H   0  0  0  0  0  0  0  0  0  0  0  0
    1.3964    0.4343    0.0000 H   0  0  0  0  0  0  0  0  0  0  0  0
    1.8035   -0.2524    0.0000 H   0  0  0  0  0  0  0  0  0  0  0  0
    1.7864    1.9566    0.0000 H   0  0  0  0  0  0  0  0  0  0  0  0
    1.3900    1.2637    0.0000 H   0  0  0  0  0  0  0  0  0  0  0  0
    4.9347    1.5529    0.0000 H   0  0  0  0  0  0  0  0  0  0  0  0
    5.1120    2.3631    0.0000 H   0  0  0  0  0  0  0  0  0  0  0  0
    2.5274    2.7514    0.0000 H   0  0  0  0  0  0  0  0  0  0  0  0
    1.8035   -1.0955    0.0000 H   0  0  0  0  0  0  0  0  0  0  0  0
    1.3964   -1.7821    0.0000 H   0  0  0  0  0  0  0  0  0  0  0  0
    2.3620   -0.1370    0.0000 H   0  0  0  0  0  0  0  0  0  0  0  0
    1.5151   -0.3639    0.0000 H   0  0  0  0  0  0  0  0  0  0  0  0
    1.7420   -1.2108    0.0000 H   0  0  0  0  0  0  0  0  0  0  0  0
    4.7495    3.1925    0.0000 H   0  0  0  0  0  0  0  0  0  0  0  0
    4.0344    3.6128    0.0000 H   0  0  0  0  0  0  0  0  0  0  0  0
    2.3541    2.9365    0.0000 H   0  0  0  0  0  0  0  0  0  0  0  0
    1.5054    2.7161    0.0000 H   0  0  0  0  0  0  0  0  0  0  0  0
    1.7258    1.8675    0.0000 H   0  0  0  0  0  0  0  0  0  0  0  0
    2.6628    4.2432    0.0000 H   0  0  0  0  0  0  0  0  0  0  0  0
  1  6  1  0  0  0  0
  1 11  1  0  0  0  0
  2 18  1  0  0  0  0
  2 22  1  0  0  0  0
  3 17  1  0  0  0  0
  3 48  1  0  0  0  0
  4 22  2  0  0  0  0
  5  6  1  0  0  0  0
  5  7  1  0  0  0  0
  5 18  1  0  0  0  0
  5 19  1  0  0  0  0
  6 11  1  0  0  0  0
  6 12  1  0  0  0  0
  7  8  1  0  0  0  0
  7 14  1  0  0  0  0
  7 23  1  0  0  0  0
  8  9  1  0  0  0  0
  8 13  1  0  0  0  0
  8 24  1  0  0  0  0
  9 10  1  0  0  0  0
  9 16  1  0  0  0  0
  9 25  1  0  0  0  0
 10 15  1  0  0  0  0
 10 17  1  0  0  0  0
 10 21  1  0  0  0  0
 11 22  1  0  0  0  0
 11 26  1  0  0  0  0
 12 13  1  0  0  0  0
 12 27  1  0  0  0  0
 12 28  1  0  0  0  0
 13 29  1  0  0  0  0
 13 30  1  0  0  0  0
 14 15  1  0  0  0  0
 14 31  1  0  0  0  0
 14 32  1  0  0  0  0
 15 33  1  0  0  0  0
 15 34  1  0  0  0  0
 16 20  1  0  0  0  0
 16 35  1  0  0  0  0
 16 36  1  0  0  0  0
 17 20  1  0  0  0  0
 17 37  1  0  0  0  0
 18 38  1  0  0  0  0
 18 39  1  0  0  0  0
 19 40  1  0  0  0  0
 19 41  1  0  0  0  0
 19 42  1  0  0  0  0
 20 43  1  0  0  0  0
 20 44  1  0  0  0  0
 21 45  1  0  0  0  0
 21 46  1  0  0  0  0
 21 47  1  0  0  0  0
M  END
> <PUBCHEM_COMPOUND_CID>
521144
> <PUBCHEM_COMPOUND_CANONICALIZED>
1
> <PUBCHEM_CACTVS_COMPLEXITY>
547
> <PUBCHEM_CACTVS_HBOND_ACCEPTOR>
4
> <PUBCHEM_CACTVS_HBOND_DONOR>
1
> <PUBCHEM_CACTVS_ROTATABLE_BOND>
0
> <PUBCHEM_CACTVS_SUBSKEYS>
AAADceB4OAAAAAAAAAAAAAAAEgAAAYAAAAA0YIAABIAAAGDQAAAAGgAACAAAD1SggAICCAAABgAIAACQCAIAAAAAAAAAAAFAAAABEBYAAAQCQAAFIAACAAHIzPCPgAAAAAAAAADAAAYAADAAAIAADAAAAA==
> <PUBCHEM_IUPAC_OPENEYE_NAME>
15-hydroxy-2,16-dimethyl-4,7-dioxapentacyclo[9.7.0.02,8.06,8.012,16]octadecan-5-one
> <PUBCHEM_IUPAC_CAS_NAME>
15-hydroxy-2,16-dimethyl-4,7-dioxapentacyclo[9.7.0.02,8.06,8.012,16]octadecan-5-one
> <PUBCHEM_IUPAC_NAME_MARKUP>
15-hydroxy-2,16-dimethyl-4,7-dioxapentacyclo[9.7.0.0<SUP>2,8</SUP>.0<SUP>6,8</SUP>.0<SUP>12,16</SUP>]octadecan-5-one
> <PUBCHEM_IUPAC_NAME>
15-hydroxy-2,16-dimethyl-4,7-dioxapentacyclo[9.7.0.02,8.06,8.012,16]octadecan-5-one
> <PUBCHEM_IUPAC_SYSTEMATIC_NAME>
2,16-dimethyl-15-oxidanyl-4,7-dioxapentacyclo[9.7.0.02,8.06,8.012,16]octadecan-5-one
> <PUBCHEM_IUPAC_TRADITIONAL_NAME>
15-hydroxy-2,16-dimethyl-4,7-dioxapentacyclo[9.7.0.02,8.06,8.012,16]octadecan-5-one
> <PUBCHEM_IUPAC_INCHI>
InChI=1S/C18H26O4/c1-16-7-6-12-10(11(16)3-4-13(16)19)5-8-18-14(22-18)15(20)21-9-17(12,18)2/h10-14,19H,3-9H2,1-2H3
> <PUBCHEM_IUPAC_INCHIKEY>
MDIANPPZAJCEKU-UHFFFAOYSA-N
> <PUBCHEM_XLOGP3_AA>
2.6
> <PUBCHEM_EXACT_MASS>
306.18310931
> <PUBCHEM_MOLECULAR_FORMULA>
C18H26O4
> <PUBCHEM_MOLECULAR_WEIGHT>
306.4
> <PUBCHEM_OPENEYE_CAN_SMILES>
CC12CCC3C(C1CCC2O)CCC45C3(COC(=O)C4O5)C
> <PUBCHEM_OPENEYE_ISO_SMILES>
CC12CCC3C(C1CCC2O)CCC45C3(COC(=O)C4O5)C
> <PUBCHEM_CACTVS_TPSA>
59.1
> <PUBCHEM_MONOISOTOPIC_WEIGHT>
306.18310931
> <PUBCHEM_TOTAL_CHARGE>
0
> <PUBCHEM_HEAVY_ATOM_COUNT>
22
> <PUBCHEM_ATOM_DEF_STEREO_COUNT>
0
> <PUBCHEM_ATOM_UDEF_STEREO_COUNT>
8
> <PUBCHEM_BOND_DEF_STEREO_COUNT>
0
> <PUBCHEM_BOND_UDEF_STEREO_COUNT>
0
> <PUBCHEM_ISOTOPIC_ATOM_COUNT>
0
> <PUBCHEM_COMPONENT_COUNT>
1
> <PUBCHEM_CACTVS_TAUTO_COUNT>
-1
> <PUBCHEM_COORDINATE_TYPE>
1
5
255
> <PUBCHEM_BONDANNOTATIONS>
10  21  3
11  22  3
17  3  3
5  19  3
6  12  3
7  14  3
8  13  3
9  16  3
$$$$
