521181
  -OEChem-10302200292D
 12 11  0     1  0  0  0  0  0999 V2000
    3.4030   -0.7500    0.0000 Br  0  0  0  0  0  0  0  0  0  0  0  0
    6.0010    0.7500    0.0000 Cl  0  0  0  0  0  0  0  0  0  0  0  0
    2.5369    0.7500    0.0000 O   0  0  0  0  0  0  0  0  0  0  0  0
    4.2690    0.7500    0.0000 C   0  0  0  0  0  0  0  0  0  0  0  0
    3.4030    0.2500    0.0000 C   0  0  3  0  0  0  0  0  0  0  0  0
    5.1350    0.2500    0.0000 C   0  0  0  0  0  0  0  0  0  0  0  0
    4.6675    1.2250    0.0000 H   0  0  0  0  0  0  0  0  0  0  0  0
    3.8705    1.2250    0.0000 H   0  0  0  0  0  0  0  0  0  0  0  0
    3.4030    0.8700    0.0000 H   0  0  0  0  0  0  0  0  0  0  0  0
    4.7365   -0.2249    0.0000 H   0  0  0  0  0  0  0  0  0  0  0  0
    5.5335   -0.2249    0.0000 H   0  0  0  0  0  0  0  0  0  0  0  0
    2.0000    0.4400    0.0000 H   0  0  0  0  0  0  0  0  0  0  0  0
  1  5  1  0  0  0  0
  2  6  1  0  0  0  0
  3  5  1  0  0  0  0
  3 12  1  0  0  0  0
  4  5  1  0  0  0  0
  4  6  1  0  0  0  0
  4  7  1  0  0  0  0
  4  8  1  0  0  0  0
  5  9  1  0  0  0  0
  6 10  1  0  0  0  0
  6 11  1  0  0  0  0
M  END
> <PUBCHEM_COMPOUND_CID>
521181
> <PUBCHEM_COMPOUND_CANONICALIZED>
1
> <PUBCHEM_CACTVS_COMPLEXITY>
34
> <PUBCHEM_CACTVS_HBOND_ACCEPTOR>
1
> <PUBCHEM_CACTVS_HBOND_DONOR>
1
> <PUBCHEM_CACTVS_ROTATABLE_BOND>
2
> <PUBCHEM_CACTVS_SUBSKEYS>
AAADcYBAIAAEEAAAAAAAAAAAAAAAAAAAAAAAAAAAAAAAAAAAAAAAGgJACAABSAOggEIAAAAAAgAAAAAAAAAAAAAAAAAAAAAAAiAAEAAAAAAAQAAAAAAAAAAAAAAAAAAAAAAAAAAAAAAAAAAAAAAAAAAAAA==
> <PUBCHEM_IUPAC_OPENEYE_NAME>
1-bromo-3-chloro-propan-1-ol
> <PUBCHEM_IUPAC_CAS_NAME>
1-bromo-3-chloro-1-propanol
> <PUBCHEM_IUPAC_NAME_MARKUP>
1-bromo-3-chloropropan-1-ol
> <PUBCHEM_IUPAC_NAME>
1-bromo-3-chloropropan-1-ol
> <PUBCHEM_IUPAC_SYSTEMATIC_NAME>
1-bromanyl-3-chloranyl-propan-1-ol
> <PUBCHEM_IUPAC_TRADITIONAL_NAME>
1-bromo-3-chloro-propan-1-ol
> <PUBCHEM_IUPAC_INCHI>
InChI=1S/C3H6BrClO/c4-3(6)1-2-5/h3,6H,1-2H2
> <PUBCHEM_IUPAC_INCHIKEY>
XKRACSSCBRXMFN-UHFFFAOYSA-N
> <PUBCHEM_XLOGP3_AA>
1.4
> <PUBCHEM_EXACT_MASS>
171.92906
> <PUBCHEM_MOLECULAR_FORMULA>
C3H6BrClO
> <PUBCHEM_MOLECULAR_WEIGHT>
173.43
> <PUBCHEM_OPENEYE_CAN_SMILES>
C(CCl)C(O)Br
> <PUBCHEM_OPENEYE_ISO_SMILES>
C(CCl)C(O)Br
> <PUBCHEM_CACTVS_TPSA>
20.2
> <PUBCHEM_MONOISOTOPIC_WEIGHT>
171.92906
> <PUBCHEM_TOTAL_CHARGE>
0
> <PUBCHEM_HEAVY_ATOM_COUNT>
6
> <PUBCHEM_ATOM_DEF_STEREO_COUNT>
0
> <PUBCHEM_ATOM_UDEF_STEREO_COUNT>
1
> <PUBCHEM_BOND_DEF_STEREO_COUNT>
0
> <PUBCHEM_BOND_UDEF_STEREO_COUNT>
0
> <PUBCHEM_ISOTOPIC_ATOM_COUNT>
0
> <PUBCHEM_COMPONENT_COUNT>
1
> <PUBCHEM_CACTVS_TAUTO_COUNT>
-1
> <PUBCHEM_COORDINATE_TYPE>
1
5
255
> <PUBCHEM_BONDANNOTATIONS>
5  3  3
$$$$
