521136
  -OEChem-10302200292D
 11 10  0     1  0  0  0  0  0999 V2000
    3.7320    1.2500    0.0000 Cl  0  0  0  0  0  0  0  0  0  0  0  0
    5.4641    0.2500    0.0000 Cl  0  0  0  0  0  0  0  0  0  0  0  0
    4.5981   -1.2500    0.0000 Cl  0  0  0  0  0  0  0  0  0  0  0  0
    2.0000   -0.7500    0.0000 F   0  0  0  0  0  0  0  0  0  0  0  0
    2.3660    0.6160    0.0000 F   0  0  0  0  0  0  0  0  0  0  0  0
    3.3660   -1.1160    0.0000 F   0  0  0  0  0  0  0  0  0  0  0  0
    3.7320    0.2500    0.0000 C   0  0  3  0  0  0  0  0  0  0  0  0
    2.8660   -0.2500    0.0000 C   0  0  0  0  0  0  0  0  0  0  0  0
    4.5981   -0.2500    0.0000 C   0  0  0  0  0  0  0  0  0  0  0  0
    3.1951    0.5600    0.0000 H   0  0  0  0  0  0  0  0  0  0  0  0
    4.5981    0.3700    0.0000 H   0  0  0  0  0  0  0  0  0  0  0  0
  1  7  1  0  0  0  0
  2  9  1  0  0  0  0
  3  9  1  0  0  0  0
  4  8  1  0  0  0  0
  5  8  1  0  0  0  0
  6  8  1  0  0  0  0
  7  8  1  0  0  0  0
  7  9  1  0  0  0  0
  7 10  1  0  0  0  0
  9 11  1  0  0  0  0
M  END
> <PUBCHEM_COMPOUND_CID>
521136
> <PUBCHEM_COMPOUND_CANONICALIZED>
1
> <PUBCHEM_CACTVS_COMPLEXITY>
88.8
> <PUBCHEM_CACTVS_HBOND_ACCEPTOR>
3
> <PUBCHEM_CACTVS_HBOND_DONOR>
0
> <PUBCHEM_CACTVS_ROTATABLE_BOND>
1
> <PUBCHEM_CACTVS_SUBSKEYS>
AAADcQBAAYAGAAAAAAAAAAAAAAAAAAAAAAAAAAAAAAAAAAAAAAAAGQIAAAAACAOAANAAAAAAAAAAAAAAAAAAAAAAAAAAAEAAAgAAAAAAAAAAAAAAAAAAAAAAAAAAAAAAAAAAAAAAAAAAAAAAAAAAAAAAAA==
> <PUBCHEM_IUPAC_OPENEYE_NAME>
2,3,3-trichloro-1,1,1-trifluoro-propane
> <PUBCHEM_IUPAC_CAS_NAME>
2,3,3-trichloro-1,1,1-trifluoropropane
> <PUBCHEM_IUPAC_NAME_MARKUP>
2,3,3-trichloro-1,1,1-trifluoropropane
> <PUBCHEM_IUPAC_NAME>
2,3,3-trichloro-1,1,1-trifluoropropane
> <PUBCHEM_IUPAC_SYSTEMATIC_NAME>
2,3,3-tris(chloranyl)-1,1,1-tris(fluoranyl)propane
> <PUBCHEM_IUPAC_TRADITIONAL_NAME>
2,3,3-trichloro-1,1,1-trifluoro-propane
> <PUBCHEM_IUPAC_INCHI>
InChI=1S/C3H2Cl3F3/c4-1(2(5)6)3(7,8)9/h1-2H
> <PUBCHEM_IUPAC_INCHIKEY>
UHUGFVKSZJCZEY-UHFFFAOYSA-N
> <PUBCHEM_XLOGP3_AA>
3.3
> <PUBCHEM_EXACT_MASS>
199.917418
> <PUBCHEM_MOLECULAR_FORMULA>
C3H2Cl3F3
> <PUBCHEM_MOLECULAR_WEIGHT>
201.40
> <PUBCHEM_OPENEYE_CAN_SMILES>
C(C(Cl)Cl)(C(F)(F)F)Cl
> <PUBCHEM_OPENEYE_ISO_SMILES>
C(C(Cl)Cl)(C(F)(F)F)Cl
> <PUBCHEM_CACTVS_TPSA>
0
> <PUBCHEM_MONOISOTOPIC_WEIGHT>
199.917418
> <PUBCHEM_TOTAL_CHARGE>
0
> <PUBCHEM_HEAVY_ATOM_COUNT>
9
> <PUBCHEM_ATOM_DEF_STEREO_COUNT>
0
> <PUBCHEM_ATOM_UDEF_STEREO_COUNT>
1
> <PUBCHEM_BOND_DEF_STEREO_COUNT>
0
> <PUBCHEM_BOND_UDEF_STEREO_COUNT>
0
> <PUBCHEM_ISOTOPIC_ATOM_COUNT>
0
> <PUBCHEM_COMPONENT_COUNT>
1
> <PUBCHEM_CACTVS_TAUTO_COUNT>
-1
> <PUBCHEM_COORDINATE_TYPE>
1
5
255
> <PUBCHEM_BONDANNOTATIONS>
7  1  3
$$$$
