521102
  -OEChem-10302200292D
141142  0     1  0  0  0  0  0999 V2000
    9.5622    3.5000    0.0000 Si  0  0  0  0  0  0  0  0  0  0  0  0
    5.2320   -4.0000    0.0000 Si  0  0  0  0  0  0  0  0  0  0  0  0
   10.4282    1.0000    0.0000 Si  0  0  0  0  0  0  0  0  0  0  0  0
    8.6961   -2.0000    0.0000 Si  0  0  0  0  0  0  0  0  0  0  0  0
    6.9641    4.0000    0.0000 Si  0  0  0  0  0  0  0  0  0  0  0  0
    3.3660   -2.5000    0.0000 Si  0  0  0  0  0  0  0  0  0  0  0  0
    4.3660    2.5000    0.0000 Si  0  0  0  0  0  0  0  0  0  0  0  0
    2.8661    0.3661    0.0000 Si  0  0  0  0  0  0  0  0  0  0  0  0
    7.8301   -0.5000    0.0000 O   0  0  0  0  0  0  0  0  0  0  0  0
    6.9641    1.0000    0.0000 O   0  0  0  0  0  0  0  0  0  0  0  0
    6.0981   -0.5000    0.0000 O   0  0  0  0  0  0  0  0  0  0  0  0
    9.5622    2.5000    0.0000 O   0  0  0  0  0  0  0  0  0  0  0  0
    6.0981   -3.5000    0.0000 O   0  0  0  0  0  0  0  0  0  0  0  0
    9.5622    0.5000    0.0000 O   0  0  0  0  0  0  0  0  0  0  0  0
    7.8301   -2.5000    0.0000 O   0  0  0  0  0  0  0  0  0  0  0  0
    7.8301    3.5000    0.0000 O   0  0  0  0  0  0  0  0  0  0  0  0
    4.3660   -2.5000    0.0000 O   0  0  0  0  0  0  0  0  0  0  0  0
    5.2320    2.0000    0.0000 O   0  0  0  0  0  0  0  0  0  0  0  0
    3.3660   -0.5000    0.0000 O   0  0  0  0  0  0  0  0  0  0  0  0
    8.6961    2.0000    0.0000 C   0  0  3  0  0  0  0  0  0  0  0  0
    6.0981   -2.5000    0.0000 C   0  0  3  0  0  0  0  0  0  0  0  0
    8.6961    1.0000    0.0000 C   0  0  3  0  0  0  0  0  0  0  0  0
    6.9641   -2.0000    0.0000 C   0  0  3  0  0  0  0  0  0  0  0  0
    7.8301    2.5000    0.0000 C   0  0  3  0  0  0  0  0  0  0  0  0
    5.2320   -2.0000    0.0000 C   0  0  3  0  0  0  0  0  0  0  0  0
    7.8301    0.5000    0.0000 C   0  0  3  0  0  0  0  0  0  0  0  0
    6.9641   -1.0000    0.0000 C   0  0  3  0  0  0  0  0  0  0  0  0
    6.9641    2.0000    0.0000 C   0  0  3  0  0  0  0  0  0  0  0  0
    5.2320   -1.0000    0.0000 C   0  0  3  0  0  0  0  0  0  0  0  0
    6.0981    2.5000    0.0000 C   0  0  0  0  0  0  0  0  0  0  0  0
    4.3660   -0.5000    0.0000 C   0  0  0  0  0  0  0  0  0  0  0  0
    9.5622    4.5000    0.0000 C   0  0  0  0  0  0  0  0  0  0  0  0
   10.5622    3.5000    0.0000 C   0  0  0  0  0  0  0  0  0  0  0  0
    8.5622    3.5000    0.0000 C   0  0  0  0  0  0  0  0  0  0  0  0
    4.3660   -4.5000    0.0000 C   0  0  0  0  0  0  0  0  0  0  0  0
    5.7320   -4.8660    0.0000 C   0  0  0  0  0  0  0  0  0  0  0  0
    4.7320   -3.1340    0.0000 C   0  0  0  0  0  0  0  0  0  0  0  0
   11.2942    1.5000    0.0000 C   0  0  0  0  0  0  0  0  0  0  0  0
   10.9282    0.1340    0.0000 C   0  0  0  0  0  0  0  0  0  0  0  0
    9.9282    1.8660    0.0000 C   0  0  0  0  0  0  0  0  0  0  0  0
    9.1961   -2.8660    0.0000 C   0  0  0  0  0  0  0  0  0  0  0  0
    9.5622   -1.5000    0.0000 C   0  0  0  0  0  0  0  0  0  0  0  0
    8.1961   -1.1340    0.0000 C   0  0  0  0  0  0  0  0  0  0  0  0
    6.0981    4.5000    0.0000 C   0  0  0  0  0  0  0  0  0  0  0  0
    7.4641    4.8660    0.0000 C   0  0  0  0  0  0  0  0  0  0  0  0
    6.4641    3.1340    0.0000 C   0  0  0  0  0  0  0  0  0  0  0  0
    2.3660   -2.5000    0.0000 C   0  0  0  0  0  0  0  0  0  0  0  0
    3.3660   -3.5000    0.0000 C   0  0  0  0  0  0  0  0  0  0  0  0
    3.3660   -1.5000    0.0000 C   0  0  0  0  0  0  0  0  0  0  0  0
    3.5000    3.0000    0.0000 C   0  0  0  0  0  0  0  0  0  0  0  0
    4.8660    3.3660    0.0000 C   0  0  0  0  0  0  0  0  0  0  0  0
    3.8660    1.6340    0.0000 C   0  0  0  0  0  0  0  0  0  0  0  0
    2.3660    1.2320    0.0000 C   0  0  0  0  0  0  0  0  0  0  0  0
    2.0000   -0.1339    0.0000 C   0  0  0  0  0  0  0  0  0  0  0  0
    3.7320    0.8660    0.0000 C   0  0  0  0  0  0  0  0  0  0  0  0
    8.6961    2.6200    0.0000 H   0  0  0  0  0  0  0  0  0  0  0  0
    5.5611   -2.8100    0.0000 H   0  0  0  0  0  0  0  0  0  0  0  0
    9.2331    1.3100    0.0000 H   0  0  0  0  0  0  0  0  0  0  0  0
    6.9641   -2.6200    0.0000 H   0  0  0  0  0  0  0  0  0  0  0  0
    7.2932    2.8100    0.0000 H   0  0  0  0  0  0  0  0  0  0  0  0
    4.6951   -1.6900    0.0000 H   0  0  0  0  0  0  0  0  0  0  0  0
    7.2932    0.1900    0.0000 H   0  0  0  0  0  0  0  0  0  0  0  0
    7.5010   -1.3100    0.0000 H   0  0  0  0  0  0  0  0  0  0  0  0
    6.4272    1.6900    0.0000 H   0  0  0  0  0  0  0  0  0  0  0  0
    5.2320   -0.3800    0.0000 H   0  0  0  0  0  0  0  0  0  0  0  0
    6.4966    2.9750    0.0000 H   0  0  0  0  0  0  0  0  0  0  0  0
    5.6995    2.9750    0.0000 H   0  0  0  0  0  0  0  0  0  0  0  0
    4.8410   -0.1015    0.0000 H   0  0  0  0  0  0  0  0  0  0  0  0
    4.2055   -1.0989    0.0000 H   0  0  0  0  0  0  0  0  0  0  0  0
   10.1822    4.5000    0.0000 H   0  0  0  0  0  0  0  0  0  0  0  0
    9.5622    5.1200    0.0000 H   0  0  0  0  0  0  0  0  0  0  0  0
    8.9422    4.5000    0.0000 H   0  0  0  0  0  0  0  0  0  0  0  0
   10.5622    2.8800    0.0000 H   0  0  0  0  0  0  0  0  0  0  0  0
   11.1822    3.5000    0.0000 H   0  0  0  0  0  0  0  0  0  0  0  0
   10.5622    4.1200    0.0000 H   0  0  0  0  0  0  0  0  0  0  0  0
    8.5622    4.1200    0.0000 H   0  0  0  0  0  0  0  0  0  0  0  0
    7.9422    3.5000    0.0000 H   0  0  0  0  0  0  0  0  0  0  0  0
    8.5622    2.8800    0.0000 H   0  0  0  0  0  0  0  0  0  0  0  0
    4.0560   -3.9631    0.0000 H   0  0  0  0  0  0  0  0  0  0  0  0
    3.8291   -4.8100    0.0000 H   0  0  0  0  0  0  0  0  0  0  0  0
    4.6760   -5.0369    0.0000 H   0  0  0  0  0  0  0  0  0  0  0  0
    5.1951   -5.1760    0.0000 H   0  0  0  0  0  0  0  0  0  0  0  0
    6.0420   -5.4030    0.0000 H   0  0  0  0  0  0  0  0  0  0  0  0
    6.2690   -4.5560    0.0000 H   0  0  0  0  0  0  0  0  0  0  0  0
    5.2690   -2.8240    0.0000 H   0  0  0  0  0  0  0  0  0  0  0  0
    4.4220   -2.5970    0.0000 H   0  0  0  0  0  0  0  0  0  0  0  0
    4.1951   -3.4440    0.0000 H   0  0  0  0  0  0  0  0  0  0  0  0
   11.6042    0.9631    0.0000 H   0  0  0  0  0  0  0  0  0  0  0  0
   11.8312    1.8100    0.0000 H   0  0  0  0  0  0  0  0  0  0  0  0
   10.9842    2.0369    0.0000 H   0  0  0  0  0  0  0  0  0  0  0  0
   10.3913   -0.1760    0.0000 H   0  0  0  0  0  0  0  0  0  0  0  0
   11.2382   -0.4030    0.0000 H   0  0  0  0  0  0  0  0  0  0  0  0
   11.4651    0.4440    0.0000 H   0  0  0  0  0  0  0  0  0  0  0  0
   10.4651    2.1760    0.0000 H   0  0  0  0  0  0  0  0  0  0  0  0
    9.6182    2.4030    0.0000 H   0  0  0  0  0  0  0  0  0  0  0  0
    9.3913    1.5560    0.0000 H   0  0  0  0  0  0  0  0  0  0  0  0
    8.6592   -3.1760    0.0000 H   0  0  0  0  0  0  0  0  0  0  0  0
    9.5061   -3.4030    0.0000 H   0  0  0  0  0  0  0  0  0  0  0  0
    9.7331   -2.5560    0.0000 H   0  0  0  0  0  0  0  0  0  0  0  0
    9.8722   -2.0369    0.0000 H   0  0  0  0  0  0  0  0  0  0  0  0
   10.0991   -1.1900    0.0000 H   0  0  0  0  0  0  0  0  0  0  0  0
    9.2522   -0.9631    0.0000 H   0  0  0  0  0  0  0  0  0  0  0  0
    8.7331   -0.8240    0.0000 H   0  0  0  0  0  0  0  0  0  0  0  0
    7.8861   -0.5970    0.0000 H   0  0  0  0  0  0  0  0  0  0  0  0
    7.6592   -1.4440    0.0000 H   0  0  0  0  0  0  0  0  0  0  0  0
    6.4081    5.0369    0.0000 H   0  0  0  0  0  0  0  0  0  0  0  0
    5.5611    4.8100    0.0000 H   0  0  0  0  0  0  0  0  0  0  0  0
    5.7881    3.9631    0.0000 H   0  0  0  0  0  0  0  0  0  0  0  0
    8.0010    4.5560    0.0000 H   0  0  0  0  0  0  0  0  0  0  0  0
    7.7741    5.4030    0.0000 H   0  0  0  0  0  0  0  0  0  0  0  0
    6.9272    5.1760    0.0000 H   0  0  0  0  0  0  0  0  0  0  0  0
    5.9272    3.4440    0.0000 H   0  0  0  0  0  0  0  0  0  0  0  0
    6.1541    2.5970    0.0000 H   0  0  0  0  0  0  0  0  0  0  0  0
    7.0010    2.8240    0.0000 H   0  0  0  0  0  0  0  0  0  0  0  0
    2.3660   -1.8800    0.0000 H   0  0  0  0  0  0  0  0  0  0  0  0
    1.7460   -2.5000    0.0000 H   0  0  0  0  0  0  0  0  0  0  0  0
    2.3660   -3.1200    0.0000 H   0  0  0  0  0  0  0  0  0  0  0  0
    2.7460   -3.4999    0.0000 H   0  0  0  0  0  0  0  0  0  0  0  0
    3.3659   -4.1200    0.0000 H   0  0  0  0  0  0  0  0  0  0  0  0
    3.9860   -3.5000    0.0000 H   0  0  0  0  0  0  0  0  0  0  0  0
    3.9860   -1.5000    0.0000 H   0  0  0  0  0  0  0  0  0  0  0  0
    3.3660   -0.8800    0.0000 H   0  0  0  0  0  0  0  0  0  0  0  0
    2.7460   -1.5000    0.0000 H   0  0  0  0  0  0  0  0  0  0  0  0
    3.8100    3.5369    0.0000 H   0  0  0  0  0  0  0  0  0  0  0  0
    2.9631    3.3100    0.0000 H   0  0  0  0  0  0  0  0  0  0  0  0
    3.1900    2.4631    0.0000 H   0  0  0  0  0  0  0  0  0  0  0  0
    5.4030    3.0560    0.0000 H   0  0  0  0  0  0  0  0  0  0  0  0
    5.1760    3.9030    0.0000 H   0  0  0  0  0  0  0  0  0  0  0  0
    4.3291    3.6760    0.0000 H   0  0  0  0  0  0  0  0  0  0  0  0
    3.3291    1.9440    0.0000 H   0  0  0  0  0  0  0  0  0  0  0  0
    3.5560    1.0970    0.0000 H   0  0  0  0  0  0  0  0  0  0  0  0
    4.4030    1.3240    0.0000 H   0  0  0  0  0  0  0  0  0  0  0  0
    2.9029    1.5421    0.0000 H   0  0  0  0  0  0  0  0  0  0  0  0
    2.0560    1.7690    0.0000 H   0  0  0  0  0  0  0  0  0  0  0  0
    1.8291    0.9220    0.0000 H   0  0  0  0  0  0  0  0  0  0  0  0
    1.6900    0.4030    0.0000 H   0  0  0  0  0  0  0  0  0  0  0  0
    1.4631   -0.4439    0.0000 H   0  0  0  0  0  0  0  0  0  0  0  0
    2.3100   -0.6709    0.0000 H   0  0  0  0  0  0  0  0  0  0  0  0
    4.0420    0.3291    0.0000 H   0  0  0  0  0  0  0  0  0  0  0  0
    4.2690    1.1760    0.0000 H   0  0  0  0  0  0  0  0  0  0  0  0
    3.4221    1.4030    0.0000 H   0  0  0  0  0  0  0  0  0  0  0  0
  1 12  1  0  0  0  0
  1 32  1  0  0  0  0
  1 33  1  0  0  0  0
  1 34  1  0  0  0  0
  2 13  1  0  0  0  0
  2 35  1  0  0  0  0
  2 36  1  0  0  0  0
  2 37  1  0  0  0  0
  3 14  1  0  0  0  0
  3 38  1  0  0  0  0
  3 39  1  0  0  0  0
  3 40  1  0  0  0  0
  4 15  1  0  0  0  0
  4 41  1  0  0  0  0
  4 42  1  0  0  0  0
  4 43  1  0  0  0  0
  5 16  1  0  0  0  0
  5 44  1  0  0  0  0
  5 45  1  0  0  0  0
  5 46  1  0  0  0  0
  6 17  1  0  0  0  0
  6 47  1  0  0  0  0
  6 48  1  0  0  0  0
  6 49  1  0  0  0  0
  7 18  1  0  0  0  0
  7 50  1  0  0  0  0
  7 51  1  0  0  0  0
  7 52  1  0  0  0  0
  8 19  1  0  0  0  0
  8 53  1  0  0  0  0
  8 54  1  0  0  0  0
  8 55  1  0  0  0  0
  9 26  1  0  0  0  0
  9 27  1  0  0  0  0
 10 26  1  0  0  0  0
 10 28  1  0  0  0  0
 11 27  1  0  0  0  0
 11 29  1  0  0  0  0
 12 20  1  0  0  0  0
 13 21  1  0  0  0  0
 14 22  1  0  0  0  0
 15 23  1  0  0  0  0
 16 24  1  0  0  0  0
 17 25  1  0  0  0  0
 18 30  1  0  0  0  0
 19 31  1  0  0  0  0
 20 22  1  0  0  0  0
 20 24  1  0  0  0  0
 20 56  1  0  0  0  0
 21 23  1  0  0  0  0
 21 25  1  0  0  0  0
 21 57  1  0  0  0  0
 22 26  1  0  0  0  0
 22 58  1  0  0  0  0
 23 27  1  0  0  0  0
 23 59  1  0  0  0  0
 24 28  1  0  0  0  0
 24 60  1  0  0  0  0
 25 29  1  0  0  0  0
 25 61  1  0  0  0  0
 26 62  1  0  0  0  0
 27 63  1  0  0  0  0
 28 30  1  0  0  0  0
 28 64  1  0  0  0  0
 29 31  1  0  0  0  0
 29 65  1  0  0  0  0
 30 66  1  0  0  0  0
 30 67  1  0  0  0  0
 31 68  1  0  0  0  0
 31 69  1  0  0  0  0
 32 70  1  0  0  0  0
 32 71  1  0  0  0  0
 32 72  1  0  0  0  0
 33 73  1  0  0  0  0
 33 74  1  0  0  0  0
 33 75  1  0  0  0  0
 34 76  1  0  0  0  0
 34 77  1  0  0  0  0
 34 78  1  0  0  0  0
 35 79  1  0  0  0  0
 35 80  1  0  0  0  0
 35 81  1  0  0  0  0
 36 82  1  0  0  0  0
 36 83  1  0  0  0  0
 36 84  1  0  0  0  0
 37 85  1  0  0  0  0
 37 86  1  0  0  0  0
 37 87  1  0  0  0  0
 38 88  1  0  0  0  0
 38 89  1  0  0  0  0
 38 90  1  0  0  0  0
 39 91  1  0  0  0  0
 39 92  1  0  0  0  0
 39 93  1  0  0  0  0
 40 94  1  0  0  0  0
 40 95  1  0  0  0  0
 40 96  1  0  0  0  0
 41 97  1  0  0  0  0
 41 98  1  0  0  0  0
 41 99  1  0  0  0  0
 42100  1  0  0  0  0
 42101  1  0  0  0  0
 42102  1  0  0  0  0
 43103  1  0  0  0  0
 43104  1  0  0  0  0
 43105  1  0  0  0  0
 44106  1  0  0  0  0
 44107  1  0  0  0  0
 44108  1  0  0  0  0
 45109  1  0  0  0  0
 45110  1  0  0  0  0
 45111  1  0  0  0  0
 46112  1  0  0  0  0
 46113  1  0  0  0  0
 46114  1  0  0  0  0
 47115  1  0  0  0  0
 47116  1  0  0  0  0
 47117  1  0  0  0  0
 48118  1  0  0  0  0
 48119  1  0  0  0  0
 48120  1  0  0  0  0
 49121  1  0  0  0  0
 49122  1  0  0  0  0
 49123  1  0  0  0  0
 50124  1  0  0  0  0
 50125  1  0  0  0  0
 50126  1  0  0  0  0
 51127  1  0  0  0  0
 51128  1  0  0  0  0
 51129  1  0  0  0  0
 52130  1  0  0  0  0
 52131  1  0  0  0  0
 52132  1  0  0  0  0
 53133  1  0  0  0  0
 53134  1  0  0  0  0
 53135  1  0  0  0  0
 54136  1  0  0  0  0
 54137  1  0  0  0  0
 54138  1  0  0  0  0
 55139  1  0  0  0  0
 55140  1  0  0  0  0
 55141  1  0  0  0  0
M  END
> <PUBCHEM_COMPOUND_CID>
521102
> <PUBCHEM_COMPOUND_CANONICALIZED>
1
> <PUBCHEM_CACTVS_COMPLEXITY>
1090
> <PUBCHEM_CACTVS_HBOND_ACCEPTOR>
11
> <PUBCHEM_CACTVS_HBOND_DONOR>
0
> <PUBCHEM_CACTVS_ROTATABLE_BOND>
20
> <PUBCHEM_CACTVS_SUBSKEYS>
AAADcfB8PAwAAAAAAAAAAAAAAAAAAAAAAAAkSAAAAAAAAAAAAAAAGhAAAEAACBSwgANCCAAABAEAAAAAAAAAAAAAAAAAAAAAAAARAAIAAAAiAAAFAAAGAAHAYAwAAAAAAAAAAAAAAAAAAAAAAAAAAAAAAA==
> <PUBCHEM_IUPAC_OPENEYE_NAME>
trimethyl-[[3,4,5-tris(trimethylsilyloxy)-6-[3,4,5-tris(trimethylsilyloxy)-6-(trimethylsilyloxymethyl)tetrahydropyran-2-yl]oxy-tetrahydropyran-2-yl]methoxy]silane
> <PUBCHEM_IUPAC_CAS_NAME>
trimethyl-[[3,4,5-tris(trimethylsilyloxy)-6-[[3,4,5-tris(trimethylsilyloxy)-6-(trimethylsilyloxymethyl)-2-oxanyl]oxy]-2-oxanyl]methoxy]silane
> <PUBCHEM_IUPAC_NAME_MARKUP>
trimethyl-[[3,4,5-tris(trimethylsilyloxy)-6-[3,4,5-tris(trimethylsilyloxy)-6-(trimethylsilyloxymethyl)oxan-2-yl]oxyoxan-2-yl]methoxy]silane
> <PUBCHEM_IUPAC_NAME>
trimethyl-[[3,4,5-tris(trimethylsilyloxy)-6-[3,4,5-tris(trimethylsilyloxy)-6-(trimethylsilyloxymethyl)oxan-2-yl]oxyoxan-2-yl]methoxy]silane
> <PUBCHEM_IUPAC_SYSTEMATIC_NAME>
trimethyl-[[3,4,5-tris(trimethylsilyloxy)-6-[3,4,5-tris(trimethylsilyloxy)-6-(trimethylsilyloxymethyl)oxan-2-yl]oxy-oxan-2-yl]methoxy]silane
> <PUBCHEM_IUPAC_TRADITIONAL_NAME>
trimethyl-[[3,4,5-tris(trimethylsilyloxy)-6-[3,4,5-tris(trimethylsilyloxy)-6-(trimethylsilyloxymethyl)tetrahydropyran-2-yl]oxy-tetrahydropyran-2-yl]methoxy]silane
> <PUBCHEM_IUPAC_INCHI>
InChI=1S/C36H86O11Si8/c1-48(2,3)37-25-27-29(42-50(7,8)9)31(44-52(13,14)15)33(46-54(19,20)21)35(39-27)41-36-34(47-55(22,23)24)32(45-53(16,17)18)30(43-51(10,11)12)28(40-36)26-38-49(4,5)6/h27-36H,25-26H2,1-24H3
> <PUBCHEM_IUPAC_INCHIKEY>
YQFZNYCPHIXROS-UHFFFAOYSA-N
> <PUBCHEM_EXACT_MASS>
918.43242583
> <PUBCHEM_MOLECULAR_FORMULA>
C36H86O11Si8
> <PUBCHEM_MOLECULAR_WEIGHT>
919.7
> <PUBCHEM_OPENEYE_CAN_SMILES>
C[Si](C)(C)OCC1C(C(C(C(O1)OC2C(C(C(C(O2)CO[Si](C)(C)C)O[Si](C)(C)C)O[Si](C)(C)C)O[Si](C)(C)C)O[Si](C)(C)C)O[Si](C)(C)C)O[Si](C)(C)C
> <PUBCHEM_OPENEYE_ISO_SMILES>
C[Si](C)(C)OCC1C(C(C(C(O1)OC2C(C(C(C(O2)CO[Si](C)(C)C)O[Si](C)(C)C)O[Si](C)(C)C)O[Si](C)(C)C)O[Si](C)(C)C)O[Si](C)(C)C)O[Si](C)(C)C
> <PUBCHEM_CACTVS_TPSA>
102
> <PUBCHEM_MONOISOTOPIC_WEIGHT>
918.43242583
> <PUBCHEM_TOTAL_CHARGE>
0
> <PUBCHEM_HEAVY_ATOM_COUNT>
55
> <PUBCHEM_ATOM_DEF_STEREO_COUNT>
0
> <PUBCHEM_ATOM_UDEF_STEREO_COUNT>
10
> <PUBCHEM_BOND_DEF_STEREO_COUNT>
0
> <PUBCHEM_BOND_UDEF_STEREO_COUNT>
0
> <PUBCHEM_ISOTOPIC_ATOM_COUNT>
0
> <PUBCHEM_COMPONENT_COUNT>
1
> <PUBCHEM_CACTVS_TAUTO_COUNT>
-1
> <PUBCHEM_COORDINATE_TYPE>
1
5
255
> <PUBCHEM_BONDANNOTATIONS>
20  12  3
21  13  3
22  14  3
23  15  3
24  16  3
25  17  3
28  30  3
29  31  3
26  9  3
27  9  3
$$$$
