521218
  -OEChem-10302200292D
 16 16  0     1  0  0  0  0  0999 V2000
    3.0000   -0.8536    0.0000 O   0  0  0  0  0  0  0  0  0  0  0  0
    3.0000    0.1464    0.0000 C   0  0  3  0  0  0  0  0  0  0  0  0
    2.0000    0.1464    0.0000 C   0  0  0  0  0  0  0  0  0  0  0  0
    2.0000   -0.8536    0.0000 C   0  0  0  0  0  0  0  0  0  0  0  0
    3.7071    0.8536    0.0000 C   0  0  0  0  0  0  0  0  0  0  0  0
    4.6730    0.5947    0.0000 C   0  0  0  0  0  0  0  0  0  0  0  0
    3.5728   -0.0908    0.0000 H   0  0  0  0  0  0  0  0  0  0  0  0
    2.0000    0.7664    0.0000 H   0  0  0  0  0  0  0  0  0  0  0  0
    1.3800    0.1464    0.0000 H   0  0  0  0  0  0  0  0  0  0  0  0
    1.3800   -0.8536    0.0000 H   0  0  0  0  0  0  0  0  0  0  0  0
    2.0000   -1.4736    0.0000 H   0  0  0  0  0  0  0  0  0  0  0  0
    3.9691    1.4155    0.0000 H   0  0  0  0  0  0  0  0  0  0  0  0
    3.1992    1.2092    0.0000 H   0  0  0  0  0  0  0  0  0  0  0  0
    4.5126   -0.0041    0.0000 H   0  0  0  0  0  0  0  0  0  0  0  0
    5.2719    0.4343    0.0000 H   0  0  0  0  0  0  0  0  0  0  0  0
    4.8335    1.1936    0.0000 H   0  0  0  0  0  0  0  0  0  0  0  0
  1  2  1  0  0  0  0
  1  4  1  0  0  0  0
  2  3  1  0  0  0  0
  2  5  1  0  0  0  0
  2  7  1  0  0  0  0
  3  4  1  0  0  0  0
  3  8  1  0  0  0  0
  3  9  1  0  0  0  0
  4 10  1  0  0  0  0
  4 11  1  0  0  0  0
  5  6  1  0  0  0  0
  5 12  1  0  0  0  0
  5 13  1  0  0  0  0
  6 14  1  0  0  0  0
  6 15  1  0  0  0  0
  6 16  1  0  0  0  0
M  END
> <PUBCHEM_COMPOUND_CID>
521218
> <PUBCHEM_COMPOUND_CANONICALIZED>
1
> <PUBCHEM_CACTVS_COMPLEXITY>
43.2
> <PUBCHEM_CACTVS_HBOND_ACCEPTOR>
1
> <PUBCHEM_CACTVS_HBOND_DONOR>
0
> <PUBCHEM_CACTVS_ROTATABLE_BOND>
1
> <PUBCHEM_CACTVS_SUBSKEYS>
AAADccBgIAAAAAAAAAAAAAAAAABIAAAAAAAAAAAAAAAAAAAAAAAAGgAAAAAACBSggAICAAAABAAAAAAAAAAAAAAAAAAAAAAAAAAAAAIAAAACAAAEAAAAAACAAAAAAAAAAAAAAAAAAAAAAAAAAAAAAAAAAA==
> <PUBCHEM_IUPAC_OPENEYE_NAME>
2-ethyloxetane
> <PUBCHEM_IUPAC_CAS_NAME>
2-ethyloxetane
> <PUBCHEM_IUPAC_NAME_MARKUP>
2-ethyloxetane
> <PUBCHEM_IUPAC_NAME>
2-ethyloxetane
> <PUBCHEM_IUPAC_SYSTEMATIC_NAME>
2-ethyloxetane
> <PUBCHEM_IUPAC_TRADITIONAL_NAME>
2-ethyloxetane
> <PUBCHEM_IUPAC_INCHI>
InChI=1S/C5H10O/c1-2-5-3-4-6-5/h5H,2-4H2,1H3
> <PUBCHEM_IUPAC_INCHIKEY>
GDHROTCPZLVPJT-UHFFFAOYSA-N
> <PUBCHEM_XLOGP3_AA>
1.2
> <PUBCHEM_EXACT_MASS>
86.073164938
> <PUBCHEM_MOLECULAR_FORMULA>
C5H10O
> <PUBCHEM_MOLECULAR_WEIGHT>
86.13
> <PUBCHEM_OPENEYE_CAN_SMILES>
CCC1CCO1
> <PUBCHEM_OPENEYE_ISO_SMILES>
CCC1CCO1
> <PUBCHEM_CACTVS_TPSA>
9.2
> <PUBCHEM_MONOISOTOPIC_WEIGHT>
86.073164938
> <PUBCHEM_TOTAL_CHARGE>
0
> <PUBCHEM_HEAVY_ATOM_COUNT>
6
> <PUBCHEM_ATOM_DEF_STEREO_COUNT>
0
> <PUBCHEM_ATOM_UDEF_STEREO_COUNT>
1
> <PUBCHEM_BOND_DEF_STEREO_COUNT>
0
> <PUBCHEM_BOND_UDEF_STEREO_COUNT>
0
> <PUBCHEM_ISOTOPIC_ATOM_COUNT>
0
> <PUBCHEM_COMPONENT_COUNT>
1
> <PUBCHEM_CACTVS_TAUTO_COUNT>
-1
> <PUBCHEM_COORDINATE_TYPE>
1
5
255
> <PUBCHEM_BONDANNOTATIONS>
2  5  3
$$$$
