521233
  -OEChem-10302200292D
 46 49  0     1  0  0  0  0  0999 V2000
    4.6318    2.5058    0.0000 O   0  0  0  0  0  0  0  0  0  0  0  0
    8.0752   -1.3472    0.0000 N   0  0  3  0  0  0  0  0  0  0  0  0
    4.6783   -1.7490    0.0000 N   0  0  0  0  0  0  0  0  0  0  0  0
    7.4324   -2.1132    0.0000 C   0  0  3  0  0  0  0  0  0  0  0  0
    6.0279   -1.5870    0.0000 C   0  0  3  0  0  0  0  0  0  0  0  0
    6.8068   -0.1420    0.0000 C   0  0  3  0  0  0  0  0  0  0  0  0
    6.1151   -2.5832    0.0000 C   0  0  0  0  0  0  0  0  0  0  0  0
    8.6516   -2.9673    0.0000 C   0  0  0  0  0  0  0  0  0  0  0  0
    7.7728    0.1168    0.0000 C   0  0  0  0  0  0  0  0  0  0  0  0
    9.2944   -2.2013    0.0000 C   0  0  0  0  0  0  0  0  0  0  0  0
    5.2619   -0.9442    0.0000 C   0  0  0  0  0  0  0  0  0  0  0  0
    5.9408    0.3580    0.0000 C   0  0  0  0  0  0  0  0  0  0  0  0
    4.6783   -0.1395    0.0000 C   0  0  0  0  0  0  0  0  0  0  0  0
    3.7320   -0.4442    0.0000 C   0  0  0  0  0  0  0  0  0  0  0  0
    3.7320   -1.4442    0.0000 C   0  0  0  0  0  0  0  0  0  0  0  0
    4.9889    0.8110    0.0000 C   0  0  0  0  0  0  0  0  0  0  0  0
    5.9408    1.3580    0.0000 C   0  0  0  0  0  0  0  0  0  0  0  0
    2.8660    0.0558    0.0000 C   0  0  0  0  0  0  0  0  0  0  0  0
    2.8660   -1.9442    0.0000 C   0  0  0  0  0  0  0  0  0  0  0  0
    4.3211    1.5553    0.0000 C   0  0  0  0  0  0  0  0  0  0  0  0
    2.0000   -0.4442    0.0000 C   0  0  0  0  0  0  0  0  0  0  0  0
    2.0000   -1.4442    0.0000 C   0  0  0  0  0  0  0  0  0  0  0  0
    7.9321   -1.7462    0.0000 H   0  0  0  0  0  0  0  0  0  0  0  0
    5.4780   -1.8733    0.0000 H   0  0  0  0  0  0  0  0  0  0  0  0
    6.3237   -0.5305    0.0000 H   0  0  0  0  0  0  0  0  0  0  0  0
    5.5043   -2.6896    0.0000 H   0  0  0  0  0  0  0  0  0  0  0  0
    6.2730   -3.1828    0.0000 H   0  0  0  0  0  0  0  0  0  0  0  0
    8.2813   -3.4646    0.0000 H   0  0  0  0  0  0  0  0  0  0  0  0
    9.1379   -3.3519    0.0000 H   0  0  0  0  0  0  0  0  0  0  0  0
    8.3774    0.2540    0.0000 H   0  0  0  0  0  0  0  0  0  0  0  0
    7.6239    0.7187    0.0000 H   0  0  0  0  0  0  0  0  0  0  0  0
    9.7807   -2.5859    0.0000 H   0  0  0  0  0  0  0  0  0  0  0  0
    9.6647   -1.7040    0.0000 H   0  0  0  0  0  0  0  0  0  0  0  0
    5.4039    0.0480    0.0000 H   0  0  0  0  0  0  0  0  0  0  0  0
    4.8709   -2.3383    0.0000 H   0  0  0  0  0  0  0  0  0  0  0  0
    5.5359    0.5190    0.0000 H   0  0  0  0  0  0  0  0  0  0  0  0
    5.3715    1.2989    0.0000 H   0  0  0  0  0  0  0  0  0  0  0  0
    6.4778    1.6680    0.0000 H   0  0  0  0  0  0  0  0  0  0  0  0
    5.4039    1.6680    0.0000 H   0  0  0  0  0  0  0  0  0  0  0  0
    2.8660    0.6758    0.0000 H   0  0  0  0  0  0  0  0  0  0  0  0
    2.8660   -2.5642    0.0000 H   0  0  0  0  0  0  0  0  0  0  0  0
    3.7742    1.8474    0.0000 H   0  0  0  0  0  0  0  0  0  0  0  0
    3.9385    1.0674    0.0000 H   0  0  0  0  0  0  0  0  0  0  0  0
    1.4631   -0.1342    0.0000 H   0  0  0  0  0  0  0  0  0  0  0  0
    1.4631   -1.7542    0.0000 H   0  0  0  0  0  0  0  0  0  0  0  0
    4.2177    2.9673    0.0000 H   0  0  0  0  0  0  0  0  0  0  0  0
  1 20  1  0  0  0  0
  1 46  1  0  0  0  0
  2  5  1  0  0  0  0
  2  9  1  0  0  0  0
  2 10  1  0  0  0  0
  3 11  1  0  0  0  0
  3 15  1  0  0  0  0
  3 35  1  0  0  0  0
  4  6  1  0  0  0  0
  4  7  1  0  0  0  0
  4  8  1  0  0  0  0
  4 23  1  0  0  0  0
  5  7  1  0  0  0  0
  5 11  1  0  0  0  0
  5 24  1  0  0  0  0
  6  9  1  0  0  0  0
  6 12  1  0  0  0  0
  6 25  1  0  0  0  0
  7 26  1  0  0  0  0
  7 27  1  0  0  0  0
  8 10  1  0  0  0  0
  8 28  1  0  0  0  0
  8 29  1  0  0  0  0
  9 30  1  0  0  0  0
  9 31  1  0  0  0  0
 10 32  1  0  0  0  0
 10 33  1  0  0  0  0
 11 13  2  0  0  0  0
 12 17  2  0  0  0  0
 12 34  1  0  0  0  0
 13 14  1  0  0  0  0
 13 16  1  0  0  0  0
 14 15  1  0  0  0  0
 14 18  2  0  0  0  0
 15 19  2  0  0  0  0
 16 20  1  0  0  0  0
 16 36  1  0  0  0  0
 16 37  1  0  0  0  0
 17 38  1  0  0  0  0
 17 39  1  0  0  0  0
 18 21  1  0  0  0  0
 18 40  1  0  0  0  0
 19 22  1  0  0  0  0
 19 41  1  0  0  0  0
 20 42  1  0  0  0  0
 20 43  1  0  0  0  0
 21 22  2  0  0  0  0
 21 44  1  0  0  0  0
 22 45  1  0  0  0  0
M  END
> <PUBCHEM_COMPOUND_CID>
521233
> <PUBCHEM_COMPOUND_CANONICALIZED>
1
> <PUBCHEM_CACTVS_COMPLEXITY>
412
> <PUBCHEM_CACTVS_HBOND_ACCEPTOR>
2
> <PUBCHEM_CACTVS_HBOND_DONOR>
2
> <PUBCHEM_CACTVS_ROTATABLE_BOND>
4
> <PUBCHEM_CACTVS_SUBSKEYS>
AAADceB7IAAAAAAAAAAAAAAAAAAAAWAAAAA8WLEAAAAAAFgB8AAAHgAQCAAADSjhngYwwPPJkgCgAyRiRACCgCAhAiAImSA4ZJgIcOLAkZGUYAhk0AHIyAew0OMOgAAAAAACAAAAAAAAAAQAAAAAAAAAAA==
> <PUBCHEM_IUPAC_OPENEYE_NAME>
2-[2-(5-vinylquinuclidin-2-yl)-1H-indol-3-yl]ethanol
> <PUBCHEM_IUPAC_CAS_NAME>
2-[2-(5-ethenyl-1-azabicyclo[2.2.2]octan-2-yl)-1H-indol-3-yl]ethanol
> <PUBCHEM_IUPAC_NAME_MARKUP>
2-[2-(5-ethenyl-1-azabicyclo[2.2.2]octan-2-yl)-1<I>H</I>-indol-3-yl]ethanol
> <PUBCHEM_IUPAC_NAME>
2-[2-(5-ethenyl-1-azabicyclo[2.2.2]octan-2-yl)-1H-indol-3-yl]ethanol
> <PUBCHEM_IUPAC_SYSTEMATIC_NAME>
2-[2-(5-ethenyl-1-azabicyclo[2.2.2]octan-2-yl)-1H-indol-3-yl]ethanol
> <PUBCHEM_IUPAC_TRADITIONAL_NAME>
2-[2-(5-vinylquinuclidin-2-yl)-1H-indol-3-yl]ethanol
> <PUBCHEM_IUPAC_INCHI>
InChI=1S/C19H24N2O/c1-2-13-12-21-9-7-14(13)11-18(21)19-16(8-10-22)15-5-3-4-6-17(15)20-19/h2-6,13-14,18,20,22H,1,7-12H2
> <PUBCHEM_IUPAC_INCHIKEY>
YAUKSCGKZYUZRH-UHFFFAOYSA-N
> <PUBCHEM_XLOGP3_AA>
2.9
> <PUBCHEM_EXACT_MASS>
296.188863393
> <PUBCHEM_MOLECULAR_FORMULA>
C19H24N2O
> <PUBCHEM_MOLECULAR_WEIGHT>
296.4
> <PUBCHEM_OPENEYE_CAN_SMILES>
C=CC1CN2CCC1CC2C3=C(C4=CC=CC=C4N3)CCO
> <PUBCHEM_OPENEYE_ISO_SMILES>
C=CC1CN2CCC1CC2C3=C(C4=CC=CC=C4N3)CCO
> <PUBCHEM_CACTVS_TPSA>
39.3
> <PUBCHEM_MONOISOTOPIC_WEIGHT>
296.188863393
> <PUBCHEM_TOTAL_CHARGE>
0
> <PUBCHEM_HEAVY_ATOM_COUNT>
22
> <PUBCHEM_ATOM_DEF_STEREO_COUNT>
0
> <PUBCHEM_ATOM_UDEF_STEREO_COUNT>
3
> <PUBCHEM_BOND_DEF_STEREO_COUNT>
0
> <PUBCHEM_BOND_UDEF_STEREO_COUNT>
0
> <PUBCHEM_ISOTOPIC_ATOM_COUNT>
0
> <PUBCHEM_COMPONENT_COUNT>
1
> <PUBCHEM_CACTVS_TAUTO_COUNT>
1
> <PUBCHEM_COORDINATE_TYPE>
1
5
255
> <PUBCHEM_BONDANNOTATIONS>
11  13  8
13  14  8
14  15  8
14  18  8
15  19  8
18  21  8
19  22  8
21  22  8
3  11  8
3  15  8
4  8  3
5  11  3
6  12  3
$$$$
