521236
  -OEChem-10302200292D
 27 27  0     1  0  0  0  0  0999 V2000
    2.8660   -0.4806    0.0000 C   0  0  0  0  0  0  0  0  0  0  0  0
    2.0570   -1.0684    0.0000 C   0  0  0  0  0  0  0  0  0  0  0  0
    3.6750   -1.0684    0.0000 C   0  0  0  0  0  0  0  0  0  0  0  0
    2.8660    0.5194    0.0000 C   0  0  3  0  0  0  0  0  0  0  0  0
    2.3660   -2.0194    0.0000 C   0  0  0  0  0  0  0  0  0  0  0  0
    3.3660   -2.0194    0.0000 C   0  0  0  0  0  0  0  0  0  0  0  0
    3.7320    1.0194    0.0000 C   0  0  0  0  0  0  0  0  0  0  0  0
    2.0000    1.0194    0.0000 C   0  0  0  0  0  0  0  0  0  0  0  0
    3.7320    2.0194    0.0000 C   0  0  0  0  0  0  0  0  0  0  0  0
    3.4184   -0.1991    0.0000 H   0  0  0  0  0  0  0  0  0  0  0  0
    1.7470   -0.5314    0.0000 H   0  0  0  0  0  0  0  0  0  0  0  0
    1.4906   -1.3205    0.0000 H   0  0  0  0  0  0  0  0  0  0  0  0
    4.2414   -1.3205    0.0000 H   0  0  0  0  0  0  0  0  0  0  0  0
    3.9850   -0.5314    0.0000 H   0  0  0  0  0  0  0  0  0  0  0  0
    2.8660    1.1394    0.0000 H   0  0  0  0  0  0  0  0  0  0  0  0
    1.7596   -2.1483    0.0000 H   0  0  0  0  0  0  0  0  0  0  0  0
    2.4308   -2.6360    0.0000 H   0  0  0  0  0  0  0  0  0  0  0  0
    3.3012   -2.6360    0.0000 H   0  0  0  0  0  0  0  0  0  0  0  0
    3.9725   -2.1483    0.0000 H   0  0  0  0  0  0  0  0  0  0  0  0
    3.9441    0.4368    0.0000 H   0  0  0  0  0  0  0  0  0  0  0  0
    4.3426    1.1271    0.0000 H   0  0  0  0  0  0  0  0  0  0  0  0
    2.3100    1.5564    0.0000 H   0  0  0  0  0  0  0  0  0  0  0  0
    1.4631    1.3294    0.0000 H   0  0  0  0  0  0  0  0  0  0  0  0
    1.6900    0.4825    0.0000 H   0  0  0  0  0  0  0  0  0  0  0  0
    4.3520    2.0194    0.0000 H   0  0  0  0  0  0  0  0  0  0  0  0
    3.7320    2.6394    0.0000 H   0  0  0  0  0  0  0  0  0  0  0  0
    3.1120    2.0194    0.0000 H   0  0  0  0  0  0  0  0  0  0  0  0
  1  2  1  0  0  0  0
  1  3  1  0  0  0  0
  1  4  1  0  0  0  0
  1 10  1  0  0  0  0
  2  5  1  0  0  0  0
  2 11  1  0  0  0  0
  2 12  1  0  0  0  0
  3  6  1  0  0  0  0
  3 13  1  0  0  0  0
  3 14  1  0  0  0  0
  4  7  1  0  0  0  0
  4  8  1  0  0  0  0
  4 15  1  0  0  0  0
  5  6  1  0  0  0  0
  5 16  1  0  0  0  0
  5 17  1  0  0  0  0
  6 18  1  0  0  0  0
  6 19  1  0  0  0  0
  7  9  1  0  0  0  0
  7 20  1  0  0  0  0
  7 21  1  0  0  0  0
  8 22  1  0  0  0  0
  8 23  1  0  0  0  0
  8 24  1  0  0  0  0
  9 25  1  0  0  0  0
  9 26  1  0  0  0  0
  9 27  1  0  0  0  0
M  END
> <PUBCHEM_COMPOUND_CID>
521236
> <PUBCHEM_COMPOUND_CANONICALIZED>
1
> <PUBCHEM_CACTVS_COMPLEXITY>
70.1
> <PUBCHEM_CACTVS_HBOND_ACCEPTOR>
0
> <PUBCHEM_CACTVS_HBOND_DONOR>
0
> <PUBCHEM_CACTVS_ROTATABLE_BOND>
2
> <PUBCHEM_CACTVS_SUBSKEYS>
AAADceBwAAAAAAAAAAAAAAAAAAAAAYAAAAAAAAAAAAAAAAAAAAAAGAAAAAAADQCAAAACAAAAAAAAAAAAAAAAAAAAAAAAAAAAAAAAAAIAAAAAAAAAAAAAAAEAgMAOgAAAAAAAAAAAAAAAAAAAAAAAAAAAAA==
> <PUBCHEM_IUPAC_OPENEYE_NAME>
sec-butylcyclopentane
> <PUBCHEM_IUPAC_CAS_NAME>
butan-2-ylcyclopentane
> <PUBCHEM_IUPAC_NAME_MARKUP>
butan-2-ylcyclopentane
> <PUBCHEM_IUPAC_NAME>
butan-2-ylcyclopentane
> <PUBCHEM_IUPAC_SYSTEMATIC_NAME>
butan-2-ylcyclopentane
> <PUBCHEM_IUPAC_TRADITIONAL_NAME>
sec-butylcyclopentane
> <PUBCHEM_IUPAC_INCHI>
InChI=1S/C9H18/c1-3-8(2)9-6-4-5-7-9/h8-9H,3-7H2,1-2H3
> <PUBCHEM_IUPAC_INCHIKEY>
DCEHVBLXWODXCW-UHFFFAOYSA-N
> <PUBCHEM_XLOGP3_AA>
4.3
> <PUBCHEM_EXACT_MASS>
126.140850574
> <PUBCHEM_MOLECULAR_FORMULA>
C9H18
> <PUBCHEM_MOLECULAR_WEIGHT>
126.24
> <PUBCHEM_OPENEYE_CAN_SMILES>
CCC(C)C1CCCC1
> <PUBCHEM_OPENEYE_ISO_SMILES>
CCC(C)C1CCCC1
> <PUBCHEM_CACTVS_TPSA>
0
> <PUBCHEM_MONOISOTOPIC_WEIGHT>
126.140850574
> <PUBCHEM_TOTAL_CHARGE>
0
> <PUBCHEM_HEAVY_ATOM_COUNT>
9
> <PUBCHEM_ATOM_DEF_STEREO_COUNT>
0
> <PUBCHEM_ATOM_UDEF_STEREO_COUNT>
1
> <PUBCHEM_BOND_DEF_STEREO_COUNT>
0
> <PUBCHEM_BOND_UDEF_STEREO_COUNT>
0
> <PUBCHEM_ISOTOPIC_ATOM_COUNT>
0
> <PUBCHEM_COMPONENT_COUNT>
1
> <PUBCHEM_CACTVS_TAUTO_COUNT>
-1
> <PUBCHEM_COORDINATE_TYPE>
1
5
255
> <PUBCHEM_BONDANNOTATIONS>
4  8  3
$$$$
