521225
  -OEChem-10302200292D
 23 22  0     1  0  0  0  0  0999 V2000
    1.9421    0.0000    0.0000 Cl  0  0  0  0  0  0  0  0  0  0  0  0
    1.3754    4.0980    0.0000 O   0  0  0  0  0  0  0  0  0  0  0  0
    3.3434    3.3987    0.0000 N   0  0  0  0  0  0  0  0  0  0  0  0
    2.1844    4.6858    0.0000 C   0  0  3  0  0  0  0  0  0  0  0  0
    1.8754    5.6369    0.0000 C   0  0  0  0  0  0  0  0  0  0  0  0
    0.8754    5.6369    0.0000 C   0  0  0  0  0  0  0  0  0  0  0  0
    0.5664    4.6858    0.0000 C   0  0  0  0  0  0  0  0  0  0  0  0
    3.1355    4.3768    0.0000 C   0  0  0  0  0  0  0  0  0  0  0  0
    4.2945    3.0896    0.0000 C   0  0  0  0  0  0  0  0  0  0  0  0
    2.2814    4.0735    0.0000 H   0  0  0  0  0  0  0  0  0  0  0  0
    2.4819    5.7658    0.0000 H   0  0  0  0  0  0  0  0  0  0  0  0
    1.8106    6.2535    0.0000 H   0  0  0  0  0  0  0  0  0  0  0  0
    0.9402    6.2535    0.0000 H   0  0  0  0  0  0  0  0  0  0  0  0
    0.2690    5.7658    0.0000 H   0  0  0  0  0  0  0  0  0  0  0  0
    0.0000    4.9380    0.0000 H   0  0  0  0  0  0  0  0  0  0  0  0
    0.2564    4.1489    0.0000 H   0  0  0  0  0  0  0  0  0  0  0  0
    3.7551    4.3985    0.0000 H   0  0  0  0  0  0  0  0  0  0  0  0
    3.2218    4.9908    0.0000 H   0  0  0  0  0  0  0  0  0  0  0  0
    2.8826    2.9838    0.0000 H   0  0  0  0  0  0  0  0  0  0  0  0
    4.1029    2.5000    0.0000 H   0  0  0  0  0  0  0  0  0  0  0  0
    4.8841    2.8981    0.0000 H   0  0  0  0  0  0  0  0  0  0  0  0
    4.4860    3.6793    0.0000 H   0  0  0  0  0  0  0  0  0  0  0  0
    2.9421    0.0000    0.0000 H   0  0  0  0  0  0  0  0  0  0  0  0
  1 23  1  0  0  0  0
  2  4  1  0  0  0  0
  2  7  1  0  0  0  0
  3  8  1  0  0  0  0
  3  9  1  0  0  0  0
  3 19  1  0  0  0  0
  4  5  1  0  0  0  0
  4  8  1  0  0  0  0
  4 10  1  0  0  0  0
  5  6  1  0  0  0  0
  5 11  1  0  0  0  0
  5 12  1  0  0  0  0
  6  7  1  0  0  0  0
  6 13  1  0  0  0  0
  6 14  1  0  0  0  0
  7 15  1  0  0  0  0
  7 16  1  0  0  0  0
  8 17  1  0  0  0  0
  8 18  1  0  0  0  0
  9 20  1  0  0  0  0
  9 21  1  0  0  0  0
  9 22  1  0  0  0  0
M  END
> <PUBCHEM_COMPOUND_CID>
521225
> <PUBCHEM_COMPOUND_CANONICALIZED>
1
> <PUBCHEM_CACTVS_COMPLEXITY>
65.5
> <PUBCHEM_CACTVS_HBOND_ACCEPTOR>
2
> <PUBCHEM_CACTVS_HBOND_DONOR>
2
> <PUBCHEM_CACTVS_ROTATABLE_BOND>
2
> <PUBCHEM_CACTVS_SUBSKEYS>
AAADccBiIAAEAAAAAAAAAAAAAAAAASAAAAAAAAAAAAAAAAAAAAAAHgAQAAAACBThgAYCAALABAAAAAAAAAAAAAAAAAAAAIAIAAACAAIAgAAHAAAEEAAQAACQEAIAAAAAAAAAAAAAAAAAAAAAAAAAAAAAAA==
> <PUBCHEM_IUPAC_OPENEYE_NAME>
N-methyl-1-tetrahydrofuran-2-yl-methanamine;hydrochloride
> <PUBCHEM_IUPAC_CAS_NAME>
N-methyl-1-(2-oxolanyl)methanamine;hydrochloride
> <PUBCHEM_IUPAC_NAME_MARKUP>
<I>N</I>-methyl-1-(oxolan-2-yl)methanamine;hydrochloride
> <PUBCHEM_IUPAC_NAME>
N-methyl-1-(oxolan-2-yl)methanamine;hydrochloride
> <PUBCHEM_IUPAC_SYSTEMATIC_NAME>
N-methyl-1-(oxolan-2-yl)methanamine;hydrochloride
> <PUBCHEM_IUPAC_TRADITIONAL_NAME>
methyl(tetrahydrofurfuryl)amine;hydrochloride
> <PUBCHEM_IUPAC_INCHI>
InChI=1S/C6H13NO.ClH/c1-7-5-6-3-2-4-8-6;/h6-7H,2-5H2,1H3;1H
> <PUBCHEM_IUPAC_INCHIKEY>
QWNGJJUPXCQCRM-UHFFFAOYSA-N
> <PUBCHEM_EXACT_MASS>
151.0763918
> <PUBCHEM_MOLECULAR_FORMULA>
C6H14ClNO
> <PUBCHEM_MOLECULAR_WEIGHT>
151.63
> <PUBCHEM_OPENEYE_CAN_SMILES>
CNCC1CCCO1.Cl
> <PUBCHEM_OPENEYE_ISO_SMILES>
CNCC1CCCO1.Cl
> <PUBCHEM_CACTVS_TPSA>
21.3
> <PUBCHEM_MONOISOTOPIC_WEIGHT>
151.0763918
> <PUBCHEM_TOTAL_CHARGE>
0
> <PUBCHEM_HEAVY_ATOM_COUNT>
9
> <PUBCHEM_ATOM_DEF_STEREO_COUNT>
0
> <PUBCHEM_ATOM_UDEF_STEREO_COUNT>
1
> <PUBCHEM_BOND_DEF_STEREO_COUNT>
0
> <PUBCHEM_BOND_UDEF_STEREO_COUNT>
0
> <PUBCHEM_ISOTOPIC_ATOM_COUNT>
0
> <PUBCHEM_COMPONENT_COUNT>
2
> <PUBCHEM_CACTVS_TAUTO_COUNT>
-1
> <PUBCHEM_COORDINATE_TYPE>
1
5
255
> <PUBCHEM_BONDANNOTATIONS>
4  8  3
$$$$
