521351
  -OEChem-10302200292D
 32 33  0     1  0  0  0  0  0999 V2000
    3.3927   -1.3448    0.0000 F   0  0  0  0  0  0  0  0  0  0  0  0
    2.0000   -1.0992    0.0000 F   0  0  0  0  0  0  0  0  0  0  0  0
    2.2456    0.2935    0.0000 F   0  0  0  0  0  0  0  0  0  0  0  0
    4.4640   -2.2207    0.0000 O   0  0  0  0  0  0  0  0  0  0  0  0
    3.5512    1.0441    0.0000 O   0  0  0  0  0  0  0  0  0  0  0  0
    5.7815    1.2262    0.0000 C   0  0  0  0  0  0  0  0  0  0  0  0
    6.2593   -0.7224    0.0000 C   0  0  3  0  0  0  0  0  0  0  0  0
    6.5182    0.2436    0.0000 C   0  0  3  0  0  0  0  0  0  0  0  0
    7.6583   -1.2312    0.0000 C   0  0  0  0  0  0  0  0  0  0  0  0
    4.5446   -0.3747    0.0000 C   0  0  3  0  0  0  0  0  0  0  0  0
    7.9171   -0.2653    0.0000 C   0  0  0  0  0  0  0  0  0  0  0  0
    4.8866   -1.3144    0.0000 C   0  0  0  0  0  0  0  0  0  0  0  0
    5.8861    2.2207    0.0000 C   0  0  0  0  0  0  0  0  0  0  0  0
    4.8680    1.6329    0.0000 C   0  0  0  0  0  0  0  0  0  0  0  0
    6.0005   -1.6883    0.0000 C   0  0  0  0  0  0  0  0  0  0  0  0
    3.6383    0.0479    0.0000 C   0  0  0  0  0  0  0  0  0  0  0  0
    2.8192   -0.5257    0.0000 C   0  0  0  0  0  0  0  0  0  0  0  0
    6.5041   -0.3763    0.0000 H   0  0  0  0  0  0  0  0  0  0  0  0
    7.4634   -1.8198    0.0000 H   0  0  0  0  0  0  0  0  0  0  0  0
    8.2522   -1.4090    0.0000 H   0  0  0  0  0  0  0  0  0  0  0  0
    4.5857    0.2439    0.0000 H   0  0  0  0  0  0  0  0  0  0  0  0
    8.5111   -0.4430    0.0000 H   0  0  0  0  0  0  0  0  0  0  0  0
    8.1120    0.3233    0.0000 H   0  0  0  0  0  0  0  0  0  0  0  0
    6.5027    2.1559    0.0000 H   0  0  0  0  0  0  0  0  0  0  0  0
    5.9509    2.8373    0.0000 H   0  0  0  0  0  0  0  0  0  0  0  0
    5.2695    2.2855    0.0000 H   0  0  0  0  0  0  0  0  0  0  0  0
    5.1202    2.1993    0.0000 H   0  0  0  0  0  0  0  0  0  0  0  0
    4.3016    1.8851    0.0000 H   0  0  0  0  0  0  0  0  0  0  0  0
    4.6158    1.0665    0.0000 H   0  0  0  0  0  0  0  0  0  0  0  0
    5.4016   -1.5278    0.0000 H   0  0  0  0  0  0  0  0  0  0  0  0
    5.8400   -2.2872    0.0000 H   0  0  0  0  0  0  0  0  0  0  0  0
    6.5994   -1.8488    0.0000 H   0  0  0  0  0  0  0  0  0  0  0  0
  1 17  1  0  0  0  0
  2 17  1  0  0  0  0
  3 17  1  0  0  0  0
  4 12  2  0  0  0  0
  5 16  2  0  0  0  0
  6  7  1  0  0  0  0
  6  8  1  0  0  0  0
  6 13  1  0  0  0  0
  6 14  1  0  0  0  0
  7  9  1  0  0  0  0
  7 12  1  0  0  0  0
  7 15  1  0  0  0  0
  8 10  1  0  0  0  0
  8 11  1  0  0  0  0
  8 18  1  0  0  0  0
  9 11  1  0  0  0  0
  9 19  1  0  0  0  0
  9 20  1  0  0  0  0
 10 12  1  0  0  0  0
 10 16  1  0  0  0  0
 10 21  1  0  0  0  0
 11 22  1  0  0  0  0
 11 23  1  0  0  0  0
 13 24  1  0  0  0  0
 13 25  1  0  0  0  0
 13 26  1  0  0  0  0
 14 27  1  0  0  0  0
 14 28  1  0  0  0  0
 14 29  1  0  0  0  0
 15 30  1  0  0  0  0
 15 31  1  0  0  0  0
 15 32  1  0  0  0  0
 16 17  1  0  0  0  0
M  END
> <PUBCHEM_COMPOUND_CID>
521351
> <PUBCHEM_COMPOUND_CANONICALIZED>
1
> <PUBCHEM_CACTVS_COMPLEXITY>
397
> <PUBCHEM_CACTVS_HBOND_ACCEPTOR>
5
> <PUBCHEM_CACTVS_HBOND_DONOR>
0
> <PUBCHEM_CACTVS_ROTATABLE_BOND>
1
> <PUBCHEM_CACTVS_SUBSKEYS>
AAADccBwMYAAAAAAAAAAAAAAAAAAAYMAAAAwAAAAAAAAAAAAAAAAGwAAAAAADwSAgBACAAAAAAAIAIAQAAAAAAAAAAAAAAEAAAAAABIIAAAAAAAAAAAAAAEIiMCPgAAAAAAAAACAAAQAACAAAQAACAAAAA==
> <PUBCHEM_IUPAC_OPENEYE_NAME>
1,7,7-trimethyl-3-(2,2,2-trifluoroacetyl)norbornan-2-one
> <PUBCHEM_IUPAC_CAS_NAME>
1,7,7-trimethyl-3-(2,2,2-trifluoro-1-oxoethyl)-2-bicyclo[2.2.1]heptanone
> <PUBCHEM_IUPAC_NAME_MARKUP>
1,7,7-trimethyl-3-(2,2,2-trifluoroacetyl)bicyclo[2.2.1]heptan-2-one
> <PUBCHEM_IUPAC_NAME>
1,7,7-trimethyl-3-(2,2,2-trifluoroacetyl)bicyclo[2.2.1]heptan-2-one
> <PUBCHEM_IUPAC_SYSTEMATIC_NAME>
1,7,7-trimethyl-3-[2,2,2-tris(fluoranyl)ethanoyl]bicyclo[2.2.1]heptan-2-one
> <PUBCHEM_IUPAC_TRADITIONAL_NAME>
1,7,7-trimethyl-3-(2,2,2-trifluoroacetyl)norbornan-2-one
> <PUBCHEM_IUPAC_INCHI>
InChI=1S/C12H15F3O2/c1-10(2)6-4-5-11(10,3)8(16)7(6)9(17)12(13,14)15/h6-7H,4-5H2,1-3H3
> <PUBCHEM_IUPAC_INCHIKEY>
ISLOIHOAZDSEAJ-UHFFFAOYSA-N
> <PUBCHEM_XLOGP3_AA>
3.3
> <PUBCHEM_EXACT_MASS>
248.10241420
> <PUBCHEM_MOLECULAR_FORMULA>
C12H15F3O2
> <PUBCHEM_MOLECULAR_WEIGHT>
248.24
> <PUBCHEM_OPENEYE_CAN_SMILES>
CC1(C2CCC1(C(=O)C2C(=O)C(F)(F)F)C)C
> <PUBCHEM_OPENEYE_ISO_SMILES>
CC1(C2CCC1(C(=O)C2C(=O)C(F)(F)F)C)C
> <PUBCHEM_CACTVS_TPSA>
34.1
> <PUBCHEM_MONOISOTOPIC_WEIGHT>
248.10241420
> <PUBCHEM_TOTAL_CHARGE>
0
> <PUBCHEM_HEAVY_ATOM_COUNT>
17
> <PUBCHEM_ATOM_DEF_STEREO_COUNT>
0
> <PUBCHEM_ATOM_UDEF_STEREO_COUNT>
3
> <PUBCHEM_BOND_DEF_STEREO_COUNT>
0
> <PUBCHEM_BOND_UDEF_STEREO_COUNT>
0
> <PUBCHEM_ISOTOPIC_ATOM_COUNT>
0
> <PUBCHEM_COMPONENT_COUNT>
1
> <PUBCHEM_CACTVS_TAUTO_COUNT>
3
> <PUBCHEM_COORDINATE_TYPE>
1
5
255
> <PUBCHEM_BONDANNOTATIONS>
10  16  3
7  15  3
8  11  3
$$$$
