521369
  -OEChem-10302200292D
 29 28  0     1  0  0  0  0  0999 V2000
    4.5981   -0.3660    0.0000 P   0  0  0  0  0  0  0  0  0  0  0  0
    3.7320   -0.8660    0.0000 O   0  0  0  0  0  0  0  0  0  0  0  0
    4.0981    0.5000    0.0000 O   0  0  0  0  0  0  0  0  0  0  0  0
    5.0981   -1.2320    0.0000 O   0  0  0  0  0  0  0  0  0  0  0  0
    6.3301   -1.3660    0.0000 O   0  0  0  0  0  0  0  0  0  0  0  0
    7.1962    0.1340    0.0000 N   0  0  0  0  0  0  0  0  0  0  0  0
    5.4641    0.1340    0.0000 C   0  0  3  0  0  0  0  0  0  0  0  0
    5.4641    1.1340    0.0000 C   0  0  0  0  0  0  0  0  0  0  0  0
    6.3301   -0.3660    0.0000 C   0  0  0  0  0  0  0  0  0  0  0  0
    2.8660   -0.3660    0.0000 C   0  0  0  0  0  0  0  0  0  0  0  0
    3.0981    0.5000    0.0000 C   0  0  0  0  0  0  0  0  0  0  0  0
    2.0000   -0.8660    0.0000 C   0  0  0  0  0  0  0  0  0  0  0  0
    2.5981    1.3660    0.0000 C   0  0  0  0  0  0  0  0  0  0  0  0
    4.9272    0.4440    0.0000 H   0  0  0  0  0  0  0  0  0  0  0  0
    6.0841    1.1340    0.0000 H   0  0  0  0  0  0  0  0  0  0  0  0
    5.4641    1.7540    0.0000 H   0  0  0  0  0  0  0  0  0  0  0  0
    4.8441    1.1340    0.0000 H   0  0  0  0  0  0  0  0  0  0  0  0
    3.2646    0.1089    0.0000 H   0  0  0  0  0  0  0  0  0  0  0  0
    2.4675    0.1089    0.0000 H   0  0  0  0  0  0  0  0  0  0  0  0
    2.5155    0.2879    0.0000 H   0  0  0  0  0  0  0  0  0  0  0  0
    3.2057   -0.1106    0.0000 H   0  0  0  0  0  0  0  0  0  0  0  0
    1.6900   -0.3291    0.0000 H   0  0  0  0  0  0  0  0  0  0  0  0
    1.4631   -1.1760    0.0000 H   0  0  0  0  0  0  0  0  0  0  0  0
    2.3100   -1.4030    0.0000 H   0  0  0  0  0  0  0  0  0  0  0  0
    3.1350    1.6760    0.0000 H   0  0  0  0  0  0  0  0  0  0  0  0
    2.2881    1.9030    0.0000 H   0  0  0  0  0  0  0  0  0  0  0  0
    2.0611    1.0560    0.0000 H   0  0  0  0  0  0  0  0  0  0  0  0
    7.7331   -0.1760    0.0000 H   0  0  0  0  0  0  0  0  0  0  0  0
    7.1962    0.7540    0.0000 H   0  0  0  0  0  0  0  0  0  0  0  0
  1  2  1  0  0  0  0
  1  3  1  0  0  0  0
  1  4  2  0  0  0  0
  1  7  1  0  0  0  0
  2 10  1  0  0  0  0
  3 11  1  0  0  0  0
  5  9  2  0  0  0  0
  6  9  1  0  0  0  0
  6 28  1  0  0  0  0
  6 29  1  0  0  0  0
  7  8  1  0  0  0  0
  7  9  1  0  0  0  0
  7 14  1  0  0  0  0
  8 15  1  0  0  0  0
  8 16  1  0  0  0  0
  8 17  1  0  0  0  0
 10 12  1  0  0  0  0
 10 18  1  0  0  0  0
 10 19  1  0  0  0  0
 11 13  1  0  0  0  0
 11 20  1  0  0  0  0
 11 21  1  0  0  0  0
 12 22  1  0  0  0  0
 12 23  1  0  0  0  0
 12 24  1  0  0  0  0
 13 25  1  0  0  0  0
 13 26  1  0  0  0  0
 13 27  1  0  0  0  0
M  END
> <PUBCHEM_COMPOUND_CID>
521369
> <PUBCHEM_COMPOUND_CANONICALIZED>
1
> <PUBCHEM_CACTVS_COMPLEXITY>
209
> <PUBCHEM_CACTVS_HBOND_ACCEPTOR>
4
> <PUBCHEM_CACTVS_HBOND_DONOR>
1
> <PUBCHEM_CACTVS_ROTATABLE_BOND>
6
> <PUBCHEM_CACTVS_SUBSKEYS>
AAADceBiOAIAAAAAAAAAAAAAAAAAAAAAAAAAAAAAAAAAAAAAAAAAHggQACAACACpgAICAABAARAIQAEQEIAAAAAAAAAAAAEAAAAAAAAAAAAAAAAAEAAAAAAAAAAAAAAAAAAAAAAAAAAAAAAAAAAAAAAAAA==
> <PUBCHEM_IUPAC_OPENEYE_NAME>
2-diethoxyphosphorylpropanamide
> <PUBCHEM_IUPAC_CAS_NAME>
2-diethoxyphosphorylpropanamide
> <PUBCHEM_IUPAC_NAME_MARKUP>
2-diethoxyphosphorylpropanamide
> <PUBCHEM_IUPAC_NAME>
2-diethoxyphosphorylpropanamide
> <PUBCHEM_IUPAC_SYSTEMATIC_NAME>
2-diethoxyphosphorylpropanamide
> <PUBCHEM_IUPAC_TRADITIONAL_NAME>
2-diethoxyphosphorylpropionamide
> <PUBCHEM_IUPAC_INCHI>
InChI=1S/C7H16NO4P/c1-4-11-13(10,12-5-2)6(3)7(8)9/h6H,4-5H2,1-3H3,(H2,8,9)
> <PUBCHEM_IUPAC_INCHIKEY>
OSGRVDNHAGXYME-UHFFFAOYSA-N
> <PUBCHEM_XLOGP3_AA>
-0.4
> <PUBCHEM_EXACT_MASS>
209.08169499
> <PUBCHEM_MOLECULAR_FORMULA>
C7H16NO4P
> <PUBCHEM_MOLECULAR_WEIGHT>
209.18
> <PUBCHEM_OPENEYE_CAN_SMILES>
CCOP(=O)(C(C)C(=O)N)OCC
> <PUBCHEM_OPENEYE_ISO_SMILES>
CCOP(=O)(C(C)C(=O)N)OCC
> <PUBCHEM_CACTVS_TPSA>
78.6
> <PUBCHEM_MONOISOTOPIC_WEIGHT>
209.08169499
> <PUBCHEM_TOTAL_CHARGE>
0
> <PUBCHEM_HEAVY_ATOM_COUNT>
13
> <PUBCHEM_ATOM_DEF_STEREO_COUNT>
0
> <PUBCHEM_ATOM_UDEF_STEREO_COUNT>
1
> <PUBCHEM_BOND_DEF_STEREO_COUNT>
0
> <PUBCHEM_BOND_UDEF_STEREO_COUNT>
0
> <PUBCHEM_ISOTOPIC_ATOM_COUNT>
0
> <PUBCHEM_COMPONENT_COUNT>
1
> <PUBCHEM_CACTVS_TAUTO_COUNT>
-1
> <PUBCHEM_COORDINATE_TYPE>
1
5
255
> <PUBCHEM_BONDANNOTATIONS>
7  8  3
$$$$
