521475
  -OEChem-10302200292D
 37 38  0     1  0  0  0  0  0999 V2000
    3.1360    1.0000    0.0000 O   0  0  0  0  0  0  0  0  0  0  0  0
    4.8418    1.3008    0.0000 O   0  0  0  0  0  0  0  0  0  0  0  0
    2.3985   -0.6532    0.0000 N   0  0  0  0  0  0  0  0  0  0  0  0
    4.2494   -0.3268    0.0000 C   0  0  3  0  0  0  0  0  0  0  0  0
    3.3833   -0.8268    0.0000 C   0  0  3  0  0  0  0  0  0  0  0  0
    5.1154   -0.8268    0.0000 C   0  0  0  0  0  0  0  0  0  0  0  0
    5.1154   -1.8268    0.0000 C   0  0  0  0  0  0  0  0  0  0  0  0
    4.7494    0.5392    0.0000 C   0  0  0  0  0  0  0  0  0  0  0  0
    3.3833   -1.8268    0.0000 C   0  0  0  0  0  0  0  0  0  0  0  0
    4.0757    0.6580    0.0000 C   0  0  0  0  0  0  0  0  0  0  0  0
    4.2494   -2.3268    0.0000 C   0  0  0  0  0  0  0  0  0  0  0  0
    4.2494    1.4052    0.0000 C   0  0  0  0  0  0  0  0  0  0  0  0
    5.7494    0.5392    0.0000 C   0  0  0  0  0  0  0  0  0  0  0  0
    4.7494    2.2713    0.0000 C   0  0  0  0  0  0  0  0  0  0  0  0
    6.2494    1.4052    0.0000 C   0  0  0  0  0  0  0  0  0  0  0  0
    5.7494    2.2713    0.0000 C   0  0  0  0  0  0  0  0  0  0  0  0
    2.9624    1.9848    0.0000 C   0  0  0  0  0  0  0  0  0  0  0  0
    2.0227    2.3268    0.0000 C   0  0  0  0  0  0  0  0  0  0  0  0
    3.2757   -0.2162    0.0000 H   0  0  0  0  0  0  0  0  0  0  0  0
    5.7260   -0.9345    0.0000 H   0  0  0  0  0  0  0  0  0  0  0  0
    5.3274   -0.2442    0.0000 H   0  0  0  0  0  0  0  0  0  0  0  0
    5.3274   -2.4094    0.0000 H   0  0  0  0  0  0  0  0  0  0  0  0
    5.7260   -1.7192    0.0000 H   0  0  0  0  0  0  0  0  0  0  0  0
    2.8464   -2.1368    0.0000 H   0  0  0  0  0  0  0  0  0  0  0  0
    4.2494   -2.9468    0.0000 H   0  0  0  0  0  0  0  0  0  0  0  0
    2.0000   -1.1281    0.0000 H   0  0  0  0  0  0  0  0  0  0  0  0
    2.1865   -0.0706    0.0000 H   0  0  0  0  0  0  0  0  0  0  0  0
    3.6294    1.4052    0.0000 H   0  0  0  0  0  0  0  0  0  0  0  0
    6.0594    0.0023    0.0000 H   0  0  0  0  0  0  0  0  0  0  0  0
    4.4394    2.8082    0.0000 H   0  0  0  0  0  0  0  0  0  0  0  0
    6.8694    1.4052    0.0000 H   0  0  0  0  0  0  0  0  0  0  0  0
    6.0594    2.8082    0.0000 H   0  0  0  0  0  0  0  0  0  0  0  0
    3.5824    1.9848    0.0000 H   0  0  0  0  0  0  0  0  0  0  0  0
    3.0700    2.5954    0.0000 H   0  0  0  0  0  0  0  0  0  0  0  0
    2.2347    2.9094    0.0000 H   0  0  0  0  0  0  0  0  0  0  0  0
    1.4401    2.5389    0.0000 H   0  0  0  0  0  0  0  0  0  0  0  0
    1.8106    1.7442    0.0000 H   0  0  0  0  0  0  0  0  0  0  0  0
  1 10  1  0  0  0  0
  1 17  1  0  0  0  0
  2 10  2  0  0  0  0
  3  5  1  0  0  0  0
  3 26  1  0  0  0  0
  3 27  1  0  0  0  0
  4  5  1  0  0  0  0
  4  6  1  0  0  0  0
  4  8  1  0  0  0  0
  4 10  1  0  0  0  0
  5  9  1  0  0  0  0
  5 19  1  0  0  0  0
  6  7  1  0  0  0  0
  6 20  1  0  0  0  0
  6 21  1  0  0  0  0
  7 11  1  0  0  0  0
  7 22  1  0  0  0  0
  7 23  1  0  0  0  0
  8 12  2  0  0  0  0
  8 13  1  0  0  0  0
  9 11  2  0  0  0  0
  9 24  1  0  0  0  0
 11 25  1  0  0  0  0
 12 14  1  0  0  0  0
 12 28  1  0  0  0  0
 13 15  2  0  0  0  0
 13 29  1  0  0  0  0
 14 16  2  0  0  0  0
 14 30  1  0  0  0  0
 15 16  1  0  0  0  0
 15 31  1  0  0  0  0
 16 32  1  0  0  0  0
 17 18  1  0  0  0  0
 17 33  1  0  0  0  0
 17 34  1  0  0  0  0
 18 35  1  0  0  0  0
 18 36  1  0  0  0  0
 18 37  1  0  0  0  0
M  END
> <PUBCHEM_COMPOUND_CID>
521475
> <PUBCHEM_COMPOUND_CANONICALIZED>
1
> <PUBCHEM_CACTVS_COMPLEXITY>
321
> <PUBCHEM_CACTVS_HBOND_ACCEPTOR>
3
> <PUBCHEM_CACTVS_HBOND_DONOR>
1
> <PUBCHEM_CACTVS_ROTATABLE_BOND>
4
> <PUBCHEM_CACTVS_SUBSKEYS>
AAADceByMAAAAAAAAAAAAAAAAAAAAAAAAAAwQAAAAAAAAAABAAAAHgAQAAAADijhmAYyCIBABACIAiDSCACCAAAgAAAIiIEAAIgIIDqAlRGCIAAm0AEIiAeYyOCPgAAAAAAAAAAAAAAAAAAAAAAAAAAAAA==
> <PUBCHEM_IUPAC_OPENEYE_NAME>
ethyl 2-amino-1-phenyl-cyclohex-3-ene-1-carboxylate
> <PUBCHEM_IUPAC_CAS_NAME>
2-amino-1-phenyl-1-cyclohex-3-enecarboxylic acid ethyl ester
> <PUBCHEM_IUPAC_NAME_MARKUP>
ethyl 2-amino-1-phenylcyclohex-3-ene-1-carboxylate
> <PUBCHEM_IUPAC_NAME>
ethyl 2-amino-1-phenylcyclohex-3-ene-1-carboxylate
> <PUBCHEM_IUPAC_SYSTEMATIC_NAME>
ethyl 2-azanyl-1-phenyl-cyclohex-3-ene-1-carboxylate
> <PUBCHEM_IUPAC_TRADITIONAL_NAME>
2-amino-1-phenyl-cyclohex-3-ene-1-carboxylic acid ethyl ester
> <PUBCHEM_IUPAC_INCHI>
InChI=1S/C15H19NO2/c1-2-18-14(17)15(11-7-6-10-13(15)16)12-8-4-3-5-9-12/h3-6,8-10,13H,2,7,11,16H2,1H3
> <PUBCHEM_IUPAC_INCHIKEY>
BTKAMSWFNMGLGM-UHFFFAOYSA-N
> <PUBCHEM_XLOGP3_AA>
2.6
> <PUBCHEM_EXACT_MASS>
245.141578849
> <PUBCHEM_MOLECULAR_FORMULA>
C15H19NO2
> <PUBCHEM_MOLECULAR_WEIGHT>
245.32
> <PUBCHEM_OPENEYE_CAN_SMILES>
CCOC(=O)C1(CCC=CC1N)C2=CC=CC=C2
> <PUBCHEM_OPENEYE_ISO_SMILES>
CCOC(=O)C1(CCC=CC1N)C2=CC=CC=C2
> <PUBCHEM_CACTVS_TPSA>
52.3
> <PUBCHEM_MONOISOTOPIC_WEIGHT>
245.141578849
> <PUBCHEM_TOTAL_CHARGE>
0
> <PUBCHEM_HEAVY_ATOM_COUNT>
18
> <PUBCHEM_ATOM_DEF_STEREO_COUNT>
0
> <PUBCHEM_ATOM_UDEF_STEREO_COUNT>
2
> <PUBCHEM_BOND_DEF_STEREO_COUNT>
0
> <PUBCHEM_BOND_UDEF_STEREO_COUNT>
0
> <PUBCHEM_ISOTOPIC_ATOM_COUNT>
0
> <PUBCHEM_COMPONENT_COUNT>
1
> <PUBCHEM_CACTVS_TAUTO_COUNT>
-1
> <PUBCHEM_COORDINATE_TYPE>
1
5
255
> <PUBCHEM_BONDANNOTATIONS>
12  14  8
13  15  8
14  16  8
15  16  8
5  3  3
4  8  3
8  12  8
8  13  8
$$$$
