521441
  -OEChem-10302200292D
 21 21  0     1  0  0  0  0  0999 V2000
    2.8660   -2.9050    0.0000 Br  0  0  0  0  0  0  0  0  0  0  0  0
    3.7320    2.5950    0.0000 O   0  0  0  0  0  0  0  0  0  0  0  0
    4.5981    1.0950    0.0000 O   0  0  0  0  0  0  0  0  0  0  0  0
    2.8660    1.0950    0.0000 C   0  0  3  0  0  0  0  0  0  0  0  0
    2.8660    0.0950    0.0000 C   0  0  0  0  0  0  0  0  0  0  0  0
    2.0000    1.5950    0.0000 C   0  0  0  0  0  0  0  0  0  0  0  0
    2.0000   -0.4050    0.0000 C   0  0  0  0  0  0  0  0  0  0  0  0
    3.7320   -0.4050    0.0000 C   0  0  0  0  0  0  0  0  0  0  0  0
    3.7320    1.5950    0.0000 C   0  0  0  0  0  0  0  0  0  0  0  0
    2.0000   -1.4050    0.0000 C   0  0  0  0  0  0  0  0  0  0  0  0
    3.7320   -1.4050    0.0000 C   0  0  0  0  0  0  0  0  0  0  0  0
    2.8660   -1.9050    0.0000 C   0  0  0  0  0  0  0  0  0  0  0  0
    2.8660    1.7150    0.0000 H   0  0  0  0  0  0  0  0  0  0  0  0
    2.3100    2.1319    0.0000 H   0  0  0  0  0  0  0  0  0  0  0  0
    1.4631    1.9050    0.0000 H   0  0  0  0  0  0  0  0  0  0  0  0
    1.6900    1.0581    0.0000 H   0  0  0  0  0  0  0  0  0  0  0  0
    1.4631   -0.0950    0.0000 H   0  0  0  0  0  0  0  0  0  0  0  0
    4.2690   -0.0950    0.0000 H   0  0  0  0  0  0  0  0  0  0  0  0
    1.4631   -1.7150    0.0000 H   0  0  0  0  0  0  0  0  0  0  0  0
    4.2690   -1.7150    0.0000 H   0  0  0  0  0  0  0  0  0  0  0  0
    4.2690    2.9050    0.0000 H   0  0  0  0  0  0  0  0  0  0  0  0
  1 12  1  0  0  0  0
  2  9  1  0  0  0  0
  2 21  1  0  0  0  0
  3  9  2  0  0  0  0
  4  5  1  0  0  0  0
  4  6  1  0  0  0  0
  4  9  1  0  0  0  0
  4 13  1  0  0  0  0
  5  7  2  0  0  0  0
  5  8  1  0  0  0  0
  6 14  1  0  0  0  0
  6 15  1  0  0  0  0
  6 16  1  0  0  0  0
  7 10  1  0  0  0  0
  7 17  1  0  0  0  0
  8 11  2  0  0  0  0
  8 18  1  0  0  0  0
 10 12  2  0  0  0  0
 10 19  1  0  0  0  0
 11 12  1  0  0  0  0
 11 20  1  0  0  0  0
M  END
> <PUBCHEM_COMPOUND_CID>
521441
> <PUBCHEM_COMPOUND_CANONICALIZED>
1
> <PUBCHEM_CACTVS_COMPLEXITY>
162
> <PUBCHEM_CACTVS_HBOND_ACCEPTOR>
2
> <PUBCHEM_CACTVS_HBOND_DONOR>
1
> <PUBCHEM_CACTVS_ROTATABLE_BOND>
2
> <PUBCHEM_CACTVS_SUBSKEYS>
AAADccBwMAAAEAAAAAAAAAAAAAAAAAAAAAAwAAAAAAAAAAABAAAAGgBACAABrQCAmAAyCIAAAgCIAiDSCAACAAAgAAQIiAEAAKgIIDKAFRCAYAAkwAEIiheIyOCOggAAAAAAAAAEAAAAAAAAAAAAAAAAAA==
> <PUBCHEM_IUPAC_OPENEYE_NAME>
2-(4-bromophenyl)propanoic acid
> <PUBCHEM_IUPAC_CAS_NAME>
2-(4-bromophenyl)propanoic acid
> <PUBCHEM_IUPAC_NAME_MARKUP>
2-(4-bromophenyl)propanoic acid
> <PUBCHEM_IUPAC_NAME>
2-(4-bromophenyl)propanoic acid
> <PUBCHEM_IUPAC_SYSTEMATIC_NAME>
2-(4-bromophenyl)propanoic acid
> <PUBCHEM_IUPAC_TRADITIONAL_NAME>
2-(4-bromophenyl)propionic acid
> <PUBCHEM_IUPAC_INCHI>
InChI=1S/C9H9BrO2/c1-6(9(11)12)7-2-4-8(10)5-3-7/h2-6H,1H3,(H,11,12)
> <PUBCHEM_IUPAC_INCHIKEY>
PFDBEACWLCHWRZ-UHFFFAOYSA-N
> <PUBCHEM_XLOGP3>
2.6
> <PUBCHEM_EXACT_MASS>
227.97859
> <PUBCHEM_MOLECULAR_FORMULA>
C9H9BrO2
> <PUBCHEM_MOLECULAR_WEIGHT>
229.07
> <PUBCHEM_OPENEYE_CAN_SMILES>
CC(C1=CC=C(C=C1)Br)C(=O)O
> <PUBCHEM_OPENEYE_ISO_SMILES>
CC(C1=CC=C(C=C1)Br)C(=O)O
> <PUBCHEM_CACTVS_TPSA>
37.3
> <PUBCHEM_MONOISOTOPIC_WEIGHT>
227.97859
> <PUBCHEM_TOTAL_CHARGE>
0
> <PUBCHEM_HEAVY_ATOM_COUNT>
12
> <PUBCHEM_ATOM_DEF_STEREO_COUNT>
0
> <PUBCHEM_ATOM_UDEF_STEREO_COUNT>
1
> <PUBCHEM_BOND_DEF_STEREO_COUNT>
0
> <PUBCHEM_BOND_UDEF_STEREO_COUNT>
0
> <PUBCHEM_ISOTOPIC_ATOM_COUNT>
0
> <PUBCHEM_COMPONENT_COUNT>
1
> <PUBCHEM_CACTVS_TAUTO_COUNT>
-1
> <PUBCHEM_COORDINATE_TYPE>
1
5
255
> <PUBCHEM_BONDANNOTATIONS>
10  12  8
11  12  8
4  6  3
5  7  8
5  8  8
7  10  8
8  11  8
$$$$
