521598
  -OEChem-10302200292D
 37 37  0     1  0  0  0  0  0999 V2000
    3.2601   -2.5869    0.0000 F   0  0  0  0  0  0  0  0  0  0  0  0
    2.0000   -1.9449    0.0000 F   0  0  0  0  0  0  0  0  0  0  0  0
    2.6420   -0.6848    0.0000 F   0  0  0  0  0  0  0  0  0  0  0  0
    5.0611   -0.0397    0.0000 O   0  0  0  0  0  0  0  0  0  0  0  0
    6.7553   -0.3998    0.0000 O   0  0  0  0  0  0  0  0  0  0  0  0
    4.1100   -0.3487    0.0000 O   0  0  0  0  0  0  0  0  0  0  0  0
    4.6453   -1.9960    0.0000 N   0  0  0  0  0  0  0  0  0  0  0  0
    8.0995   -2.6349    0.0000 N   0  0  0  0  0  0  0  0  0  0  0  0
    8.5995   -1.0960    0.0000 N   0  0  0  0  0  0  0  0  0  0  0  0
    5.5963   -1.6870    0.0000 C   0  0  3  0  0  0  0  0  0  0  0  0
    6.3395   -2.3561    0.0000 C   0  0  0  0  0  0  0  0  0  0  0  0
    7.2905   -2.0471    0.0000 C   0  0  0  0  0  0  0  0  0  0  0  0
    5.8042   -0.7088    0.0000 C   0  0  0  0  0  0  0  0  0  0  0  0
    4.5258    1.6076    0.0000 C   0  0  0  0  0  0  0  0  0  0  0  0
    5.2690    0.9385    0.0000 C   0  0  0  0  0  0  0  0  0  0  0  0
    4.7338    2.5857    0.0000 C   0  0  0  0  0  0  0  0  0  0  0  0
    7.5995   -1.0960    0.0000 C   0  0  0  0  0  0  0  0  0  0  0  0
    3.9021   -1.3268    0.0000 C   0  0  0  0  0  0  0  0  0  0  0  0
    3.9906    3.2549    0.0000 C   0  0  0  0  0  0  0  0  0  0  0  0
    8.9086   -2.0471    0.0000 C   0  0  0  0  0  0  0  0  0  0  0  0
    2.9511   -1.6359    0.0000 C   0  0  0  0  0  0  0  0  0  0  0  0
    5.4674   -2.2934    0.0000 H   0  0  0  0  0  0  0  0  0  0  0  0
    5.8509   -2.7378    0.0000 H   0  0  0  0  0  0  0  0  0  0  0  0
    6.6305   -2.9035    0.0000 H   0  0  0  0  0  0  0  0  0  0  0  0
    3.9510    1.8398    0.0000 H   0  0  0  0  0  0  0  0  0  0  0  0
    4.1973    1.0818    0.0000 H   0  0  0  0  0  0  0  0  0  0  0  0
    4.5164   -2.6024    0.0000 H   0  0  0  0  0  0  0  0  0  0  0  0
    5.8438    0.7062    0.0000 H   0  0  0  0  0  0  0  0  0  0  0  0
    5.5975    1.4642    0.0000 H   0  0  0  0  0  0  0  0  0  0  0  0
    5.3086    2.3535    0.0000 H   0  0  0  0  0  0  0  0  0  0  0  0
    5.0623    3.1115    0.0000 H   0  0  0  0  0  0  0  0  0  0  0  0
    8.0995   -3.2549    0.0000 H   0  0  0  0  0  0  0  0  0  0  0  0
    7.2351   -0.5944    0.0000 H   0  0  0  0  0  0  0  0  0  0  0  0
    4.4055    3.7156    0.0000 H   0  0  0  0  0  0  0  0  0  0  0  0
    3.5299    3.6697    0.0000 H   0  0  0  0  0  0  0  0  0  0  0  0
    3.5758    2.7941    0.0000 H   0  0  0  0  0  0  0  0  0  0  0  0
    9.4982   -2.2387    0.0000 H   0  0  0  0  0  0  0  0  0  0  0  0
  1 21  1  0  0  0  0
  2 21  1  0  0  0  0
  3 21  1  0  0  0  0
  4 13  1  0  0  0  0
  4 15  1  0  0  0  0
  5 13  2  0  0  0  0
  6 18  2  0  0  0  0
  7 10  1  0  0  0  0
  7 18  1  0  0  0  0
  7 27  1  0  0  0  0
  8 12  1  0  0  0  0
  8 20  1  0  0  0  0
  8 32  1  0  0  0  0
  9 17  1  0  0  0  0
  9 20  2  0  0  0  0
 10 11  1  0  0  0  0
 10 13  1  0  0  0  0
 10 22  1  0  0  0  0
 11 12  1  0  0  0  0
 11 23  1  0  0  0  0
 11 24  1  0  0  0  0
 12 17  2  0  0  0  0
 14 15  1  0  0  0  0
 14 16  1  0  0  0  0
 14 25  1  0  0  0  0
 14 26  1  0  0  0  0
 15 28  1  0  0  0  0
 15 29  1  0  0  0  0
 16 19  1  0  0  0  0
 16 30  1  0  0  0  0
 16 31  1  0  0  0  0
 17 33  1  0  0  0  0
 18 21  1  0  0  0  0
 19 34  1  0  0  0  0
 19 35  1  0  0  0  0
 19 36  1  0  0  0  0
 20 37  1  0  0  0  0
M  END
> <PUBCHEM_COMPOUND_CID>
521598
> <PUBCHEM_COMPOUND_CANONICALIZED>
1
> <PUBCHEM_CACTVS_COMPLEXITY>
363
> <PUBCHEM_CACTVS_HBOND_ACCEPTOR>
7
> <PUBCHEM_CACTVS_HBOND_DONOR>
2
> <PUBCHEM_CACTVS_ROTATABLE_BOND>
8
> <PUBCHEM_CACTVS_SUBSKEYS>
AAADceBzMYAAAAAAAAAAAAAAAAAAAWAAAAAAAAAAAAAAAAABgAAAHwAQAAAACCjhlhYvmBbJlACoARX3fAAAgC2xEqABUYG4cAiCaBJA2SGXAAAMlgLQQCC8EQIAAAAAAAAAAAAAAAAAAAAAAAAAAAAAAA==
> <PUBCHEM_IUPAC_OPENEYE_NAME>
butyl 3-(1H-imidazol-5-yl)-2-[(2,2,2-trifluoroacetyl)amino]propanoate
> <PUBCHEM_IUPAC_CAS_NAME>
3-(1H-imidazol-5-yl)-2-[(2,2,2-trifluoro-1-oxoethyl)amino]propanoic acid butyl ester
> <PUBCHEM_IUPAC_NAME_MARKUP>
butyl 3-(1<I>H</I>-imidazol-5-yl)-2-[(2,2,2-trifluoroacetyl)amino]propanoate
> <PUBCHEM_IUPAC_NAME>
butyl 3-(1H-imidazol-5-yl)-2-[(2,2,2-trifluoroacetyl)amino]propanoate
> <PUBCHEM_IUPAC_SYSTEMATIC_NAME>
butyl 3-(1H-imidazol-5-yl)-2-[2,2,2-tris(fluoranyl)ethanoylamino]propanoate
> <PUBCHEM_IUPAC_TRADITIONAL_NAME>
3-(1H-imidazol-5-yl)-2-[(2,2,2-trifluoroacetyl)amino]propionic acid butyl ester
> <PUBCHEM_IUPAC_INCHI>
InChI=1S/C12H16F3N3O3/c1-2-3-4-21-10(19)9(5-8-6-16-7-17-8)18-11(20)12(13,14)15/h6-7,9H,2-5H2,1H3,(H,16,17)(H,18,20)
> <PUBCHEM_IUPAC_INCHIKEY>
CCHOJMDTLLJCED-UHFFFAOYSA-N
> <PUBCHEM_XLOGP3_AA>
2
> <PUBCHEM_EXACT_MASS>
307.11437587
> <PUBCHEM_MOLECULAR_FORMULA>
C12H16F3N3O3
> <PUBCHEM_MOLECULAR_WEIGHT>
307.27
> <PUBCHEM_OPENEYE_CAN_SMILES>
CCCCOC(=O)C(CC1=CN=CN1)NC(=O)C(F)(F)F
> <PUBCHEM_OPENEYE_ISO_SMILES>
CCCCOC(=O)C(CC1=CN=CN1)NC(=O)C(F)(F)F
> <PUBCHEM_CACTVS_TPSA>
84.1
> <PUBCHEM_MONOISOTOPIC_WEIGHT>
307.11437587
> <PUBCHEM_TOTAL_CHARGE>
0
> <PUBCHEM_HEAVY_ATOM_COUNT>
21
> <PUBCHEM_ATOM_DEF_STEREO_COUNT>
0
> <PUBCHEM_ATOM_UDEF_STEREO_COUNT>
1
> <PUBCHEM_BOND_DEF_STEREO_COUNT>
0
> <PUBCHEM_BOND_UDEF_STEREO_COUNT>
0
> <PUBCHEM_ISOTOPIC_ATOM_COUNT>
0
> <PUBCHEM_COMPONENT_COUNT>
1
> <PUBCHEM_CACTVS_TAUTO_COUNT>
-1
> <PUBCHEM_COORDINATE_TYPE>
1
5
255
> <PUBCHEM_BONDANNOTATIONS>
10  11  3
12  17  8
8  12  8
8  20  8
9  17  8
9  20  8
$$$$
