521602
  -OEChem-10302200292D
 83 82  0     1  0  0  0  0  0999 V2000
    8.0622   -0.4330    0.0000 C   0  0  3  0  0  0  0  0  0  0  0  0
    8.9282    0.0670    0.0000 C   0  0  0  0  0  0  0  0  0  0  0  0
    7.1962   -0.9330    0.0000 C   0  0  0  0  0  0  0  0  0  0  0  0
    7.5622    0.4330    0.0000 C   0  0  0  0  0  0  0  0  0  0  0  0
    8.5622   -1.2990    0.0000 C   0  0  0  0  0  0  0  0  0  0  0  0
    9.7942   -0.4330    0.0000 C   0  0  0  0  0  0  0  0  0  0  0  0
    6.3301   -0.4330    0.0000 C   0  0  0  0  0  0  0  0  0  0  0  0
    8.0622    1.2990    0.0000 C   0  0  0  0  0  0  0  0  0  0  0  0
    8.0622   -2.1651    0.0000 C   0  0  0  0  0  0  0  0  0  0  0  0
   10.6603    0.0670    0.0000 C   0  0  0  0  0  0  0  0  0  0  0  0
    5.4641   -0.9330    0.0000 C   0  0  0  0  0  0  0  0  0  0  0  0
    7.5622    2.1651    0.0000 C   0  0  0  0  0  0  0  0  0  0  0  0
    8.5622   -3.0311    0.0000 C   0  0  0  0  0  0  0  0  0  0  0  0
   11.5263   -0.4330    0.0000 C   0  0  0  0  0  0  0  0  0  0  0  0
    4.5981   -0.4330    0.0000 C   0  0  0  0  0  0  0  0  0  0  0  0
    8.0622    3.0311    0.0000 C   0  0  0  0  0  0  0  0  0  0  0  0
    8.0622   -3.8971    0.0000 C   0  0  0  0  0  0  0  0  0  0  0  0
   12.3923    0.0670    0.0000 C   0  0  0  0  0  0  0  0  0  0  0  0
    3.7320   -0.9330    0.0000 C   0  0  0  0  0  0  0  0  0  0  0  0
    7.5622    3.8971    0.0000 C   0  0  0  0  0  0  0  0  0  0  0  0
   13.2583   -0.4330    0.0000 C   0  0  0  0  0  0  0  0  0  0  0  0
    8.5622   -4.7631    0.0000 C   0  0  0  0  0  0  0  0  0  0  0  0
    2.8660   -0.4330    0.0000 C   0  0  0  0  0  0  0  0  0  0  0  0
    8.0622    4.7631    0.0000 C   0  0  0  0  0  0  0  0  0  0  0  0
   14.1244    0.0670    0.0000 C   0  0  0  0  0  0  0  0  0  0  0  0
    2.0000   -0.9330    0.0000 C   0  0  0  0  0  0  0  0  0  0  0  0
   14.9904   -0.4330    0.0000 C   0  0  0  0  0  0  0  0  0  0  0  0
    9.3267    0.5419    0.0000 H   0  0  0  0  0  0  0  0  0  0  0  0
    8.5297    0.5419    0.0000 H   0  0  0  0  0  0  0  0  0  0  0  0
    6.7976   -1.4080    0.0000 H   0  0  0  0  0  0  0  0  0  0  0  0
    7.5947   -1.4080    0.0000 H   0  0  0  0  0  0  0  0  0  0  0  0
    7.0872    0.8315    0.0000 H   0  0  0  0  0  0  0  0  0  0  0  0
    7.0872    0.0345    0.0000 H   0  0  0  0  0  0  0  0  0  0  0  0
    9.0371   -1.6976    0.0000 H   0  0  0  0  0  0  0  0  0  0  0  0
    9.0371   -0.9005    0.0000 H   0  0  0  0  0  0  0  0  0  0  0  0
    9.3957   -0.9080    0.0000 H   0  0  0  0  0  0  0  0  0  0  0  0
   10.1928   -0.9080    0.0000 H   0  0  0  0  0  0  0  0  0  0  0  0
    6.7287    0.0419    0.0000 H   0  0  0  0  0  0  0  0  0  0  0  0
    5.9316    0.0419    0.0000 H   0  0  0  0  0  0  0  0  0  0  0  0
    8.5371    0.9005    0.0000 H   0  0  0  0  0  0  0  0  0  0  0  0
    8.5371    1.6976    0.0000 H   0  0  0  0  0  0  0  0  0  0  0  0
    7.5872   -1.7665    0.0000 H   0  0  0  0  0  0  0  0  0  0  0  0
    7.5872   -2.5636    0.0000 H   0  0  0  0  0  0  0  0  0  0  0  0
   11.0588    0.5419    0.0000 H   0  0  0  0  0  0  0  0  0  0  0  0
   10.2617    0.5419    0.0000 H   0  0  0  0  0  0  0  0  0  0  0  0
    5.0656   -1.4080    0.0000 H   0  0  0  0  0  0  0  0  0  0  0  0
    5.8626   -1.4080    0.0000 H   0  0  0  0  0  0  0  0  0  0  0  0
    7.0872    2.5636    0.0000 H   0  0  0  0  0  0  0  0  0  0  0  0
    7.0872    1.7665    0.0000 H   0  0  0  0  0  0  0  0  0  0  0  0
    9.0371   -3.4296    0.0000 H   0  0  0  0  0  0  0  0  0  0  0  0
    9.0371   -2.6326    0.0000 H   0  0  0  0  0  0  0  0  0  0  0  0
   11.1278   -0.9080    0.0000 H   0  0  0  0  0  0  0  0  0  0  0  0
   11.9248   -0.9080    0.0000 H   0  0  0  0  0  0  0  0  0  0  0  0
    4.9966    0.0419    0.0000 H   0  0  0  0  0  0  0  0  0  0  0  0
    4.1996    0.0419    0.0000 H   0  0  0  0  0  0  0  0  0  0  0  0
    8.5371    2.6326    0.0000 H   0  0  0  0  0  0  0  0  0  0  0  0
    8.5371    3.4296    0.0000 H   0  0  0  0  0  0  0  0  0  0  0  0
    7.5872   -3.4986    0.0000 H   0  0  0  0  0  0  0  0  0  0  0  0
    7.5872   -4.2956    0.0000 H   0  0  0  0  0  0  0  0  0  0  0  0
   12.7908    0.5419    0.0000 H   0  0  0  0  0  0  0  0  0  0  0  0
   11.9938    0.5419    0.0000 H   0  0  0  0  0  0  0  0  0  0  0  0
    3.3335   -1.4080    0.0000 H   0  0  0  0  0  0  0  0  0  0  0  0
    4.1306   -1.4080    0.0000 H   0  0  0  0  0  0  0  0  0  0  0  0
    7.0872    4.2956    0.0000 H   0  0  0  0  0  0  0  0  0  0  0  0
    7.0872    3.4986    0.0000 H   0  0  0  0  0  0  0  0  0  0  0  0
   12.8598   -0.9080    0.0000 H   0  0  0  0  0  0  0  0  0  0  0  0
   13.6569   -0.9080    0.0000 H   0  0  0  0  0  0  0  0  0  0  0  0
    8.0252   -5.0731    0.0000 H   0  0  0  0  0  0  0  0  0  0  0  0
    8.8722   -5.3001    0.0000 H   0  0  0  0  0  0  0  0  0  0  0  0
    9.0991   -4.4531    0.0000 H   0  0  0  0  0  0  0  0  0  0  0  0
    3.2646    0.0419    0.0000 H   0  0  0  0  0  0  0  0  0  0  0  0
    2.4675    0.0419    0.0000 H   0  0  0  0  0  0  0  0  0  0  0  0
    8.5991    4.4531    0.0000 H   0  0  0  0  0  0  0  0  0  0  0  0
    8.3722    5.3001    0.0000 H   0  0  0  0  0  0  0  0  0  0  0  0
    7.5252    5.0731    0.0000 H   0  0  0  0  0  0  0  0  0  0  0  0
   14.5229    0.5419    0.0000 H   0  0  0  0  0  0  0  0  0  0  0  0
   13.7258    0.5419    0.0000 H   0  0  0  0  0  0  0  0  0  0  0  0
    1.6900   -0.3961    0.0000 H   0  0  0  0  0  0  0  0  0  0  0  0
    1.4631   -1.2430    0.0000 H   0  0  0  0  0  0  0  0  0  0  0  0
    2.3100   -1.4700    0.0000 H   0  0  0  0  0  0  0  0  0  0  0  0
   14.6804   -0.9699    0.0000 H   0  0  0  0  0  0  0  0  0  0  0  0
   15.5273   -0.7430    0.0000 H   0  0  0  0  0  0  0  0  0  0  0  0
   15.3004    0.1039    0.0000 H   0  0  0  0  0  0  0  0  0  0  0  0
  1  2  1  0  0  0  0
  1  3  1  0  0  0  0
  1  4  1  0  0  0  0
  1  5  1  0  0  0  0
  2  6  1  0  0  0  0
  2 28  1  0  0  0  0
  2 29  1  0  0  0  0
  3  7  1  0  0  0  0
  3 30  1  0  0  0  0
  3 31  1  0  0  0  0
  4  8  1  0  0  0  0
  4 32  1  0  0  0  0
  4 33  1  0  0  0  0
  5  9  1  0  0  0  0
  5 34  1  0  0  0  0
  5 35  1  0  0  0  0
  6 10  1  0  0  0  0
  6 36  1  0  0  0  0
  6 37  1  0  0  0  0
  7 11  1  0  0  0  0
  7 38  1  0  0  0  0
  7 39  1  0  0  0  0
  8 12  1  0  0  0  0
  8 40  1  0  0  0  0
  8 41  1  0  0  0  0
  9 13  1  0  0  0  0
  9 42  1  0  0  0  0
  9 43  1  0  0  0  0
 10 14  1  0  0  0  0
 10 44  1  0  0  0  0
 10 45  1  0  0  0  0
 11 15  1  0  0  0  0
 11 46  1  0  0  0  0
 11 47  1  0  0  0  0
 12 16  1  0  0  0  0
 12 48  1  0  0  0  0
 12 49  1  0  0  0  0
 13 17  1  0  0  0  0
 13 50  1  0  0  0  0
 13 51  1  0  0  0  0
 14 18  1  0  0  0  0
 14 52  1  0  0  0  0
 14 53  1  0  0  0  0
 15 19  1  0  0  0  0
 15 54  1  0  0  0  0
 15 55  1  0  0  0  0
 16 20  1  0  0  0  0
 16 56  1  0  0  0  0
 16 57  1  0  0  0  0
 17 22  1  0  0  0  0
 17 58  1  0  0  0  0
 17 59  1  0  0  0  0
 18 21  1  0  0  0  0
 18 60  1  0  0  0  0
 18 61  1  0  0  0  0
 19 23  1  0  0  0  0
 19 62  1  0  0  0  0
 19 63  1  0  0  0  0
 20 24  1  0  0  0  0
 20 64  1  0  0  0  0
 20 65  1  0  0  0  0
 21 25  1  0  0  0  0
 21 66  1  0  0  0  0
 21 67  1  0  0  0  0
 22 68  1  0  0  0  0
 22 69  1  0  0  0  0
 22 70  1  0  0  0  0
 23 26  1  0  0  0  0
 23 71  1  0  0  0  0
 23 72  1  0  0  0  0
 24 73  1  0  0  0  0
 24 74  1  0  0  0  0
 24 75  1  0  0  0  0
 25 27  1  0  0  0  0
 25 76  1  0  0  0  0
 25 77  1  0  0  0  0
 26 78  1  0  0  0  0
 26 79  1  0  0  0  0
 26 80  1  0  0  0  0
 27 81  1  0  0  0  0
 27 82  1  0  0  0  0
 27 83  1  0  0  0  0
M  END
> <PUBCHEM_COMPOUND_CID>
521602
> <PUBCHEM_COMPOUND_CANONICALIZED>
1
> <PUBCHEM_CACTVS_COMPLEXITY>
269
> <PUBCHEM_CACTVS_HBOND_ACCEPTOR>
0
> <PUBCHEM_CACTVS_HBOND_DONOR>
0
> <PUBCHEM_CACTVS_ROTATABLE_BOND>
22
> <PUBCHEM_CACTVS_SUBSKEYS>
AAADcfB4AAAAAAAAAAAAAAAAAAAAAAAAAAAAAAAAAAAAAAAAAAAAGAAAAAAADgCAAAACAAAAAAAAAAAAAAAAAAAAAAAAAAAAAAAAAAIAAAAAAAAAAAAAAAEAgMAPAAAAAAAAAAAAAAAAAAAAAAAAAAAAAA==
> <PUBCHEM_IUPAC_OPENEYE_NAME>
8-hexyl-8-pentyl-hexadecane
> <PUBCHEM_IUPAC_CAS_NAME>
8-hexyl-8-pentylhexadecane
> <PUBCHEM_IUPAC_NAME_MARKUP>
8-hexyl-8-pentylhexadecane
> <PUBCHEM_IUPAC_NAME>
8-hexyl-8-pentylhexadecane
> <PUBCHEM_IUPAC_SYSTEMATIC_NAME>
8-hexyl-8-pentyl-hexadecane
> <PUBCHEM_IUPAC_TRADITIONAL_NAME>
8-amyl-8-hexyl-hexadecane
> <PUBCHEM_IUPAC_INCHI>
InChI=1S/C27H56/c1-5-9-13-16-18-22-26-27(23-19-12-8-4,24-20-15-11-7-3)25-21-17-14-10-6-2/h5-26H2,1-4H3
> <PUBCHEM_IUPAC_INCHIKEY>
RZBHZICXTQDTLO-UHFFFAOYSA-N
> <PUBCHEM_XLOGP3_AA>
14.4
> <PUBCHEM_EXACT_MASS>
380.438201786
> <PUBCHEM_MOLECULAR_FORMULA>
C27H56
> <PUBCHEM_MOLECULAR_WEIGHT>
380.7
> <PUBCHEM_OPENEYE_CAN_SMILES>
CCCCCCCCC(CCCCC)(CCCCCC)CCCCCCC
> <PUBCHEM_OPENEYE_ISO_SMILES>
CCCCCCCCC(CCCCC)(CCCCCC)CCCCCCC
> <PUBCHEM_CACTVS_TPSA>
0
> <PUBCHEM_MONOISOTOPIC_WEIGHT>
380.438201786
> <PUBCHEM_TOTAL_CHARGE>
0
> <PUBCHEM_HEAVY_ATOM_COUNT>
27
> <PUBCHEM_ATOM_DEF_STEREO_COUNT>
0
> <PUBCHEM_ATOM_UDEF_STEREO_COUNT>
1
> <PUBCHEM_BOND_DEF_STEREO_COUNT>
0
> <PUBCHEM_BOND_UDEF_STEREO_COUNT>
0
> <PUBCHEM_ISOTOPIC_ATOM_COUNT>
0
> <PUBCHEM_COMPONENT_COUNT>
1
> <PUBCHEM_CACTVS_TAUTO_COUNT>
1
> <PUBCHEM_COORDINATE_TYPE>
1
5
255
> <PUBCHEM_BONDANNOTATIONS>
1  5  3
$$$$
