521778
  -OEChem-10302200292D
107106  0     1  0  0  0  0  0999 V2000
   17.5885    0.2500    0.0000 C   0  0  3  0  0  0  0  0  0  0  0  0
   21.0526    0.2500    0.0000 C   0  0  3  0  0  0  0  0  0  0  0  0
   18.4545    0.7500    0.0000 C   0  0  0  0  0  0  0  0  0  0  0  0
   20.1865    0.7500    0.0000 C   0  0  0  0  0  0  0  0  0  0  0  0
   19.3205    0.2500    0.0000 C   0  0  0  0  0  0  0  0  0  0  0  0
   16.7224    0.7500    0.0000 C   0  0  0  0  0  0  0  0  0  0  0  0
   21.9186    0.7500    0.0000 C   0  0  0  0  0  0  0  0  0  0  0  0
   15.8564    0.2500    0.0000 C   0  0  0  0  0  0  0  0  0  0  0  0
   22.7846    0.2500    0.0000 C   0  0  0  0  0  0  0  0  0  0  0  0
   14.9904    0.7500    0.0000 C   0  0  0  0  0  0  0  0  0  0  0  0
   17.5885   -0.7500    0.0000 C   0  0  0  0  0  0  0  0  0  0  0  0
   21.0526   -0.7500    0.0000 C   0  0  0  0  0  0  0  0  0  0  0  0
   23.6506    0.7500    0.0000 C   0  0  0  0  0  0  0  0  0  0  0  0
   14.1244    0.2500    0.0000 C   0  0  0  0  0  0  0  0  0  0  0  0
   13.2583    0.7500    0.0000 C   0  0  0  0  0  0  0  0  0  0  0  0
   24.5167    0.2500    0.0000 C   0  0  0  0  0  0  0  0  0  0  0  0
   12.3923    0.2500    0.0000 C   0  0  0  0  0  0  0  0  0  0  0  0
   11.5263    0.7500    0.0000 C   0  0  0  0  0  0  0  0  0  0  0  0
   25.3827    0.7500    0.0000 C   0  0  0  0  0  0  0  0  0  0  0  0
   10.6603    0.2500    0.0000 C   0  0  0  0  0  0  0  0  0  0  0  0
    9.7942    0.7500    0.0000 C   0  0  0  0  0  0  0  0  0  0  0  0
   26.2487    0.2500    0.0000 C   0  0  0  0  0  0  0  0  0  0  0  0
    8.9282    0.2500    0.0000 C   0  0  0  0  0  0  0  0  0  0  0  0
    8.0622    0.7500    0.0000 C   0  0  0  0  0  0  0  0  0  0  0  0
    7.1962    0.2500    0.0000 C   0  0  0  0  0  0  0  0  0  0  0  0
   27.1147    0.7500    0.0000 C   0  0  0  0  0  0  0  0  0  0  0  0
    6.3301    0.7500    0.0000 C   0  0  0  0  0  0  0  0  0  0  0  0
    5.4641    0.2500    0.0000 C   0  0  0  0  0  0  0  0  0  0  0  0
   27.9808    0.2500    0.0000 C   0  0  0  0  0  0  0  0  0  0  0  0
    4.5981    0.7500    0.0000 C   0  0  0  0  0  0  0  0  0  0  0  0
   28.8468    0.7500    0.0000 C   0  0  0  0  0  0  0  0  0  0  0  0
    3.7320    0.2500    0.0000 C   0  0  0  0  0  0  0  0  0  0  0  0
    2.8660    0.7500    0.0000 C   0  0  0  0  0  0  0  0  0  0  0  0
   29.7128    0.2500    0.0000 C   0  0  0  0  0  0  0  0  0  0  0  0
    2.0000    0.2500    0.0000 C   0  0  0  0  0  0  0  0  0  0  0  0
   18.1254   -0.0600    0.0000 H   0  0  0  0  0  0  0  0  0  0  0  0
   21.5895   -0.0600    0.0000 H   0  0  0  0  0  0  0  0  0  0  0  0
   18.8530    1.2250    0.0000 H   0  0  0  0  0  0  0  0  0  0  0  0
   18.0560    1.2250    0.0000 H   0  0  0  0  0  0  0  0  0  0  0  0
   20.5851    1.2250    0.0000 H   0  0  0  0  0  0  0  0  0  0  0  0
   19.7880    1.2250    0.0000 H   0  0  0  0  0  0  0  0  0  0  0  0
   18.9220   -0.2249    0.0000 H   0  0  0  0  0  0  0  0  0  0  0  0
   19.7190   -0.2249    0.0000 H   0  0  0  0  0  0  0  0  0  0  0  0
   17.1210    1.2250    0.0000 H   0  0  0  0  0  0  0  0  0  0  0  0
   16.3239    1.2250    0.0000 H   0  0  0  0  0  0  0  0  0  0  0  0
   22.3171    1.2250    0.0000 H   0  0  0  0  0  0  0  0  0  0  0  0
   21.5201    1.2250    0.0000 H   0  0  0  0  0  0  0  0  0  0  0  0
   15.4579   -0.2249    0.0000 H   0  0  0  0  0  0  0  0  0  0  0  0
   16.2549   -0.2249    0.0000 H   0  0  0  0  0  0  0  0  0  0  0  0
   22.3861   -0.2249    0.0000 H   0  0  0  0  0  0  0  0  0  0  0  0
   23.1831   -0.2249    0.0000 H   0  0  0  0  0  0  0  0  0  0  0  0
   15.3889    1.2250    0.0000 H   0  0  0  0  0  0  0  0  0  0  0  0
   14.5919    1.2250    0.0000 H   0  0  0  0  0  0  0  0  0  0  0  0
   16.9685   -0.7500    0.0000 H   0  0  0  0  0  0  0  0  0  0  0  0
   17.5885   -1.3700    0.0000 H   0  0  0  0  0  0  0  0  0  0  0  0
   18.2085   -0.7500    0.0000 H   0  0  0  0  0  0  0  0  0  0  0  0
   20.4326   -0.7500    0.0000 H   0  0  0  0  0  0  0  0  0  0  0  0
   21.0526   -1.3700    0.0000 H   0  0  0  0  0  0  0  0  0  0  0  0
   21.6726   -0.7500    0.0000 H   0  0  0  0  0  0  0  0  0  0  0  0
   24.0492    1.2250    0.0000 H   0  0  0  0  0  0  0  0  0  0  0  0
   23.2521    1.2250    0.0000 H   0  0  0  0  0  0  0  0  0  0  0  0
   13.7258   -0.2249    0.0000 H   0  0  0  0  0  0  0  0  0  0  0  0
   14.5229   -0.2249    0.0000 H   0  0  0  0  0  0  0  0  0  0  0  0
   13.6569    1.2250    0.0000 H   0  0  0  0  0  0  0  0  0  0  0  0
   12.8598    1.2250    0.0000 H   0  0  0  0  0  0  0  0  0  0  0  0
   24.1181   -0.2249    0.0000 H   0  0  0  0  0  0  0  0  0  0  0  0
   24.9152   -0.2249    0.0000 H   0  0  0  0  0  0  0  0  0  0  0  0
   11.9938   -0.2249    0.0000 H   0  0  0  0  0  0  0  0  0  0  0  0
   12.7908   -0.2249    0.0000 H   0  0  0  0  0  0  0  0  0  0  0  0
   11.9248    1.2250    0.0000 H   0  0  0  0  0  0  0  0  0  0  0  0
   11.1278    1.2250    0.0000 H   0  0  0  0  0  0  0  0  0  0  0  0
   25.7812    1.2250    0.0000 H   0  0  0  0  0  0  0  0  0  0  0  0
   24.9842    1.2250    0.0000 H   0  0  0  0  0  0  0  0  0  0  0  0
   10.2617   -0.2249    0.0000 H   0  0  0  0  0  0  0  0  0  0  0  0
   11.0588   -0.2249    0.0000 H   0  0  0  0  0  0  0  0  0  0  0  0
   10.1928    1.2250    0.0000 H   0  0  0  0  0  0  0  0  0  0  0  0
    9.3957    1.2250    0.0000 H   0  0  0  0  0  0  0  0  0  0  0  0
   25.8502   -0.2249    0.0000 H   0  0  0  0  0  0  0  0  0  0  0  0
   26.6472   -0.2249    0.0000 H   0  0  0  0  0  0  0  0  0  0  0  0
    8.5297   -0.2249    0.0000 H   0  0  0  0  0  0  0  0  0  0  0  0
    9.3267   -0.2249    0.0000 H   0  0  0  0  0  0  0  0  0  0  0  0
    8.4607    1.2250    0.0000 H   0  0  0  0  0  0  0  0  0  0  0  0
    7.6636    1.2250    0.0000 H   0  0  0  0  0  0  0  0  0  0  0  0
    6.7976   -0.2249    0.0000 H   0  0  0  0  0  0  0  0  0  0  0  0
    7.5947   -0.2249    0.0000 H   0  0  0  0  0  0  0  0  0  0  0  0
   27.5133    1.2250    0.0000 H   0  0  0  0  0  0  0  0  0  0  0  0
   26.7162    1.2250    0.0000 H   0  0  0  0  0  0  0  0  0  0  0  0
    6.7287    1.2250    0.0000 H   0  0  0  0  0  0  0  0  0  0  0  0
    5.9316    1.2250    0.0000 H   0  0  0  0  0  0  0  0  0  0  0  0
    5.0656   -0.2249    0.0000 H   0  0  0  0  0  0  0  0  0  0  0  0
    5.8626   -0.2249    0.0000 H   0  0  0  0  0  0  0  0  0  0  0  0
   27.5822   -0.2249    0.0000 H   0  0  0  0  0  0  0  0  0  0  0  0
   28.3793   -0.2249    0.0000 H   0  0  0  0  0  0  0  0  0  0  0  0
    4.9966    1.2250    0.0000 H   0  0  0  0  0  0  0  0  0  0  0  0
    4.1996    1.2250    0.0000 H   0  0  0  0  0  0  0  0  0  0  0  0
   29.2453    1.2250    0.0000 H   0  0  0  0  0  0  0  0  0  0  0  0
   28.4483    1.2250    0.0000 H   0  0  0  0  0  0  0  0  0  0  0  0
    3.3335   -0.2249    0.0000 H   0  0  0  0  0  0  0  0  0  0  0  0
    4.1306   -0.2249    0.0000 H   0  0  0  0  0  0  0  0  0  0  0  0
    3.2646    1.2250    0.0000 H   0  0  0  0  0  0  0  0  0  0  0  0
    2.4675    1.2250    0.0000 H   0  0  0  0  0  0  0  0  0  0  0  0
   29.4028   -0.2869    0.0000 H   0  0  0  0  0  0  0  0  0  0  0  0
   30.2497   -0.0600    0.0000 H   0  0  0  0  0  0  0  0  0  0  0  0
   30.0228    0.7869    0.0000 H   0  0  0  0  0  0  0  0  0  0  0  0
    1.6900    0.7869    0.0000 H   0  0  0  0  0  0  0  0  0  0  0  0
    1.4631   -0.0600    0.0000 H   0  0  0  0  0  0  0  0  0  0  0  0
    2.3100   -0.2869    0.0000 H   0  0  0  0  0  0  0  0  0  0  0  0
  1  3  1  0  0  0  0
  1  6  1  0  0  0  0
  1 11  1  0  0  0  0
  1 36  1  0  0  0  0
  2  4  1  0  0  0  0
  2  7  1  0  0  0  0
  2 12  1  0  0  0  0
  2 37  1  0  0  0  0
  3  5  1  0  0  0  0
  3 38  1  0  0  0  0
  3 39  1  0  0  0  0
  4  5  1  0  0  0  0
  4 40  1  0  0  0  0
  4 41  1  0  0  0  0
  5 42  1  0  0  0  0
  5 43  1  0  0  0  0
  6  8  1  0  0  0  0
  6 44  1  0  0  0  0
  6 45  1  0  0  0  0
  7  9  1  0  0  0  0
  7 46  1  0  0  0  0
  7 47  1  0  0  0  0
  8 10  1  0  0  0  0
  8 48  1  0  0  0  0
  8 49  1  0  0  0  0
  9 13  1  0  0  0  0
  9 50  1  0  0  0  0
  9 51  1  0  0  0  0
 10 14  1  0  0  0  0
 10 52  1  0  0  0  0
 10 53  1  0  0  0  0
 11 54  1  0  0  0  0
 11 55  1  0  0  0  0
 11 56  1  0  0  0  0
 12 57  1  0  0  0  0
 12 58  1  0  0  0  0
 12 59  1  0  0  0  0
 13 16  1  0  0  0  0
 13 60  1  0  0  0  0
 13 61  1  0  0  0  0
 14 15  1  0  0  0  0
 14 62  1  0  0  0  0
 14 63  1  0  0  0  0
 15 17  1  0  0  0  0
 15 64  1  0  0  0  0
 15 65  1  0  0  0  0
 16 19  1  0  0  0  0
 16 66  1  0  0  0  0
 16 67  1  0  0  0  0
 17 18  1  0  0  0  0
 17 68  1  0  0  0  0
 17 69  1  0  0  0  0
 18 20  1  0  0  0  0
 18 70  1  0  0  0  0
 18 71  1  0  0  0  0
 19 22  1  0  0  0  0
 19 72  1  0  0  0  0
 19 73  1  0  0  0  0
 20 21  1  0  0  0  0
 20 74  1  0  0  0  0
 20 75  1  0  0  0  0
 21 23  1  0  0  0  0
 21 76  1  0  0  0  0
 21 77  1  0  0  0  0
 22 26  1  0  0  0  0
 22 78  1  0  0  0  0
 22 79  1  0  0  0  0
 23 24  1  0  0  0  0
 23 80  1  0  0  0  0
 23 81  1  0  0  0  0
 24 25  1  0  0  0  0
 24 82  1  0  0  0  0
 24 83  1  0  0  0  0
 25 27  1  0  0  0  0
 25 84  1  0  0  0  0
 25 85  1  0  0  0  0
 26 29  1  0  0  0  0
 26 86  1  0  0  0  0
 26 87  1  0  0  0  0
 27 28  1  0  0  0  0
 27 88  1  0  0  0  0
 27 89  1  0  0  0  0
 28 30  1  0  0  0  0
 28 90  1  0  0  0  0
 28 91  1  0  0  0  0
 29 31  1  0  0  0  0
 29 92  1  0  0  0  0
 29 93  1  0  0  0  0
 30 32  1  0  0  0  0
 30 94  1  0  0  0  0
 30 95  1  0  0  0  0
 31 34  1  0  0  0  0
 31 96  1  0  0  0  0
 31 97  1  0  0  0  0
 32 33  1  0  0  0  0
 32 98  1  0  0  0  0
 32 99  1  0  0  0  0
 33 35  1  0  0  0  0
 33100  1  0  0  0  0
 33101  1  0  0  0  0
 34102  1  0  0  0  0
 34103  1  0  0  0  0
 34104  1  0  0  0  0
 35105  1  0  0  0  0
 35106  1  0  0  0  0
 35107  1  0  0  0  0
M  END
> <PUBCHEM_COMPOUND_CID>
521778
> <PUBCHEM_COMPOUND_CANONICALIZED>
1
> <PUBCHEM_CACTVS_COMPLEXITY>
359
> <PUBCHEM_CACTVS_HBOND_ACCEPTOR>
0
> <PUBCHEM_CACTVS_HBOND_DONOR>
0
> <PUBCHEM_CACTVS_ROTATABLE_BOND>
30
> <PUBCHEM_CACTVS_SUBSKEYS>
AAADcfB8AAAAAAAAAAAAAAAAAAAAAAAAAAAAAAAAAAAAAAAAAAAAGAAAAAAADQCAAAACAAAAAAAAAAAAAAAAAAAAAAAAAAAAAAAAAAIAAAAAAAAAAAAAAAEAgMAOAAAAAAAAAAAAAAAAAAAAAAAAAAAAAA==
> <PUBCHEM_IUPAC_OPENEYE_NAME>
11,15-dimethyltritriacontane
> <PUBCHEM_IUPAC_CAS_NAME>
11,15-dimethyltritriacontane
> <PUBCHEM_IUPAC_NAME_MARKUP>
11,15-dimethyltritriacontane
> <PUBCHEM_IUPAC_NAME>
11,15-dimethyltritriacontane
> <PUBCHEM_IUPAC_SYSTEMATIC_NAME>
11,15-dimethyltritriacontane
> <PUBCHEM_IUPAC_TRADITIONAL_NAME>
11,15-dimethyltritriacontane
> <PUBCHEM_IUPAC_INCHI>
InChI=1S/C35H72/c1-5-7-9-11-13-15-16-17-18-19-20-21-22-24-26-28-31-35(4)33-29-32-34(3)30-27-25-23-14-12-10-8-6-2/h34-35H,5-33H2,1-4H3
> <PUBCHEM_IUPAC_INCHIKEY>
IDJYSQCASWJCLM-UHFFFAOYSA-N
> <PUBCHEM_XLOGP3_AA>
18.6
> <PUBCHEM_EXACT_MASS>
492.56340230
> <PUBCHEM_MOLECULAR_FORMULA>
C35H72
> <PUBCHEM_MOLECULAR_WEIGHT>
492.9
> <PUBCHEM_OPENEYE_CAN_SMILES>
CCCCCCCCCCCCCCCCCCC(C)CCCC(C)CCCCCCCCCC
> <PUBCHEM_OPENEYE_ISO_SMILES>
CCCCCCCCCCCCCCCCCCC(C)CCCC(C)CCCCCCCCCC
> <PUBCHEM_CACTVS_TPSA>
0
> <PUBCHEM_MONOISOTOPIC_WEIGHT>
492.56340230
> <PUBCHEM_TOTAL_CHARGE>
0
> <PUBCHEM_HEAVY_ATOM_COUNT>
35
> <PUBCHEM_ATOM_DEF_STEREO_COUNT>
0
> <PUBCHEM_ATOM_UDEF_STEREO_COUNT>
2
> <PUBCHEM_BOND_DEF_STEREO_COUNT>
0
> <PUBCHEM_BOND_UDEF_STEREO_COUNT>
0
> <PUBCHEM_ISOTOPIC_ATOM_COUNT>
0
> <PUBCHEM_COMPONENT_COUNT>
1
> <PUBCHEM_CACTVS_TAUTO_COUNT>
-1
> <PUBCHEM_COORDINATE_TYPE>
1
5
255
> <PUBCHEM_BONDANNOTATIONS>
1  11  3
2  12  3
$$$$
