521975
  -OEChem-10302200292D
 51 52  0     1  0  0  0  0  0999 V2000
    4.9889   -2.9120    0.0000 Si  0  0  0  0  0  0  0  0  0  0  0  0
    7.5673    2.9120    0.0000 Si  0  0  0  0  0  0  0  0  0  0  0  0
    7.2566    1.9615    0.0000 O   0  0  0  0  0  0  0  0  0  0  0  0
    5.6103    2.4996    0.0000 O   0  0  0  0  0  0  0  0  0  0  0  0
    4.6783   -1.9615    0.0000 N   0  0  0  0  0  0  0  0  0  0  0  0
    6.6353    0.0604    0.0000 N   0  0  0  0  0  0  0  0  0  0  0  0
    3.7320   -1.6567    0.0000 C   0  0  0  0  0  0  0  0  0  0  0  0
    4.6783   -0.3520    0.0000 C   0  0  0  0  0  0  0  0  0  0  0  0
    3.7320   -0.6567    0.0000 C   0  0  0  0  0  0  0  0  0  0  0  0
    5.2619   -1.1567    0.0000 C   0  0  0  0  0  0  0  0  0  0  0  0
    4.9889    0.5985    0.0000 C   0  0  0  0  0  0  0  0  0  0  0  0
    5.2996   -3.8625    0.0000 C   0  0  0  0  0  0  0  0  0  0  0  0
    5.9394   -2.6013    0.0000 C   0  0  0  0  0  0  0  0  0  0  0  0
    4.0384   -3.2226    0.0000 C   0  0  0  0  0  0  0  0  0  0  0  0
    5.9674    0.8047    0.0000 C   0  0  3  0  0  0  0  0  0  0  0  0
    2.8660   -2.1567    0.0000 C   0  0  0  0  0  0  0  0  0  0  0  0
    2.8660   -0.1567    0.0000 C   0  0  0  0  0  0  0  0  0  0  0  0
    6.2781    1.7552    0.0000 C   0  0  0  0  0  0  0  0  0  0  0  0
    2.0000   -1.6567    0.0000 C   0  0  0  0  0  0  0  0  0  0  0  0
    2.0000   -0.6567    0.0000 C   0  0  0  0  0  0  0  0  0  0  0  0
    7.8779    3.8625    0.0000 C   0  0  0  0  0  0  0  0  0  0  0  0
    8.5178    2.6013    0.0000 C   0  0  0  0  0  0  0  0  0  0  0  0
    6.6168    3.2226    0.0000 C   0  0  0  0  0  0  0  0  0  0  0  0
    5.8819   -1.1567    0.0000 H   0  0  0  0  0  0  0  0  0  0  0  0
    4.9684    1.2182    0.0000 H   0  0  0  0  0  0  0  0  0  0  0  0
    4.3751    0.6859    0.0000 H   0  0  0  0  0  0  0  0  0  0  0  0
    4.7103   -4.0551    0.0000 H   0  0  0  0  0  0  0  0  0  0  0  0
    5.4922   -4.4518    0.0000 H   0  0  0  0  0  0  0  0  0  0  0  0
    5.8889   -3.6699    0.0000 H   0  0  0  0  0  0  0  0  0  0  0  0
    6.1321   -3.1907    0.0000 H   0  0  0  0  0  0  0  0  0  0  0  0
    6.5288   -2.4087    0.0000 H   0  0  0  0  0  0  0  0  0  0  0  0
    5.7468   -2.0120    0.0000 H   0  0  0  0  0  0  0  0  0  0  0  0
    3.8458   -2.6333    0.0000 H   0  0  0  0  0  0  0  0  0  0  0  0
    3.4491   -3.4153    0.0000 H   0  0  0  0  0  0  0  0  0  0  0  0
    4.2310   -3.8120    0.0000 H   0  0  0  0  0  0  0  0  0  0  0  0
    5.7748    0.2154    0.0000 H   0  0  0  0  0  0  0  0  0  0  0  0
    2.8660   -2.7767    0.0000 H   0  0  0  0  0  0  0  0  0  0  0  0
    2.8660    0.4633    0.0000 H   0  0  0  0  0  0  0  0  0  0  0  0
    1.4631   -1.9667    0.0000 H   0  0  0  0  0  0  0  0  0  0  0  0
    1.4631   -0.3467    0.0000 H   0  0  0  0  0  0  0  0  0  0  0  0
    7.2420    0.1883    0.0000 H   0  0  0  0  0  0  0  0  0  0  0  0
    6.4427   -0.5289    0.0000 H   0  0  0  0  0  0  0  0  0  0  0  0
    8.4672    3.6699    0.0000 H   0  0  0  0  0  0  0  0  0  0  0  0
    8.0705    4.4518    0.0000 H   0  0  0  0  0  0  0  0  0  0  0  0
    7.2886    4.0551    0.0000 H   0  0  0  0  0  0  0  0  0  0  0  0
    8.3252    2.0120    0.0000 H   0  0  0  0  0  0  0  0  0  0  0  0
    9.1071    2.4087    0.0000 H   0  0  0  0  0  0  0  0  0  0  0  0
    8.7104    3.1907    0.0000 H   0  0  0  0  0  0  0  0  0  0  0  0
    6.8094    3.8120    0.0000 H   0  0  0  0  0  0  0  0  0  0  0  0
    6.0274    3.4153    0.0000 H   0  0  0  0  0  0  0  0  0  0  0  0
    6.4241    2.6333    0.0000 H   0  0  0  0  0  0  0  0  0  0  0  0
  1  5  1  0  0  0  0
  1 12  1  0  0  0  0
  1 13  1  0  0  0  0
  1 14  1  0  0  0  0
  2  3  1  0  0  0  0
  2 21  1  0  0  0  0
  2 22  1  0  0  0  0
  2 23  1  0  0  0  0
  3 18  1  0  0  0  0
  4 18  2  0  0  0  0
  5  7  1  0  0  0  0
  5 10  1  0  0  0  0
  6 15  1  0  0  0  0
  6 41  1  0  0  0  0
  6 42  1  0  0  0  0
  7  9  1  0  0  0  0
  7 16  2  0  0  0  0
  8  9  1  0  0  0  0
  8 10  2  0  0  0  0
  8 11  1  0  0  0  0
  9 17  2  0  0  0  0
 10 24  1  0  0  0  0
 11 15  1  0  0  0  0
 11 25  1  0  0  0  0
 11 26  1  0  0  0  0
 12 27  1  0  0  0  0
 12 28  1  0  0  0  0
 12 29  1  0  0  0  0
 13 30  1  0  0  0  0
 13 31  1  0  0  0  0
 13 32  1  0  0  0  0
 14 33  1  0  0  0  0
 14 34  1  0  0  0  0
 14 35  1  0  0  0  0
 15 18  1  0  0  0  0
 15 36  1  0  0  0  0
 16 19  1  0  0  0  0
 16 37  1  0  0  0  0
 17 20  1  0  0  0  0
 17 38  1  0  0  0  0
 19 20  2  0  0  0  0
 19 39  1  0  0  0  0
 20 40  1  0  0  0  0
 21 43  1  0  0  0  0
 21 44  1  0  0  0  0
 21 45  1  0  0  0  0
 22 46  1  0  0  0  0
 22 47  1  0  0  0  0
 22 48  1  0  0  0  0
 23 49  1  0  0  0  0
 23 50  1  0  0  0  0
 23 51  1  0  0  0  0
M  END
> <PUBCHEM_COMPOUND_CID>
521975
> <PUBCHEM_COMPOUND_CANONICALIZED>
1
> <PUBCHEM_CACTVS_COMPLEXITY>
431
> <PUBCHEM_CACTVS_HBOND_ACCEPTOR>
3
> <PUBCHEM_CACTVS_HBOND_DONOR>
1
> <PUBCHEM_CACTVS_ROTATABLE_BOND>
6
> <PUBCHEM_CACTVS_SUBSKEYS>
AAADceB7MAwAAAAAAAAAAAAAAAAAAWAAAAAwAAAAAAAAAFgB8AAAHhARAEAADCjBngR+yPJIEAGoAzT3TACCgCAxAiAI2KG4ZJgKIPLAkZGEIAhkkADIyAeY2fKOgAAAAAACAAAAAAAAAAQAAAAAAAAAAA==
> <PUBCHEM_IUPAC_OPENEYE_NAME>
trimethylsilyl 2-amino-3-(1-trimethylsilylindol-3-yl)propanoate
> <PUBCHEM_IUPAC_CAS_NAME>
2-amino-3-(1-trimethylsilyl-3-indolyl)propanoic acid trimethylsilyl ester
> <PUBCHEM_IUPAC_NAME_MARKUP>
trimethylsilyl 2-amino-3-(1-trimethylsilylindol-3-yl)propanoate
> <PUBCHEM_IUPAC_NAME>
trimethylsilyl 2-amino-3-(1-trimethylsilylindol-3-yl)propanoate
> <PUBCHEM_IUPAC_SYSTEMATIC_NAME>
trimethylsilyl 2-azanyl-3-(1-trimethylsilylindol-3-yl)propanoate
> <PUBCHEM_IUPAC_TRADITIONAL_NAME>
2-amino-3-(1-trimethylsilylindol-3-yl)propionic acid trimethylsilyl ester
> <PUBCHEM_IUPAC_INCHI>
InChI=1S/C17H28N2O2Si2/c1-22(2,3)19-12-13(14-9-7-8-10-16(14)19)11-15(18)17(20)21-23(4,5)6/h7-10,12,15H,11,18H2,1-6H3
> <PUBCHEM_IUPAC_INCHIKEY>
OROPXBPBFRVMLJ-UHFFFAOYSA-N
> <PUBCHEM_EXACT_MASS>
348.16893121
> <PUBCHEM_MOLECULAR_FORMULA>
C17H28N2O2Si2
> <PUBCHEM_MOLECULAR_WEIGHT>
348.6
> <PUBCHEM_OPENEYE_CAN_SMILES>
C[Si](C)(C)N1C=C(C2=CC=CC=C21)CC(C(=O)O[Si](C)(C)C)N
> <PUBCHEM_OPENEYE_ISO_SMILES>
C[Si](C)(C)N1C=C(C2=CC=CC=C21)CC(C(=O)O[Si](C)(C)C)N
> <PUBCHEM_CACTVS_TPSA>
57.2
> <PUBCHEM_MONOISOTOPIC_WEIGHT>
348.16893121
> <PUBCHEM_TOTAL_CHARGE>
0
> <PUBCHEM_HEAVY_ATOM_COUNT>
23
> <PUBCHEM_ATOM_DEF_STEREO_COUNT>
0
> <PUBCHEM_ATOM_UDEF_STEREO_COUNT>
1
> <PUBCHEM_BOND_DEF_STEREO_COUNT>
0
> <PUBCHEM_BOND_UDEF_STEREO_COUNT>
0
> <PUBCHEM_ISOTOPIC_ATOM_COUNT>
0
> <PUBCHEM_COMPONENT_COUNT>
1
> <PUBCHEM_CACTVS_TAUTO_COUNT>
-1
> <PUBCHEM_COORDINATE_TYPE>
1
5
255
> <PUBCHEM_BONDANNOTATIONS>
16  19  8
17  20  8
19  20  8
5  10  8
5  7  8
15  6  3
7  16  8
7  9  8
8  10  8
8  9  8
9  17  8
$$$$
