522037
  -OEChem-10302200292D
 33 35  0     1  0  0  0  0  0999 V2000
    4.3709    0.7702    0.0000 O   0  0  0  0  0  0  0  0  0  0  0  0
    4.6783   -1.7908    0.0000 O   0  0  0  0  0  0  0  0  0  0  0  0
    6.2619   -0.9861    0.0000 O   0  0  0  0  0  0  0  0  0  0  0  0
    4.6783   -0.1814    0.0000 C   0  0  3  0  0  0  0  0  0  0  0  0
    3.7320   -0.4861    0.0000 C   0  0  0  0  0  0  0  0  0  0  0  0
    5.4883    0.4050    0.0000 C   0  0  0  0  0  0  0  0  0  0  0  0
    5.2619   -0.9861    0.0000 C   0  0  0  0  0  0  0  0  0  0  0  0
    3.7320   -1.4861    0.0000 C   0  0  0  0  0  0  0  0  0  0  0  0
    2.8660    0.0139    0.0000 C   0  0  0  0  0  0  0  0  0  0  0  0
    6.4011   -0.0033    0.0000 C   0  0  0  0  0  0  0  0  0  0  0  0
    5.3855    1.3997    0.0000 C   0  0  0  0  0  0  0  0  0  0  0  0
    2.8660   -1.9861    0.0000 C   0  0  0  0  0  0  0  0  0  0  0  0
    3.3931    0.9798    0.0000 C   0  0  0  0  0  0  0  0  0  0  0  0
    2.0000   -0.4861    0.0000 C   0  0  0  0  0  0  0  0  0  0  0  0
    2.0000   -1.4861    0.0000 C   0  0  0  0  0  0  0  0  0  0  0  0
    7.2112    0.5831    0.0000 C   0  0  0  0  0  0  0  0  0  0  0  0
    6.1955    1.9861    0.0000 C   0  0  0  0  0  0  0  0  0  0  0  0
    3.0857    1.9314    0.0000 C   0  0  0  0  0  0  0  0  0  0  0  0
    7.1084    1.5778    0.0000 C   0  0  0  0  0  0  0  0  0  0  0  0
    2.8660    0.6339    0.0000 H   0  0  0  0  0  0  0  0  0  0  0  0
    6.4649   -0.6200    0.0000 H   0  0  0  0  0  0  0  0  0  0  0  0
    4.8195    1.6529    0.0000 H   0  0  0  0  0  0  0  0  0  0  0  0
    2.8660   -2.6061    0.0000 H   0  0  0  0  0  0  0  0  0  0  0  0
    2.7790    0.8946    0.0000 H   0  0  0  0  0  0  0  0  0  0  0  0
    3.3704    0.3602    0.0000 H   0  0  0  0  0  0  0  0  0  0  0  0
    1.4631   -0.1761    0.0000 H   0  0  0  0  0  0  0  0  0  0  0  0
    1.4631   -1.7961    0.0000 H   0  0  0  0  0  0  0  0  0  0  0  0
    7.7771    0.3299    0.0000 H   0  0  0  0  0  0  0  0  0  0  0  0
    6.1318    2.6028    0.0000 H   0  0  0  0  0  0  0  0  0  0  0  0
    3.6757    2.1220    0.0000 H   0  0  0  0  0  0  0  0  0  0  0  0
    2.8952    2.5214    0.0000 H   0  0  0  0  0  0  0  0  0  0  0  0
    2.4958    1.7408    0.0000 H   0  0  0  0  0  0  0  0  0  0  0  0
    7.6106    1.9413    0.0000 H   0  0  0  0  0  0  0  0  0  0  0  0
  1  4  1  0  0  0  0
  1 13  1  0  0  0  0
  2  7  1  0  0  0  0
  2  8  1  0  0  0  0
  3  7  2  0  0  0  0
  4  5  1  0  0  0  0
  4  6  1  0  0  0  0
  4  7  1  0  0  0  0
  5  8  1  0  0  0  0
  5  9  2  0  0  0  0
  6 10  2  0  0  0  0
  6 11  1  0  0  0  0
  8 12  2  0  0  0  0
  9 14  1  0  0  0  0
  9 20  1  0  0  0  0
 10 16  1  0  0  0  0
 10 21  1  0  0  0  0
 11 17  2  0  0  0  0
 11 22  1  0  0  0  0
 12 15  1  0  0  0  0
 12 23  1  0  0  0  0
 13 18  1  0  0  0  0
 13 24  1  0  0  0  0
 13 25  1  0  0  0  0
 14 15  2  0  0  0  0
 14 26  1  0  0  0  0
 15 27  1  0  0  0  0
 16 19  2  0  0  0  0
 16 28  1  0  0  0  0
 17 19  1  0  0  0  0
 17 29  1  0  0  0  0
 18 30  1  0  0  0  0
 18 31  1  0  0  0  0
 18 32  1  0  0  0  0
 19 33  1  0  0  0  0
M  END
> <PUBCHEM_COMPOUND_CID>
522037
> <PUBCHEM_COMPOUND_CANONICALIZED>
1
> <PUBCHEM_CACTVS_COMPLEXITY>
335
> <PUBCHEM_CACTVS_HBOND_ACCEPTOR>
3
> <PUBCHEM_CACTVS_HBOND_DONOR>
0
> <PUBCHEM_CACTVS_ROTATABLE_BOND>
3
> <PUBCHEM_CACTVS_SUBSKEYS>
AAADccB4MAAAAAAAAAAAAAAAAAAAASAAAAAwYAAAAAAAAEgBQAAAGgAAAAAADESgmAIyDoAABACIAiDSCAICCAAgIAAIiAFGCIgNJzKENR6COiClwBEKqAeKyOCOgAAAAAAIAAAAAAAAABAAAAAAAAAAAA==
> <PUBCHEM_IUPAC_OPENEYE_NAME>
3-ethoxy-3-phenyl-benzofuran-2-one
> <PUBCHEM_IUPAC_CAS_NAME>
3-ethoxy-3-phenyl-2-benzofuranone
> <PUBCHEM_IUPAC_NAME_MARKUP>
3-ethoxy-3-phenyl-1-benzofuran-2-one
> <PUBCHEM_IUPAC_NAME>
3-ethoxy-3-phenyl-1-benzofuran-2-one
> <PUBCHEM_IUPAC_SYSTEMATIC_NAME>
3-ethoxy-3-phenyl-1-benzofuran-2-one
> <PUBCHEM_IUPAC_TRADITIONAL_NAME>
3-ethoxy-3-phenyl-coumaran-2-one
> <PUBCHEM_IUPAC_INCHI>
InChI=1S/C16H14O3/c1-2-18-16(12-8-4-3-5-9-12)13-10-6-7-11-14(13)19-15(16)17/h3-11H,2H2,1H3
> <PUBCHEM_IUPAC_INCHIKEY>
DOHHPBAKMKBODF-UHFFFAOYSA-N
> <PUBCHEM_XLOGP3_AA>
3.2
> <PUBCHEM_EXACT_MASS>
254.094294304
> <PUBCHEM_MOLECULAR_FORMULA>
C16H14O3
> <PUBCHEM_MOLECULAR_WEIGHT>
254.28
> <PUBCHEM_OPENEYE_CAN_SMILES>
CCOC1(C2=CC=CC=C2OC1=O)C3=CC=CC=C3
> <PUBCHEM_OPENEYE_ISO_SMILES>
CCOC1(C2=CC=CC=C2OC1=O)C3=CC=CC=C3
> <PUBCHEM_CACTVS_TPSA>
35.5
> <PUBCHEM_MONOISOTOPIC_WEIGHT>
254.094294304
> <PUBCHEM_TOTAL_CHARGE>
0
> <PUBCHEM_HEAVY_ATOM_COUNT>
19
> <PUBCHEM_ATOM_DEF_STEREO_COUNT>
0
> <PUBCHEM_ATOM_UDEF_STEREO_COUNT>
1
> <PUBCHEM_BOND_DEF_STEREO_COUNT>
0
> <PUBCHEM_BOND_UDEF_STEREO_COUNT>
0
> <PUBCHEM_ISOTOPIC_ATOM_COUNT>
0
> <PUBCHEM_COMPONENT_COUNT>
1
> <PUBCHEM_CACTVS_TAUTO_COUNT>
-1
> <PUBCHEM_COORDINATE_TYPE>
1
5
255
> <PUBCHEM_BONDANNOTATIONS>
4  1  3
10  16  8
11  17  8
12  15  8
14  15  8
16  19  8
17  19  8
5  8  8
5  9  8
6  10  8
6  11  8
8  12  8
9  14  8
$$$$
