522155
  -OEChem-10302200292D
 51 50  0     1  0  0  0  0  0999 V2000
    3.7320    2.1830    0.0000 Si  0  0  0  0  0  0  0  0  0  0  0  0
    7.1962    1.1830    0.0000 Si  0  0  0  0  0  0  0  0  0  0  0  0
    2.8660   -2.3170    0.0000 Si  0  0  0  0  0  0  0  0  0  0  0  0
    3.7320    1.1830    0.0000 O   0  0  0  0  0  0  0  0  0  0  0  0
    6.3301    0.6830    0.0000 O   0  0  0  0  0  0  0  0  0  0  0  0
    3.7320   -1.8170    0.0000 O   0  0  0  0  0  0  0  0  0  0  0  0
    5.4641    2.1830    0.0000 O   0  0  0  0  0  0  0  0  0  0  0  0
    2.8660   -0.3170    0.0000 O   0  0  0  0  0  0  0  0  0  0  0  0
    4.5981    0.6830    0.0000 C   0  0  3  0  0  0  0  0  0  0  0  0
    4.5981   -0.3170    0.0000 C   0  0  0  0  0  0  0  0  0  0  0  0
    3.7320    3.1830    0.0000 C   0  0  0  0  0  0  0  0  0  0  0  0
    2.7320    2.1830    0.0000 C   0  0  0  0  0  0  0  0  0  0  0  0
    4.7320    2.1830    0.0000 C   0  0  0  0  0  0  0  0  0  0  0  0
    5.4641    1.1830    0.0000 C   0  0  0  0  0  0  0  0  0  0  0  0
    3.7320   -0.8170    0.0000 C   0  0  0  0  0  0  0  0  0  0  0  0
    8.0622    1.6830    0.0000 C   0  0  0  0  0  0  0  0  0  0  0  0
    7.6962    0.3170    0.0000 C   0  0  0  0  0  0  0  0  0  0  0  0
    6.6962    2.0490    0.0000 C   0  0  0  0  0  0  0  0  0  0  0  0
    2.0000   -2.8170    0.0000 C   0  0  0  0  0  0  0  0  0  0  0  0
    3.3660   -3.1830    0.0000 C   0  0  0  0  0  0  0  0  0  0  0  0
    2.3660   -1.4510    0.0000 C   0  0  0  0  0  0  0  0  0  0  0  0
    4.5981    1.3030    0.0000 H   0  0  0  0  0  0  0  0  0  0  0  0
    4.8101   -0.8996    0.0000 H   0  0  0  0  0  0  0  0  0  0  0  0
    5.2087   -0.2093    0.0000 H   0  0  0  0  0  0  0  0  0  0  0  0
    4.3520    3.1830    0.0000 H   0  0  0  0  0  0  0  0  0  0  0  0
    3.7320    3.8030    0.0000 H   0  0  0  0  0  0  0  0  0  0  0  0
    3.1120    3.1830    0.0000 H   0  0  0  0  0  0  0  0  0  0  0  0
    2.7320    2.8030    0.0000 H   0  0  0  0  0  0  0  0  0  0  0  0
    2.1120    2.1830    0.0000 H   0  0  0  0  0  0  0  0  0  0  0  0
    2.7320    1.5630    0.0000 H   0  0  0  0  0  0  0  0  0  0  0  0
    4.7320    1.5630    0.0000 H   0  0  0  0  0  0  0  0  0  0  0  0
    5.3520    2.1830    0.0000 H   0  0  0  0  0  0  0  0  0  0  0  0
    4.7320    2.8030    0.0000 H   0  0  0  0  0  0  0  0  0  0  0  0
    8.3722    1.1461    0.0000 H   0  0  0  0  0  0  0  0  0  0  0  0
    8.5991    1.9930    0.0000 H   0  0  0  0  0  0  0  0  0  0  0  0
    7.7522    2.2200    0.0000 H   0  0  0  0  0  0  0  0  0  0  0  0
    7.1592    0.0070    0.0000 H   0  0  0  0  0  0  0  0  0  0  0  0
    8.0062   -0.2199    0.0000 H   0  0  0  0  0  0  0  0  0  0  0  0
    8.2331    0.6270    0.0000 H   0  0  0  0  0  0  0  0  0  0  0  0
    7.2331    2.3590    0.0000 H   0  0  0  0  0  0  0  0  0  0  0  0
    6.3862    2.5860    0.0000 H   0  0  0  0  0  0  0  0  0  0  0  0
    6.1592    1.7390    0.0000 H   0  0  0  0  0  0  0  0  0  0  0  0
    1.6900   -2.2800    0.0000 H   0  0  0  0  0  0  0  0  0  0  0  0
    1.4631   -3.1270    0.0000 H   0  0  0  0  0  0  0  0  0  0  0  0
    2.3100   -3.3539    0.0000 H   0  0  0  0  0  0  0  0  0  0  0  0
    2.8291   -3.4930    0.0000 H   0  0  0  0  0  0  0  0  0  0  0  0
    3.6760   -3.7200    0.0000 H   0  0  0  0  0  0  0  0  0  0  0  0
    3.9030   -2.8730    0.0000 H   0  0  0  0  0  0  0  0  0  0  0  0
    2.9030   -1.1410    0.0000 H   0  0  0  0  0  0  0  0  0  0  0  0
    2.0560   -0.9140    0.0000 H   0  0  0  0  0  0  0  0  0  0  0  0
    1.8291   -1.7610    0.0000 H   0  0  0  0  0  0  0  0  0  0  0  0
  1  4  1  0  0  0  0
  1 11  1  0  0  0  0
  1 12  1  0  0  0  0
  1 13  1  0  0  0  0
  2  5  1  0  0  0  0
  2 16  1  0  0  0  0
  2 17  1  0  0  0  0
  2 18  1  0  0  0  0
  3  6  1  0  0  0  0
  3 19  1  0  0  0  0
  3 20  1  0  0  0  0
  3 21  1  0  0  0  0
  4  9  1  0  0  0  0
  5 14  1  0  0  0  0
  6 15  1  0  0  0  0
  7 14  2  0  0  0  0
  8 15  2  0  0  0  0
  9 10  1  0  0  0  0
  9 14  1  0  0  0  0
  9 22  1  0  0  0  0
 10 15  1  0  0  0  0
 10 23  1  0  0  0  0
 10 24  1  0  0  0  0
 11 25  1  0  0  0  0
 11 26  1  0  0  0  0
 11 27  1  0  0  0  0
 12 28  1  0  0  0  0
 12 29  1  0  0  0  0
 12 30  1  0  0  0  0
 13 31  1  0  0  0  0
 13 32  1  0  0  0  0
 13 33  1  0  0  0  0
 16 34  1  0  0  0  0
 16 35  1  0  0  0  0
 16 36  1  0  0  0  0
 17 37  1  0  0  0  0
 17 38  1  0  0  0  0
 17 39  1  0  0  0  0
 18 40  1  0  0  0  0
 18 41  1  0  0  0  0
 18 42  1  0  0  0  0
 19 43  1  0  0  0  0
 19 44  1  0  0  0  0
 19 45  1  0  0  0  0
 20 46  1  0  0  0  0
 20 47  1  0  0  0  0
 20 48  1  0  0  0  0
 21 49  1  0  0  0  0
 21 50  1  0  0  0  0
 21 51  1  0  0  0  0
M  END
> <PUBCHEM_COMPOUND_CID>
522155
> <PUBCHEM_COMPOUND_CANONICALIZED>
1
> <PUBCHEM_CACTVS_COMPLEXITY>
377
> <PUBCHEM_CACTVS_HBOND_ACCEPTOR>
5
> <PUBCHEM_CACTVS_HBOND_DONOR>
0
> <PUBCHEM_CACTVS_ROTATABLE_BOND>
9
> <PUBCHEM_CACTVS_SUBSKEYS>
AAADceBwOAwAAAAAAAAAAAAAAAAAAAAAAAAAAAAAAAAAAAAAAAAAGhAAAEAACBSggAJCCAAAAAEIAACQCAIAAAAAAAAAAAFAAAABABQAAAAAAAAFIAAAAABDAAAAAAAAAAAAAAAAAAAAAAAAAAAAAAAAAA==
> <PUBCHEM_IUPAC_OPENEYE_NAME>
bis(trimethylsilyl) 2-trimethylsilyloxybutanedioate
> <PUBCHEM_IUPAC_CAS_NAME>
2-trimethylsilyloxybutanedioic acid bis(trimethylsilyl) ester
> <PUBCHEM_IUPAC_NAME_MARKUP>
bis(trimethylsilyl) 2-trimethylsilyloxybutanedioate
> <PUBCHEM_IUPAC_NAME>
bis(trimethylsilyl) 2-trimethylsilyloxybutanedioate
> <PUBCHEM_IUPAC_SYSTEMATIC_NAME>
bis(trimethylsilyl) 2-trimethylsilyloxybutanedioate
> <PUBCHEM_IUPAC_TRADITIONAL_NAME>
2-trimethylsilyloxysuccinic acid bis(trimethylsilyl) ester
> <PUBCHEM_IUPAC_INCHI>
InChI=1S/C13H30O5Si3/c1-19(2,3)16-11(13(15)18-21(7,8)9)10-12(14)17-20(4,5)6/h11H,10H2,1-9H3
> <PUBCHEM_IUPAC_INCHIKEY>
QCOBWZRPFJZHGU-UHFFFAOYSA-N
> <PUBCHEM_EXACT_MASS>
350.14010366
> <PUBCHEM_MOLECULAR_FORMULA>
C13H30O5Si3
> <PUBCHEM_MOLECULAR_WEIGHT>
350.63
> <PUBCHEM_OPENEYE_CAN_SMILES>
C[Si](C)(C)OC(CC(=O)O[Si](C)(C)C)C(=O)O[Si](C)(C)C
> <PUBCHEM_OPENEYE_ISO_SMILES>
C[Si](C)(C)OC(CC(=O)O[Si](C)(C)C)C(=O)O[Si](C)(C)C
> <PUBCHEM_CACTVS_TPSA>
61.8
> <PUBCHEM_MONOISOTOPIC_WEIGHT>
350.14010366
> <PUBCHEM_TOTAL_CHARGE>
0
> <PUBCHEM_HEAVY_ATOM_COUNT>
21
> <PUBCHEM_ATOM_DEF_STEREO_COUNT>
0
> <PUBCHEM_ATOM_UDEF_STEREO_COUNT>
1
> <PUBCHEM_BOND_DEF_STEREO_COUNT>
0
> <PUBCHEM_BOND_UDEF_STEREO_COUNT>
0
> <PUBCHEM_ISOTOPIC_ATOM_COUNT>
0
> <PUBCHEM_COMPONENT_COUNT>
1
> <PUBCHEM_CACTVS_TAUTO_COUNT>
1
> <PUBCHEM_COORDINATE_TYPE>
1
5
255
> <PUBCHEM_BONDANNOTATIONS>
9  10  3
$$$$
