522103
  -OEChem-10302200292D
 48 51  0     1  0  0  0  0  0999 V2000
   10.4926    2.1522    0.0000 O   0  0  0  0  0  0  0  0  0  0  0  0
    2.8641   -2.3616    0.0000 O   0  0  0  0  0  0  0  0  0  0  0  0
    8.2572    0.6907    0.0000 C   0  0  3  0  0  0  0  0  0  0  0  0
    8.2572   -0.3093    0.0000 C   0  0  3  0  0  0  0  0  0  0  0  0
    7.3912   -0.8093    0.0000 C   0  0  3  0  0  0  0  0  0  0  0  0
    9.2034    0.9955    0.0000 C   0  0  3  0  0  0  0  0  0  0  0  0
    6.5251   -0.3093    0.0000 C   0  0  3  0  0  0  0  0  0  0  0  0
    7.3912    1.1907    0.0000 C   0  0  0  0  0  0  0  0  0  0  0  0
    9.2034   -0.6140    0.0000 C   0  0  0  0  0  0  0  0  0  0  0  0
    6.5251    0.6907    0.0000 C   0  0  0  0  0  0  0  0  0  0  0  0
    9.7870    0.1907    0.0000 C   0  0  0  0  0  0  0  0  0  0  0  0
    7.4072   -1.8508    0.0000 C   0  0  0  0  0  0  0  0  0  0  0  0
    8.2572    1.6907    0.0000 C   0  0  0  0  0  0  0  0  0  0  0  0
    5.6151   -0.8161    0.0000 C   0  0  0  0  0  0  0  0  0  0  0  0
    6.5092   -2.3785    0.0000 C   0  0  0  0  0  0  0  0  0  0  0  0
    5.6071   -1.8577    0.0000 C   0  0  0  0  0  0  0  0  0  0  0  0
    9.5141    1.9460    0.0000 C   0  0  0  0  0  0  0  0  0  0  0  0
    4.6883   -0.2520    0.0000 C   0  0  0  0  0  0  0  0  0  0  0  0
    4.6717   -2.4074    0.0000 C   0  0  0  0  0  0  0  0  0  0  0  0
    3.7404   -0.7800    0.0000 C   0  0  0  0  0  0  0  0  0  0  0  0
    3.7320   -1.8650    0.0000 C   0  0  0  0  0  0  0  0  0  0  0  0
    2.0000   -1.8583    0.0000 C   0  0  0  0  0  0  0  0  0  0  0  0
    8.3228   -0.9258    0.0000 H   0  0  0  0  0  0  0  0  0  0  0  0
    7.9305   -1.1151    0.0000 H   0  0  0  0  0  0  0  0  0  0  0  0
    9.8159    1.0916    0.0000 H   0  0  0  0  0  0  0  0  0  0  0  0
    7.0621    0.0007    0.0000 H   0  0  0  0  0  0  0  0  0  0  0  0
    7.7897    1.6657    0.0000 H   0  0  0  0  0  0  0  0  0  0  0  0
    6.9926    1.6657    0.0000 H   0  0  0  0  0  0  0  0  0  0  0  0
    8.9524   -1.1809    0.0000 H   0  0  0  0  0  0  0  0  0  0  0  0
    9.7408   -0.9232    0.0000 H   0  0  0  0  0  0  0  0  0  0  0  0
    6.3131    1.2733    0.0000 H   0  0  0  0  0  0  0  0  0  0  0  0
    5.9145    0.5831    0.0000 H   0  0  0  0  0  0  0  0  0  0  0  0
   10.2479   -0.2240    0.0000 H   0  0  0  0  0  0  0  0  0  0  0  0
   10.2479    0.6055    0.0000 H   0  0  0  0  0  0  0  0  0  0  0  0
    7.6252   -2.4312    0.0000 H   0  0  0  0  0  0  0  0  0  0  0  0
    8.0164   -1.7353    0.0000 H   0  0  0  0  0  0  0  0  0  0  0  0
    8.8772    1.6907    0.0000 H   0  0  0  0  0  0  0  0  0  0  0  0
    8.2572    2.3107    0.0000 H   0  0  0  0  0  0  0  0  0  0  0  0
    7.6372    1.6907    0.0000 H   0  0  0  0  0  0  0  0  0  0  0  0
    6.1119   -2.8545    0.0000 H   0  0  0  0  0  0  0  0  0  0  0  0
    6.9101   -2.8514    0.0000 H   0  0  0  0  0  0  0  0  0  0  0  0
    9.1000    2.4074    0.0000 H   0  0  0  0  0  0  0  0  0  0  0  0
    4.7002    0.3678    0.0000 H   0  0  0  0  0  0  0  0  0  0  0  0
    4.6741   -3.0274    0.0000 H   0  0  0  0  0  0  0  0  0  0  0  0
    3.2071   -0.4638    0.0000 H   0  0  0  0  0  0  0  0  0  0  0  0
    2.3121   -1.3225    0.0000 H   0  0  0  0  0  0  0  0  0  0  0  0
    1.4643   -1.5462    0.0000 H   0  0  0  0  0  0  0  0  0  0  0  0
    1.6879   -2.3940    0.0000 H   0  0  0  0  0  0  0  0  0  0  0  0
  1 17  2  0  0  0  0
  2 21  1  0  0  0  0
  2 22  1  0  0  0  0
  3  4  1  0  0  0  0
  3  6  1  0  0  0  0
  3  8  1  0  0  0  0
  3 13  1  0  0  0  0
  4  5  1  0  0  0  0
  4  9  1  0  0  0  0
  4 23  1  0  0  0  0
  5  7  1  0  0  0  0
  5 12  1  0  0  0  0
  5 24  1  0  0  0  0
  6 11  1  0  0  0  0
  6 17  1  0  0  0  0
  6 25  1  0  0  0  0
  7 10  1  0  0  0  0
  7 14  1  0  0  0  0
  7 26  1  0  0  0  0
  8 10  1  0  0  0  0
  8 27  1  0  0  0  0
  8 28  1  0  0  0  0
  9 11  1  0  0  0  0
  9 29  1  0  0  0  0
  9 30  1  0  0  0  0
 10 31  1  0  0  0  0
 10 32  1  0  0  0  0
 11 33  1  0  0  0  0
 11 34  1  0  0  0  0
 12 15  1  0  0  0  0
 12 35  1  0  0  0  0
 12 36  1  0  0  0  0
 13 37  1  0  0  0  0
 13 38  1  0  0  0  0
 13 39  1  0  0  0  0
 14 16  2  0  0  0  0
 14 18  1  0  0  0  0
 15 16  1  0  0  0  0
 15 40  1  0  0  0  0
 15 41  1  0  0  0  0
 16 19  1  0  0  0  0
 17 42  1  0  0  0  0
 18 20  2  0  0  0  0
 18 43  1  0  0  0  0
 19 21  2  0  0  0  0
 19 44  1  0  0  0  0
 20 21  1  0  0  0  0
 20 45  1  0  0  0  0
 22 46  1  0  0  0  0
 22 47  1  0  0  0  0
 22 48  1  0  0  0  0
M  END
> <PUBCHEM_COMPOUND_CID>
522103
> <PUBCHEM_COMPOUND_CANONICALIZED>
1
> <PUBCHEM_CACTVS_COMPLEXITY>
433
> <PUBCHEM_CACTVS_HBOND_ACCEPTOR>
2
> <PUBCHEM_CACTVS_HBOND_DONOR>
0
> <PUBCHEM_CACTVS_ROTATABLE_BOND>
2
> <PUBCHEM_CACTVS_SUBSKEYS>
AAADceB4MAAAAAAAAAAAAAAAAAAAAYAAAAAwYMAAAAAAAGDBAAAAGgAAAAAADwSgmAIyBoAABACIAihSgAACCAAgIAAIiAEGCIgMJjKEMRqAMCAkwBEIqAeIyPCPoAABAAAQAADAAAYAACAAAQAACAAAAA==
> <PUBCHEM_IUPAC_OPENEYE_NAME>
3-methoxy-13-methyl-6,7,8,9,11,12,14,15,16,17-decahydrocyclopenta[a]phenanthrene-17-carbaldehyde
> <PUBCHEM_IUPAC_CAS_NAME>
3-methoxy-13-methyl-6,7,8,9,11,12,14,15,16,17-decahydrocyclopenta[a]phenanthrene-17-carboxaldehyde
> <PUBCHEM_IUPAC_NAME_MARKUP>
3-methoxy-13-methyl-6,7,8,9,11,12,14,15,16,17-decahydrocyclopenta[a]phenanthrene-17-carbaldehyde
> <PUBCHEM_IUPAC_NAME>
3-methoxy-13-methyl-6,7,8,9,11,12,14,15,16,17-decahydrocyclopenta[a]phenanthrene-17-carbaldehyde
> <PUBCHEM_IUPAC_SYSTEMATIC_NAME>
3-methoxy-13-methyl-6,7,8,9,11,12,14,15,16,17-decahydrocyclopenta[a]phenanthrene-17-carbaldehyde
> <PUBCHEM_IUPAC_TRADITIONAL_NAME>
3-methoxy-13-methyl-6,7,8,9,11,12,14,15,16,17-decahydrocyclopenta[a]phenanthrene-17-carbaldehyde
> <PUBCHEM_IUPAC_INCHI>
InChI=1S/C20H26O2/c1-20-10-9-17-16-7-5-15(22-2)11-13(16)3-6-18(17)19(20)8-4-14(20)12-21/h5,7,11-12,14,17-19H,3-4,6,8-10H2,1-2H3
> <PUBCHEM_IUPAC_INCHIKEY>
NMYYLLXEYZDKPO-UHFFFAOYSA-N
> <PUBCHEM_XLOGP3_AA>
4.7
> <PUBCHEM_EXACT_MASS>
298.193280068
> <PUBCHEM_MOLECULAR_FORMULA>
C20H26O2
> <PUBCHEM_MOLECULAR_WEIGHT>
298.4
> <PUBCHEM_OPENEYE_CAN_SMILES>
CC12CCC3C(C1CCC2C=O)CCC4=C3C=CC(=C4)OC
> <PUBCHEM_OPENEYE_ISO_SMILES>
CC12CCC3C(C1CCC2C=O)CCC4=C3C=CC(=C4)OC
> <PUBCHEM_CACTVS_TPSA>
26.3
> <PUBCHEM_MONOISOTOPIC_WEIGHT>
298.193280068
> <PUBCHEM_TOTAL_CHARGE>
0
> <PUBCHEM_HEAVY_ATOM_COUNT>
22
> <PUBCHEM_ATOM_DEF_STEREO_COUNT>
0
> <PUBCHEM_ATOM_UDEF_STEREO_COUNT>
5
> <PUBCHEM_BOND_DEF_STEREO_COUNT>
0
> <PUBCHEM_BOND_UDEF_STEREO_COUNT>
0
> <PUBCHEM_ISOTOPIC_ATOM_COUNT>
0
> <PUBCHEM_COMPONENT_COUNT>
1
> <PUBCHEM_CACTVS_TAUTO_COUNT>
-1
> <PUBCHEM_COORDINATE_TYPE>
1
5
255
> <PUBCHEM_BONDANNOTATIONS>
14  16  8
14  18  8
16  19  8
18  20  8
19  21  8
20  21  8
3  13  3
4  9  3
5  12  3
6  17  3
7  10  3
$$$$
