522264
  -OEChem-10302200292D
 21 21  0     1  0  0  0  0  0999 V2000
    2.5369    1.7500    0.0000 O   0  0  0  0  0  0  0  0  0  0  0  0
    4.2690    0.7500    0.0000 N   0  0  0  0  0  0  0  0  0  0  0  0
    4.2690    1.7500    0.0000 N   0  3  0  0  0  0  0  0  0  0  0  0
    4.2690    2.7500    0.0000 N   0  5  0  0  0  0  0  0  0  0  0  0
    3.4030    0.2500    0.0000 C   0  0  3  0  0  0  0  0  0  0  0  0
    3.4030   -0.7500    0.0000 C   0  0  0  0  0  0  0  0  0  0  0  0
    2.5369    0.7500    0.0000 C   0  0  0  0  0  0  0  0  0  0  0  0
    2.5369   -1.2500    0.0000 C   0  0  0  0  0  0  0  0  0  0  0  0
    4.2690   -1.2500    0.0000 C   0  0  0  0  0  0  0  0  0  0  0  0
    2.5369   -2.2500    0.0000 C   0  0  0  0  0  0  0  0  0  0  0  0
    4.2690   -2.2500    0.0000 C   0  0  0  0  0  0  0  0  0  0  0  0
    3.4030   -2.7500    0.0000 C   0  0  0  0  0  0  0  0  0  0  0  0
    3.4030    0.8700    0.0000 H   0  0  0  0  0  0  0  0  0  0  0  0
    1.9264    0.8577    0.0000 H   0  0  0  0  0  0  0  0  0  0  0  0
    2.3249    0.1674    0.0000 H   0  0  0  0  0  0  0  0  0  0  0  0
    2.0000   -0.9400    0.0000 H   0  0  0  0  0  0  0  0  0  0  0  0
    4.8059   -0.9400    0.0000 H   0  0  0  0  0  0  0  0  0  0  0  0
    2.0000   -2.5600    0.0000 H   0  0  0  0  0  0  0  0  0  0  0  0
    4.8059   -2.5600    0.0000 H   0  0  0  0  0  0  0  0  0  0  0  0
    3.4030   -3.3700    0.0000 H   0  0  0  0  0  0  0  0  0  0  0  0
    2.0000    2.0600    0.0000 H   0  0  0  0  0  0  0  0  0  0  0  0
  1  7  1  0  0  0  0
  1 21  1  0  0  0  0
  2  3  2  0  0  0  0
  2  5  1  0  0  0  0
  3  4  2  0  0  0  0
  5  6  1  0  0  0  0
  5  7  1  0  0  0  0
  5 13  1  0  0  0  0
  6  8  2  0  0  0  0
  6  9  1  0  0  0  0
  7 14  1  0  0  0  0
  7 15  1  0  0  0  0
  8 10  1  0  0  0  0
  8 16  1  0  0  0  0
  9 11  2  0  0  0  0
  9 17  1  0  0  0  0
 10 12  2  0  0  0  0
 10 18  1  0  0  0  0
 11 12  1  0  0  0  0
 11 19  1  0  0  0  0
 12 20  1  0  0  0  0
M  CHG  2   3   1   4  -1
M  END
> <PUBCHEM_COMPOUND_CID>
522264
> <PUBCHEM_COMPOUND_CANONICALIZED>
1
> <PUBCHEM_CACTVS_COMPLEXITY>
171
> <PUBCHEM_CACTVS_HBOND_ACCEPTOR>
3
> <PUBCHEM_CACTVS_HBOND_DONOR>
1
> <PUBCHEM_CACTVS_ROTATABLE_BOND>
3
> <PUBCHEM_CACTVS_SUBSKEYS>
AAADccBzIAAAAAAAAAAAAAAAAAAAAAAAAAAwAAAAAAAAAAABAAAAHgAICAAADCjhmAYwAIAAAgCCAiBCAACCAAAgAAAIiAAABIgKMCKAkRGAYABkwAEIiAeQwKAOAAAAAAAAAAAAAAAAAAAAAAAAAAAAAA==
> <PUBCHEM_IUPAC_OPENEYE_NAME>
2-azido-2-phenyl-ethanol
> <PUBCHEM_IUPAC_CAS_NAME>
2-azido-2-phenylethanol
> <PUBCHEM_IUPAC_NAME_MARKUP>
2-azido-2-phenylethanol
> <PUBCHEM_IUPAC_NAME>
2-azido-2-phenylethanol
> <PUBCHEM_IUPAC_SYSTEMATIC_NAME>
2-azido-2-phenyl-ethanol
> <PUBCHEM_IUPAC_TRADITIONAL_NAME>
2-azido-2-phenyl-ethanol
> <PUBCHEM_IUPAC_INCHI>
InChI=1S/C8H9N3O/c9-11-10-8(6-12)7-4-2-1-3-5-7/h1-5,8,12H,6H2
> <PUBCHEM_IUPAC_INCHIKEY>
IAMPGUPDKQOGBT-UHFFFAOYSA-N
> <PUBCHEM_XLOGP3_AA>
2.1
> <PUBCHEM_EXACT_MASS>
163.074561919
> <PUBCHEM_MOLECULAR_FORMULA>
C8H9N3O
> <PUBCHEM_MOLECULAR_WEIGHT>
163.18
> <PUBCHEM_OPENEYE_CAN_SMILES>
C1=CC=C(C=C1)C(CO)N=[N+]=[N-]
> <PUBCHEM_OPENEYE_ISO_SMILES>
C1=CC=C(C=C1)C(CO)N=[N+]=[N-]
> <PUBCHEM_CACTVS_TPSA>
34.6
> <PUBCHEM_MONOISOTOPIC_WEIGHT>
163.074561919
> <PUBCHEM_TOTAL_CHARGE>
0
> <PUBCHEM_HEAVY_ATOM_COUNT>
12
> <PUBCHEM_ATOM_DEF_STEREO_COUNT>
0
> <PUBCHEM_ATOM_UDEF_STEREO_COUNT>
1
> <PUBCHEM_BOND_DEF_STEREO_COUNT>
0
> <PUBCHEM_BOND_UDEF_STEREO_COUNT>
0
> <PUBCHEM_ISOTOPIC_ATOM_COUNT>
0
> <PUBCHEM_COMPONENT_COUNT>
1
> <PUBCHEM_CACTVS_TAUTO_COUNT>
-1
> <PUBCHEM_COORDINATE_TYPE>
1
5
255
> <PUBCHEM_BONDANNOTATIONS>
10  12  8
11  12  8
5  7  3
6  8  8
6  9  8
8  10  8
9  11  8
$$$$
