522257
  -OEChem-10302200292D
 28 30  0     1  0  0  0  0  0999 V2000
    3.3066   -1.3066    0.0000 C   0  0  3  0  0  0  0  0  0  0  0  0
    2.3827   -0.9239    0.0000 C   0  0  3  0  0  0  0  0  0  0  0  0
    4.2304    0.9239    0.0000 C   0  0  3  0  0  0  0  0  0  0  0  0
    3.3066    1.3066    0.0000 C   0  0  3  0  0  0  0  0  0  0  0  0
    2.9129   -0.3812    0.0000 C   0  0  0  0  0  0  0  0  0  0  0  0
    3.3154   -0.5479    0.0000 C   0  0  0  0  0  0  0  0  0  0  0  0
    3.2978    0.5479    0.0000 C   0  0  0  0  0  0  0  0  0  0  0  0
    3.7002    0.3812    0.0000 C   0  0  0  0  0  0  0  0  0  0  0  0
    4.2304   -0.9239    0.0000 C   0  0  0  0  0  0  0  0  0  0  0  0
    2.0000    0.0000    0.0000 C   0  0  0  0  0  0  0  0  0  0  0  0
    4.6131    0.0000    0.0000 C   0  0  0  0  0  0  0  0  0  0  0  0
    2.3827    0.9239    0.0000 C   0  0  0  0  0  0  0  0  0  0  0  0
    3.3066   -1.9266    0.0000 H   0  0  0  0  0  0  0  0  0  0  0  0
    1.9443   -1.3623    0.0000 H   0  0  0  0  0  0  0  0  0  0  0  0
    4.6688    1.3623    0.0000 H   0  0  0  0  0  0  0  0  0  0  0  0
    3.3066    1.9266    0.0000 H   0  0  0  0  0  0  0  0  0  0  0  0
    2.4198   -0.0053    0.0000 H   0  0  0  0  0  0  0  0  0  0  0  0
    2.4234   -0.7617    0.0000 H   0  0  0  0  0  0  0  0  0  0  0  0
    3.3924   -1.1631    0.0000 H   0  0  0  0  0  0  0  0  0  0  0  0
    3.9298   -0.6308    0.0000 H   0  0  0  0  0  0  0  0  0  0  0  0
    3.2207    1.1631    0.0000 H   0  0  0  0  0  0  0  0  0  0  0  0
    2.6833    0.6308    0.0000 H   0  0  0  0  0  0  0  0  0  0  0  0
    4.1933    0.0053    0.0000 H   0  0  0  0  0  0  0  0  0  0  0  0
    4.1897    0.7617    0.0000 H   0  0  0  0  0  0  0  0  0  0  0  0
    4.6688   -1.3623    0.0000 H   0  0  0  0  0  0  0  0  0  0  0  0
    1.3800    0.0000    0.0000 H   0  0  0  0  0  0  0  0  0  0  0  0
    5.2331   -0.0000    0.0000 H   0  0  0  0  0  0  0  0  0  0  0  0
    1.9443    1.3623    0.0000 H   0  0  0  0  0  0  0  0  0  0  0  0
  1  2  1  0  0  0  0
  1  5  1  0  0  0  0
  1  9  1  0  0  0  0
  1 13  1  0  0  0  0
  2  6  1  0  0  0  0
  2 10  1  0  0  0  0
  2 14  1  0  0  0  0
  3  4  1  0  0  0  0
  3  7  1  0  0  0  0
  3 11  1  0  0  0  0
  3 15  1  0  0  0  0
  4  8  1  0  0  0  0
  4 12  1  0  0  0  0
  4 16  1  0  0  0  0
  5  7  1  0  0  0  0
  5 17  1  0  0  0  0
  5 18  1  0  0  0  0
  6  8  1  0  0  0  0
  6 19  1  0  0  0  0
  6 20  1  0  0  0  0
  7 21  1  0  0  0  0
  7 22  1  0  0  0  0
  8 23  1  0  0  0  0
  8 24  1  0  0  0  0
  9 11  2  0  0  0  0
  9 25  1  0  0  0  0
 10 12  2  0  0  0  0
 10 26  1  0  0  0  0
 11 27  1  0  0  0  0
 12 28  1  0  0  0  0
M  END
> <PUBCHEM_COMPOUND_CID>
522257
> <PUBCHEM_COMPOUND_CANONICALIZED>
1
> <PUBCHEM_CACTVS_COMPLEXITY>
186
> <PUBCHEM_CACTVS_HBOND_ACCEPTOR>
0
> <PUBCHEM_CACTVS_HBOND_DONOR>
0
> <PUBCHEM_CACTVS_ROTATABLE_BOND>
0
> <PUBCHEM_CACTVS_SUBSKEYS>
AAADceBwAAAAAAAAAAAAAAAAAAAAAAAAAAAgQAAAAAAYIAAAAAAAGAAAAAAADQCAAAAAAAAAAACAACBCAAAAAAAgAAAICAAAAAgAAAIAAQAAAAAAgAAIAAMAgMAOgAAAAAAAAAAAAAAAAAAAAAAAAAAAAA==
> <PUBCHEM_IUPAC_OPENEYE_NAME>
tricyclo[4.2.2.22,5]dodeca-3,7-diene
> <PUBCHEM_IUPAC_CAS_NAME>
tricyclo[4.2.2.22,5]dodeca-3,7-diene
> <PUBCHEM_IUPAC_NAME_MARKUP>
tricyclo[4.2.2.2<SUP>2,5</SUP>]dodeca-3,7-diene
> <PUBCHEM_IUPAC_NAME>
tricyclo[4.2.2.22,5]dodeca-3,7-diene
> <PUBCHEM_IUPAC_SYSTEMATIC_NAME>
tricyclo[4.2.2.22,5]dodeca-3,7-diene
> <PUBCHEM_IUPAC_TRADITIONAL_NAME>
tricyclo[4.2.2.22,5]dodeca-3,7-diene
> <PUBCHEM_IUPAC_INCHI>
InChI=1S/C12H16/c1-2-10-4-3-9(1)11-5-7-12(10)8-6-11/h1-2,5,7,9-12H,3-4,6,8H2
> <PUBCHEM_IUPAC_INCHIKEY>
YPRIZWMBCSCOSH-UHFFFAOYSA-N
> <PUBCHEM_XLOGP3_AA>
3.6
> <PUBCHEM_EXACT_MASS>
160.125200510
> <PUBCHEM_MOLECULAR_FORMULA>
C12H16
> <PUBCHEM_MOLECULAR_WEIGHT>
160.25
> <PUBCHEM_OPENEYE_CAN_SMILES>
C1CC2C=CC1C3CCC2C=C3
> <PUBCHEM_OPENEYE_ISO_SMILES>
C1CC2C=CC1C3CCC2C=C3
> <PUBCHEM_CACTVS_TPSA>
0
> <PUBCHEM_MONOISOTOPIC_WEIGHT>
160.125200510
> <PUBCHEM_TOTAL_CHARGE>
0
> <PUBCHEM_HEAVY_ATOM_COUNT>
12
> <PUBCHEM_ATOM_DEF_STEREO_COUNT>
0
> <PUBCHEM_ATOM_UDEF_STEREO_COUNT>
4
> <PUBCHEM_BOND_DEF_STEREO_COUNT>
0
> <PUBCHEM_BOND_UDEF_STEREO_COUNT>
0
> <PUBCHEM_ISOTOPIC_ATOM_COUNT>
0
> <PUBCHEM_COMPONENT_COUNT>
1
> <PUBCHEM_CACTVS_TAUTO_COUNT>
-1
> <PUBCHEM_COORDINATE_TYPE>
1
5
255
> <PUBCHEM_BONDANNOTATIONS>
1  5  3
2  6  3
3  7  3
4  8  3
$$$$
