522225
  -OEChem-10302200292D
 30 29  0     1  0  0  0  0  0999 V2000
    2.6340   -0.7500    0.0000 O   0  0  0  0  0  0  0  0  0  0  0  0
    4.3660    0.2500    0.0000 C   0  0  0  0  0  0  0  0  0  0  0  0
    3.5000   -0.2500    0.0000 C   0  0  3  0  0  0  0  0  0  0  0  0
    5.2320    0.7500    0.0000 C   0  0  0  0  0  0  0  0  0  0  0  0
    3.0000    0.6160    0.0000 C   0  0  0  0  0  0  0  0  0  0  0  0
    3.8660    1.1160    0.0000 C   0  0  0  0  0  0  0  0  0  0  0  0
    4.8660   -0.6160    0.0000 C   0  0  0  0  0  0  0  0  0  0  0  0
    4.0000   -1.1160    0.0000 C   0  0  0  0  0  0  0  0  0  0  0  0
    6.0981    0.2500    0.0000 C   0  0  0  0  0  0  0  0  0  0  0  0
    2.0000    0.6160    0.0000 C   0  0  0  0  0  0  0  0  0  0  0  0
    5.6306    1.2250    0.0000 H   0  0  0  0  0  0  0  0  0  0  0  0
    4.8335    1.2250    0.0000 H   0  0  0  0  0  0  0  0  0  0  0  0
    3.5826    0.8281    0.0000 H   0  0  0  0  0  0  0  0  0  0  0  0
    2.8923    1.2266    0.0000 H   0  0  0  0  0  0  0  0  0  0  0  0
    4.4030    1.4260    0.0000 H   0  0  0  0  0  0  0  0  0  0  0  0
    3.5560    1.6530    0.0000 H   0  0  0  0  0  0  0  0  0  0  0  0
    3.3291    0.8060    0.0000 H   0  0  0  0  0  0  0  0  0  0  0  0
    4.3291   -0.9260    0.0000 H   0  0  0  0  0  0  0  0  0  0  0  0
    5.1760   -1.1530    0.0000 H   0  0  0  0  0  0  0  0  0  0  0  0
    5.4030   -0.3060    0.0000 H   0  0  0  0  0  0  0  0  0  0  0  0
    3.4631   -1.4260    0.0000 H   0  0  0  0  0  0  0  0  0  0  0  0
    4.3100   -1.6530    0.0000 H   0  0  0  0  0  0  0  0  0  0  0  0
    4.5369   -0.8060    0.0000 H   0  0  0  0  0  0  0  0  0  0  0  0
    5.7881   -0.2869    0.0000 H   0  0  0  0  0  0  0  0  0  0  0  0
    6.6350   -0.0600    0.0000 H   0  0  0  0  0  0  0  0  0  0  0  0
    6.4081    0.7869    0.0000 H   0  0  0  0  0  0  0  0  0  0  0  0
    2.0970   -0.4400    0.0000 H   0  0  0  0  0  0  0  0  0  0  0  0
    2.0000    1.2360    0.0000 H   0  0  0  0  0  0  0  0  0  0  0  0
    1.3800    0.6160    0.0000 H   0  0  0  0  0  0  0  0  0  0  0  0
    2.0000   -0.0040    0.0000 H   0  0  0  0  0  0  0  0  0  0  0  0
  1  3  1  0  0  0  0
  1 27  1  0  0  0  0
  2  3  1  0  0  0  0
  2  4  1  0  0  0  0
  2  6  1  0  0  0  0
  2  7  1  0  0  0  0
  3  5  1  0  0  0  0
  3  8  1  0  0  0  0
  4  9  1  0  0  0  0
  4 11  1  0  0  0  0
  4 12  1  0  0  0  0
  5 10  1  0  0  0  0
  5 13  1  0  0  0  0
  5 14  1  0  0  0  0
  6 15  1  0  0  0  0
  6 16  1  0  0  0  0
  6 17  1  0  0  0  0
  7 18  1  0  0  0  0
  7 19  1  0  0  0  0
  7 20  1  0  0  0  0
  8 21  1  0  0  0  0
  8 22  1  0  0  0  0
  8 23  1  0  0  0  0
  9 24  1  0  0  0  0
  9 25  1  0  0  0  0
  9 26  1  0  0  0  0
 10 28  1  0  0  0  0
 10 29  1  0  0  0  0
 10 30  1  0  0  0  0
M  END
> <PUBCHEM_COMPOUND_CID>
522225
> <PUBCHEM_COMPOUND_CANONICALIZED>
1
> <PUBCHEM_CACTVS_COMPLEXITY>
107
> <PUBCHEM_CACTVS_HBOND_ACCEPTOR>
1
> <PUBCHEM_CACTVS_HBOND_DONOR>
1
> <PUBCHEM_CACTVS_ROTATABLE_BOND>
3
> <PUBCHEM_CACTVS_SUBSKEYS>
AAADceBwIAAAAAAAAAAAAAAAAAAAAAAAAAAAAAAAAAAAAAAAAAAAGgAACAAADkSAgAACAAAAAgAAAAAAAAAAAAAAAAAAAAAAAAAAAAIAAAAAQAAEAAAAAAEAAAAPgAAAAAAAAAAAAAAAAAAAAAAAAAAAAA==
> <PUBCHEM_IUPAC_OPENEYE_NAME>
3,4,4-trimethylhexan-3-ol
> <PUBCHEM_IUPAC_CAS_NAME>
3,4,4-trimethyl-3-hexanol
> <PUBCHEM_IUPAC_NAME_MARKUP>
3,4,4-trimethylhexan-3-ol
> <PUBCHEM_IUPAC_NAME>
3,4,4-trimethylhexan-3-ol
> <PUBCHEM_IUPAC_SYSTEMATIC_NAME>
3,4,4-trimethylhexan-3-ol
> <PUBCHEM_IUPAC_TRADITIONAL_NAME>
3,4,4-trimethylhexan-3-ol
> <PUBCHEM_IUPAC_INCHI>
InChI=1S/C9H20O/c1-6-8(3,4)9(5,10)7-2/h10H,6-7H2,1-5H3
> <PUBCHEM_IUPAC_INCHIKEY>
QWJDXMFJOMPTCV-UHFFFAOYSA-N
> <PUBCHEM_XLOGP3_AA>
2.8
> <PUBCHEM_EXACT_MASS>
144.151415257
> <PUBCHEM_MOLECULAR_FORMULA>
C9H20O
> <PUBCHEM_MOLECULAR_WEIGHT>
144.25
> <PUBCHEM_OPENEYE_CAN_SMILES>
CCC(C)(C)C(C)(CC)O
> <PUBCHEM_OPENEYE_ISO_SMILES>
CCC(C)(C)C(C)(CC)O
> <PUBCHEM_CACTVS_TPSA>
20.2
> <PUBCHEM_MONOISOTOPIC_WEIGHT>
144.151415257
> <PUBCHEM_TOTAL_CHARGE>
0
> <PUBCHEM_HEAVY_ATOM_COUNT>
10
> <PUBCHEM_ATOM_DEF_STEREO_COUNT>
0
> <PUBCHEM_ATOM_UDEF_STEREO_COUNT>
1
> <PUBCHEM_BOND_DEF_STEREO_COUNT>
0
> <PUBCHEM_BOND_UDEF_STEREO_COUNT>
0
> <PUBCHEM_ISOTOPIC_ATOM_COUNT>
0
> <PUBCHEM_COMPONENT_COUNT>
1
> <PUBCHEM_CACTVS_TAUTO_COUNT>
1
> <PUBCHEM_COORDINATE_TYPE>
1
5
255
> <PUBCHEM_BONDANNOTATIONS>
3  1  3
$$$$
