522227
  -OEChem-10302200292D
 30 29  0     1  0  0  0  0  0999 V2000
    2.5369   -1.0670    0.0000 O   0  0  0  0  0  0  0  0  0  0  0  0
    4.2690   -0.0670    0.0000 C   0  0  3  0  0  0  0  0  0  0  0  0
    3.4030   -0.5670    0.0000 C   0  0  0  0  0  0  0  0  0  0  0  0
    5.1350   -0.5670    0.0000 C   0  0  0  0  0  0  0  0  0  0  0  0
    4.2690    0.9330    0.0000 C   0  0  0  0  0  0  0  0  0  0  0  0
    6.0010   -0.0670    0.0000 C   0  0  0  0  0  0  0  0  0  0  0  0
    2.9030    0.2990    0.0000 C   0  0  0  0  0  0  0  0  0  0  0  0
    3.9030   -1.4330    0.0000 C   0  0  0  0  0  0  0  0  0  0  0  0
    5.1350    1.4330    0.0000 C   0  0  0  0  0  0  0  0  0  0  0  0
    6.8671   -0.5670    0.0000 C   0  0  0  0  0  0  0  0  0  0  0  0
    4.2690   -0.9170    0.0000 H   0  0  0  0  0  0  0  0  0  0  0  0
    4.7365   -1.0419    0.0000 H   0  0  0  0  0  0  0  0  0  0  0  0
    5.5335   -1.0419    0.0000 H   0  0  0  0  0  0  0  0  0  0  0  0
    4.0569    1.5156    0.0000 H   0  0  0  0  0  0  0  0  0  0  0  0
    3.6584    0.8254    0.0000 H   0  0  0  0  0  0  0  0  0  0  0  0
    6.3996    0.4080    0.0000 H   0  0  0  0  0  0  0  0  0  0  0  0
    5.6025    0.4080    0.0000 H   0  0  0  0  0  0  0  0  0  0  0  0
    3.4399    0.6090    0.0000 H   0  0  0  0  0  0  0  0  0  0  0  0
    2.5930    0.8360    0.0000 H   0  0  0  0  0  0  0  0  0  0  0  0
    2.3660   -0.0110    0.0000 H   0  0  0  0  0  0  0  0  0  0  0  0
    3.3660   -1.7430    0.0000 H   0  0  0  0  0  0  0  0  0  0  0  0
    4.2130   -1.9700    0.0000 H   0  0  0  0  0  0  0  0  0  0  0  0
    4.4399   -1.1230    0.0000 H   0  0  0  0  0  0  0  0  0  0  0  0
    5.4450    0.8961    0.0000 H   0  0  0  0  0  0  0  0  0  0  0  0
    5.6720    1.7430    0.0000 H   0  0  0  0  0  0  0  0  0  0  0  0
    4.8250    1.9700    0.0000 H   0  0  0  0  0  0  0  0  0  0  0  0
    2.0000   -0.7570    0.0000 H   0  0  0  0  0  0  0  0  0  0  0  0
    6.5571   -1.1039    0.0000 H   0  0  0  0  0  0  0  0  0  0  0  0
    7.4040   -0.8770    0.0000 H   0  0  0  0  0  0  0  0  0  0  0  0
    7.1771   -0.0301    0.0000 H   0  0  0  0  0  0  0  0  0  0  0  0
  1  3  1  0  0  0  0
  1 27  1  0  0  0  0
  2  3  1  0  0  0  0
  2  4  1  0  0  0  0
  2  5  1  0  0  0  0
  2 11  1  0  0  0  0
  3  7  1  0  0  0  0
  3  8  1  0  0  0  0
  4  6  1  0  0  0  0
  4 12  1  0  0  0  0
  4 13  1  0  0  0  0
  5  9  1  0  0  0  0
  5 14  1  0  0  0  0
  5 15  1  0  0  0  0
  6 10  1  0  0  0  0
  6 16  1  0  0  0  0
  6 17  1  0  0  0  0
  7 18  1  0  0  0  0
  7 19  1  0  0  0  0
  7 20  1  0  0  0  0
  8 21  1  0  0  0  0
  8 22  1  0  0  0  0
  8 23  1  0  0  0  0
  9 24  1  0  0  0  0
  9 25  1  0  0  0  0
  9 26  1  0  0  0  0
 10 28  1  0  0  0  0
 10 29  1  0  0  0  0
 10 30  1  0  0  0  0
M  END
> <PUBCHEM_COMPOUND_CID>
522227
> <PUBCHEM_COMPOUND_CANONICALIZED>
1
> <PUBCHEM_CACTVS_COMPLEXITY>
86.7
> <PUBCHEM_CACTVS_HBOND_ACCEPTOR>
1
> <PUBCHEM_CACTVS_HBOND_DONOR>
1
> <PUBCHEM_CACTVS_ROTATABLE_BOND>
4
> <PUBCHEM_CACTVS_SUBSKEYS>
AAADceBwIAAAAAAAAAAAAAAAAAAAAAAAAAAAAAAAAAAAAAAAAAAAGgAACAAADUSAgAACAAAAAgAAAAAAAAAAAAAAAAAAAAAAAAAAAAIAAAAAQAAEAAAAAAGAAAAOgAAAAAAAAAAAAAAAAAAAAAAAAAAAAA==
> <PUBCHEM_IUPAC_OPENEYE_NAME>
3-ethyl-2-methyl-hexan-2-ol
> <PUBCHEM_IUPAC_CAS_NAME>
3-ethyl-2-methyl-2-hexanol
> <PUBCHEM_IUPAC_NAME_MARKUP>
3-ethyl-2-methylhexan-2-ol
> <PUBCHEM_IUPAC_NAME>
3-ethyl-2-methylhexan-2-ol
> <PUBCHEM_IUPAC_SYSTEMATIC_NAME>
3-ethyl-2-methyl-hexan-2-ol
> <PUBCHEM_IUPAC_TRADITIONAL_NAME>
3-ethyl-2-methyl-hexan-2-ol
> <PUBCHEM_IUPAC_INCHI>
InChI=1S/C9H20O/c1-5-7-8(6-2)9(3,4)10/h8,10H,5-7H2,1-4H3
> <PUBCHEM_IUPAC_INCHIKEY>
HTOYXTGJEOUKPM-UHFFFAOYSA-N
> <PUBCHEM_XLOGP3_AA>
2.7
> <PUBCHEM_EXACT_MASS>
144.151415257
> <PUBCHEM_MOLECULAR_FORMULA>
C9H20O
> <PUBCHEM_MOLECULAR_WEIGHT>
144.25
> <PUBCHEM_OPENEYE_CAN_SMILES>
CCCC(CC)C(C)(C)O
> <PUBCHEM_OPENEYE_ISO_SMILES>
CCCC(CC)C(C)(C)O
> <PUBCHEM_CACTVS_TPSA>
20.2
> <PUBCHEM_MONOISOTOPIC_WEIGHT>
144.151415257
> <PUBCHEM_TOTAL_CHARGE>
0
> <PUBCHEM_HEAVY_ATOM_COUNT>
10
> <PUBCHEM_ATOM_DEF_STEREO_COUNT>
0
> <PUBCHEM_ATOM_UDEF_STEREO_COUNT>
1
> <PUBCHEM_BOND_DEF_STEREO_COUNT>
0
> <PUBCHEM_BOND_UDEF_STEREO_COUNT>
0
> <PUBCHEM_ISOTOPIC_ATOM_COUNT>
0
> <PUBCHEM_COMPONENT_COUNT>
1
> <PUBCHEM_CACTVS_TAUTO_COUNT>
1
> <PUBCHEM_COORDINATE_TYPE>
1
5
255
> <PUBCHEM_BONDANNOTATIONS>
2  11  3
$$$$
