522346
  -OEChem-10302200292D
 39 40  0     1  0  0  0  0  0999 V2000
    3.8660   -0.9400    0.0000 N   0  0  0  0  0  0  0  0  0  0  0  0
    5.6260   -0.9747    0.0000 N   0  0  0  0  0  0  0  0  0  0  0  0
    4.7320    0.5600    0.0000 C   0  0  3  0  0  0  0  0  0  0  0  0
    3.8660    1.0600    0.0000 C   0  0  0  0  0  0  0  0  0  0  0  0
    5.6260    1.0947    0.0000 C   0  0  0  0  0  0  0  0  0  0  0  0
    3.0000   -0.4400    0.0000 C   0  0  0  0  0  0  0  0  0  0  0  0
    4.7320   -0.4400    0.0000 C   0  0  0  0  0  0  0  0  0  0  0  0
    3.0000    0.5600    0.0000 C   0  0  0  0  0  0  0  0  0  0  0  0
    6.5321    0.5808    0.0000 C   0  0  0  0  0  0  0  0  0  0  0  0
    6.5321   -0.4608    0.0000 C   0  0  0  0  0  0  0  0  0  0  0  0
    4.7320    1.5600    0.0000 C   0  0  0  0  0  0  0  0  0  0  0  0
    2.0000   -0.4400    0.0000 C   0  0  0  0  0  0  0  0  0  0  0  0
    2.5000   -1.3060    0.0000 C   0  0  0  0  0  0  0  0  0  0  0  0
    7.5320   -0.4647    0.0000 C   0  0  0  0  0  0  0  0  0  0  0  0
    7.0287   -1.3288    0.0000 C   0  0  0  0  0  0  0  0  0  0  0  0
    4.2646    1.5350    0.0000 H   0  0  0  0  0  0  0  0  0  0  0  0
    3.4675    1.5350    0.0000 H   0  0  0  0  0  0  0  0  0  0  0  0
    6.0196    1.5737    0.0000 H   0  0  0  0  0  0  0  0  0  0  0  0
    5.2214    1.5644    0.0000 H   0  0  0  0  0  0  0  0  0  0  0  0
    2.7880    1.1426    0.0000 H   0  0  0  0  0  0  0  0  0  0  0  0
    2.3894    0.4523    0.0000 H   0  0  0  0  0  0  0  0  0  0  0  0
    7.1429    0.4747    0.0000 H   0  0  0  0  0  0  0  0  0  0  0  0
    6.7411    1.1645    0.0000 H   0  0  0  0  0  0  0  0  0  0  0  0
    3.8660   -1.5600    0.0000 H   0  0  0  0  0  0  0  0  0  0  0  0
    5.3520    1.5600    0.0000 H   0  0  0  0  0  0  0  0  0  0  0  0
    4.7320    2.1800    0.0000 H   0  0  0  0  0  0  0  0  0  0  0  0
    4.1120    1.5600    0.0000 H   0  0  0  0  0  0  0  0  0  0  0  0
    2.0000    0.1800    0.0000 H   0  0  0  0  0  0  0  0  0  0  0  0
    1.3800   -0.4400    0.0000 H   0  0  0  0  0  0  0  0  0  0  0  0
    2.0000   -1.0600    0.0000 H   0  0  0  0  0  0  0  0  0  0  0  0
    1.9631   -0.9960    0.0000 H   0  0  0  0  0  0  0  0  0  0  0  0
    2.1900   -1.8430    0.0000 H   0  0  0  0  0  0  0  0  0  0  0  0
    3.0369   -1.6160    0.0000 H   0  0  0  0  0  0  0  0  0  0  0  0
    7.5297   -1.0847    0.0000 H   0  0  0  0  0  0  0  0  0  0  0  0
    8.1520   -0.4671    0.0000 H   0  0  0  0  0  0  0  0  0  0  0  0
    7.5344    0.1553    0.0000 H   0  0  0  0  0  0  0  0  0  0  0  0
    6.4906   -1.6367    0.0000 H   0  0  0  0  0  0  0  0  0  0  0  0
    7.3366   -1.8669    0.0000 H   0  0  0  0  0  0  0  0  0  0  0  0
    7.5668   -1.0208    0.0000 H   0  0  0  0  0  0  0  0  0  0  0  0
  1  6  1  0  0  0  0
  1  7  1  0  0  0  0
  1 24  1  0  0  0  0
  2  7  2  0  0  0  0
  2 10  1  0  0  0  0
  3  4  1  0  0  0  0
  3  5  1  0  0  0  0
  3  7  1  0  0  0  0
  3 11  1  0  0  0  0
  4  8  1  0  0  0  0
  4 16  1  0  0  0  0
  4 17  1  0  0  0  0
  5  9  1  0  0  0  0
  5 18  1  0  0  0  0
  5 19  1  0  0  0  0
  6  8  1  0  0  0  0
  6 12  1  0  0  0  0
  6 13  1  0  0  0  0
  8 20  1  0  0  0  0
  8 21  1  0  0  0  0
  9 10  1  0  0  0  0
  9 22  1  0  0  0  0
  9 23  1  0  0  0  0
 10 14  1  0  0  0  0
 10 15  1  0  0  0  0
 11 25  1  0  0  0  0
 11 26  1  0  0  0  0
 11 27  1  0  0  0  0
 12 28  1  0  0  0  0
 12 29  1  0  0  0  0
 12 30  1  0  0  0  0
 13 31  1  0  0  0  0
 13 32  1  0  0  0  0
 13 33  1  0  0  0  0
 14 34  1  0  0  0  0
 14 35  1  0  0  0  0
 14 36  1  0  0  0  0
 15 37  1  0  0  0  0
 15 38  1  0  0  0  0
 15 39  1  0  0  0  0
M  END
> <PUBCHEM_COMPOUND_CID>
522346
> <PUBCHEM_COMPOUND_CANONICALIZED>
1
> <PUBCHEM_CACTVS_COMPLEXITY>
302
> <PUBCHEM_CACTVS_HBOND_ACCEPTOR>
1
> <PUBCHEM_CACTVS_HBOND_DONOR>
1
> <PUBCHEM_CACTVS_ROTATABLE_BOND>
0
> <PUBCHEM_CACTVS_SUBSKEYS>
AAADceBzAAAAAAAAAAAAAAAAAAAAAAAAAAAsQAAAAAAAAACAAAAAHAAQAAAADoiBAAADAALAAAAgAAIgJAAAAAEAAAABAAAgAAAAAAIAiAAEAAAAEACAAAEQgMAPAAAAAAAAAAAAAAAAAAAAAAAAAAAAAA==
> <PUBCHEM_IUPAC_OPENEYE_NAME>
2,2,4a,7,7-pentamethyl-3,4,5,6-tetrahydro-1H-1,8-naphthyridine
> <PUBCHEM_IUPAC_CAS_NAME>
2,2,4a,7,7-pentamethyl-3,4,5,6-tetrahydro-1H-1,8-naphthyridine
> <PUBCHEM_IUPAC_NAME_MARKUP>
2,2,4<I>a</I>,7,7-pentamethyl-3,4,5,6-tetrahydro-1<I>H</I>-1,8-naphthyridine
> <PUBCHEM_IUPAC_NAME>
2,2,4a,7,7-pentamethyl-3,4,5,6-tetrahydro-1H-1,8-naphthyridine
> <PUBCHEM_IUPAC_SYSTEMATIC_NAME>
2,2,4a,7,7-pentamethyl-3,4,5,6-tetrahydro-1H-1,8-naphthyridine
> <PUBCHEM_IUPAC_TRADITIONAL_NAME>
2,2,4a,7,7-pentamethyl-3,4,5,6-tetrahydro-1H-1,8-naphthyridine
> <PUBCHEM_IUPAC_INCHI>
InChI=1S/C13H24N2/c1-11(2)6-8-13(5)9-7-12(3,4)15-10(13)14-11/h6-9H2,1-5H3,(H,14,15)
> <PUBCHEM_IUPAC_INCHIKEY>
OEOPGVPCZRQSMQ-UHFFFAOYSA-N
> <PUBCHEM_XLOGP3_AA>
2
> <PUBCHEM_EXACT_MASS>
208.193948774
> <PUBCHEM_MOLECULAR_FORMULA>
C13H24N2
> <PUBCHEM_MOLECULAR_WEIGHT>
208.34
> <PUBCHEM_OPENEYE_CAN_SMILES>
CC1(CCC2(CCC(N=C2N1)(C)C)C)C
> <PUBCHEM_OPENEYE_ISO_SMILES>
CC1(CCC2(CCC(N=C2N1)(C)C)C)C
> <PUBCHEM_CACTVS_TPSA>
24.4
> <PUBCHEM_MONOISOTOPIC_WEIGHT>
208.193948774
> <PUBCHEM_TOTAL_CHARGE>
0
> <PUBCHEM_HEAVY_ATOM_COUNT>
15
> <PUBCHEM_ATOM_DEF_STEREO_COUNT>
0
> <PUBCHEM_ATOM_UDEF_STEREO_COUNT>
1
> <PUBCHEM_BOND_DEF_STEREO_COUNT>
0
> <PUBCHEM_BOND_UDEF_STEREO_COUNT>
0
> <PUBCHEM_ISOTOPIC_ATOM_COUNT>
0
> <PUBCHEM_COMPONENT_COUNT>
1
> <PUBCHEM_CACTVS_TAUTO_COUNT>
1
> <PUBCHEM_COORDINATE_TYPE>
1
5
255
> <PUBCHEM_BONDANNOTATIONS>
3  11  3
$$$$
