522300
  -OEChem-10302200292D
 38 40  0     1  0  0  0  0  0999 V2000
    6.3981    1.6659    0.0000 O   0  0  0  0  0  0  0  0  0  0  0  0
    4.6660   -0.3341    0.0000 C   0  0  3  0  0  0  0  0  0  0  0  0
    5.5323   -0.8345    0.0000 C   0  0  0  0  0  0  0  0  0  0  0  0
    5.5321    0.1659    0.0000 C   0  0  3  0  0  0  0  0  0  0  0  0
    3.8000    0.1659    0.0000 C   0  0  3  0  0  0  0  0  0  0  0  0
    2.9061   -0.3688    0.0000 C   0  0  3  0  0  0  0  0  0  0  0  0
    3.8000    1.1659    0.0000 C   0  0  0  0  0  0  0  0  0  0  0  0
    5.5321    1.1659    0.0000 C   0  0  0  0  0  0  0  0  0  0  0  0
    6.5323   -0.8345    0.0000 C   0  0  0  0  0  0  0  0  0  0  0  0
    5.0323   -1.7006    0.0000 C   0  0  0  0  0  0  0  0  0  0  0  0
    3.8000   -0.8341    0.0000 C   0  0  0  0  0  0  0  0  0  0  0  0
    4.6660    1.6659    0.0000 C   0  0  0  0  0  0  0  0  0  0  0  0
    2.0000    0.1451    0.0000 C   0  0  0  0  0  0  0  0  0  0  0  0
    2.9061    1.7006    0.0000 C   0  0  0  0  0  0  0  0  0  0  0  0
    2.0000    1.1867    0.0000 C   0  0  0  0  0  0  0  0  0  0  0  0
    2.9176   -1.3687    0.0000 C   0  0  0  0  0  0  0  0  0  0  0  0
    4.3560   -0.8710    0.0000 H   0  0  0  0  0  0  0  0  0  0  0  0
    6.1521    0.1660    0.0000 H   0  0  0  0  0  0  0  0  0  0  0  0
    2.3721   -0.6839    0.0000 H   0  0  0  0  0  0  0  0  0  0  0  0
    6.5323   -1.4545    0.0000 H   0  0  0  0  0  0  0  0  0  0  0  0
    7.1523   -0.8345    0.0000 H   0  0  0  0  0  0  0  0  0  0  0  0
    6.5323   -0.2145    0.0000 H   0  0  0  0  0  0  0  0  0  0  0  0
    4.4954   -1.3906    0.0000 H   0  0  0  0  0  0  0  0  0  0  0  0
    4.7223   -2.2375    0.0000 H   0  0  0  0  0  0  0  0  0  0  0  0
    5.5692   -2.0106    0.0000 H   0  0  0  0  0  0  0  0  0  0  0  0
    3.1800   -0.8341    0.0000 H   0  0  0  0  0  0  0  0  0  0  0  0
    3.8000   -1.4541    0.0000 H   0  0  0  0  0  0  0  0  0  0  0  0
    4.4200   -0.8341    0.0000 H   0  0  0  0  0  0  0  0  0  0  0  0
    4.6660    2.2859    0.0000 H   0  0  0  0  0  0  0  0  0  0  0  0
    1.3891    0.2512    0.0000 H   0  0  0  0  0  0  0  0  0  0  0  0
    1.7909   -0.4386    0.0000 H   0  0  0  0  0  0  0  0  0  0  0  0
    3.3107    2.1704    0.0000 H   0  0  0  0  0  0  0  0  0  0  0  0
    2.5124    2.1796    0.0000 H   0  0  0  0  0  0  0  0  0  0  0  0
    1.7909    1.7704    0.0000 H   0  0  0  0  0  0  0  0  0  0  0  0
    1.3891    1.0806    0.0000 H   0  0  0  0  0  0  0  0  0  0  0  0
    2.2977   -1.3759    0.0000 H   0  0  0  0  0  0  0  0  0  0  0  0
    2.9248   -1.9886    0.0000 H   0  0  0  0  0  0  0  0  0  0  0  0
    3.5376   -1.3615    0.0000 H   0  0  0  0  0  0  0  0  0  0  0  0
  1  8  2  0  0  0  0
  2  3  1  0  0  0  0
  2  4  1  0  0  0  0
  2  5  1  0  0  0  0
  2 17  1  0  0  0  0
  3  4  1  0  0  0  0
  3  9  1  0  0  0  0
  3 10  1  0  0  0  0
  4  8  1  0  0  0  0
  4 18  1  0  0  0  0
  5  6  1  0  0  0  0
  5  7  1  0  0  0  0
  5 11  1  0  0  0  0
  6 13  1  0  0  0  0
  6 16  1  0  0  0  0
  6 19  1  0  0  0  0
  7 12  2  0  0  0  0
  7 14  1  0  0  0  0
  8 12  1  0  0  0  0
  9 20  1  0  0  0  0
  9 21  1  0  0  0  0
  9 22  1  0  0  0  0
 10 23  1  0  0  0  0
 10 24  1  0  0  0  0
 10 25  1  0  0  0  0
 11 26  1  0  0  0  0
 11 27  1  0  0  0  0
 11 28  1  0  0  0  0
 12 29  1  0  0  0  0
 13 15  1  0  0  0  0
 13 30  1  0  0  0  0
 13 31  1  0  0  0  0
 14 15  1  0  0  0  0
 14 32  1  0  0  0  0
 14 33  1  0  0  0  0
 15 34  1  0  0  0  0
 15 35  1  0  0  0  0
 16 36  1  0  0  0  0
 16 37  1  0  0  0  0
 16 38  1  0  0  0  0
M  END
> <PUBCHEM_COMPOUND_CID>
522300
> <PUBCHEM_COMPOUND_CANONICALIZED>
1
> <PUBCHEM_CACTVS_COMPLEXITY>
390
> <PUBCHEM_CACTVS_HBOND_ACCEPTOR>
1
> <PUBCHEM_CACTVS_HBOND_DONOR>
0
> <PUBCHEM_CACTVS_ROTATABLE_BOND>
0
> <PUBCHEM_CACTVS_SUBSKEYS>
AAADceBwIAAAAAAAAAAAAAAAGAAAAAAAAAAwQAAABAAAAACAAAAAGgAAAAAADwSAgAACAAAAAACIAqBSAAAAAAAgAAAACAEAAEgAABIAAQAAAAAAgAAIAQMIiMCPgAAAAAAAAAAAAAAAACAAAAAAAAAAAA==
> <PUBCHEM_IUPAC_OPENEYE_NAME>
1,1,7,7a-tetramethyl-1a,4,5,6,7,7b-hexahydrocyclopropa[a]naphthalen-2-one
> <PUBCHEM_IUPAC_CAS_NAME>
1,1,7,7a-tetramethyl-1a,4,5,6,7,7b-hexahydrocyclopropa[a]naphthalen-2-one
> <PUBCHEM_IUPAC_NAME_MARKUP>
1,1,7,7<I>a</I>-tetramethyl-1<I>a</I>,4,5,6,7,7<I>b</I>-hexahydrocyclopropa[a]naphthalen-2-one
> <PUBCHEM_IUPAC_NAME>
1,1,7,7a-tetramethyl-1a,4,5,6,7,7b-hexahydrocyclopropa[a]naphthalen-2-one
> <PUBCHEM_IUPAC_SYSTEMATIC_NAME>
1,1,7,7a-tetramethyl-1a,4,5,6,7,7b-hexahydrocyclopropa[a]naphthalen-2-one
> <PUBCHEM_IUPAC_TRADITIONAL_NAME>
1,1,7,7a-tetramethyl-1a,4,5,6,7,7b-hexahydrocyclopropa[a]naphthalen-2-one
> <PUBCHEM_IUPAC_INCHI>
InChI=1S/C15H22O/c1-9-6-5-7-10-8-11(16)12-13(14(12,2)3)15(9,10)4/h8-9,12-13H,5-7H2,1-4H3
> <PUBCHEM_IUPAC_INCHIKEY>
UGVIZCBJCSXBCJ-UHFFFAOYSA-N
> <PUBCHEM_XLOGP3_AA>
3.6
> <PUBCHEM_EXACT_MASS>
218.167065321
> <PUBCHEM_MOLECULAR_FORMULA>
C15H22O
> <PUBCHEM_MOLECULAR_WEIGHT>
218.33
> <PUBCHEM_OPENEYE_CAN_SMILES>
CC1CCCC2=CC(=O)C3C(C12C)C3(C)C
> <PUBCHEM_OPENEYE_ISO_SMILES>
CC1CCCC2=CC(=O)C3C(C12C)C3(C)C
> <PUBCHEM_CACTVS_TPSA>
17.1
> <PUBCHEM_MONOISOTOPIC_WEIGHT>
218.167065321
> <PUBCHEM_TOTAL_CHARGE>
0
> <PUBCHEM_HEAVY_ATOM_COUNT>
16
> <PUBCHEM_ATOM_DEF_STEREO_COUNT>
0
> <PUBCHEM_ATOM_UDEF_STEREO_COUNT>
4
> <PUBCHEM_BOND_DEF_STEREO_COUNT>
0
> <PUBCHEM_BOND_UDEF_STEREO_COUNT>
0
> <PUBCHEM_ISOTOPIC_ATOM_COUNT>
0
> <PUBCHEM_COMPONENT_COUNT>
1
> <PUBCHEM_CACTVS_TAUTO_COUNT>
-1
> <PUBCHEM_COORDINATE_TYPE>
1
5
255
> <PUBCHEM_BONDANNOTATIONS>
2  3  3
4  3  3
5  11  3
6  16  3
$$$$
