522381
  -OEChem-10302200292D
 84 84  0     1  0  0  0  0  0999 V2000
    6.2595   -2.1537    0.0000 Si  0  0  0  0  0  0  0  0  0  0  0  0
    9.0229   -1.1356    0.0000 Si  0  0  0  0  0  0  0  0  0  0  0  0
    8.9086    1.8071    0.0000 Si  0  0  0  0  0  0  0  0  0  0  0  0
    4.0215    2.1161    0.0000 Si  0  0  0  0  0  0  0  0  0  0  0  0
    2.7431   -0.2003    0.0000 Si  0  0  0  0  0  0  0  0  0  0  0  0
    6.9406    1.1078    0.0000 O   0  0  0  0  0  0  0  0  0  0  0  0
    5.8528   -1.2401    0.0000 O   0  0  0  0  0  0  0  0  0  0  0  0
    8.0284   -1.2401    0.0000 O   0  0  0  0  0  0  0  0  0  0  0  0
    8.7006    0.8290    0.0000 O   0  0  0  0  0  0  0  0  0  0  0  0
    4.9726    1.8071    0.0000 O   0  0  0  0  0  0  0  0  0  0  0  0
    3.4863    0.4689    0.0000 O   0  0  0  0  0  0  0  0  0  0  0  0
    6.4406   -0.4311    0.0000 C   0  0  3  0  0  0  0  0  0  0  0  0
    6.1316    0.5200    0.0000 C   0  0  3  0  0  0  0  0  0  0  0  0
    7.4406   -0.4311    0.0000 C   0  0  3  0  0  0  0  0  0  0  0  0
    7.7496    0.5200    0.0000 C   0  0  3  0  0  0  0  0  0  0  0  0
    5.1805    0.8290    0.0000 C   0  0  3  0  0  0  0  0  0  0  0  0
    4.4374    0.1598    0.0000 C   0  0  0  0  0  0  0  0  0  0  0  0
    6.6662   -3.0672    0.0000 C   0  0  0  0  0  0  0  0  0  0  0  0
    5.3460   -2.5604    0.0000 C   0  0  0  0  0  0  0  0  0  0  0  0
    7.1731   -1.7469    0.0000 C   0  0  0  0  0  0  0  0  0  0  0  0
   10.0174   -1.0310    0.0000 C   0  0  0  0  0  0  0  0  0  0  0  0
    9.1274   -2.1301    0.0000 C   0  0  0  0  0  0  0  0  0  0  0  0
    8.9183   -0.1411    0.0000 C   0  0  0  0  0  0  0  0  0  0  0  0
    9.1165    2.7853    0.0000 C   0  0  0  0  0  0  0  0  0  0  0  0
    9.8867    1.5992    0.0000 C   0  0  0  0  0  0  0  0  0  0  0  0
    7.9304    2.0150    0.0000 C   0  0  0  0  0  0  0  0  0  0  0  0
    3.0705    2.4252    0.0000 C   0  0  0  0  0  0  0  0  0  0  0  0
    4.3305    3.0672    0.0000 C   0  0  0  0  0  0  0  0  0  0  0  0
    3.7125    1.1651    0.0000 C   0  0  0  0  0  0  0  0  0  0  0  0
    2.0000   -0.8694    0.0000 C   0  0  0  0  0  0  0  0  0  0  0  0
    2.0740    0.5429    0.0000 C   0  0  0  0  0  0  0  0  0  0  0  0
    3.4123   -0.9434    0.0000 C   0  0  0  0  0  0  0  0  0  0  0  0
    6.7220   -0.9835    0.0000 H   0  0  0  0  0  0  0  0  0  0  0  0
    6.0346    1.1323    0.0000 H   0  0  0  0  0  0  0  0  0  0  0  0
    8.0529   -0.3341    0.0000 H   0  0  0  0  0  0  0  0  0  0  0  0
    7.8466    1.1323    0.0000 H   0  0  0  0  0  0  0  0  0  0  0  0
    4.5908    1.0206    0.0000 H   0  0  0  0  0  0  0  0  0  0  0  0
    4.1463   -0.3876    0.0000 H   0  0  0  0  0  0  0  0  0  0  0  0
    4.9259   -0.2219    0.0000 H   0  0  0  0  0  0  0  0  0  0  0  0
    6.0998   -3.3194    0.0000 H   0  0  0  0  0  0  0  0  0  0  0  0
    6.9184   -3.6336    0.0000 H   0  0  0  0  0  0  0  0  0  0  0  0
    7.2326   -2.8150    0.0000 H   0  0  0  0  0  0  0  0  0  0  0  0
    5.0938   -1.9940    0.0000 H   0  0  0  0  0  0  0  0  0  0  0  0
    4.7796   -2.8126    0.0000 H   0  0  0  0  0  0  0  0  0  0  0  0
    5.5982   -3.1268    0.0000 H   0  0  0  0  0  0  0  0  0  0  0  0
    7.4252   -2.3133    0.0000 H   0  0  0  0  0  0  0  0  0  0  0  0
    7.7395   -1.4947    0.0000 H   0  0  0  0  0  0  0  0  0  0  0  0
    6.9209   -1.1805    0.0000 H   0  0  0  0  0  0  0  0  0  0  0  0
   10.0822   -1.6477    0.0000 H   0  0  0  0  0  0  0  0  0  0  0  0
   10.6340   -0.9662    0.0000 H   0  0  0  0  0  0  0  0  0  0  0  0
    9.9526   -0.4144    0.0000 H   0  0  0  0  0  0  0  0  0  0  0  0
    8.5108   -2.1949    0.0000 H   0  0  0  0  0  0  0  0  0  0  0  0
    9.1922   -2.7467    0.0000 H   0  0  0  0  0  0  0  0  0  0  0  0
    9.7440   -2.0653    0.0000 H   0  0  0  0  0  0  0  0  0  0  0  0
    9.5350   -0.0763    0.0000 H   0  0  0  0  0  0  0  0  0  0  0  0
    8.8535    0.4755    0.0000 H   0  0  0  0  0  0  0  0  0  0  0  0
    8.3017   -0.2059    0.0000 H   0  0  0  0  0  0  0  0  0  0  0  0
    9.7229    2.6564    0.0000 H   0  0  0  0  0  0  0  0  0  0  0  0
    9.2454    3.3917    0.0000 H   0  0  0  0  0  0  0  0  0  0  0  0
    8.5100    2.9142    0.0000 H   0  0  0  0  0  0  0  0  0  0  0  0
    9.7578    0.9928    0.0000 H   0  0  0  0  0  0  0  0  0  0  0  0
   10.4931    1.4703    0.0000 H   0  0  0  0  0  0  0  0  0  0  0  0
   10.0156    2.2057    0.0000 H   0  0  0  0  0  0  0  0  0  0  0  0
    8.0593    2.6215    0.0000 H   0  0  0  0  0  0  0  0  0  0  0  0
    7.3240    2.1439    0.0000 H   0  0  0  0  0  0  0  0  0  0  0  0
    7.8015    1.4086    0.0000 H   0  0  0  0  0  0  0  0  0  0  0  0
    3.2621    3.0148    0.0000 H   0  0  0  0  0  0  0  0  0  0  0  0
    2.4808    2.6168    0.0000 H   0  0  0  0  0  0  0  0  0  0  0  0
    2.8789    1.8355    0.0000 H   0  0  0  0  0  0  0  0  0  0  0  0
    4.9202    2.8756    0.0000 H   0  0  0  0  0  0  0  0  0  0  0  0
    4.5221    3.6569    0.0000 H   0  0  0  0  0  0  0  0  0  0  0  0
    3.7409    3.2588    0.0000 H   0  0  0  0  0  0  0  0  0  0  0  0
    3.1228    1.3567    0.0000 H   0  0  0  0  0  0  0  0  0  0  0  0
    3.5209    0.5754    0.0000 H   0  0  0  0  0  0  0  0  0  0  0  0
    4.3022    0.9735    0.0000 H   0  0  0  0  0  0  0  0  0  0  0  0
    1.5851   -0.4086    0.0000 H   0  0  0  0  0  0  0  0  0  0  0  0
    1.5392   -1.2843    0.0000 H   0  0  0  0  0  0  0  0  0  0  0  0
    2.4149   -1.3301    0.0000 H   0  0  0  0  0  0  0  0  0  0  0  0
    2.5348    0.9577    0.0000 H   0  0  0  0  0  0  0  0  0  0  0  0
    1.6592    1.0036    0.0000 H   0  0  0  0  0  0  0  0  0  0  0  0
    1.6133    0.1280    0.0000 H   0  0  0  0  0  0  0  0  0  0  0  0
    2.9515   -1.3583    0.0000 H   0  0  0  0  0  0  0  0  0  0  0  0
    3.8271   -1.4042    0.0000 H   0  0  0  0  0  0  0  0  0  0  0  0
    3.8730   -0.5285    0.0000 H   0  0  0  0  0  0  0  0  0  0  0  0
  1  7  1  0  0  0  0
  1 18  1  0  0  0  0
  1 19  1  0  0  0  0
  1 20  1  0  0  0  0
  2  8  1  0  0  0  0
  2 21  1  0  0  0  0
  2 22  1  0  0  0  0
  2 23  1  0  0  0  0
  3  9  1  0  0  0  0
  3 24  1  0  0  0  0
  3 25  1  0  0  0  0
  3 26  1  0  0  0  0
  4 10  1  0  0  0  0
  4 27  1  0  0  0  0
  4 28  1  0  0  0  0
  4 29  1  0  0  0  0
  5 11  1  0  0  0  0
  5 30  1  0  0  0  0
  5 31  1  0  0  0  0
  5 32  1  0  0  0  0
  6 13  1  0  0  0  0
  6 15  1  0  0  0  0
  7 12  1  0  0  0  0
  8 14  1  0  0  0  0
  9 15  1  0  0  0  0
 10 16  1  0  0  0  0
 11 17  1  0  0  0  0
 12 13  1  0  0  0  0
 12 14  1  0  0  0  0
 12 33  1  0  0  0  0
 13 16  1  0  0  0  0
 13 34  1  0  0  0  0
 14 15  1  0  0  0  0
 14 35  1  0  0  0  0
 15 36  1  0  0  0  0
 16 17  1  0  0  0  0
 16 37  1  0  0  0  0
 17 38  1  0  0  0  0
 17 39  1  0  0  0  0
 18 40  1  0  0  0  0
 18 41  1  0  0  0  0
 18 42  1  0  0  0  0
 19 43  1  0  0  0  0
 19 44  1  0  0  0  0
 19 45  1  0  0  0  0
 20 46  1  0  0  0  0
 20 47  1  0  0  0  0
 20 48  1  0  0  0  0
 21 49  1  0  0  0  0
 21 50  1  0  0  0  0
 21 51  1  0  0  0  0
 22 52  1  0  0  0  0
 22 53  1  0  0  0  0
 22 54  1  0  0  0  0
 23 55  1  0  0  0  0
 23 56  1  0  0  0  0
 23 57  1  0  0  0  0
 24 58  1  0  0  0  0
 24 59  1  0  0  0  0
 24 60  1  0  0  0  0
 25 61  1  0  0  0  0
 25 62  1  0  0  0  0
 25 63  1  0  0  0  0
 26 64  1  0  0  0  0
 26 65  1  0  0  0  0
 26 66  1  0  0  0  0
 27 67  1  0  0  0  0
 27 68  1  0  0  0  0
 27 69  1  0  0  0  0
 28 70  1  0  0  0  0
 28 71  1  0  0  0  0
 28 72  1  0  0  0  0
 29 73  1  0  0  0  0
 29 74  1  0  0  0  0
 29 75  1  0  0  0  0
 30 76  1  0  0  0  0
 30 77  1  0  0  0  0
 30 78  1  0  0  0  0
 31 79  1  0  0  0  0
 31 80  1  0  0  0  0
 31 81  1  0  0  0  0
 32 82  1  0  0  0  0
 32 83  1  0  0  0  0
 32 84  1  0  0  0  0
M  END
> <PUBCHEM_COMPOUND_CID>
522381
> <PUBCHEM_COMPOUND_CANONICALIZED>
1
> <PUBCHEM_CACTVS_COMPLEXITY>
586
> <PUBCHEM_CACTVS_HBOND_ACCEPTOR>
6
> <PUBCHEM_CACTVS_HBOND_DONOR>
0
> <PUBCHEM_CACTVS_ROTATABLE_BOND>
12
> <PUBCHEM_CACTVS_SUBSKEYS>
AAADcfB4OAwAAAAAAAAAAAAAAAAAASAAAAAAAAAAAAAAAAAAAAAAGhAAAEAACBSwgANCCAAABAEAAAAAAAAAAAAAAAAAAAAAAAARAAIAAAACAAAFAAAGAAHAYAQAAAAAAAAAAAAAAAAAAAAAAAAAAAAAAA==
> <PUBCHEM_IUPAC_OPENEYE_NAME>
trimethyl-[2-trimethylsilyloxy-1-[3,4,5-tris(trimethylsilyloxy)tetrahydrofuran-2-yl]ethoxy]silane
> <PUBCHEM_IUPAC_CAS_NAME>
trimethyl-[2-trimethylsilyloxy-1-[3,4,5-tris(trimethylsilyloxy)-2-oxolanyl]ethoxy]silane
> <PUBCHEM_IUPAC_NAME_MARKUP>
trimethyl-[2-trimethylsilyloxy-1-[3,4,5-tris(trimethylsilyloxy)oxolan-2-yl]ethoxy]silane
> <PUBCHEM_IUPAC_NAME>
trimethyl-[2-trimethylsilyloxy-1-[3,4,5-tris(trimethylsilyloxy)oxolan-2-yl]ethoxy]silane
> <PUBCHEM_IUPAC_SYSTEMATIC_NAME>
trimethyl-[2-trimethylsilyloxy-1-[3,4,5-tris(trimethylsilyloxy)oxolan-2-yl]ethoxy]silane
> <PUBCHEM_IUPAC_TRADITIONAL_NAME>
trimethyl-[2-trimethylsilyloxy-1-[3,4,5-tris(trimethylsilyloxy)tetrahydrofuran-2-yl]ethoxy]silane
> <PUBCHEM_IUPAC_INCHI>
InChI=1S/C21H52O6Si5/c1-28(2,3)22-16-17(24-29(4,5)6)18-19(25-30(7,8)9)20(26-31(10,11)12)21(23-18)27-32(13,14)15/h17-21H,16H2,1-15H3
> <PUBCHEM_IUPAC_INCHIKEY>
ZIWXPOHHTJQHTN-UHFFFAOYSA-N
> <PUBCHEM_EXACT_MASS>
540.26102205
> <PUBCHEM_MOLECULAR_FORMULA>
C21H52O6Si5
> <PUBCHEM_MOLECULAR_WEIGHT>
541.1
> <PUBCHEM_OPENEYE_CAN_SMILES>
C[Si](C)(C)OCC(C1C(C(C(O1)O[Si](C)(C)C)O[Si](C)(C)C)O[Si](C)(C)C)O[Si](C)(C)C
> <PUBCHEM_OPENEYE_ISO_SMILES>
C[Si](C)(C)OCC(C1C(C(C(O1)O[Si](C)(C)C)O[Si](C)(C)C)O[Si](C)(C)C)O[Si](C)(C)C
> <PUBCHEM_CACTVS_TPSA>
55.4
> <PUBCHEM_MONOISOTOPIC_WEIGHT>
540.26102205
> <PUBCHEM_TOTAL_CHARGE>
0
> <PUBCHEM_HEAVY_ATOM_COUNT>
32
> <PUBCHEM_ATOM_DEF_STEREO_COUNT>
0
> <PUBCHEM_ATOM_UDEF_STEREO_COUNT>
5
> <PUBCHEM_BOND_DEF_STEREO_COUNT>
0
> <PUBCHEM_BOND_UDEF_STEREO_COUNT>
0
> <PUBCHEM_ISOTOPIC_ATOM_COUNT>
0
> <PUBCHEM_COMPONENT_COUNT>
1
> <PUBCHEM_CACTVS_TAUTO_COUNT>
-1
> <PUBCHEM_COORDINATE_TYPE>
1
5
255
> <PUBCHEM_BONDANNOTATIONS>
16  17  3
13  6  3
12  7  3
14  8  3
15  9  3
$$$$
