522327
  -OEChem-10302200292D
 28 29  0     1  0  0  0  0  0999 V2000
    2.0000    0.0000    0.0000 F   0  0  0  0  0  0  0  0  0  0  0  0
    4.0000    0.0000    0.0000 F   0  0  0  0  0  0  0  0  0  0  0  0
    2.1340    1.5000    0.0000 F   0  0  0  0  0  0  0  0  0  0  0  0
    3.0000    0.0000    0.0000 C   0  0  0  0  0  0  0  0  0  0  0  0
    3.0000    1.0000    0.0000 C   0  0  3  0  0  0  0  0  0  0  0  0
    3.0000   -1.0000    0.0000 C   0  0  0  0  0  0  0  0  0  0  0  0
    3.8660    1.5000    0.0000 C   0  0  0  0  0  0  0  0  0  0  0  0
    2.1340   -1.5000    0.0000 C   0  0  0  0  0  0  0  0  0  0  0  0
    3.8660   -1.5000    0.0000 C   0  0  0  0  0  0  0  0  0  0  0  0
    4.7320    1.0000    0.0000 C   0  0  0  0  0  0  0  0  0  0  0  0
    3.8660    2.5000    0.0000 C   0  0  0  0  0  0  0  0  0  0  0  0
    2.1340   -2.5000    0.0000 C   0  0  0  0  0  0  0  0  0  0  0  0
    3.8660   -2.5000    0.0000 C   0  0  0  0  0  0  0  0  0  0  0  0
    5.5981    1.5000    0.0000 C   0  0  0  0  0  0  0  0  0  0  0  0
    4.7320    3.0000    0.0000 C   0  0  0  0  0  0  0  0  0  0  0  0
    3.0000   -3.0000    0.0000 C   0  0  0  0  0  0  0  0  0  0  0  0
    5.5981    2.5000    0.0000 C   0  0  0  0  0  0  0  0  0  0  0  0
    3.0000    1.6200    0.0000 H   0  0  0  0  0  0  0  0  0  0  0  0
    1.5970   -1.1900    0.0000 H   0  0  0  0  0  0  0  0  0  0  0  0
    4.4030   -1.1900    0.0000 H   0  0  0  0  0  0  0  0  0  0  0  0
    4.7320    0.3800    0.0000 H   0  0  0  0  0  0  0  0  0  0  0  0
    3.3291    2.8100    0.0000 H   0  0  0  0  0  0  0  0  0  0  0  0
    1.5970   -2.8100    0.0000 H   0  0  0  0  0  0  0  0  0  0  0  0
    4.4030   -2.8100    0.0000 H   0  0  0  0  0  0  0  0  0  0  0  0
    6.1350    1.1900    0.0000 H   0  0  0  0  0  0  0  0  0  0  0  0
    4.7320    3.6200    0.0000 H   0  0  0  0  0  0  0  0  0  0  0  0
    3.0000   -3.6200    0.0000 H   0  0  0  0  0  0  0  0  0  0  0  0
    6.1350    2.8100    0.0000 H   0  0  0  0  0  0  0  0  0  0  0  0
  1  4  1  0  0  0  0
  2  4  1  0  0  0  0
  3  5  1  0  0  0  0
  4  5  1  0  0  0  0
  4  6  1  0  0  0  0
  5  7  1  0  0  0  0
  5 18  1  0  0  0  0
  6  8  2  0  0  0  0
  6  9  1  0  0  0  0
  7 10  2  0  0  0  0
  7 11  1  0  0  0  0
  8 12  1  0  0  0  0
  8 19  1  0  0  0  0
  9 13  2  0  0  0  0
  9 20  1  0  0  0  0
 10 14  1  0  0  0  0
 10 21  1  0  0  0  0
 11 15  2  0  0  0  0
 11 22  1  0  0  0  0
 12 16  2  0  0  0  0
 12 23  1  0  0  0  0
 13 16  1  0  0  0  0
 13 24  1  0  0  0  0
 14 17  2  0  0  0  0
 14 25  1  0  0  0  0
 15 17  1  0  0  0  0
 15 26  1  0  0  0  0
 16 27  1  0  0  0  0
 17 28  1  0  0  0  0
M  END
> <PUBCHEM_COMPOUND_CID>
522327
> <PUBCHEM_COMPOUND_CANONICALIZED>
1
> <PUBCHEM_CACTVS_COMPLEXITY>
228
> <PUBCHEM_CACTVS_HBOND_ACCEPTOR>
3
> <PUBCHEM_CACTVS_HBOND_DONOR>
0
> <PUBCHEM_CACTVS_ROTATABLE_BOND>
3
> <PUBCHEM_CACTVS_SUBSKEYS>
AAADccBwAYAAAAAAAAAAAAAAAAAAAAAAAAAwYAAAAAAAAAABQAAAGQAAAAAADACAGBAwAIAAAACAAiBCAAACAAAgAAAIiAAAAIgIICKAERCAIAAggAAIiAcAgMAOAAAAAAAAAAAAAAAAAAAAAAAAAAAAAA==
> <PUBCHEM_IUPAC_OPENEYE_NAME>
(1,1,2-trifluoro-2-phenyl-ethyl)benzene
> <PUBCHEM_IUPAC_CAS_NAME>
(1,1,2-trifluoro-2-phenylethyl)benzene
> <PUBCHEM_IUPAC_NAME_MARKUP>
(1,1,2-trifluoro-2-phenylethyl)benzene
> <PUBCHEM_IUPAC_NAME>
(1,1,2-trifluoro-2-phenylethyl)benzene
> <PUBCHEM_IUPAC_SYSTEMATIC_NAME>
[1,1,2-tris(fluoranyl)-2-phenyl-ethyl]benzene
> <PUBCHEM_IUPAC_TRADITIONAL_NAME>
(1,1,2-trifluoro-2-phenyl-ethyl)benzene
> <PUBCHEM_IUPAC_INCHI>
InChI=1S/C14H11F3/c15-13(11-7-3-1-4-8-11)14(16,17)12-9-5-2-6-10-12/h1-10,13H
> <PUBCHEM_IUPAC_INCHIKEY>
DSSQFJAXTVBOCK-UHFFFAOYSA-N
> <PUBCHEM_XLOGP3_AA>
4.2
> <PUBCHEM_EXACT_MASS>
236.08128484
> <PUBCHEM_MOLECULAR_FORMULA>
C14H11F3
> <PUBCHEM_MOLECULAR_WEIGHT>
236.23
> <PUBCHEM_OPENEYE_CAN_SMILES>
C1=CC=C(C=C1)C(C(C2=CC=CC=C2)(F)F)F
> <PUBCHEM_OPENEYE_ISO_SMILES>
C1=CC=C(C=C1)C(C(C2=CC=CC=C2)(F)F)F
> <PUBCHEM_CACTVS_TPSA>
0
> <PUBCHEM_MONOISOTOPIC_WEIGHT>
236.08128484
> <PUBCHEM_TOTAL_CHARGE>
0
> <PUBCHEM_HEAVY_ATOM_COUNT>
17
> <PUBCHEM_ATOM_DEF_STEREO_COUNT>
0
> <PUBCHEM_ATOM_UDEF_STEREO_COUNT>
1
> <PUBCHEM_BOND_DEF_STEREO_COUNT>
0
> <PUBCHEM_BOND_UDEF_STEREO_COUNT>
0
> <PUBCHEM_ISOTOPIC_ATOM_COUNT>
0
> <PUBCHEM_COMPONENT_COUNT>
1
> <PUBCHEM_CACTVS_TAUTO_COUNT>
-1
> <PUBCHEM_COORDINATE_TYPE>
1
5
255
> <PUBCHEM_BONDANNOTATIONS>
10  14  8
11  15  8
12  16  8
13  16  8
14  17  8
15  17  8
5  3  3
6  8  8
6  9  8
7  10  8
7  11  8
8  12  8
9  13  8
$$$$
