522451
  -OEChem-10302200292D
 24 24  0     1  0  0  0  0  0999 V2000
    4.6730   -0.1635    0.0000 O   0  0  0  0  0  0  0  0  0  0  0  0
    5.3801    1.5436    0.0000 O   0  0  0  0  0  0  0  0  0  0  0  0
    3.6730    0.8365    0.0000 C   0  0  0  0  0  0  0  0  0  0  0  0
    3.6730   -0.1635    0.0000 C   0  0  3  0  0  0  0  0  0  0  0  0
    2.9659   -0.8706    0.0000 C   0  0  0  0  0  0  0  0  0  0  0  0
    4.6730    0.8365    0.0000 C   0  0  0  0  0  0  0  0  0  0  0  0
    3.6730    1.8365    0.0000 C   0  0  0  0  0  0  0  0  0  0  0  0
    2.6730    0.8365    0.0000 C   0  0  0  0  0  0  0  0  0  0  0  0
    3.2247   -1.8365    0.0000 C   0  0  0  0  0  0  0  0  0  0  0  0
    2.0000   -0.6118    0.0000 C   0  0  0  0  0  0  0  0  0  0  0  0
    3.9103   -0.7363    0.0000 H   0  0  0  0  0  0  0  0  0  0  0  0
    3.5648   -1.0311    0.0000 H   0  0  0  0  0  0  0  0  0  0  0  0
    4.2930    1.8365    0.0000 H   0  0  0  0  0  0  0  0  0  0  0  0
    3.6730    2.4565    0.0000 H   0  0  0  0  0  0  0  0  0  0  0  0
    3.0530    1.8365    0.0000 H   0  0  0  0  0  0  0  0  0  0  0  0
    2.6730    1.4565    0.0000 H   0  0  0  0  0  0  0  0  0  0  0  0
    2.0530    0.8365    0.0000 H   0  0  0  0  0  0  0  0  0  0  0  0
    2.6730    0.2165    0.0000 H   0  0  0  0  0  0  0  0  0  0  0  0
    2.6259   -1.9970    0.0000 H   0  0  0  0  0  0  0  0  0  0  0  0
    3.3852   -2.4354    0.0000 H   0  0  0  0  0  0  0  0  0  0  0  0
    3.8236   -1.6760    0.0000 H   0  0  0  0  0  0  0  0  0  0  0  0
    2.1605   -0.0129    0.0000 H   0  0  0  0  0  0  0  0  0  0  0  0
    1.4011   -0.4513    0.0000 H   0  0  0  0  0  0  0  0  0  0  0  0
    1.8395   -1.2106    0.0000 H   0  0  0  0  0  0  0  0  0  0  0  0
  1  4  1  0  0  0  0
  1  6  1  0  0  0  0
  2  6  2  0  0  0  0
  3  4  1  0  0  0  0
  3  6  1  0  0  0  0
  3  7  1  0  0  0  0
  3  8  1  0  0  0  0
  4  5  1  0  0  0  0
  4 11  1  0  0  0  0
  5  9  1  0  0  0  0
  5 10  1  0  0  0  0
  5 12  1  0  0  0  0
  7 13  1  0  0  0  0
  7 14  1  0  0  0  0
  7 15  1  0  0  0  0
  8 16  1  0  0  0  0
  8 17  1  0  0  0  0
  8 18  1  0  0  0  0
  9 19  1  0  0  0  0
  9 20  1  0  0  0  0
  9 21  1  0  0  0  0
 10 22  1  0  0  0  0
 10 23  1  0  0  0  0
 10 24  1  0  0  0  0
M  END
> <PUBCHEM_COMPOUND_CID>
522451
> <PUBCHEM_COMPOUND_CANONICALIZED>
1
> <PUBCHEM_CACTVS_COMPLEXITY>
159
> <PUBCHEM_CACTVS_HBOND_ACCEPTOR>
2
> <PUBCHEM_CACTVS_HBOND_DONOR>
0
> <PUBCHEM_CACTVS_ROTATABLE_BOND>
1
> <PUBCHEM_CACTVS_SUBSKEYS>
AAADccBwMAAAAAAAAAAAAAAAAABIAAAAAAAAAAAAAAAAAAAAAAAAGgAAAAAADxSggAICCAAABAAIAACQCAAAAAAAAAAAAAEAAAAAABYAAAACAAAEIAAAAACIAAANAAAAAAAAAAAAAAAAAAAAAAAAAAAAAA==
> <PUBCHEM_IUPAC_OPENEYE_NAME>
4-isopropyl-3,3-dimethyl-oxetan-2-one
> <PUBCHEM_IUPAC_CAS_NAME>
3,3-dimethyl-4-propan-2-yl-2-oxetanone
> <PUBCHEM_IUPAC_NAME_MARKUP>
3,3-dimethyl-4-propan-2-yloxetan-2-one
> <PUBCHEM_IUPAC_NAME>
3,3-dimethyl-4-propan-2-yloxetan-2-one
> <PUBCHEM_IUPAC_SYSTEMATIC_NAME>
3,3-dimethyl-4-propan-2-yl-oxetan-2-one
> <PUBCHEM_IUPAC_TRADITIONAL_NAME>
4-isopropyl-3,3-dimethyl-oxetan-2-one
> <PUBCHEM_IUPAC_INCHI>
InChI=1S/C8H14O2/c1-5(2)6-8(3,4)7(9)10-6/h5-6H,1-4H3
> <PUBCHEM_IUPAC_INCHIKEY>
JMHWSGPTHJGHMB-UHFFFAOYSA-N
> <PUBCHEM_XLOGP3_AA>
2.2
> <PUBCHEM_EXACT_MASS>
142.099379685
> <PUBCHEM_MOLECULAR_FORMULA>
C8H14O2
> <PUBCHEM_MOLECULAR_WEIGHT>
142.20
> <PUBCHEM_OPENEYE_CAN_SMILES>
CC(C)C1C(C(=O)O1)(C)C
> <PUBCHEM_OPENEYE_ISO_SMILES>
CC(C)C1C(C(=O)O1)(C)C
> <PUBCHEM_CACTVS_TPSA>
26.3
> <PUBCHEM_MONOISOTOPIC_WEIGHT>
142.099379685
> <PUBCHEM_TOTAL_CHARGE>
0
> <PUBCHEM_HEAVY_ATOM_COUNT>
10
> <PUBCHEM_ATOM_DEF_STEREO_COUNT>
0
> <PUBCHEM_ATOM_UDEF_STEREO_COUNT>
1
> <PUBCHEM_BOND_DEF_STEREO_COUNT>
0
> <PUBCHEM_BOND_UDEF_STEREO_COUNT>
0
> <PUBCHEM_ISOTOPIC_ATOM_COUNT>
0
> <PUBCHEM_COMPONENT_COUNT>
1
> <PUBCHEM_CACTVS_TAUTO_COUNT>
-1
> <PUBCHEM_COORDINATE_TYPE>
1
5
255
> <PUBCHEM_BONDANNOTATIONS>
4  5  3
$$$$
