522428
  -OEChem-10302200292D
 25 26  0     1  0  0  0  0  0999 V2000
    2.8660   -0.8543    0.0000 O   0  0  0  0  0  0  0  0  0  0  0  0
    5.4460    1.3584    0.0000 O   0  0  0  0  0  0  0  0  0  0  0  0
    4.7403   -0.3584    0.0000 C   0  0  0  0  0  0  0  0  0  0  0  0
    3.7320   -0.3543    0.0000 C   0  0  3  0  0  0  0  0  0  0  0  0
    3.7320    0.6457    0.0000 C   0  0  3  0  0  0  0  0  0  0  0  0
    4.7403    0.6499    0.0000 C   0  0  0  0  0  0  0  0  0  0  0  0
    2.8660    1.1457    0.0000 C   0  0  0  0  0  0  0  0  0  0  0  0
    2.0000    0.6457    0.0000 C   0  0  0  0  0  0  0  0  0  0  0  0
    5.7403   -0.3605    0.0000 C   0  0  0  0  0  0  0  0  0  0  0  0
    4.7383   -1.3584    0.0000 C   0  0  0  0  0  0  0  0  0  0  0  0
    2.0000   -0.3543    0.0000 C   0  0  0  0  0  0  0  0  0  0  0  0
    3.8913   -0.9535    0.0000 H   0  0  0  0  0  0  0  0  0  0  0  0
    3.8913    1.2449    0.0000 H   0  0  0  0  0  0  0  0  0  0  0  0
    3.2646    1.6207    0.0000 H   0  0  0  0  0  0  0  0  0  0  0  0
    2.4675    1.6207    0.0000 H   0  0  0  0  0  0  0  0  0  0  0  0
    1.7880    1.2283    0.0000 H   0  0  0  0  0  0  0  0  0  0  0  0
    1.3894    0.5381    0.0000 H   0  0  0  0  0  0  0  0  0  0  0  0
    5.7390   -0.9805    0.0000 H   0  0  0  0  0  0  0  0  0  0  0  0
    6.3603   -0.3618    0.0000 H   0  0  0  0  0  0  0  0  0  0  0  0
    5.7416    0.2595    0.0000 H   0  0  0  0  0  0  0  0  0  0  0  0
    4.1183   -1.3572    0.0000 H   0  0  0  0  0  0  0  0  0  0  0  0
    4.7370   -1.9784    0.0000 H   0  0  0  0  0  0  0  0  0  0  0  0
    5.3583   -1.3597    0.0000 H   0  0  0  0  0  0  0  0  0  0  0  0
    1.3894   -0.2466    0.0000 H   0  0  0  0  0  0  0  0  0  0  0  0
    1.7880   -0.9369    0.0000 H   0  0  0  0  0  0  0  0  0  0  0  0
  1  4  1  0  0  0  0
  1 11  1  0  0  0  0
  2  6  2  0  0  0  0
  3  4  1  0  0  0  0
  3  6  1  0  0  0  0
  3  9  1  0  0  0  0
  3 10  1  0  0  0  0
  4  5  1  0  0  0  0
  4 12  1  0  0  0  0
  5  6  1  0  0  0  0
  5  7  1  0  0  0  0
  5 13  1  0  0  0  0
  7  8  1  0  0  0  0
  7 14  1  0  0  0  0
  7 15  1  0  0  0  0
  8 11  1  0  0  0  0
  8 16  1  0  0  0  0
  8 17  1  0  0  0  0
  9 18  1  0  0  0  0
  9 19  1  0  0  0  0
  9 20  1  0  0  0  0
 10 21  1  0  0  0  0
 10 22  1  0  0  0  0
 10 23  1  0  0  0  0
 11 24  1  0  0  0  0
 11 25  1  0  0  0  0
M  END
> <PUBCHEM_COMPOUND_CID>
522428
> <PUBCHEM_COMPOUND_CANONICALIZED>
1
> <PUBCHEM_CACTVS_COMPLEXITY>
196
> <PUBCHEM_CACTVS_HBOND_ACCEPTOR>
2
> <PUBCHEM_CACTVS_HBOND_DONOR>
0
> <PUBCHEM_CACTVS_ROTATABLE_BOND>
0
> <PUBCHEM_CACTVS_SUBSKEYS>
AAADccBwMAAAAAAAAAAAAAAAAABgAAAAAAAkAAAAAAASAAAAAAAAGgAAAAAADxSggAICAAAABAAIAIAQAAAAAAAAAAAAAAEAAAAAABYAAAACAAAEIAAAAAGIzGCPAAAAAAAAAAAAAAAAAAAAAAAAAAAAAA==
> <PUBCHEM_IUPAC_OPENEYE_NAME>
8,8-dimethyl-2-oxabicyclo[4.2.0]octan-7-one
> <PUBCHEM_IUPAC_CAS_NAME>
8,8-dimethyl-2-oxabicyclo[4.2.0]octan-7-one
> <PUBCHEM_IUPAC_NAME_MARKUP>
8,8-dimethyl-2-oxabicyclo[4.2.0]octan-7-one
> <PUBCHEM_IUPAC_NAME>
8,8-dimethyl-2-oxabicyclo[4.2.0]octan-7-one
> <PUBCHEM_IUPAC_SYSTEMATIC_NAME>
8,8-dimethyl-2-oxabicyclo[4.2.0]octan-7-one
> <PUBCHEM_IUPAC_TRADITIONAL_NAME>
8,8-dimethyl-2-oxabicyclo[4.2.0]octan-7-one
> <PUBCHEM_IUPAC_INCHI>
InChI=1S/C9H14O2/c1-9(2)7(10)6-4-3-5-11-8(6)9/h6,8H,3-5H2,1-2H3
> <PUBCHEM_IUPAC_INCHIKEY>
KLTAJTHKXFNMDQ-UHFFFAOYSA-N
> <PUBCHEM_XLOGP3_AA>
1.1
> <PUBCHEM_EXACT_MASS>
154.099379685
> <PUBCHEM_MOLECULAR_FORMULA>
C9H14O2
> <PUBCHEM_MOLECULAR_WEIGHT>
154.21
> <PUBCHEM_OPENEYE_CAN_SMILES>
CC1(C2C(C1=O)CCCO2)C
> <PUBCHEM_OPENEYE_ISO_SMILES>
CC1(C2C(C1=O)CCCO2)C
> <PUBCHEM_CACTVS_TPSA>
26.3
> <PUBCHEM_MONOISOTOPIC_WEIGHT>
154.099379685
> <PUBCHEM_TOTAL_CHARGE>
0
> <PUBCHEM_HEAVY_ATOM_COUNT>
11
> <PUBCHEM_ATOM_DEF_STEREO_COUNT>
0
> <PUBCHEM_ATOM_UDEF_STEREO_COUNT>
2
> <PUBCHEM_BOND_DEF_STEREO_COUNT>
0
> <PUBCHEM_BOND_UDEF_STEREO_COUNT>
0
> <PUBCHEM_ISOTOPIC_ATOM_COUNT>
0
> <PUBCHEM_COMPONENT_COUNT>
1
> <PUBCHEM_CACTVS_TAUTO_COUNT>
-1
> <PUBCHEM_COORDINATE_TYPE>
1
5
255
> <PUBCHEM_BONDANNOTATIONS>
4  3  3
5  7  3
$$$$
