522436
  -OEChem-10302200292D
 42 42  0     1  0  0  0  0  0999 V2000
    3.3660   -0.6651    0.0000 O   0  0  0  0  0  0  0  0  0  0  0  0
    3.8660   -4.5311    0.0000 O   0  0  0  0  0  0  0  0  0  0  0  0
    3.8660    3.6651    0.0000 O   0  0  0  0  0  0  0  0  0  0  0  0
    5.3660    2.7990    0.0000 O   0  0  0  0  0  0  0  0  0  0  0  0
    3.0000   -2.0311    0.0000 C   0  0  0  0  0  0  0  0  0  0  0  0
    3.8660   -1.5311    0.0000 C   0  0  3  0  0  0  0  0  0  0  0  0
    3.0000   -3.0311    0.0000 C   0  0  0  0  0  0  0  0  0  0  0  0
    4.7320   -2.0311    0.0000 C   0  0  0  0  0  0  0  0  0  0  0  0
    2.0000   -2.0311    0.0000 C   0  0  0  0  0  0  0  0  0  0  0  0
    2.2340   -1.3883    0.0000 C   0  0  0  0  0  0  0  0  0  0  0  0
    3.8660   -3.5311    0.0000 C   0  0  0  0  0  0  0  0  0  0  0  0
    4.3660   -0.6651    0.0000 C   0  0  0  0  0  0  0  0  0  0  0  0
    4.7320   -3.0311    0.0000 C   0  0  0  0  0  0  0  0  0  0  0  0
    5.5981   -1.5311    0.0000 C   0  0  0  0  0  0  0  0  0  0  0  0
    3.8660    0.2010    0.0000 C   0  0  0  0  0  0  0  0  0  0  0  0
    4.3660    1.0670    0.0000 C   0  0  0  0  0  0  0  0  0  0  0  0
    5.3660    1.0670    0.0000 C   0  0  0  0  0  0  0  0  0  0  0  0
    3.8660    1.9330    0.0000 C   0  0  0  0  0  0  0  0  0  0  0  0
    4.3660    2.7990    0.0000 C   0  0  0  0  0  0  0  0  0  0  0  0
    4.3660    4.5311    0.0000 C   0  0  0  0  0  0  0  0  0  0  0  0
    2.3894   -2.9234    0.0000 H   0  0  0  0  0  0  0  0  0  0  0  0
    2.7880   -3.6137    0.0000 H   0  0  0  0  0  0  0  0  0  0  0  0
    2.0000   -1.4111    0.0000 H   0  0  0  0  0  0  0  0  0  0  0  0
    1.3800   -2.0311    0.0000 H   0  0  0  0  0  0  0  0  0  0  0  0
    2.0000   -2.6511    0.0000 H   0  0  0  0  0  0  0  0  0  0  0  0
    2.6325   -0.9134    0.0000 H   0  0  0  0  0  0  0  0  0  0  0  0
    1.7590   -0.9898    0.0000 H   0  0  0  0  0  0  0  0  0  0  0  0
    1.8354   -1.8632    0.0000 H   0  0  0  0  0  0  0  0  0  0  0  0
    4.9860   -0.6651    0.0000 H   0  0  0  0  0  0  0  0  0  0  0  0
    5.2690   -3.3411    0.0000 H   0  0  0  0  0  0  0  0  0  0  0  0
    2.7835   -0.4529    0.0000 H   0  0  0  0  0  0  0  0  0  0  0  0
    5.9081   -2.0680    0.0000 H   0  0  0  0  0  0  0  0  0  0  0  0
    6.1350   -1.2211    0.0000 H   0  0  0  0  0  0  0  0  0  0  0  0
    5.2881   -0.9942    0.0000 H   0  0  0  0  0  0  0  0  0  0  0  0
    3.2460    0.2010    0.0000 H   0  0  0  0  0  0  0  0  0  0  0  0
    5.3660    0.4470    0.0000 H   0  0  0  0  0  0  0  0  0  0  0  0
    5.9860    1.0670    0.0000 H   0  0  0  0  0  0  0  0  0  0  0  0
    5.3660    1.6870    0.0000 H   0  0  0  0  0  0  0  0  0  0  0  0
    3.2460    1.9330    0.0000 H   0  0  0  0  0  0  0  0  0  0  0  0
    4.9030    4.2211    0.0000 H   0  0  0  0  0  0  0  0  0  0  0  0
    4.6760    5.0680    0.0000 H   0  0  0  0  0  0  0  0  0  0  0  0
    3.8291    4.8411    0.0000 H   0  0  0  0  0  0  0  0  0  0  0  0
  1  6  1  0  0  0  0
  1 31  1  0  0  0  0
  2 11  2  0  0  0  0
  3 19  1  0  0  0  0
  3 20  1  0  0  0  0
  4 19  2  0  0  0  0
  5  6  1  0  0  0  0
  5  7  1  0  0  0  0
  5  9  1  0  0  0  0
  5 10  1  0  0  0  0
  6  8  1  0  0  0  0
  6 12  1  0  0  0  0
  7 11  1  0  0  0  0
  7 21  1  0  0  0  0
  7 22  1  0  0  0  0
  8 13  2  0  0  0  0
  8 14  1  0  0  0  0
  9 23  1  0  0  0  0
  9 24  1  0  0  0  0
  9 25  1  0  0  0  0
 10 26  1  0  0  0  0
 10 27  1  0  0  0  0
 10 28  1  0  0  0  0
 11 13  1  0  0  0  0
 12 15  2  3  0  0  0
 12 29  1  0  0  0  0
 13 30  1  0  0  0  0
 14 32  1  0  0  0  0
 14 33  1  0  0  0  0
 14 34  1  0  0  0  0
 15 16  1  0  0  0  0
 15 35  1  0  0  0  0
 16 17  1  0  0  0  0
 16 18  2  3  0  0  0
 17 36  1  0  0  0  0
 17 37  1  0  0  0  0
 17 38  1  0  0  0  0
 18 19  1  0  0  0  0
 18 39  1  0  0  0  0
 20 40  1  0  0  0  0
 20 41  1  0  0  0  0
 20 42  1  0  0  0  0
M  END
> <PUBCHEM_COMPOUND_CID>
522436
> <PUBCHEM_COMPOUND_CANONICALIZED>
1
> <PUBCHEM_CACTVS_COMPLEXITY>
509
> <PUBCHEM_CACTVS_HBOND_ACCEPTOR>
4
> <PUBCHEM_CACTVS_HBOND_DONOR>
1
> <PUBCHEM_CACTVS_ROTATABLE_BOND>
4
> <PUBCHEM_CACTVS_SUBSKEYS>
AAADceB4OAAAAAAAAAAAAAAAAAAAAAAAAAAgAAAAAAAAAAAAAAAAGgAACAAADkSAgAICCAAABgCIAqDSCAAAAAAgAAAICAEAAEgIBBIAIQAAUAAEgAAIsQOKiAAPgAAAAAAAAAAAAAAAAAAAAAAAAAAAAA==
> <PUBCHEM_IUPAC_OPENEYE_NAME>
methyl 5-(1-hydroxy-2,6,6-trimethyl-4-oxo-cyclohex-2-en-1-yl)-3-methyl-penta-2,4-dienoate
> <PUBCHEM_IUPAC_CAS_NAME>
5-(1-hydroxy-2,6,6-trimethyl-4-oxo-1-cyclohex-2-enyl)-3-methylpenta-2,4-dienoic acid methyl ester
> <PUBCHEM_IUPAC_NAME_MARKUP>
methyl 5-(1-hydroxy-2,6,6-trimethyl-4-oxocyclohex-2-en-1-yl)-3-methylpenta-2,4-dienoate
> <PUBCHEM_IUPAC_NAME>
methyl 5-(1-hydroxy-2,6,6-trimethyl-4-oxocyclohex-2-en-1-yl)-3-methylpenta-2,4-dienoate
> <PUBCHEM_IUPAC_SYSTEMATIC_NAME>
methyl 3-methyl-5-(2,6,6-trimethyl-1-oxidanyl-4-oxidanylidene-cyclohex-2-en-1-yl)penta-2,4-dienoate
> <PUBCHEM_IUPAC_TRADITIONAL_NAME>
5-(1-hydroxy-4-keto-2,6,6-trimethyl-cyclohex-2-en-1-yl)-3-methyl-penta-2,4-dienoic acid methyl ester
> <PUBCHEM_IUPAC_INCHI>
InChI=1S/C16H22O4/c1-11(8-14(18)20-5)6-7-16(19)12(2)9-13(17)10-15(16,3)4/h6-9,19H,10H2,1-5H3
> <PUBCHEM_IUPAC_INCHIKEY>
HHDYPZVHXGPCRG-UHFFFAOYSA-N
> <PUBCHEM_XLOGP3_AA>
1.9
> <PUBCHEM_EXACT_MASS>
278.15180918
> <PUBCHEM_MOLECULAR_FORMULA>
C16H22O4
> <PUBCHEM_MOLECULAR_WEIGHT>
278.34
> <PUBCHEM_OPENEYE_CAN_SMILES>
CC1=CC(=O)CC(C1(C=CC(=CC(=O)OC)C)O)(C)C
> <PUBCHEM_OPENEYE_ISO_SMILES>
CC1=CC(=O)CC(C1(C=CC(=CC(=O)OC)C)O)(C)C
> <PUBCHEM_CACTVS_TPSA>
63.6
> <PUBCHEM_MONOISOTOPIC_WEIGHT>
278.15180918
> <PUBCHEM_TOTAL_CHARGE>
0
> <PUBCHEM_HEAVY_ATOM_COUNT>
20
> <PUBCHEM_ATOM_DEF_STEREO_COUNT>
0
> <PUBCHEM_ATOM_UDEF_STEREO_COUNT>
1
> <PUBCHEM_BOND_DEF_STEREO_COUNT>
0
> <PUBCHEM_BOND_UDEF_STEREO_COUNT>
2
> <PUBCHEM_ISOTOPIC_ATOM_COUNT>
0
> <PUBCHEM_COMPONENT_COUNT>
1
> <PUBCHEM_CACTVS_TAUTO_COUNT>
-1
> <PUBCHEM_COORDINATE_TYPE>
1
5
255
> <PUBCHEM_BONDANNOTATIONS>
6  1  3
12  15  1
16  18  1
$$$$
