522474
  -OEChem-10302200292D
 33 33  0     1  0  0  0  0  0999 V2000
    4.5032   -0.7306    0.0000 C   0  0  3  0  0  0  0  0  0  0  0  0
    3.6942   -1.3184    0.0000 C   0  0  3  0  0  0  0  0  0  0  0  0
    5.3122   -1.3184    0.0000 C   0  0  0  0  0  0  0  0  0  0  0  0
    4.0032   -2.2694    0.0000 C   0  0  0  0  0  0  0  0  0  0  0  0
    5.0032   -2.2694    0.0000 C   0  0  0  0  0  0  0  0  0  0  0  0
    4.5032    0.2694    0.0000 C   0  0  0  0  0  0  0  0  0  0  0  0
    2.7431   -1.0094    0.0000 C   0  0  0  0  0  0  0  0  0  0  0  0
    5.3692    0.7694    0.0000 C   0  0  0  0  0  0  0  0  0  0  0  0
    2.0000   -1.6785    0.0000 C   0  0  0  0  0  0  0  0  0  0  0  0
    5.3692    1.7694    0.0000 C   0  0  0  0  0  0  0  0  0  0  0  0
    6.2353    2.2694    0.0000 C   0  0  0  0  0  0  0  0  0  0  0  0
    3.7459   -0.3447    0.0000 H   0  0  0  0  0  0  0  0  0  0  0  0
    3.0932   -1.9194    0.0000 H   0  0  0  0  0  0  0  0  0  0  0  0
    5.8786   -1.5705    0.0000 H   0  0  0  0  0  0  0  0  0  0  0  0
    5.6222   -0.7814    0.0000 H   0  0  0  0  0  0  0  0  0  0  0  0
    3.3968   -2.3983    0.0000 H   0  0  0  0  0  0  0  0  0  0  0  0
    4.0680   -2.8860    0.0000 H   0  0  0  0  0  0  0  0  0  0  0  0
    4.9384   -2.8860    0.0000 H   0  0  0  0  0  0  0  0  0  0  0  0
    5.6097   -2.3983    0.0000 H   0  0  0  0  0  0  0  0  0  0  0  0
    4.2912    0.8520    0.0000 H   0  0  0  0  0  0  0  0  0  0  0  0
    3.8926    0.1618    0.0000 H   0  0  0  0  0  0  0  0  0  0  0  0
    3.0342   -0.4619    0.0000 H   0  0  0  0  0  0  0  0  0  0  0  0
    2.2546   -0.6276    0.0000 H   0  0  0  0  0  0  0  0  0  0  0  0
    5.5813    0.1868    0.0000 H   0  0  0  0  0  0  0  0  0  0  0  0
    5.9798    0.8771    0.0000 H   0  0  0  0  0  0  0  0  0  0  0  0
    1.5851   -1.2177    0.0000 H   0  0  0  0  0  0  0  0  0  0  0  0
    1.5392   -2.0933    0.0000 H   0  0  0  0  0  0  0  0  0  0  0  0
    2.4149   -2.1392    0.0000 H   0  0  0  0  0  0  0  0  0  0  0  0
    5.1572    2.3520    0.0000 H   0  0  0  0  0  0  0  0  0  0  0  0
    4.7587    1.6618    0.0000 H   0  0  0  0  0  0  0  0  0  0  0  0
    6.5453    1.7325    0.0000 H   0  0  0  0  0  0  0  0  0  0  0  0
    6.7722    2.5794    0.0000 H   0  0  0  0  0  0  0  0  0  0  0  0
    5.9253    2.8064    0.0000 H   0  0  0  0  0  0  0  0  0  0  0  0
  1  2  1  0  0  0  0
  1  3  1  0  0  0  0
  1  6  1  0  0  0  0
  1 12  1  0  0  0  0
  2  4  1  0  0  0  0
  2  7  1  0  0  0  0
  2 13  1  0  0  0  0
  3  5  1  0  0  0  0
  3 14  1  0  0  0  0
  3 15  1  0  0  0  0
  4  5  1  0  0  0  0
  4 16  1  0  0  0  0
  4 17  1  0  0  0  0
  5 18  1  0  0  0  0
  5 19  1  0  0  0  0
  6  8  1  0  0  0  0
  6 20  1  0  0  0  0
  6 21  1  0  0  0  0
  7  9  1  0  0  0  0
  7 22  1  0  0  0  0
  7 23  1  0  0  0  0
  8 10  1  0  0  0  0
  8 24  1  0  0  0  0
  8 25  1  0  0  0  0
  9 26  1  0  0  0  0
  9 27  1  0  0  0  0
  9 28  1  0  0  0  0
 10 11  1  0  0  0  0
 10 29  1  0  0  0  0
 10 30  1  0  0  0  0
 11 31  1  0  0  0  0
 11 32  1  0  0  0  0
 11 33  1  0  0  0  0
M  END
> <PUBCHEM_COMPOUND_CID>
522474
> <PUBCHEM_COMPOUND_CANONICALIZED>
1
> <PUBCHEM_CACTVS_COMPLEXITY>
96.2
> <PUBCHEM_CACTVS_HBOND_ACCEPTOR>
0
> <PUBCHEM_CACTVS_HBOND_DONOR>
0
> <PUBCHEM_CACTVS_ROTATABLE_BOND>
4
> <PUBCHEM_CACTVS_SUBSKEYS>
AAADceBwAAAAAAAAAAAAAAAAAAAAAYAAAAAAAAAAAAAAAAAAAAAAGAAAAAAADQCAAAACAAAAAAAAAAAAAAAAAAAAAAAAAAAAAAAAAAIAAAAAAAAAAAAAAAEAgMAOgAAAAAAAAAAAAAAAAAAAAAAACAAAAA==
> <PUBCHEM_IUPAC_OPENEYE_NAME>
1-butyl-2-ethyl-cyclopentane
> <PUBCHEM_IUPAC_CAS_NAME>
1-butyl-2-ethylcyclopentane
> <PUBCHEM_IUPAC_NAME_MARKUP>
1-butyl-2-ethylcyclopentane
> <PUBCHEM_IUPAC_NAME>
1-butyl-2-ethylcyclopentane
> <PUBCHEM_IUPAC_SYSTEMATIC_NAME>
1-butyl-2-ethyl-cyclopentane
> <PUBCHEM_IUPAC_TRADITIONAL_NAME>
1-butyl-2-ethyl-cyclopentane
> <PUBCHEM_IUPAC_INCHI>
InChI=1S/C11H22/c1-3-5-7-11-9-6-8-10(11)4-2/h10-11H,3-9H2,1-2H3
> <PUBCHEM_IUPAC_INCHIKEY>
YJMFUCKUZMNZLY-UHFFFAOYSA-N
> <PUBCHEM_XLOGP3_AA>
5.4
> <PUBCHEM_EXACT_MASS>
154.172150702
> <PUBCHEM_MOLECULAR_FORMULA>
C11H22
> <PUBCHEM_MOLECULAR_WEIGHT>
154.29
> <PUBCHEM_OPENEYE_CAN_SMILES>
CCCCC1CCCC1CC
> <PUBCHEM_OPENEYE_ISO_SMILES>
CCCCC1CCCC1CC
> <PUBCHEM_CACTVS_TPSA>
0
> <PUBCHEM_MONOISOTOPIC_WEIGHT>
154.172150702
> <PUBCHEM_TOTAL_CHARGE>
0
> <PUBCHEM_HEAVY_ATOM_COUNT>
11
> <PUBCHEM_ATOM_DEF_STEREO_COUNT>
0
> <PUBCHEM_ATOM_UDEF_STEREO_COUNT>
2
> <PUBCHEM_BOND_DEF_STEREO_COUNT>
0
> <PUBCHEM_BOND_UDEF_STEREO_COUNT>
0
> <PUBCHEM_ISOTOPIC_ATOM_COUNT>
0
> <PUBCHEM_COMPONENT_COUNT>
1
> <PUBCHEM_CACTVS_TAUTO_COUNT>
1
> <PUBCHEM_COORDINATE_TYPE>
1
5
255
> <PUBCHEM_BONDANNOTATIONS>
1  12  3
2  13  3
$$$$
