522582
  -OEChem-10302200292D
 32 34  0     1  0  0  0  0  0999 V2000
    6.0000   -0.5670    0.0000 O   0  0  0  0  0  0  0  0  0  0  0  0
    5.8660    0.9330    0.0000 N   0  0  0  0  0  0  0  0  0  0  0  0
    5.0000   -1.5670    0.0000 C   0  0  0  0  0  0  0  0  0  0  0  0
    4.5000   -2.4330    0.0000 C   0  0  0  0  0  0  0  0  0  0  0  0
    5.5000   -2.4330    0.0000 C   0  0  0  0  0  0  0  0  0  0  0  0
    5.0000   -0.5670    0.0000 C   0  0  3  0  0  0  0  0  0  0  0  0
    4.0000   -0.5670    0.0000 C   0  0  0  0  0  0  0  0  0  0  0  0
    5.0000    0.4330    0.0000 C   0  0  0  0  0  0  0  0  0  0  0  0
    3.5000    0.2990    0.0000 C   0  0  0  0  0  0  0  0  0  0  0  0
    3.5000   -1.4330    0.0000 C   0  0  0  0  0  0  0  0  0  0  0  0
    4.1340    0.9330    0.0000 C   0  0  0  0  0  0  0  0  0  0  0  0
    2.5000    0.2990    0.0000 C   0  0  0  0  0  0  0  0  0  0  0  0
    2.5000   -1.4330    0.0000 C   0  0  0  0  0  0  0  0  0  0  0  0
    4.1340    1.9330    0.0000 C   0  0  0  0  0  0  0  0  0  0  0  0
    5.8660    1.9330    0.0000 C   0  0  0  0  0  0  0  0  0  0  0  0
    2.0000   -0.5670    0.0000 C   0  0  0  0  0  0  0  0  0  0  0  0
    5.0000    2.4330    0.0000 C   0  0  0  0  0  0  0  0  0  0  0  0
    5.5989   -1.4065    0.0000 H   0  0  0  0  0  0  0  0  0  0  0  0
    3.9174   -2.2210    0.0000 H   0  0  0  0  0  0  0  0  0  0  0  0
    4.3923   -3.0436    0.0000 H   0  0  0  0  0  0  0  0  0  0  0  0
    5.6077   -3.0436    0.0000 H   0  0  0  0  0  0  0  0  0  0  0  0
    6.0826   -2.2210    0.0000 H   0  0  0  0  0  0  0  0  0  0  0  0
    6.3100   -1.1039    0.0000 H   0  0  0  0  0  0  0  0  0  0  0  0
    3.8100    0.8360    0.0000 H   0  0  0  0  0  0  0  0  0  0  0  0
    3.8100   -1.9700    0.0000 H   0  0  0  0  0  0  0  0  0  0  0  0
    3.5970    0.6230    0.0000 H   0  0  0  0  0  0  0  0  0  0  0  0
    2.1900    0.8360    0.0000 H   0  0  0  0  0  0  0  0  0  0  0  0
    2.1900   -1.9700    0.0000 H   0  0  0  0  0  0  0  0  0  0  0  0
    3.5970    2.2430    0.0000 H   0  0  0  0  0  0  0  0  0  0  0  0
    6.4030    2.2430    0.0000 H   0  0  0  0  0  0  0  0  0  0  0  0
    1.3800   -0.5670    0.0000 H   0  0  0  0  0  0  0  0  0  0  0  0
    5.0000    3.0530    0.0000 H   0  0  0  0  0  0  0  0  0  0  0  0
  1  6  1  0  0  0  0
  1 23  1  0  0  0  0
  2  8  1  0  0  0  0
  2 15  2  0  0  0  0
  3  4  1  0  0  0  0
  3  5  1  0  0  0  0
  3  6  1  0  0  0  0
  3 18  1  0  0  0  0
  4  5  1  0  0  0  0
  4 19  1  0  0  0  0
  4 20  1  0  0  0  0
  5 21  1  0  0  0  0
  5 22  1  0  0  0  0
  6  7  1  0  0  0  0
  6  8  1  0  0  0  0
  7  9  2  0  0  0  0
  7 10  1  0  0  0  0
  8 11  2  0  0  0  0
  9 12  1  0  0  0  0
  9 24  1  0  0  0  0
 10 13  2  0  0  0  0
 10 25  1  0  0  0  0
 11 14  1  0  0  0  0
 11 26  1  0  0  0  0
 12 16  2  0  0  0  0
 12 27  1  0  0  0  0
 13 16  1  0  0  0  0
 13 28  1  0  0  0  0
 14 17  2  0  0  0  0
 14 29  1  0  0  0  0
 15 17  1  0  0  0  0
 15 30  1  0  0  0  0
 16 31  1  0  0  0  0
 17 32  1  0  0  0  0
M  END
> <PUBCHEM_COMPOUND_CID>
522582
> <PUBCHEM_COMPOUND_CANONICALIZED>
1
> <PUBCHEM_CACTVS_COMPLEXITY>
258
> <PUBCHEM_CACTVS_HBOND_ACCEPTOR>
2
> <PUBCHEM_CACTVS_HBOND_DONOR>
1
> <PUBCHEM_CACTVS_ROTATABLE_BOND>
3
> <PUBCHEM_CACTVS_SUBSKEYS>
AAADccByIAAAAAAAAAAAAAAAGAAAAAAAAAA8QAAAAAAAAAABwAAAHgAACAAADUzBngQ8gJIIEgCgAzRnRASCgCAxAiAI2CA4bJgKJuLAkZGEcAhkwAHY2AeQwOAOgAAAAAAAAAAAAAAAAAAAAAAAAAAAAA==
> <PUBCHEM_IUPAC_OPENEYE_NAME>
cyclopropyl-phenyl-(2-pyridyl)methanol
> <PUBCHEM_IUPAC_CAS_NAME>
cyclopropyl-phenyl-(2-pyridinyl)methanol
> <PUBCHEM_IUPAC_NAME_MARKUP>
cyclopropyl-phenyl-pyridin-2-ylmethanol
> <PUBCHEM_IUPAC_NAME>
cyclopropyl-phenyl-pyridin-2-ylmethanol
> <PUBCHEM_IUPAC_SYSTEMATIC_NAME>
cyclopropyl-phenyl-pyridin-2-yl-methanol
> <PUBCHEM_IUPAC_TRADITIONAL_NAME>
cyclopropyl-phenyl-(2-pyridyl)methanol
> <PUBCHEM_IUPAC_INCHI>
InChI=1S/C15H15NO/c17-15(13-9-10-13,12-6-2-1-3-7-12)14-8-4-5-11-16-14/h1-8,11,13,17H,9-10H2
> <PUBCHEM_IUPAC_INCHIKEY>
WGVFBOHQHCQWHG-UHFFFAOYSA-N
> <PUBCHEM_XLOGP3_AA>
2.3
> <PUBCHEM_EXACT_MASS>
225.115364102
> <PUBCHEM_MOLECULAR_FORMULA>
C15H15NO
> <PUBCHEM_MOLECULAR_WEIGHT>
225.28
> <PUBCHEM_OPENEYE_CAN_SMILES>
C1CC1C(C2=CC=CC=C2)(C3=CC=CC=N3)O
> <PUBCHEM_OPENEYE_ISO_SMILES>
C1CC1C(C2=CC=CC=C2)(C3=CC=CC=N3)O
> <PUBCHEM_CACTVS_TPSA>
33.1
> <PUBCHEM_MONOISOTOPIC_WEIGHT>
225.115364102
> <PUBCHEM_TOTAL_CHARGE>
0
> <PUBCHEM_HEAVY_ATOM_COUNT>
17
> <PUBCHEM_ATOM_DEF_STEREO_COUNT>
0
> <PUBCHEM_ATOM_UDEF_STEREO_COUNT>
1
> <PUBCHEM_BOND_DEF_STEREO_COUNT>
0
> <PUBCHEM_BOND_UDEF_STEREO_COUNT>
0
> <PUBCHEM_ISOTOPIC_ATOM_COUNT>
0
> <PUBCHEM_COMPONENT_COUNT>
1
> <PUBCHEM_CACTVS_TAUTO_COUNT>
-1
> <PUBCHEM_COORDINATE_TYPE>
1
5
255
> <PUBCHEM_BONDANNOTATIONS>
6  1  3
10  13  8
11  14  8
12  16  8
13  16  8
14  17  8
15  17  8
2  15  8
2  8  8
7  10  8
7  9  8
8  11  8
9  12  8
$$$$
