522549
  -OEChem-10302200292D
 19 19  0     1  0  0  0  0  0999 V2000
    2.2788    0.0861    0.0000 C   0  0  0  0  0  0  0  0  0  0  0  0
    3.0878    0.6739    0.0000 C   0  0  3  0  0  0  0  0  0  0  0  0
    2.5878   -0.8649    0.0000 C   0  0  3  0  0  0  0  0  0  0  0  0
    3.8968    0.0861    0.0000 C   0  0  0  0  0  0  0  0  0  0  0  0
    3.5878   -0.8649    0.0000 C   0  0  0  0  0  0  0  0  0  0  0  0
    3.0878    1.6739    0.0000 C   0  0  0  0  0  0  0  0  0  0  0  0
    2.0000   -1.6739    0.0000 C   0  0  0  0  0  0  0  0  0  0  0  0
    1.9688    0.6231    0.0000 H   0  0  0  0  0  0  0  0  0  0  0  0
    1.7124   -0.1660    0.0000 H   0  0  0  0  0  0  0  0  0  0  0  0
    3.6402    0.9554    0.0000 H   0  0  0  0  0  0  0  0  0  0  0  0
    1.9754   -0.7679    0.0000 H   0  0  0  0  0  0  0  0  0  0  0  0
    4.4865    0.2777    0.0000 H   0  0  0  0  0  0  0  0  0  0  0  0
    3.9522   -1.3665    0.0000 H   0  0  0  0  0  0  0  0  0  0  0  0
    3.7078    1.6739    0.0000 H   0  0  0  0  0  0  0  0  0  0  0  0
    3.0878    2.2939    0.0000 H   0  0  0  0  0  0  0  0  0  0  0  0
    2.4678    1.6739    0.0000 H   0  0  0  0  0  0  0  0  0  0  0  0
    1.4984   -1.3095    0.0000 H   0  0  0  0  0  0  0  0  0  0  0  0
    1.6356   -2.1755    0.0000 H   0  0  0  0  0  0  0  0  0  0  0  0
    2.5016   -2.0384    0.0000 H   0  0  0  0  0  0  0  0  0  0  0  0
  1  2  1  0  0  0  0
  1  3  1  0  0  0  0
  1  8  1  0  0  0  0
  1  9  1  0  0  0  0
  2  4  1  0  0  0  0
  2  6  1  0  0  0  0
  2 10  1  0  0  0  0
  3  5  1  0  0  0  0
  3  7  1  0  0  0  0
  3 11  1  0  0  0  0
  4  5  2  0  0  0  0
  4 12  1  0  0  0  0
  5 13  1  0  0  0  0
  6 14  1  0  0  0  0
  6 15  1  0  0  0  0
  6 16  1  0  0  0  0
  7 17  1  0  0  0  0
  7 18  1  0  0  0  0
  7 19  1  0  0  0  0
M  END
> <PUBCHEM_COMPOUND_CID>
522549
> <PUBCHEM_COMPOUND_CANONICALIZED>
1
> <PUBCHEM_CACTVS_COMPLEXITY>
72
> <PUBCHEM_CACTVS_HBOND_ACCEPTOR>
0
> <PUBCHEM_CACTVS_HBOND_DONOR>
0
> <PUBCHEM_CACTVS_ROTATABLE_BOND>
0
> <PUBCHEM_CACTVS_SUBSKEYS>
AAADccBgAAAAAAAAAAAAAAAAAAAAAQAAAAAAAAAAAAAAAAAAAAAAGAAAAAAADQCAAAACAAAAAACAACBCAAAAAAAgAAAICAAAAAgAAAIAAQAAAAAAgAAIAAIAAAAMAAAAAAAAAAAAAAAAAAAAAAAAAAAAAA==
> <PUBCHEM_IUPAC_OPENEYE_NAME>
3,5-dimethylcyclopentene
> <PUBCHEM_IUPAC_CAS_NAME>
3,5-dimethylcyclopentene
> <PUBCHEM_IUPAC_NAME_MARKUP>
3,5-dimethylcyclopentene
> <PUBCHEM_IUPAC_NAME>
3,5-dimethylcyclopentene
> <PUBCHEM_IUPAC_SYSTEMATIC_NAME>
3,5-dimethylcyclopentene
> <PUBCHEM_IUPAC_TRADITIONAL_NAME>
3,5-dimethylcyclopentene
> <PUBCHEM_IUPAC_INCHI>
InChI=1S/C7H12/c1-6-3-4-7(2)5-6/h3-4,6-7H,5H2,1-2H3
> <PUBCHEM_IUPAC_INCHIKEY>
PUPAPFTXLYVYPX-UHFFFAOYSA-N
> <PUBCHEM_XLOGP3_AA>
2.6
> <PUBCHEM_EXACT_MASS>
96.093900383
> <PUBCHEM_MOLECULAR_FORMULA>
C7H12
> <PUBCHEM_MOLECULAR_WEIGHT>
96.17
> <PUBCHEM_OPENEYE_CAN_SMILES>
CC1CC(C=C1)C
> <PUBCHEM_OPENEYE_ISO_SMILES>
CC1CC(C=C1)C
> <PUBCHEM_CACTVS_TPSA>
0
> <PUBCHEM_MONOISOTOPIC_WEIGHT>
96.093900383
> <PUBCHEM_TOTAL_CHARGE>
0
> <PUBCHEM_HEAVY_ATOM_COUNT>
7
> <PUBCHEM_ATOM_DEF_STEREO_COUNT>
0
> <PUBCHEM_ATOM_UDEF_STEREO_COUNT>
2
> <PUBCHEM_BOND_DEF_STEREO_COUNT>
0
> <PUBCHEM_BOND_UDEF_STEREO_COUNT>
0
> <PUBCHEM_ISOTOPIC_ATOM_COUNT>
0
> <PUBCHEM_COMPONENT_COUNT>
1
> <PUBCHEM_CACTVS_TAUTO_COUNT>
-1
> <PUBCHEM_COORDINATE_TYPE>
1
5
255
> <PUBCHEM_BONDANNOTATIONS>
2  6  3
3  7  3
$$$$
