522524
  -OEChem-10302200292D
 27 31  0     1  0  0  0  0  0999 V2000
    3.9480    1.9582    0.0000 Cl  0  0  0  0  0  0  0  0  0  0  0  0
    5.0559    2.3370    0.0000 Cl  0  0  0  0  0  0  0  0  0  0  0  0
    3.7591   -0.8647    0.0000 Cl  0  0  0  0  0  0  0  0  0  0  0  0
    6.1409    0.8232    0.0000 Cl  0  0  0  0  0  0  0  0  0  0  0  0
    5.7038   -0.4560    0.0000 Cl  0  0  0  0  0  0  0  0  0  0  0  0
    4.7463   -1.1380    0.0000 Cl  0  0  0  0  0  0  0  0  0  0  0  0
    2.0000   -2.2949    0.0000 O   0  0  0  0  0  0  0  0  0  0  0  0
    3.9266    0.9584    0.0000 C   0  0  3  0  0  0  0  0  0  0  0  0
    4.6069    1.4435    0.0000 C   0  0  3  0  0  0  0  0  0  0  0  0
    3.3044    1.4435    0.0000 C   0  0  3  0  0  0  0  0  0  0  0  0
    3.9270    0.1211    0.0000 C   0  0  3  0  0  0  0  0  0  0  0  0
    3.1309   -0.1380    0.0000 C   0  0  3  0  0  0  0  0  0  0  0  0
    5.1464    0.7178    0.0000 C   0  0  3  0  0  0  0  0  0  0  0  0
    2.7648    0.7364    0.0000 C   0  0  3  0  0  0  0  0  0  0  0  0
    4.1789   -0.5102    0.0000 C   0  0  3  0  0  0  0  0  0  0  0  0
    4.7557   -0.1381    0.0000 C   0  0  0  0  0  0  0  0  0  0  0  0
    2.4857   -0.4172    0.0000 C   0  0  0  0  0  0  0  0  0  0  0  0
    3.0997   -0.9568    0.0000 C   0  0  3  0  0  0  0  0  0  0  0  0
    2.9362   -1.9433    0.0000 C   0  0  0  0  0  0  0  0  0  0  0  0
    2.9274    2.2053    0.0000 H   0  0  0  0  0  0  0  0  0  0  0  0
    2.5466   -0.7554    0.0000 H   0  0  0  0  0  0  0  0  0  0  0  0
    1.9975    1.1020    0.0000 H   0  0  0  0  0  0  0  0  0  0  0  0
    4.6919   -1.1880    0.0000 H   0  0  0  0  0  0  0  0  0  0  0  0
    1.9143   -0.1766    0.0000 H   0  0  0  0  0  0  0  0  0  0  0  0
    2.1565   -0.9426    0.0000 H   0  0  0  0  0  0  0  0  0  0  0  0
    2.2992   -1.2424    0.0000 H   0  0  0  0  0  0  0  0  0  0  0  0
    3.4151   -2.3370    0.0000 H   0  0  0  0  0  0  0  0  0  0  0  0
  1  8  1  0  0  0  0
  2  9  1  0  0  0  0
  3 11  1  0  0  0  0
  4 13  1  0  0  0  0
  5 16  1  0  0  0  0
  6 16  1  0  0  0  0
  7 19  2  0  0  0  0
  8  9  1  0  0  0  0
  8 10  1  0  0  0  0
  8 11  1  0  0  0  0
  9 10  1  0  0  0  0
  9 13  1  0  0  0  0
 10 14  1  0  0  0  0
 10 20  1  0  0  0  0
 11 12  1  0  0  0  0
 11 16  1  0  0  0  0
 12 14  1  0  0  0  0
 12 15  1  0  0  0  0
 12 21  1  0  0  0  0
 13 15  1  0  0  0  0
 13 16  1  0  0  0  0
 14 17  1  0  0  0  0
 14 22  1  0  0  0  0
 15 18  1  0  0  0  0
 15 23  1  0  0  0  0
 17 18  1  0  0  0  0
 17 24  1  0  0  0  0
 17 25  1  0  0  0  0
 18 19  1  0  0  0  0
 18 26  1  0  0  0  0
 19 27  1  0  0  0  0
M  END
> <PUBCHEM_COMPOUND_CID>
522524
> <PUBCHEM_COMPOUND_CANONICALIZED>
1
> <PUBCHEM_CACTVS_COMPLEXITY>
566
> <PUBCHEM_CACTVS_HBOND_ACCEPTOR>
1
> <PUBCHEM_CACTVS_HBOND_DONOR>
0
> <PUBCHEM_CACTVS_ROTATABLE_BOND>
1
> <PUBCHEM_CACTVS_SUBSKEYS>
AAADccBwIAAHAAAAAAAAAAAAGAAAAYMGDAAwAAAABgAAAAAAAAAAGgIAAAAADQKggIIAAAAAAAAIAAgQgAAAAAAAAAAAAEEAAgAAABIBAAAAAAAAAAAAAAEIiMCOgAAAAAAAAACIACRAASIACRAASIACAA==
> <PUBCHEM_IUPAC_OPENEYE_NAME>
3,4,5,6,6,7-hexachloropentacyclo[6.3.0.02,4.03,7.05,9]undecane-10-carbaldehyde
> <PUBCHEM_IUPAC_CAS_NAME>
3,4,5,6,6,7-hexachloro-10-pentacyclo[6.3.0.02,4.03,7.05,9]undecanecarboxaldehyde
> <PUBCHEM_IUPAC_NAME_MARKUP>
3,4,5,6,6,7-hexachloropentacyclo[6.3.0.0<SUP>2,4</SUP>.0<SUP>3,7</SUP>.0<SUP>5,9</SUP>]undecane-10-carbaldehyde
> <PUBCHEM_IUPAC_NAME>
3,4,5,6,6,7-hexachloropentacyclo[6.3.0.02,4.03,7.05,9]undecane-10-carbaldehyde
> <PUBCHEM_IUPAC_SYSTEMATIC_NAME>
3,4,5,6,6,7-hexakis(chloranyl)pentacyclo[6.3.0.02,4.03,7.05,9]undecane-10-carbaldehyde
> <PUBCHEM_IUPAC_TRADITIONAL_NAME>
3,4,5,6,6,7-hexachloropentacyclo[6.3.0.02,4.03,7.05,9]undecane-10-carbaldehyde
> <PUBCHEM_IUPAC_INCHI>
InChI=1S/C12H8Cl6O/c13-8-5-3(2-19)1-4-6(5)9(14,12(8,17)18)11(16)7(4)10(8,11)15/h2-7H,1H2
> <PUBCHEM_IUPAC_INCHIKEY>
HCTWZIFNBBCVGM-UHFFFAOYSA-N
> <PUBCHEM_XLOGP3_AA>
3
> <PUBCHEM_EXACT_MASS>
379.867681
> <PUBCHEM_MOLECULAR_FORMULA>
C12H8Cl6O
> <PUBCHEM_MOLECULAR_WEIGHT>
380.9
> <PUBCHEM_OPENEYE_CAN_SMILES>
C1C(C2C3C1C4C5(C2(C(C3(C45Cl)Cl)(Cl)Cl)Cl)Cl)C=O
> <PUBCHEM_OPENEYE_ISO_SMILES>
C1C(C2C3C1C4C5(C2(C(C3(C45Cl)Cl)(Cl)Cl)Cl)Cl)C=O
> <PUBCHEM_CACTVS_TPSA>
17.1
> <PUBCHEM_MONOISOTOPIC_WEIGHT>
377.870631
> <PUBCHEM_TOTAL_CHARGE>
0
> <PUBCHEM_HEAVY_ATOM_COUNT>
19
> <PUBCHEM_ATOM_DEF_STEREO_COUNT>
0
> <PUBCHEM_ATOM_UDEF_STEREO_COUNT>
9
> <PUBCHEM_BOND_DEF_STEREO_COUNT>
0
> <PUBCHEM_BOND_UDEF_STEREO_COUNT>
0
> <PUBCHEM_ISOTOPIC_ATOM_COUNT>
0
> <PUBCHEM_COMPONENT_COUNT>
1
> <PUBCHEM_CACTVS_TAUTO_COUNT>
2
> <PUBCHEM_COORDINATE_TYPE>
1
5
255
> <PUBCHEM_BONDANNOTATIONS>
8  1  3
10  20  3
12  21  3
13  15  3
14  22  3
15  23  3
18  26  3
11  3  3
9  8  3
$$$$
