522656
  -OEChem-10302200292D
 25 25  0     1  0  0  0  0  0999 V2000
    6.0010   -0.5000    0.0000 S   0  0  0  0  0  0  0  0  0  0  0  0
    7.7331   -0.5000    0.0000 O   0  0  0  0  0  0  0  0  0  0  0  0
    4.2690   -1.5000    0.0000 O   0  0  0  0  0  0  0  0  0  0  0  0
    2.5369   -0.5000    0.0000 O   0  0  0  0  0  0  0  0  0  0  0  0
    3.4030   -0.0000    0.0000 N   0  0  0  0  0  0  0  0  0  0  0  0
    6.8671    1.0000    0.0000 C   0  0  0  0  0  0  0  0  0  0  0  0
    7.7331    1.5000    0.0000 C   0  0  0  0  0  0  0  0  0  0  0  0
    6.8671    0.0000    0.0000 C   0  0  3  0  0  0  0  0  0  0  0  0
    8.5991    1.0000    0.0000 C   0  0  0  0  0  0  0  0  0  0  0  0
    8.5991    0.0000    0.0000 C   0  0  0  0  0  0  0  0  0  0  0  0
    5.1350   -0.0000    0.0000 C   0  0  0  0  0  0  0  0  0  0  0  0
    4.2690   -0.5000    0.0000 C   0  0  0  0  0  0  0  0  0  0  0  0
    6.6550    1.5826    0.0000 H   0  0  0  0  0  0  0  0  0  0  0  0
    6.2565    0.8923    0.0000 H   0  0  0  0  0  0  0  0  0  0  0  0
    8.1316    1.9750    0.0000 H   0  0  0  0  0  0  0  0  0  0  0  0
    7.3346    1.9750    0.0000 H   0  0  0  0  0  0  0  0  0  0  0  0
    6.3301    0.3100    0.0000 H   0  0  0  0  0  0  0  0  0  0  0  0
    9.2097    0.8923    0.0000 H   0  0  0  0  0  0  0  0  0  0  0  0
    8.8112    1.5826    0.0000 H   0  0  0  0  0  0  0  0  0  0  0  0
    8.8112   -0.5826    0.0000 H   0  0  0  0  0  0  0  0  0  0  0  0
    9.2097    0.1077    0.0000 H   0  0  0  0  0  0  0  0  0  0  0  0
    5.5335    0.4749    0.0000 H   0  0  0  0  0  0  0  0  0  0  0  0
    4.7365    0.4749    0.0000 H   0  0  0  0  0  0  0  0  0  0  0  0
    3.4030    0.6200    0.0000 H   0  0  0  0  0  0  0  0  0  0  0  0
    2.0000   -0.1900    0.0000 H   0  0  0  0  0  0  0  0  0  0  0  0
  1  8  1  0  0  0  0
  1 11  1  0  0  0  0
  2  8  1  0  0  0  0
  2 10  1  0  0  0  0
  3 12  2  0  0  0  0
  4  5  1  0  0  0  0
  4 25  1  0  0  0  0
  5 12  1  0  0  0  0
  5 24  1  0  0  0  0
  6  7  1  0  0  0  0
  6  8  1  0  0  0  0
  6 13  1  0  0  0  0
  6 14  1  0  0  0  0
  7  9  1  0  0  0  0
  7 15  1  0  0  0  0
  7 16  1  0  0  0  0
  8 17  1  0  0  0  0
  9 10  1  0  0  0  0
  9 18  1  0  0  0  0
  9 19  1  0  0  0  0
 10 20  1  0  0  0  0
 10 21  1  0  0  0  0
 11 12  1  0  0  0  0
 11 22  1  0  0  0  0
 11 23  1  0  0  0  0
M  END
> <PUBCHEM_COMPOUND_CID>
522656
> <PUBCHEM_COMPOUND_CANONICALIZED>
1
> <PUBCHEM_CACTVS_COMPLEXITY>
154
> <PUBCHEM_CACTVS_HBOND_ACCEPTOR>
4
> <PUBCHEM_CACTVS_HBOND_DONOR>
2
> <PUBCHEM_CACTVS_ROTATABLE_BOND>
3
> <PUBCHEM_CACTVS_SUBSKEYS>
AAADccBiMABAAAAAAAAAAAAAAAAAAAAAAAAkAAAAAAAAAAAAAAAAHgQUCAAACAClwAKAAABQBAgIAAEQEAAAAAAAABAgAAAAAAAAAAIgAAACAAAEEAAgAACAAAAAAAAAAAAAAAAAAAAAAAAAAAAAAAAAAA==
> <PUBCHEM_IUPAC_OPENEYE_NAME>
2-tetrahydropyran-2-ylsulfanylethanehydroxamic acid
> <PUBCHEM_IUPAC_CAS_NAME>
N-hydroxy-2-(2-oxanylthio)acetamide
> <PUBCHEM_IUPAC_NAME_MARKUP>
<I>N</I>-hydroxy-2-(oxan-2-ylsulfanyl)acetamide
> <PUBCHEM_IUPAC_NAME>
N-hydroxy-2-(oxan-2-ylsulfanyl)acetamide
> <PUBCHEM_IUPAC_SYSTEMATIC_NAME>
2-(oxan-2-ylsulfanyl)-N-oxidanyl-ethanamide
> <PUBCHEM_IUPAC_TRADITIONAL_NAME>
2-(tetrahydropyran-2-ylthio)ethanehydroxamic acid
> <PUBCHEM_IUPAC_INCHI>
InChI=1S/C7H13NO3S/c9-6(8-10)5-12-7-3-1-2-4-11-7/h7,10H,1-5H2,(H,8,9)
> <PUBCHEM_IUPAC_INCHIKEY>
AOXNRFNBOXSPNC-UHFFFAOYSA-N
> <PUBCHEM_XLOGP3_AA>
0.6
> <PUBCHEM_EXACT_MASS>
191.06161445
> <PUBCHEM_MOLECULAR_FORMULA>
C7H13NO3S
> <PUBCHEM_MOLECULAR_WEIGHT>
191.25
> <PUBCHEM_OPENEYE_CAN_SMILES>
C1CCOC(C1)SCC(=O)NO
> <PUBCHEM_OPENEYE_ISO_SMILES>
C1CCOC(C1)SCC(=O)NO
> <PUBCHEM_CACTVS_TPSA>
83.9
> <PUBCHEM_MONOISOTOPIC_WEIGHT>
191.06161445
> <PUBCHEM_TOTAL_CHARGE>
0
> <PUBCHEM_HEAVY_ATOM_COUNT>
12
> <PUBCHEM_ATOM_DEF_STEREO_COUNT>
0
> <PUBCHEM_ATOM_UDEF_STEREO_COUNT>
1
> <PUBCHEM_BOND_DEF_STEREO_COUNT>
0
> <PUBCHEM_BOND_UDEF_STEREO_COUNT>
0
> <PUBCHEM_ISOTOPIC_ATOM_COUNT>
0
> <PUBCHEM_COMPONENT_COUNT>
1
> <PUBCHEM_CACTVS_TAUTO_COUNT>
-1
> <PUBCHEM_COORDINATE_TYPE>
1
5
255
> <PUBCHEM_BONDANNOTATIONS>
8  1  3
$$$$
