522665
  -OEChem-10302200292D
 56 60  0     1  0  0  0  0  0999 V2000
    4.5695   -2.8958    0.0000 O   0  0  0  0  0  0  0  0  0  0  0  0
    3.3652   -3.9764    0.0000 O   0  0  0  0  0  0  0  0  0  0  0  0
    3.8372    4.1699    0.0000 O   0  0  0  0  0  0  0  0  0  0  0  0
    3.7841   -2.0268    0.0000 C   0  0  3  0  0  0  0  0  0  0  0  0
    2.9180   -1.5268    0.0000 C   0  0  3  0  0  0  0  0  0  0  0  0
    2.9180   -0.5268    0.0000 C   0  0  3  0  0  0  0  0  0  0  0  0
    3.7841   -0.0268    0.0000 C   0  0  3  0  0  0  0  0  0  0  0  0
    3.5748   -2.9986    0.0000 C   0  0  0  0  0  0  0  0  0  0  0  0
    3.8001    1.0147    0.0000 C   0  0  3  0  0  0  0  0  0  0  0  0
    4.6501   -1.5268    0.0000 C   0  0  0  0  0  0  0  0  0  0  0  0
    2.1810   -2.1938    0.0000 C   0  0  0  0  0  0  0  0  0  0  0  0
    4.6501   -0.5268    0.0000 C   0  0  0  0  0  0  0  0  0  0  0  0
    2.5861   -3.1016    0.0000 C   0  0  0  0  0  0  0  0  0  0  0  0
    2.0080   -0.0199    0.0000 C   0  0  0  0  0  0  0  0  0  0  0  0
    4.7689   -2.2004    0.0000 C   0  0  0  0  0  0  0  0  0  0  0  0
    2.9021    1.5425    0.0000 C   0  0  0  0  0  0  0  0  0  0  0  0
    4.7520    1.5354    0.0000 C   0  0  0  0  0  0  0  0  0  0  0  0
    2.0000    1.0217    0.0000 C   0  0  0  0  0  0  0  0  0  0  0  0
    4.6623    0.5081    0.0000 C   0  0  0  0  0  0  0  0  0  0  0  0
    2.8937    2.6274    0.0000 C   0  0  0  0  0  0  0  0  0  0  0  0
    4.7688    2.6202    0.0000 C   0  0  0  0  0  0  0  0  0  0  0  0
    3.8334    3.1700    0.0000 C   0  0  3  0  0  0  0  0  0  0  0  0
    4.9747   -3.8100    0.0000 C   0  0  0  0  0  0  0  0  0  0  0  0
    4.2304   -4.4779    0.0000 C   0  0  0  0  0  0  0  0  0  0  0  0
    2.3513   -1.2753    0.0000 H   0  0  0  0  0  0  0  0  0  0  0  0
    2.3835   -0.8409    0.0000 H   0  0  0  0  0  0  0  0  0  0  0  0
    4.3234    0.2791    0.0000 H   0  0  0  0  0  0  0  0  0  0  0  0
    4.8621   -2.1094    0.0000 H   0  0  0  0  0  0  0  0  0  0  0  0
    5.2607   -1.4191    0.0000 H   0  0  0  0  0  0  0  0  0  0  0  0
    1.8156   -1.6930    0.0000 H   0  0  0  0  0  0  0  0  0  0  0  0
    1.6445   -2.5046    0.0000 H   0  0  0  0  0  0  0  0  0  0  0  0
    5.2607   -0.6344    0.0000 H   0  0  0  0  0  0  0  0  0  0  0  0
    4.8621    0.0558    0.0000 H   0  0  0  0  0  0  0  0  0  0  0  0
    1.9965   -3.2934    0.0000 H   0  0  0  0  0  0  0  0  0  0  0  0
    2.7149   -3.7081    0.0000 H   0  0  0  0  0  0  0  0  0  0  0  0
    1.3964    0.0815    0.0000 H   0  0  0  0  0  0  0  0  0  0  0  0
    1.8035   -0.6052    0.0000 H   0  0  0  0  0  0  0  0  0  0  0  0
    4.6612   -2.8110    0.0000 H   0  0  0  0  0  0  0  0  0  0  0  0
    5.3794   -2.3081    0.0000 H   0  0  0  0  0  0  0  0  0  0  0  0
    4.8765   -1.5898    0.0000 H   0  0  0  0  0  0  0  0  0  0  0  0
    4.9521    0.9485    0.0000 H   0  0  0  0  0  0  0  0  0  0  0  0
    5.3645    1.6320    0.0000 H   0  0  0  0  0  0  0  0  0  0  0  0
    1.4619    1.3296    0.0000 H   0  0  0  0  0  0  0  0  0  0  0  0
    4.3481   -0.0265    0.0000 H   0  0  0  0  0  0  0  0  0  0  0  0
    5.1968    0.1939    0.0000 H   0  0  0  0  0  0  0  0  0  0  0  0
    4.9764    1.0426    0.0000 H   0  0  0  0  0  0  0  0  0  0  0  0
    2.6802    3.2095    0.0000 H   0  0  0  0  0  0  0  0  0  0  0  0
    2.2837    2.5166    0.0000 H   0  0  0  0  0  0  0  0  0  0  0  0
    5.3779    2.5047    0.0000 H   0  0  0  0  0  0  0  0  0  0  0  0
    4.9868    3.2006    0.0000 H   0  0  0  0  0  0  0  0  0  0  0  0
    3.2970    3.4810    0.0000 H   0  0  0  0  0  0  0  0  0  0  0  0
    5.3383   -4.3122    0.0000 H   0  0  0  0  0  0  0  0  0  0  0  0
    5.5122   -3.5010    0.0000 H   0  0  0  0  0  0  0  0  0  0  0  0
    3.8651   -4.9788    0.0000 H   0  0  0  0  0  0  0  0  0  0  0  0
    4.6904   -4.8935    0.0000 H   0  0  0  0  0  0  0  0  0  0  0  0
    4.3753    4.4779    0.0000 H   0  0  0  0  0  0  0  0  0  0  0  0
  1  8  1  0  0  0  0
  1 23  1  0  0  0  0
  2  8  1  0  0  0  0
  2 24  1  0  0  0  0
  3 22  1  0  0  0  0
  3 56  1  0  0  0  0
  4  5  1  0  0  0  0
  4  8  1  0  0  0  0
  4 10  1  0  0  0  0
  4 15  1  0  0  0  0
  5  6  1  0  0  0  0
  5 11  1  0  0  0  0
  5 25  1  0  0  0  0
  6  7  1  0  0  0  0
  6 14  1  0  0  0  0
  6 26  1  0  0  0  0
  7  9  1  0  0  0  0
  7 12  1  0  0  0  0
  7 27  1  0  0  0  0
  8 13  1  0  0  0  0
  9 16  1  0  0  0  0
  9 17  1  0  0  0  0
  9 19  1  0  0  0  0
 10 12  1  0  0  0  0
 10 28  1  0  0  0  0
 10 29  1  0  0  0  0
 11 13  1  0  0  0  0
 11 30  1  0  0  0  0
 11 31  1  0  0  0  0
 12 32  1  0  0  0  0
 12 33  1  0  0  0  0
 13 34  1  0  0  0  0
 13 35  1  0  0  0  0
 14 18  1  0  0  0  0
 14 36  1  0  0  0  0
 14 37  1  0  0  0  0
 15 38  1  0  0  0  0
 15 39  1  0  0  0  0
 15 40  1  0  0  0  0
 16 18  2  0  0  0  0
 16 20  1  0  0  0  0
 17 21  1  0  0  0  0
 17 41  1  0  0  0  0
 17 42  1  0  0  0  0
 18 43  1  0  0  0  0
 19 44  1  0  0  0  0
 19 45  1  0  0  0  0
 19 46  1  0  0  0  0
 20 22  1  0  0  0  0
 20 47  1  0  0  0  0
 20 48  1  0  0  0  0
 21 22  1  0  0  0  0
 21 49  1  0  0  0  0
 21 50  1  0  0  0  0
 22 51  1  0  0  0  0
 23 24  1  0  0  0  0
 23 52  1  0  0  0  0
 23 53  1  0  0  0  0
 24 54  1  0  0  0  0
 24 55  1  0  0  0  0
M  END
> <PUBCHEM_COMPOUND_CID>
522665
> <PUBCHEM_COMPOUND_CANONICALIZED>
1
> <PUBCHEM_CACTVS_COMPLEXITY>
563
> <PUBCHEM_CACTVS_HBOND_ACCEPTOR>
3
> <PUBCHEM_CACTVS_HBOND_DONOR>
1
> <PUBCHEM_CACTVS_ROTATABLE_BOND>
0
> <PUBCHEM_CACTVS_SUBSKEYS>
AAADcfB4MAAAAAAAAAAAAAAAAAAAAaIAAAAwYIAAAAAAAGCAAAAAGgAACAAADxSggAICCAAABgCAAiBCAAAAAAAgAAAACAAAAAgREAIAAQAiQAAEwAAOAAOAwPAPgAAAAAAAAADAAAQAACAAAIAADAAAAA==
> <PUBCHEM_IUPAC_OPENEYE_NAME>
10,13-dimethylspiro[1,2,3,4,7,8,9,11,12,14,15,16-dodecahydrocyclopenta[a]phenanthrene-17,2'-1,3-dioxolane]-3-ol
> <PUBCHEM_IUPAC_CAS_NAME>
10,13-dimethyl-3-spiro[1,2,3,4,7,8,9,11,12,14,15,16-dodecahydrocyclopenta[a]phenanthrene-17,2'-1,3-dioxolane]ol
> <PUBCHEM_IUPAC_NAME_MARKUP>
10,13-dimethylspiro[1,2,3,4,7,8,9,11,12,14,15,16-dodecahydrocyclopenta[a]phenanthrene-17,2&apos;-1,3-dioxolane]-3-ol
> <PUBCHEM_IUPAC_NAME>
10,13-dimethylspiro[1,2,3,4,7,8,9,11,12,14,15,16-dodecahydrocyclopenta[a]phenanthrene-17,2'-1,3-dioxolane]-3-ol
> <PUBCHEM_IUPAC_SYSTEMATIC_NAME>
10,13-dimethylspiro[1,2,3,4,7,8,9,11,12,14,15,16-dodecahydrocyclopenta[a]phenanthrene-17,2'-1,3-dioxolane]-3-ol
> <PUBCHEM_IUPAC_TRADITIONAL_NAME>
10,13-dimethylspiro[1,2,3,4,7,8,9,11,12,14,15,16-dodecahydrocyclopenta[a]phenanthrene-17,2'-1,3-dioxolane]-3-ol
> <PUBCHEM_IUPAC_INCHI>
InChI=1S/C21H32O3/c1-19-8-5-15(22)13-14(19)3-4-16-17(19)6-9-20(2)18(16)7-10-21(20)23-11-12-24-21/h3,15-18,22H,4-13H2,1-2H3
> <PUBCHEM_IUPAC_INCHIKEY>
SXXRMGBMPQWUTB-UHFFFAOYSA-N
> <PUBCHEM_XLOGP3>
3.6
> <PUBCHEM_EXACT_MASS>
332.23514488
> <PUBCHEM_MOLECULAR_FORMULA>
C21H32O3
> <PUBCHEM_MOLECULAR_WEIGHT>
332.5
> <PUBCHEM_OPENEYE_CAN_SMILES>
CC12CCC(CC1=CCC3C2CCC4(C3CCC45OCCO5)C)O
> <PUBCHEM_OPENEYE_ISO_SMILES>
CC12CCC(CC1=CCC3C2CCC4(C3CCC45OCCO5)C)O
> <PUBCHEM_CACTVS_TPSA>
38.7
> <PUBCHEM_MONOISOTOPIC_WEIGHT>
332.23514488
> <PUBCHEM_TOTAL_CHARGE>
0
> <PUBCHEM_HEAVY_ATOM_COUNT>
24
> <PUBCHEM_ATOM_DEF_STEREO_COUNT>
0
> <PUBCHEM_ATOM_UDEF_STEREO_COUNT>
6
> <PUBCHEM_BOND_DEF_STEREO_COUNT>
0
> <PUBCHEM_BOND_UDEF_STEREO_COUNT>
0
> <PUBCHEM_ISOTOPIC_ATOM_COUNT>
0
> <PUBCHEM_COMPONENT_COUNT>
1
> <PUBCHEM_CACTVS_TAUTO_COUNT>
-1
> <PUBCHEM_COORDINATE_TYPE>
1
5
255
> <PUBCHEM_BONDANNOTATIONS>
22  3  3
4  15  3
5  11  3
6  14  3
7  12  3
9  19  3
$$$$
