522657
  -OEChem-10302200292D
 27 28  0     1  0  0  0  0  0999 V2000
    2.0000   -2.0536    0.0000 F   0  0  0  0  0  0  0  0  0  0  0  0
    8.4798    0.3698    0.0000 O   0  5  0  0  0  0  0  0  0  0  0  0
    7.1906   -0.7870    0.0000 O   0  0  0  0  0  0  0  0  0  0  0  0
    5.5443   -1.8584    0.0000 N   0  0  0  0  0  0  0  0  0  0  0  0
    7.1441    1.8584    0.0000 N   0  3  0  0  0  0  0  0  0  0  0  0
    5.8550    0.7016    0.0000 C   0  0  0  0  0  0  0  0  0  0  0  0
    5.5443   -0.2489    0.0000 C   0  0  0  0  0  0  0  0  0  0  0  0
    6.8335    0.9078    0.0000 C   0  0  3  0  0  0  0  0  0  0  0  0
    4.5981   -0.5536    0.0000 C   0  0  0  0  0  0  0  0  0  0  0  0
    4.5981   -1.5536    0.0000 C   0  0  0  0  0  0  0  0  0  0  0  0
    6.1279   -1.0536    0.0000 C   0  0  0  0  0  0  0  0  0  0  0  0
    3.7320   -0.0536    0.0000 C   0  0  0  0  0  0  0  0  0  0  0  0
    3.7320   -2.0536    0.0000 C   0  0  0  0  0  0  0  0  0  0  0  0
    7.5013    0.1635    0.0000 C   0  0  0  0  0  0  0  0  0  0  0  0
    2.8660   -0.5536    0.0000 C   0  0  0  0  0  0  0  0  0  0  0  0
    2.8660   -1.5536    0.0000 C   0  0  0  0  0  0  0  0  0  0  0  0
    5.8344    1.3213    0.0000 H   0  0  0  0  0  0  0  0  0  0  0  0
    5.2411    0.7890    0.0000 H   0  0  0  0  0  0  0  0  0  0  0  0
    6.4194    1.3693    0.0000 H   0  0  0  0  0  0  0  0  0  0  0  0
    6.7479   -1.0536    0.0000 H   0  0  0  0  0  0  0  0  0  0  0  0
    5.7369   -2.4477    0.0000 H   0  0  0  0  0  0  0  0  0  0  0  0
    7.3367    2.4477    0.0000 H   0  0  0  0  0  0  0  0  0  0  0  0
    7.7334    1.6658    0.0000 H   0  0  0  0  0  0  0  0  0  0  0  0
    6.5548    2.0510    0.0000 H   0  0  0  0  0  0  0  0  0  0  0  0
    3.7320    0.5664    0.0000 H   0  0  0  0  0  0  0  0  0  0  0  0
    3.7320   -2.6736    0.0000 H   0  0  0  0  0  0  0  0  0  0  0  0
    2.3291   -0.2436    0.0000 H   0  0  0  0  0  0  0  0  0  0  0  0
  1 16  1  0  0  0  0
  2 14  1  0  0  0  0
  3 14  2  0  0  0  0
  4 10  1  0  0  0  0
  4 11  1  0  0  0  0
  4 21  1  0  0  0  0
  5  8  1  0  0  0  0
  5 22  1  0  0  0  0
  5 23  1  0  0  0  0
  5 24  1  0  0  0  0
  6  7  1  0  0  0  0
  6  8  1  0  0  0  0
  6 17  1  0  0  0  0
  6 18  1  0  0  0  0
  7  9  1  0  0  0  0
  7 11  2  0  0  0  0
  8 14  1  0  0  0  0
  8 19  1  0  0  0  0
  9 10  2  0  0  0  0
  9 12  1  0  0  0  0
 10 13  1  0  0  0  0
 11 20  1  0  0  0  0
 12 15  2  0  0  0  0
 12 25  1  0  0  0  0
 13 16  2  0  0  0  0
 13 26  1  0  0  0  0
 15 16  1  0  0  0  0
 15 27  1  0  0  0  0
M  CHG  2   2  -1   5   1
M  END
> <PUBCHEM_COMPOUND_CID>
522657
> <PUBCHEM_COMPOUND_CANONICALIZED>
1
> <PUBCHEM_CACTVS_COMPLEXITY>
269
> <PUBCHEM_CACTVS_HBOND_ACCEPTOR>
3
> <PUBCHEM_CACTVS_HBOND_DONOR>
2
> <PUBCHEM_CACTVS_ROTATABLE_BOND>
2
> <PUBCHEM_CACTVS_SUBSKEYS>
AAADccBzMQAAAAAAAAAAAAAAAAAAAWAAAAAwAAAAAAAAAFgB8AAAHwAQAAAADCjBngw8yPLJkACoAzT3TACCgCAxAiAI2aG4ZJgKIPLAkZGEIAhkkADIyAeY2fKOgAAAAAACAAAAAAAAAAQAAAAAAAAAAA==
> <PUBCHEM_IUPAC_OPENEYE_NAME>
2-azaniumyl-3-(6-fluoro-1H-indol-3-yl)propanoate
> <PUBCHEM_IUPAC_CAS_NAME>
2-ammonio-3-(6-fluoro-1H-indol-3-yl)propanoate
> <PUBCHEM_IUPAC_NAME_MARKUP>
2-azaniumyl-3-(6-fluoro-1<I>H</I>-indol-3-yl)propanoate
> <PUBCHEM_IUPAC_NAME>
2-azaniumyl-3-(6-fluoro-1H-indol-3-yl)propanoate
> <PUBCHEM_IUPAC_SYSTEMATIC_NAME>
2-azaniumyl-3-(6-fluoranyl-1H-indol-3-yl)propanoate
> <PUBCHEM_IUPAC_TRADITIONAL_NAME>
2-ammonio-3-(6-fluoro-1H-indol-3-yl)propionate
> <PUBCHEM_IUPAC_INCHI>
InChI=1S/C11H11FN2O2/c12-7-1-2-8-6(3-9(13)11(15)16)5-14-10(8)4-7/h1-2,4-5,9,14H,3,13H2,(H,15,16)
> <PUBCHEM_IUPAC_INCHIKEY>
YMEXGEAJNZRQEH-UHFFFAOYSA-N
> <PUBCHEM_XLOGP3>
-0.1
> <PUBCHEM_EXACT_MASS>
222.08045576
> <PUBCHEM_MOLECULAR_FORMULA>
C11H11FN2O2
> <PUBCHEM_MOLECULAR_WEIGHT>
222.22
> <PUBCHEM_OPENEYE_CAN_SMILES>
C1=CC2=C(C=C1F)NC=C2CC(C(=O)[O-])[NH3+]
> <PUBCHEM_OPENEYE_ISO_SMILES>
C1=CC2=C(C=C1F)NC=C2CC(C(=O)[O-])[NH3+]
> <PUBCHEM_CACTVS_TPSA>
83.6
> <PUBCHEM_MONOISOTOPIC_WEIGHT>
222.08045576
> <PUBCHEM_TOTAL_CHARGE>
0
> <PUBCHEM_HEAVY_ATOM_COUNT>
16
> <PUBCHEM_ATOM_DEF_STEREO_COUNT>
0
> <PUBCHEM_ATOM_UDEF_STEREO_COUNT>
1
> <PUBCHEM_BOND_DEF_STEREO_COUNT>
0
> <PUBCHEM_BOND_UDEF_STEREO_COUNT>
0
> <PUBCHEM_ISOTOPIC_ATOM_COUNT>
0
> <PUBCHEM_COMPONENT_COUNT>
1
> <PUBCHEM_CACTVS_TAUTO_COUNT>
-1
> <PUBCHEM_COORDINATE_TYPE>
1
5
255
> <PUBCHEM_BONDANNOTATIONS>
10  13  8
12  15  8
13  16  8
15  16  8
4  10  8
4  11  8
8  5  3
7  11  8
7  9  8
9  10  8
9  12  8
$$$$
