522752
  -OEChem-10302200292D
 18 18  0     1  0  0  0  0  0999 V2000
    4.0778    2.0352    0.0000 Br  0  0  0  0  0  0  0  0  0  0  0  0
    2.8090   -2.0352    0.0000 O   0  0  0  0  0  0  0  0  0  0  0  0
    4.5691   -1.7564    0.0000 O   0  0  0  0  0  0  0  0  0  0  0  0
    3.3090   -0.4964    0.0000 C   0  0  3  0  0  0  0  0  0  0  0  0
    2.3090   -0.4964    0.0000 C   0  0  0  0  0  0  0  0  0  0  0  0
    3.8968    0.3126    0.0000 C   0  0  0  0  0  0  0  0  0  0  0  0
    2.0000   -1.4474    0.0000 C   0  0  0  0  0  0  0  0  0  0  0  0
    3.6180   -1.4474    0.0000 C   0  0  0  0  0  0  0  0  0  0  0  0
    3.4901    1.2262    0.0000 C   0  0  0  0  0  0  0  0  0  0  0  0
    4.1486   -0.6293    0.0000 H   0  0  0  0  0  0  0  0  0  0  0  0
    2.3738    0.1202    0.0000 H   0  0  0  0  0  0  0  0  0  0  0  0
    1.7026   -0.3675    0.0000 H   0  0  0  0  0  0  0  0  0  0  0  0
    4.3275   -0.1333    0.0000 H   0  0  0  0  0  0  0  0  0  0  0  0
    4.4108    0.6593    0.0000 H   0  0  0  0  0  0  0  0  0  0  0  0
    1.4336   -1.1952    0.0000 H   0  0  0  0  0  0  0  0  0  0  0  0
    1.6900   -1.9844    0.0000 H   0  0  0  0  0  0  0  0  0  0  0  0
    3.0594    1.6722    0.0000 H   0  0  0  0  0  0  0  0  0  0  0  0
    2.9761    0.8795    0.0000 H   0  0  0  0  0  0  0  0  0  0  0  0
  1  9  1  0  0  0  0
  2  7  1  0  0  0  0
  2  8  1  0  0  0  0
  3  8  2  0  0  0  0
  4  5  1  0  0  0  0
  4  6  1  0  0  0  0
  4  8  1  0  0  0  0
  4 10  1  0  0  0  0
  5  7  1  0  0  0  0
  5 11  1  0  0  0  0
  5 12  1  0  0  0  0
  6  9  1  0  0  0  0
  6 13  1  0  0  0  0
  6 14  1  0  0  0  0
  7 15  1  0  0  0  0
  7 16  1  0  0  0  0
  9 17  1  0  0  0  0
  9 18  1  0  0  0  0
M  END
> <PUBCHEM_COMPOUND_CID>
522752
> <PUBCHEM_COMPOUND_CANONICALIZED>
1
> <PUBCHEM_CACTVS_COMPLEXITY>
114
> <PUBCHEM_CACTVS_HBOND_ACCEPTOR>
2
> <PUBCHEM_CACTVS_HBOND_DONOR>
0
> <PUBCHEM_CACTVS_ROTATABLE_BOND>
2
> <PUBCHEM_CACTVS_SUBSKEYS>
AAADccBgMAAAEAAAAAAAAAAAAAAAASAAAAAAAAAAAAAAAAAAAAAAGgBAAAABTQCggAIACAAABAAIAACQCAAAAAAAAAAAAAEAACAAABIAAAACAAAEAAAAAACCAAAKAAAAAAAAAAAAAAAAAAAAAAAAAAAAAA==
> <PUBCHEM_IUPAC_OPENEYE_NAME>
3-(2-bromoethyl)tetrahydrofuran-2-one
> <PUBCHEM_IUPAC_CAS_NAME>
3-(2-bromoethyl)-2-oxolanone
> <PUBCHEM_IUPAC_NAME_MARKUP>
3-(2-bromoethyl)oxolan-2-one
> <PUBCHEM_IUPAC_NAME>
3-(2-bromoethyl)oxolan-2-one
> <PUBCHEM_IUPAC_SYSTEMATIC_NAME>
3-(2-bromoethyl)oxolan-2-one
> <PUBCHEM_IUPAC_TRADITIONAL_NAME>
3-(2-bromoethyl)tetrahydrofuran-2-one
> <PUBCHEM_IUPAC_INCHI>
InChI=1S/C6H9BrO2/c7-3-1-5-2-4-9-6(5)8/h5H,1-4H2
> <PUBCHEM_IUPAC_INCHIKEY>
IGLXGNWTGHUHHI-UHFFFAOYSA-N
> <PUBCHEM_XLOGP3_AA>
1.3
> <PUBCHEM_EXACT_MASS>
191.97859
> <PUBCHEM_MOLECULAR_FORMULA>
C6H9BrO2
> <PUBCHEM_MOLECULAR_WEIGHT>
193.04
> <PUBCHEM_OPENEYE_CAN_SMILES>
C1COC(=O)C1CCBr
> <PUBCHEM_OPENEYE_ISO_SMILES>
C1COC(=O)C1CCBr
> <PUBCHEM_CACTVS_TPSA>
26.3
> <PUBCHEM_MONOISOTOPIC_WEIGHT>
191.97859
> <PUBCHEM_TOTAL_CHARGE>
0
> <PUBCHEM_HEAVY_ATOM_COUNT>
9
> <PUBCHEM_ATOM_DEF_STEREO_COUNT>
0
> <PUBCHEM_ATOM_UDEF_STEREO_COUNT>
1
> <PUBCHEM_BOND_DEF_STEREO_COUNT>
0
> <PUBCHEM_BOND_UDEF_STEREO_COUNT>
0
> <PUBCHEM_ISOTOPIC_ATOM_COUNT>
0
> <PUBCHEM_COMPONENT_COUNT>
1
> <PUBCHEM_CACTVS_TAUTO_COUNT>
2
> <PUBCHEM_COORDINATE_TYPE>
1
5
255
> <PUBCHEM_BONDANNOTATIONS>
4  10  3
$$$$
