522747
  -OEChem-10302200292D
 27 28  0     1  0  0  0  0  0999 V2000
    2.4608    0.4216    0.0000 O   0  0  0  0  0  0  0  0  0  0  0  0
    4.9996   -0.0784    0.0000 O   0  0  0  0  0  0  0  0  0  0  0  0
    3.4118    0.7306    0.0000 C   0  0  3  0  0  0  0  0  0  0  0  0
    4.4118    0.7306    0.0000 C   0  0  3  0  0  0  0  0  0  0  0  0
    3.1028    1.6816    0.0000 C   0  0  0  0  0  0  0  0  0  0  0  0
    4.7208    1.6816    0.0000 C   0  0  0  0  0  0  0  0  0  0  0  0
    3.9118    2.2694    0.0000 C   0  0  0  0  0  0  0  0  0  0  0  0
    3.4118   -0.2694    0.0000 C   0  0  0  0  0  0  0  0  0  0  0  0
    2.5458   -0.7694    0.0000 C   0  0  0  0  0  0  0  0  0  0  0  0
    4.2778   -0.7694    0.0000 C   0  0  0  0  0  0  0  0  0  0  0  0
    2.5458   -1.7694    0.0000 C   0  0  0  0  0  0  0  0  0  0  0  0
    4.2778   -1.7694    0.0000 C   0  0  0  0  0  0  0  0  0  0  0  0
    3.4118   -2.2694    0.0000 C   0  0  0  0  0  0  0  0  0  0  0  0
    4.1303    0.1782    0.0000 H   0  0  0  0  0  0  0  0  0  0  0  0
    2.7928    2.2186    0.0000 H   0  0  0  0  0  0  0  0  0  0  0  0
    2.5364    1.4295    0.0000 H   0  0  0  0  0  0  0  0  0  0  0  0
    5.2872    1.4295    0.0000 H   0  0  0  0  0  0  0  0  0  0  0  0
    5.0308    2.2186    0.0000 H   0  0  0  0  0  0  0  0  0  0  0  0
    4.3267    2.7302    0.0000 H   0  0  0  0  0  0  0  0  0  0  0  0
    3.4970    2.7302    0.0000 H   0  0  0  0  0  0  0  0  0  0  0  0
    2.0000    0.8364    0.0000 H   0  0  0  0  0  0  0  0  0  0  0  0
    5.6162   -0.0136    0.0000 H   0  0  0  0  0  0  0  0  0  0  0  0
    2.0088   -0.4594    0.0000 H   0  0  0  0  0  0  0  0  0  0  0  0
    4.8148   -0.4594    0.0000 H   0  0  0  0  0  0  0  0  0  0  0  0
    2.0088   -2.0794    0.0000 H   0  0  0  0  0  0  0  0  0  0  0  0
    4.8148   -2.0794    0.0000 H   0  0  0  0  0  0  0  0  0  0  0  0
    3.4118   -2.8894    0.0000 H   0  0  0  0  0  0  0  0  0  0  0  0
  1  3  1  0  0  0  0
  1 21  1  0  0  0  0
  2  4  1  0  0  0  0
  2 22  1  0  0  0  0
  3  4  1  0  0  0  0
  3  5  1  0  0  0  0
  3  8  1  0  0  0  0
  4  6  1  0  0  0  0
  4 14  1  0  0  0  0
  5  7  1  0  0  0  0
  5 15  1  0  0  0  0
  5 16  1  0  0  0  0
  6  7  1  0  0  0  0
  6 17  1  0  0  0  0
  6 18  1  0  0  0  0
  7 19  1  0  0  0  0
  7 20  1  0  0  0  0
  8  9  2  0  0  0  0
  8 10  1  0  0  0  0
  9 11  1  0  0  0  0
  9 23  1  0  0  0  0
 10 12  2  0  0  0  0
 10 24  1  0  0  0  0
 11 13  2  0  0  0  0
 11 25  1  0  0  0  0
 12 13  1  0  0  0  0
 12 26  1  0  0  0  0
 13 27  1  0  0  0  0
M  END
> <PUBCHEM_COMPOUND_CID>
522747
> <PUBCHEM_COMPOUND_CANONICALIZED>
1
> <PUBCHEM_CACTVS_COMPLEXITY>
175
> <PUBCHEM_CACTVS_HBOND_ACCEPTOR>
2
> <PUBCHEM_CACTVS_HBOND_DONOR>
2
> <PUBCHEM_CACTVS_ROTATABLE_BOND>
1
> <PUBCHEM_CACTVS_SUBSKEYS>
AAADccBwMAAAAAAAAAAAAAAAAAAAAYAAAAAwAAAAAAAAAAABAAAAGgAACAAADFSgmAIwAIAAAgCAAiBCAAACAAAgAAAIiAAACIgJNiKAERCAcAAkwAEJmAeA4OQOgAAAAAAAAAAAAAAAAAAAAAAABCAAAA==
> <PUBCHEM_IUPAC_OPENEYE_NAME>
1-phenylcyclopentane-1,2-diol
> <PUBCHEM_IUPAC_CAS_NAME>
1-phenylcyclopentane-1,2-diol
> <PUBCHEM_IUPAC_NAME_MARKUP>
1-phenylcyclopentane-1,2-diol
> <PUBCHEM_IUPAC_NAME>
1-phenylcyclopentane-1,2-diol
> <PUBCHEM_IUPAC_SYSTEMATIC_NAME>
1-phenylcyclopentane-1,2-diol
> <PUBCHEM_IUPAC_TRADITIONAL_NAME>
1-phenylcyclopentane-1,2-diol
> <PUBCHEM_IUPAC_INCHI>
InChI=1S/C11H14O2/c12-10-7-4-8-11(10,13)9-5-2-1-3-6-9/h1-3,5-6,10,12-13H,4,7-8H2
> <PUBCHEM_IUPAC_INCHIKEY>
CWTWKJLRHPCTRR-UHFFFAOYSA-N
> <PUBCHEM_XLOGP3_AA>
1.1
> <PUBCHEM_EXACT_MASS>
178.099379685
> <PUBCHEM_MOLECULAR_FORMULA>
C11H14O2
> <PUBCHEM_MOLECULAR_WEIGHT>
178.23
> <PUBCHEM_OPENEYE_CAN_SMILES>
C1CC(C(C1)(C2=CC=CC=C2)O)O
> <PUBCHEM_OPENEYE_ISO_SMILES>
C1CC(C(C1)(C2=CC=CC=C2)O)O
> <PUBCHEM_CACTVS_TPSA>
40.5
> <PUBCHEM_MONOISOTOPIC_WEIGHT>
178.099379685
> <PUBCHEM_TOTAL_CHARGE>
0
> <PUBCHEM_HEAVY_ATOM_COUNT>
13
> <PUBCHEM_ATOM_DEF_STEREO_COUNT>
0
> <PUBCHEM_ATOM_UDEF_STEREO_COUNT>
2
> <PUBCHEM_BOND_DEF_STEREO_COUNT>
0
> <PUBCHEM_BOND_UDEF_STEREO_COUNT>
0
> <PUBCHEM_ISOTOPIC_ATOM_COUNT>
0
> <PUBCHEM_COMPONENT_COUNT>
1
> <PUBCHEM_CACTVS_TAUTO_COUNT>
-1
> <PUBCHEM_COORDINATE_TYPE>
1
5
255
> <PUBCHEM_BONDANNOTATIONS>
3  1  3
10  12  8
11  13  8
12  13  8
4  2  3
8  10  8
8  9  8
9  11  8
$$$$
