522763
  -OEChem-10302200292D
 65 70  0     1  0  0  0  0  0999 V2000
    3.1780   -0.6083    0.0000 O   0  0  0  0  0  0  0  0  0  0  0  0
    6.0088    0.5970    0.0000 O   0  0  0  0  0  0  0  0  0  0  0  0
    4.2455    0.8116    0.0000 O   0  0  0  0  0  0  0  0  0  0  0  0
    3.1401   -3.0778    0.0000 C   0  0  3  0  0  0  0  0  0  0  0  0
    8.1664    1.7990    0.0000 C   0  0  3  0  0  0  0  0  0  0  0  0
    5.0665   -3.6383    0.0000 C   0  0  0  0  0  0  0  0  0  0  0  0
    7.6886    3.7475    0.0000 C   0  0  0  0  0  0  0  0  0  0  0  0
    3.8472   -3.7849    0.0000 C   0  0  3  0  0  0  0  0  0  0  0  0
    8.4253    2.7649    0.0000 C   0  0  3  0  0  0  0  0  0  0  0  0
    4.2986   -1.7667    0.0000 C   0  0  3  0  0  0  0  0  0  0  0  0
    6.4517    2.1466    0.0000 C   0  0  3  0  0  0  0  0  0  0  0  0
    3.3138   -1.5930    0.0000 C   0  0  3  0  0  0  0  0  0  0  0  0
    6.7937    1.2070    0.0000 C   0  0  3  0  0  0  0  0  0  0  0  0
    2.0000   -4.0349    0.0000 C   0  0  0  0  0  0  0  0  0  0  0  0
    9.5654    1.2902    0.0000 C   0  0  0  0  0  0  0  0  0  0  0  0
    2.7071   -4.7420    0.0000 C   0  0  0  0  0  0  0  0  0  0  0  0
    9.8242    2.2561    0.0000 C   0  0  0  0  0  0  0  0  0  0  0  0
    4.7630   -0.8877    0.0000 C   0  0  0  0  0  0  0  0  0  0  0  0
    5.4583    2.1094    0.0000 C   0  0  0  0  0  0  0  0  0  0  0  0
    4.0718   -0.1733    0.0000 C   0  0  3  0  0  0  0  0  0  0  0  0
    5.1852    1.1536    0.0000 C   0  0  3  0  0  0  0  0  0  0  0  0
    2.4330   -2.3707    0.0000 C   0  0  0  0  0  0  0  0  0  0  0  0
    7.9076    0.8331    0.0000 C   0  0  0  0  0  0  0  0  0  0  0  0
    5.8755   -4.2261    0.0000 C   0  0  0  0  0  0  0  0  0  0  0  0
    5.8755   -3.0505    0.0000 C   0  0  0  0  0  0  0  0  0  0  0  0
    7.7932    4.7420    0.0000 C   0  0  0  0  0  0  0  0  0  0  0  0
    6.7751    4.1542    0.0000 C   0  0  0  0  0  0  0  0  0  0  0  0
    4.0938   -4.3538    0.0000 H   0  0  0  0  0  0  0  0  0  0  0  0
    8.7946    3.2629    0.0000 H   0  0  0  0  0  0  0  0  0  0  0  0
    4.8803   -1.9810    0.0000 H   0  0  0  0  0  0  0  0  0  0  0  0
    6.3465    2.7577    0.0000 H   0  0  0  0  0  0  0  0  0  0  0  0
    2.6938   -1.5994    0.0000 H   0  0  0  0  0  0  0  0  0  0  0  0
    7.1093    0.6732    0.0000 H   0  0  0  0  0  0  0  0  0  0  0  0
    1.5878   -3.5718    0.0000 H   0  0  0  0  0  0  0  0  0  0  0  0
    1.5491   -4.4604    0.0000 H   0  0  0  0  0  0  0  0  0  0  0  0
    9.3705    0.7016    0.0000 H   0  0  0  0  0  0  0  0  0  0  0  0
   10.1594    1.1124    0.0000 H   0  0  0  0  0  0  0  0  0  0  0  0
    2.2562   -5.1675    0.0000 H   0  0  0  0  0  0  0  0  0  0  0  0
    3.1194   -5.2051    0.0000 H   0  0  0  0  0  0  0  0  0  0  0  0
   10.4182    2.0783    0.0000 H   0  0  0  0  0  0  0  0  0  0  0  0
   10.0191    2.8446    0.0000 H   0  0  0  0  0  0  0  0  0  0  0  0
    5.2777   -1.2334    0.0000 H   0  0  0  0  0  0  0  0  0  0  0  0
    5.1608   -0.4122    0.0000 H   0  0  0  0  0  0  0  0  0  0  0  0
    5.5003    2.7280    0.0000 H   0  0  0  0  0  0  0  0  0  0  0  0
    4.8476    2.2162    0.0000 H   0  0  0  0  0  0  0  0  0  0  0  0
    4.6646    0.0083    0.0000 H   0  0  0  0  0  0  0  0  0  0  0  0
    5.1093    0.5382    0.0000 H   0  0  0  0  0  0  0  0  0  0  0  0
    2.8714   -1.9323    0.0000 H   0  0  0  0  0  0  0  0  0  0  0  0
    1.9946   -1.9323    0.0000 H   0  0  0  0  0  0  0  0  0  0  0  0
    1.9946   -2.8091    0.0000 H   0  0  0  0  0  0  0  0  0  0  0  0
    7.3088    0.9935    0.0000 H   0  0  0  0  0  0  0  0  0  0  0  0
    7.7472    0.2342    0.0000 H   0  0  0  0  0  0  0  0  0  0  0  0
    8.5065    0.6726    0.0000 H   0  0  0  0  0  0  0  0  0  0  0  0
    5.5111   -4.7277    0.0000 H   0  0  0  0  0  0  0  0  0  0  0  0
    6.3771   -4.5905    0.0000 H   0  0  0  0  0  0  0  0  0  0  0  0
    6.2400   -3.7245    0.0000 H   0  0  0  0  0  0  0  0  0  0  0  0
    6.2400   -3.5521    0.0000 H   0  0  0  0  0  0  0  0  0  0  0  0
    6.3771   -2.6861    0.0000 H   0  0  0  0  0  0  0  0  0  0  0  0
    5.5111   -2.5489    0.0000 H   0  0  0  0  0  0  0  0  0  0  0  0
    8.4098    4.6772    0.0000 H   0  0  0  0  0  0  0  0  0  0  0  0
    7.8580    5.3586    0.0000 H   0  0  0  0  0  0  0  0  0  0  0  0
    7.1766    4.8068    0.0000 H   0  0  0  0  0  0  0  0  0  0  0  0
    7.0273    4.7206    0.0000 H   0  0  0  0  0  0  0  0  0  0  0  0
    6.2087    4.4064    0.0000 H   0  0  0  0  0  0  0  0  0  0  0  0
    6.5229    3.5879    0.0000 H   0  0  0  0  0  0  0  0  0  0  0  0
  1 12  1  0  0  0  0
  1 20  1  0  0  0  0
  2 13  1  0  0  0  0
  2 21  1  0  0  0  0
  3 20  1  0  0  0  0
  3 21  1  0  0  0  0
  4  6  1  0  0  0  0
  4 12  1  0  0  0  0
  4 14  1  0  0  0  0
  4 22  1  0  0  0  0
  5  7  1  0  0  0  0
  5 13  1  0  0  0  0
  5 15  1  0  0  0  0
  5 23  1  0  0  0  0
  6  8  1  0  0  0  0
  6 24  1  0  0  0  0
  6 25  1  0  0  0  0
  7  9  1  0  0  0  0
  7 26  1  0  0  0  0
  7 27  1  0  0  0  0
  8 10  1  0  0  0  0
  8 16  1  0  0  0  0
  8 28  1  0  0  0  0
  9 11  1  0  0  0  0
  9 17  1  0  0  0  0
  9 29  1  0  0  0  0
 10 12  1  0  0  0  0
 10 18  1  0  0  0  0
 10 30  1  0  0  0  0
 11 13  1  0  0  0  0
 11 19  1  0  0  0  0
 11 31  1  0  0  0  0
 12 32  1  0  0  0  0
 13 33  1  0  0  0  0
 14 16  1  0  0  0  0
 14 34  1  0  0  0  0
 14 35  1  0  0  0  0
 15 17  1  0  0  0  0
 15 36  1  0  0  0  0
 15 37  1  0  0  0  0
 16 38  1  0  0  0  0
 16 39  1  0  0  0  0
 17 40  1  0  0  0  0
 17 41  1  0  0  0  0
 18 20  1  0  0  0  0
 18 42  1  0  0  0  0
 18 43  1  0  0  0  0
 19 21  1  0  0  0  0
 19 44  1  0  0  0  0
 19 45  1  0  0  0  0
 20 46  1  0  0  0  0
 21 47  1  0  0  0  0
 22 48  1  0  0  0  0
 22 49  1  0  0  0  0
 22 50  1  0  0  0  0
 23 51  1  0  0  0  0
 23 52  1  0  0  0  0
 23 53  1  0  0  0  0
 24 54  1  0  0  0  0
 24 55  1  0  0  0  0
 24 56  1  0  0  0  0
 25 57  1  0  0  0  0
 25 58  1  0  0  0  0
 25 59  1  0  0  0  0
 26 60  1  0  0  0  0
 26 61  1  0  0  0  0
 26 62  1  0  0  0  0
 27 63  1  0  0  0  0
 27 64  1  0  0  0  0
 27 65  1  0  0  0  0
M  END
> <PUBCHEM_COMPOUND_CID>
522763
> <PUBCHEM_COMPOUND_CANONICALIZED>
1
> <PUBCHEM_CACTVS_COMPLEXITY>
615
> <PUBCHEM_CACTVS_HBOND_ACCEPTOR>
3
> <PUBCHEM_CACTVS_HBOND_DONOR>
0
> <PUBCHEM_CACTVS_ROTATABLE_BOND>
2
> <PUBCHEM_CACTVS_SUBSKEYS>
AAADcfB4MAAAAAAAAAAAAAAAAAAAAaNGDBAwYAAAAAASJAAAAAAAGgAAAAAADxSwgAMCCAAABAAAAAAAAAAAAAAAAAAAAAAAAAAQAAIAAAAiAAAEAAAEAAHAwPAPgAAAAAAAAACAAAYAADAAAYAADAAAAA==
> <PUBCHEM_IUPAC_OPENEYE_NAME>
1,10,10-trimethyl-4-[(1,10,10-trimethyl-3-oxatricyclo[5.2.1.02,6]decan-4-yl)oxy]-3-oxatricyclo[5.2.1.02,6]decane
> <PUBCHEM_IUPAC_CAS_NAME>
1,10,10-trimethyl-4-[(1,10,10-trimethyl-3-oxatricyclo[5.2.1.02,6]decan-4-yl)oxy]-3-oxatricyclo[5.2.1.02,6]decane
> <PUBCHEM_IUPAC_NAME_MARKUP>
1,10,10-trimethyl-4-[(1,10,10-trimethyl-3-oxatricyclo[5.2.1.0<SUP>2,6</SUP>]decan-4-yl)oxy]-3-oxatricyclo[5.2.1.0<SUP>2,6</SUP>]decane
> <PUBCHEM_IUPAC_NAME>
1,10,10-trimethyl-4-[(1,10,10-trimethyl-3-oxatricyclo[5.2.1.02,6]decan-4-yl)oxy]-3-oxatricyclo[5.2.1.02,6]decane
> <PUBCHEM_IUPAC_SYSTEMATIC_NAME>
1,10,10-trimethyl-4-[(1,10,10-trimethyl-3-oxatricyclo[5.2.1.02,6]decan-4-yl)oxy]-3-oxatricyclo[5.2.1.02,6]decane
> <PUBCHEM_IUPAC_TRADITIONAL_NAME>
1,10,10-trimethyl-4-[(1,10,10-trimethyl-3-oxatricyclo[5.2.1.02,6]decan-4-yl)oxy]-3-oxatricyclo[5.2.1.02,6]decane
> <PUBCHEM_IUPAC_INCHI>
InChI=1S/C24H38O3/c1-21(2)15-7-9-23(21,5)19-13(15)11-17(26-19)25-18-12-14-16-8-10-24(6,20(14)27-18)22(16,3)4/h13-20H,7-12H2,1-6H3
> <PUBCHEM_IUPAC_INCHIKEY>
VUDXCBLBKXFCNA-UHFFFAOYSA-N
> <PUBCHEM_XLOGP3_AA>
6.1
> <PUBCHEM_EXACT_MASS>
374.28209507
> <PUBCHEM_MOLECULAR_FORMULA>
C24H38O3
> <PUBCHEM_MOLECULAR_WEIGHT>
374.6
> <PUBCHEM_OPENEYE_CAN_SMILES>
CC1(C2CCC1(C3C2CC(O3)OC4CC5C6CCC(C5O4)(C6(C)C)C)C)C
> <PUBCHEM_OPENEYE_ISO_SMILES>
CC1(C2CCC1(C3C2CC(O3)OC4CC5C6CCC(C5O4)(C6(C)C)C)C)C
> <PUBCHEM_CACTVS_TPSA>
27.7
> <PUBCHEM_MONOISOTOPIC_WEIGHT>
374.28209507
> <PUBCHEM_TOTAL_CHARGE>
0
> <PUBCHEM_HEAVY_ATOM_COUNT>
27
> <PUBCHEM_ATOM_DEF_STEREO_COUNT>
0
> <PUBCHEM_ATOM_UDEF_STEREO_COUNT>
10
> <PUBCHEM_BOND_DEF_STEREO_COUNT>
0
> <PUBCHEM_BOND_UDEF_STEREO_COUNT>
0
> <PUBCHEM_ISOTOPIC_ATOM_COUNT>
0
> <PUBCHEM_COMPONENT_COUNT>
1
> <PUBCHEM_CACTVS_TAUTO_COUNT>
-1
> <PUBCHEM_COORDINATE_TYPE>
1
5
255
> <PUBCHEM_BONDANNOTATIONS>
12  1  3
10  18  3
11  19  3
13  2  3
20  3  3
21  3  3
4  22  3
5  23  3
8  16  3
9  17  3
$$$$
