522873
  -OEChem-10302200292D
 16 17  0     1  0  0  0  0  0999 V2000
    2.0000   -0.5000    0.0000 F   0  0  0  0  0  0  0  0  0  0  0  0
    3.0000   -1.5000    0.0000 F   0  0  0  0  0  0  0  0  0  0  0  0
    3.0000    1.5000    0.0000 F   0  0  0  0  0  0  0  0  0  0  0  0
    2.0000    0.5000    0.0000 F   0  0  0  0  0  0  0  0  0  0  0  0
    4.0000   -0.5000    0.0000 C   0  0  3  0  0  0  0  0  0  0  0  0
    4.0000    0.5000    0.0000 C   0  0  3  0  0  0  0  0  0  0  0  0
    4.8665    0.0000    0.0000 C   0  0  0  0  0  0  0  0  0  0  0  0
    3.0000   -0.5000    0.0000 C   0  0  0  0  0  0  0  0  0  0  0  0
    3.0000    0.5000    0.0000 C   0  0  0  0  0  0  0  0  0  0  0  0
    5.8665    0.0000    0.0000 C   0  0  0  0  0  0  0  0  0  0  0  0
    4.1604   -1.0989    0.0000 H   0  0  0  0  0  0  0  0  0  0  0  0
    4.1604    1.0989    0.0000 H   0  0  0  0  0  0  0  0  0  0  0  0
    5.0269   -0.5989    0.0000 H   0  0  0  0  0  0  0  0  0  0  0  0
    5.8665   -0.6200    0.0000 H   0  0  0  0  0  0  0  0  0  0  0  0
    6.4865   -0.0000    0.0000 H   0  0  0  0  0  0  0  0  0  0  0  0
    5.8665    0.6200    0.0000 H   0  0  0  0  0  0  0  0  0  0  0  0
  1  8  1  0  0  0  0
  2  8  1  0  0  0  0
  3  9  1  0  0  0  0
  4  9  1  0  0  0  0
  5  6  1  0  0  0  0
  5  7  1  0  0  0  0
  5  8  1  0  0  0  0
  5 11  1  0  0  0  0
  6  7  1  0  0  0  0
  6  9  1  0  0  0  0
  6 12  1  0  0  0  0
  7 10  1  0  0  0  0
  7 13  1  0  0  0  0
  8  9  1  0  0  0  0
 10 14  1  0  0  0  0
 10 15  1  0  0  0  0
 10 16  1  0  0  0  0
M  END
> <PUBCHEM_COMPOUND_CID>
522873
> <PUBCHEM_COMPOUND_CANONICALIZED>
1
> <PUBCHEM_CACTVS_COMPLEXITY>
166
> <PUBCHEM_CACTVS_HBOND_ACCEPTOR>
4
> <PUBCHEM_CACTVS_HBOND_DONOR>
0
> <PUBCHEM_CACTVS_ROTATABLE_BOND>
0
> <PUBCHEM_CACTVS_SUBSKEYS>
AAADcYBgAcAAAAAAAAAAAAAAGABgAYAAAAAAAAAAAAAAAAAAAAAAGQAAAAAADQCAABACAAAAAAAAAAAAAAAAAAAAAAAAAAAAAAAAAAIAAAAAAAAAAAAAAAEAAAAOAAAAAAAAAAAAAAAAAAAAAAAAAAAAAA==
> <PUBCHEM_IUPAC_OPENEYE_NAME>
2,2,3,3-tetrafluoro-5-methyl-bicyclo[2.1.0]pentane
> <PUBCHEM_IUPAC_CAS_NAME>
2,2,3,3-tetrafluoro-5-methylbicyclo[2.1.0]pentane
> <PUBCHEM_IUPAC_NAME_MARKUP>
2,2,3,3-tetrafluoro-5-methylbicyclo[2.1.0]pentane
> <PUBCHEM_IUPAC_NAME>
2,2,3,3-tetrafluoro-5-methylbicyclo[2.1.0]pentane
> <PUBCHEM_IUPAC_SYSTEMATIC_NAME>
2,2,3,3-tetrakis(fluoranyl)-5-methyl-bicyclo[2.1.0]pentane
> <PUBCHEM_IUPAC_TRADITIONAL_NAME>
2,2,3,3-tetrafluoro-5-methyl-bicyclo[2.1.0]pentane
> <PUBCHEM_IUPAC_INCHI>
InChI=1S/C6H6F4/c1-2-3-4(2)6(9,10)5(3,7)8/h2-4H,1H3
> <PUBCHEM_IUPAC_INCHIKEY>
YBDXROWBSCGEOB-UHFFFAOYSA-N
> <PUBCHEM_XLOGP3_AA>
2.4
> <PUBCHEM_EXACT_MASS>
154.04056284
> <PUBCHEM_MOLECULAR_FORMULA>
C6H6F4
> <PUBCHEM_MOLECULAR_WEIGHT>
154.11
> <PUBCHEM_OPENEYE_CAN_SMILES>
CC1C2C1C(C2(F)F)(F)F
> <PUBCHEM_OPENEYE_ISO_SMILES>
CC1C2C1C(C2(F)F)(F)F
> <PUBCHEM_CACTVS_TPSA>
0
> <PUBCHEM_MONOISOTOPIC_WEIGHT>
154.04056284
> <PUBCHEM_TOTAL_CHARGE>
0
> <PUBCHEM_HEAVY_ATOM_COUNT>
10
> <PUBCHEM_ATOM_DEF_STEREO_COUNT>
0
> <PUBCHEM_ATOM_UDEF_STEREO_COUNT>
2
> <PUBCHEM_BOND_DEF_STEREO_COUNT>
0
> <PUBCHEM_BOND_UDEF_STEREO_COUNT>
0
> <PUBCHEM_ISOTOPIC_ATOM_COUNT>
0
> <PUBCHEM_COMPONENT_COUNT>
1
> <PUBCHEM_CACTVS_TAUTO_COUNT>
-1
> <PUBCHEM_COORDINATE_TYPE>
1
5
255
> <PUBCHEM_BONDANNOTATIONS>
5  7  3
6  7  3
$$$$
