522957
  -OEChem-10302200292D
 30 30  0     1  0  0  0  0  0999 V2000
    5.1350    1.8450    0.0000 O   0  0  0  0  0  0  0  0  0  0  0  0
    2.5369    0.3450    0.0000 O   0  0  0  0  0  0  0  0  0  0  0  0
    7.7331    0.3450    0.0000 O   0  0  0  0  0  0  0  0  0  0  0  0
    4.2690    0.3450    0.0000 C   0  0  3  0  0  0  0  0  0  0  0  0
    6.0010    0.3450    0.0000 C   0  0  3  0  0  0  0  0  0  0  0  0
    5.1350   -1.1550    0.0000 C   0  0  0  0  0  0  0  0  0  0  0  0
    5.1350    0.8450    0.0000 C   0  0  0  0  0  0  0  0  0  0  0  0
    4.2690   -0.6550    0.0000 C   0  0  0  0  0  0  0  0  0  0  0  0
    6.0010   -0.6550    0.0000 C   0  0  0  0  0  0  0  0  0  0  0  0
    3.4030    0.8450    0.0000 C   0  0  0  0  0  0  0  0  0  0  0  0
    6.8671    0.8450    0.0000 C   0  0  0  0  0  0  0  0  0  0  0  0
    5.1350   -2.1550    0.0000 C   0  0  0  0  0  0  0  0  0  0  0  0
    4.2690    0.9650    0.0000 H   0  0  0  0  0  0  0  0  0  0  0  0
    6.5380    0.0350    0.0000 H   0  0  0  0  0  0  0  0  0  0  0  0
    5.6720   -1.4650    0.0000 H   0  0  0  0  0  0  0  0  0  0  0  0
    5.6720    1.1550    0.0000 H   0  0  0  0  0  0  0  0  0  0  0  0
    3.6584   -0.5473    0.0000 H   0  0  0  0  0  0  0  0  0  0  0  0
    4.0569   -1.2376    0.0000 H   0  0  0  0  0  0  0  0  0  0  0  0
    6.2131   -1.2376    0.0000 H   0  0  0  0  0  0  0  0  0  0  0  0
    6.6116   -0.5473    0.0000 H   0  0  0  0  0  0  0  0  0  0  0  0
    3.8015    1.3200    0.0000 H   0  0  0  0  0  0  0  0  0  0  0  0
    3.0044    1.3200    0.0000 H   0  0  0  0  0  0  0  0  0  0  0  0
    7.2656    1.3200    0.0000 H   0  0  0  0  0  0  0  0  0  0  0  0
    6.4685    1.3200    0.0000 H   0  0  0  0  0  0  0  0  0  0  0  0
    4.5150   -2.1550    0.0000 H   0  0  0  0  0  0  0  0  0  0  0  0
    5.1350   -2.7750    0.0000 H   0  0  0  0  0  0  0  0  0  0  0  0
    5.7550   -2.1550    0.0000 H   0  0  0  0  0  0  0  0  0  0  0  0
    5.6720    2.1550    0.0000 H   0  0  0  0  0  0  0  0  0  0  0  0
    2.0000    0.6550    0.0000 H   0  0  0  0  0  0  0  0  0  0  0  0
    8.2700    0.6550    0.0000 H   0  0  0  0  0  0  0  0  0  0  0  0
  1  7  1  0  0  0  0
  1 28  1  0  0  0  0
  2 10  1  0  0  0  0
  2 29  1  0  0  0  0
  3 11  1  0  0  0  0
  3 30  1  0  0  0  0
  4  7  1  0  0  0  0
  4  8  1  0  0  0  0
  4 10  1  0  0  0  0
  4 13  1  0  0  0  0
  5  7  1  0  0  0  0
  5  9  1  0  0  0  0
  5 11  1  0  0  0  0
  5 14  1  0  0  0  0
  6  8  1  0  0  0  0
  6  9  1  0  0  0  0
  6 12  1  0  0  0  0
  6 15  1  0  0  0  0
  7 16  1  0  0  0  0
  8 17  1  0  0  0  0
  8 18  1  0  0  0  0
  9 19  1  0  0  0  0
  9 20  1  0  0  0  0
 10 21  1  0  0  0  0
 10 22  1  0  0  0  0
 11 23  1  0  0  0  0
 11 24  1  0  0  0  0
 12 25  1  0  0  0  0
 12 26  1  0  0  0  0
 12 27  1  0  0  0  0
M  END
> <PUBCHEM_COMPOUND_CID>
522957
> <PUBCHEM_COMPOUND_CANONICALIZED>
1
> <PUBCHEM_CACTVS_COMPLEXITY>
124
> <PUBCHEM_CACTVS_HBOND_ACCEPTOR>
3
> <PUBCHEM_CACTVS_HBOND_DONOR>
3
> <PUBCHEM_CACTVS_ROTATABLE_BOND>
2
> <PUBCHEM_CACTVS_SUBSKEYS>
AAADceBwMAAAAAAAAAAAAAAAAAAAAAAAAAAwAAAAAAAAAAAAAAAAGgAACAAADRSggAICAAAAAgAAAAAAAAAAAAAAAAAAAAAAAAAAEAIAAAAAQAAFAAAAAAGA4GAOAAAAAAAAAABAAAQAABAAAAAAAAAAAA==
> <PUBCHEM_IUPAC_OPENEYE_NAME>
2,6-bis(hydroxymethyl)-4-methyl-cyclohexanol
> <PUBCHEM_IUPAC_CAS_NAME>
2,6-bis(hydroxymethyl)-4-methyl-1-cyclohexanol
> <PUBCHEM_IUPAC_NAME_MARKUP>
2,6-bis(hydroxymethyl)-4-methylcyclohexan-1-ol
> <PUBCHEM_IUPAC_NAME>
2,6-bis(hydroxymethyl)-4-methylcyclohexan-1-ol
> <PUBCHEM_IUPAC_SYSTEMATIC_NAME>
2,6-bis(hydroxymethyl)-4-methyl-cyclohexan-1-ol
> <PUBCHEM_IUPAC_TRADITIONAL_NAME>
4-methyl-2,6-dimethylol-cyclohexanol
> <PUBCHEM_IUPAC_INCHI>
InChI=1S/C9H18O3/c1-6-2-7(4-10)9(12)8(3-6)5-11/h6-12H,2-5H2,1H3
> <PUBCHEM_IUPAC_INCHIKEY>
VGNOCVYYJJSUEN-UHFFFAOYSA-N
> <PUBCHEM_XLOGP3_AA>
0.6
> <PUBCHEM_EXACT_MASS>
174.125594432
> <PUBCHEM_MOLECULAR_FORMULA>
C9H18O3
> <PUBCHEM_MOLECULAR_WEIGHT>
174.24
> <PUBCHEM_OPENEYE_CAN_SMILES>
CC1CC(C(C(C1)CO)O)CO
> <PUBCHEM_OPENEYE_ISO_SMILES>
CC1CC(C(C(C1)CO)O)CO
> <PUBCHEM_CACTVS_TPSA>
60.7
> <PUBCHEM_MONOISOTOPIC_WEIGHT>
174.125594432
> <PUBCHEM_TOTAL_CHARGE>
0
> <PUBCHEM_HEAVY_ATOM_COUNT>
12
> <PUBCHEM_ATOM_DEF_STEREO_COUNT>
0
> <PUBCHEM_ATOM_UDEF_STEREO_COUNT>
2
> <PUBCHEM_BOND_DEF_STEREO_COUNT>
0
> <PUBCHEM_BOND_UDEF_STEREO_COUNT>
0
> <PUBCHEM_ISOTOPIC_ATOM_COUNT>
0
> <PUBCHEM_COMPONENT_COUNT>
1
> <PUBCHEM_CACTVS_TAUTO_COUNT>
-1
> <PUBCHEM_COORDINATE_TYPE>
1
5
255
> <PUBCHEM_BONDANNOTATIONS>
4  10  3
5  11  3
$$$$
