523065
  -OEChem-10302200292D
 35 37  0     1  0  0  0  0  0999 V2000
    2.1080    2.0636    0.0000 Br  0  0  0  0  0  0  0  0  0  0  0  0
    4.6783   -1.8683    0.0000 O   0  0  0  0  0  0  0  0  0  0  0  0
    6.2619   -1.0636    0.0000 O   0  0  0  0  0  0  0  0  0  0  0  0
    4.6783   -0.2588    0.0000 C   0  0  3  0  0  0  0  0  0  0  0  0
    4.3709    0.6928    0.0000 C   0  0  0  0  0  0  0  0  0  0  0  0
    3.7320   -0.5636    0.0000 C   0  0  0  0  0  0  0  0  0  0  0  0
    5.4883    0.3276    0.0000 C   0  0  0  0  0  0  0  0  0  0  0  0
    5.2619   -1.0636    0.0000 C   0  0  0  0  0  0  0  0  0  0  0  0
    3.3931    0.9024    0.0000 C   0  0  0  0  0  0  0  0  0  0  0  0
    3.7320   -1.5636    0.0000 C   0  0  0  0  0  0  0  0  0  0  0  0
    2.8660   -0.0636    0.0000 C   0  0  0  0  0  0  0  0  0  0  0  0
    6.4011   -0.0808    0.0000 C   0  0  0  0  0  0  0  0  0  0  0  0
    5.3855    1.3223    0.0000 C   0  0  0  0  0  0  0  0  0  0  0  0
    3.0857    1.8540    0.0000 C   0  0  0  0  0  0  0  0  0  0  0  0
    2.8660   -2.0636    0.0000 C   0  0  0  0  0  0  0  0  0  0  0  0
    2.0000   -0.5636    0.0000 C   0  0  0  0  0  0  0  0  0  0  0  0
    2.0000   -1.5636    0.0000 C   0  0  0  0  0  0  0  0  0  0  0  0
    7.2112    0.5056    0.0000 C   0  0  0  0  0  0  0  0  0  0  0  0
    6.1955    1.9086    0.0000 C   0  0  0  0  0  0  0  0  0  0  0  0
    7.1084    1.5003    0.0000 C   0  0  0  0  0  0  0  0  0  0  0  0
    4.9850    0.7780    0.0000 H   0  0  0  0  0  0  0  0  0  0  0  0
    4.3936    1.3123    0.0000 H   0  0  0  0  0  0  0  0  0  0  0  0
    2.7790    0.8171    0.0000 H   0  0  0  0  0  0  0  0  0  0  0  0
    3.3704    0.2828    0.0000 H   0  0  0  0  0  0  0  0  0  0  0  0
    2.8660    0.5564    0.0000 H   0  0  0  0  0  0  0  0  0  0  0  0
    6.4649   -0.6975    0.0000 H   0  0  0  0  0  0  0  0  0  0  0  0
    4.8195    1.5754    0.0000 H   0  0  0  0  0  0  0  0  0  0  0  0
    3.6999    1.9392    0.0000 H   0  0  0  0  0  0  0  0  0  0  0  0
    3.1084    2.4735    0.0000 H   0  0  0  0  0  0  0  0  0  0  0  0
    2.8660   -2.6836    0.0000 H   0  0  0  0  0  0  0  0  0  0  0  0
    1.4631   -0.2536    0.0000 H   0  0  0  0  0  0  0  0  0  0  0  0
    1.4631   -1.8736    0.0000 H   0  0  0  0  0  0  0  0  0  0  0  0
    7.7771    0.2525    0.0000 H   0  0  0  0  0  0  0  0  0  0  0  0
    6.1318    2.5254    0.0000 H   0  0  0  0  0  0  0  0  0  0  0  0
    7.6106    1.8639    0.0000 H   0  0  0  0  0  0  0  0  0  0  0  0
  1 14  1  0  0  0  0
  2  8  1  0  0  0  0
  2 10  1  0  0  0  0
  3  8  2  0  0  0  0
  4  5  1  0  0  0  0
  4  6  1  0  0  0  0
  4  7  1  0  0  0  0
  4  8  1  0  0  0  0
  5  9  1  0  0  0  0
  5 21  1  0  0  0  0
  5 22  1  0  0  0  0
  6 10  1  0  0  0  0
  6 11  2  0  0  0  0
  7 12  2  0  0  0  0
  7 13  1  0  0  0  0
  9 14  1  0  0  0  0
  9 23  1  0  0  0  0
  9 24  1  0  0  0  0
 10 15  2  0  0  0  0
 11 16  1  0  0  0  0
 11 25  1  0  0  0  0
 12 18  1  0  0  0  0
 12 26  1  0  0  0  0
 13 19  2  0  0  0  0
 13 27  1  0  0  0  0
 14 28  1  0  0  0  0
 14 29  1  0  0  0  0
 15 17  1  0  0  0  0
 15 30  1  0  0  0  0
 16 17  2  0  0  0  0
 16 31  1  0  0  0  0
 17 32  1  0  0  0  0
 18 20  2  0  0  0  0
 18 33  1  0  0  0  0
 19 20  1  0  0  0  0
 19 34  1  0  0  0  0
 20 35  1  0  0  0  0
M  END
> <PUBCHEM_COMPOUND_CID>
523065
> <PUBCHEM_COMPOUND_CANONICALIZED>
1
> <PUBCHEM_CACTVS_COMPLEXITY>
351
> <PUBCHEM_CACTVS_HBOND_ACCEPTOR>
2
> <PUBCHEM_CACTVS_HBOND_DONOR>
0
> <PUBCHEM_CACTVS_ROTATABLE_BOND>
4
> <PUBCHEM_CACTVS_SUBSKEYS>
AAADccB4MAAAEAAAAAAAAAAAAAAAASAAAAAwYAAAAAAAAEgBQAAAGgBAAAABTgSAmAAwDoAABACIAiDSCAACCAAgIAAIiAEGCKgMJjKENRqCOiCkwBEIqAeKyOCPgAAAAAAIAAAAAAAAABAAAAAAAAAAAA==
> <PUBCHEM_IUPAC_OPENEYE_NAME>
3-(3-bromopropyl)-3-phenyl-benzofuran-2-one
> <PUBCHEM_IUPAC_CAS_NAME>
3-(3-bromopropyl)-3-phenyl-2-benzofuranone
> <PUBCHEM_IUPAC_NAME_MARKUP>
3-(3-bromopropyl)-3-phenyl-1-benzofuran-2-one
> <PUBCHEM_IUPAC_NAME>
3-(3-bromopropyl)-3-phenyl-1-benzofuran-2-one
> <PUBCHEM_IUPAC_SYSTEMATIC_NAME>
3-(3-bromanylpropyl)-3-phenyl-1-benzofuran-2-one
> <PUBCHEM_IUPAC_TRADITIONAL_NAME>
3-(3-bromopropyl)-3-phenyl-coumaran-2-one
> <PUBCHEM_IUPAC_INCHI>
InChI=1S/C17H15BrO2/c18-12-6-11-17(13-7-2-1-3-8-13)14-9-4-5-10-15(14)20-16(17)19/h1-5,7-10H,6,11-12H2
> <PUBCHEM_IUPAC_INCHIKEY>
GUZOMDMCWOJYEU-UHFFFAOYSA-N
> <PUBCHEM_XLOGP3_AA>
4.3
> <PUBCHEM_EXACT_MASS>
330.02554
> <PUBCHEM_MOLECULAR_FORMULA>
C17H15BrO2
> <PUBCHEM_MOLECULAR_WEIGHT>
331.2
> <PUBCHEM_OPENEYE_CAN_SMILES>
C1=CC=C(C=C1)C2(C3=CC=CC=C3OC2=O)CCCBr
> <PUBCHEM_OPENEYE_ISO_SMILES>
C1=CC=C(C=C1)C2(C3=CC=CC=C3OC2=O)CCCBr
> <PUBCHEM_CACTVS_TPSA>
26.3
> <PUBCHEM_MONOISOTOPIC_WEIGHT>
330.02554
> <PUBCHEM_TOTAL_CHARGE>
0
> <PUBCHEM_HEAVY_ATOM_COUNT>
20
> <PUBCHEM_ATOM_DEF_STEREO_COUNT>
0
> <PUBCHEM_ATOM_UDEF_STEREO_COUNT>
1
> <PUBCHEM_BOND_DEF_STEREO_COUNT>
0
> <PUBCHEM_BOND_UDEF_STEREO_COUNT>
0
> <PUBCHEM_ISOTOPIC_ATOM_COUNT>
0
> <PUBCHEM_COMPONENT_COUNT>
1
> <PUBCHEM_CACTVS_TAUTO_COUNT>
-1
> <PUBCHEM_COORDINATE_TYPE>
1
5
255
> <PUBCHEM_BONDANNOTATIONS>
10  15  8
11  16  8
12  18  8
13  19  8
15  17  8
16  17  8
18  20  8
19  20  8
4  5  3
6  10  8
6  11  8
7  12  8
7  13  8
$$$$
