523092
  -OEChem-10302200292D
 21 22  0     1  0  0  0  0  0999 V2000
    4.2320    2.6830    0.0000 Cl  0  0  0  0  0  0  0  0  0  0  0  0
    5.0981    1.1830    0.0000 O   0  0  0  0  0  0  0  0  0  0  0  0
    2.8660    0.3170    0.0000 C   0  0  3  0  0  0  0  0  0  0  0  0
    3.3660    1.1830    0.0000 C   0  0  3  0  0  0  0  0  0  0  0  0
    2.3660    1.1830    0.0000 C   0  0  0  0  0  0  0  0  0  0  0  0
    2.8660   -0.6830    0.0000 C   0  0  0  0  0  0  0  0  0  0  0  0
    4.2320    1.6830    0.0000 C   0  0  0  0  0  0  0  0  0  0  0  0
    2.0000   -1.1830    0.0000 C   0  0  0  0  0  0  0  0  0  0  0  0
    3.7320   -1.1830    0.0000 C   0  0  0  0  0  0  0  0  0  0  0  0
    2.0000   -2.1830    0.0000 C   0  0  0  0  0  0  0  0  0  0  0  0
    3.7320   -2.1830    0.0000 C   0  0  0  0  0  0  0  0  0  0  0  0
    2.8660   -2.6830    0.0000 C   0  0  0  0  0  0  0  0  0  0  0  0
    3.4649    0.1565    0.0000 H   0  0  0  0  0  0  0  0  0  0  0  0
    3.2056    1.7819    0.0000 H   0  0  0  0  0  0  0  0  0  0  0  0
    2.2584    1.7936    0.0000 H   0  0  0  0  0  0  0  0  0  0  0  0
    1.7834    0.9710    0.0000 H   0  0  0  0  0  0  0  0  0  0  0  0
    1.4631   -0.8730    0.0000 H   0  0  0  0  0  0  0  0  0  0  0  0
    4.2690   -0.8730    0.0000 H   0  0  0  0  0  0  0  0  0  0  0  0
    1.4631   -2.4930    0.0000 H   0  0  0  0  0  0  0  0  0  0  0  0
    4.2690   -2.4930    0.0000 H   0  0  0  0  0  0  0  0  0  0  0  0
    2.8660   -3.3030    0.0000 H   0  0  0  0  0  0  0  0  0  0  0  0
  1  7  1  0  0  0  0
  2  7  2  0  0  0  0
  3  4  1  0  0  0  0
  3  5  1  0  0  0  0
  3  6  1  0  0  0  0
  3 13  1  0  0  0  0
  4  5  1  0  0  0  0
  4  7  1  0  0  0  0
  4 14  1  0  0  0  0
  5 15  1  0  0  0  0
  5 16  1  0  0  0  0
  6  8  2  0  0  0  0
  6  9  1  0  0  0  0
  8 10  1  0  0  0  0
  8 17  1  0  0  0  0
  9 11  2  0  0  0  0
  9 18  1  0  0  0  0
 10 12  2  0  0  0  0
 10 19  1  0  0  0  0
 11 12  1  0  0  0  0
 11 20  1  0  0  0  0
 12 21  1  0  0  0  0
M  END
> <PUBCHEM_COMPOUND_CID>
523092
> <PUBCHEM_COMPOUND_CANONICALIZED>
1
> <PUBCHEM_CACTVS_COMPLEXITY>
184
> <PUBCHEM_CACTVS_HBOND_ACCEPTOR>
1
> <PUBCHEM_CACTVS_HBOND_DONOR>
0
> <PUBCHEM_CACTVS_ROTATABLE_BOND>
2
> <PUBCHEM_CACTVS_SUBSKEYS>
AAADccBwIAAEAAAAAAAAAAAAGAAAAAAAAAAwAAAAAAAAAAABAAAAGgIAAAAADQKAmAAwAIAAAACIAmBaAAACAAAgAAAIiAEAAogIIDKBERCAIAAggAAIiAcIiMCOgAAAAAAAAAAAAAAAAAAAAAAAAAAAAA==
> <PUBCHEM_IUPAC_OPENEYE_NAME>
2-phenylcyclopropanecarbonyl chloride
> <PUBCHEM_IUPAC_CAS_NAME>
2-phenyl-1-cyclopropanecarbonyl chloride
> <PUBCHEM_IUPAC_NAME_MARKUP>
2-phenylcyclopropane-1-carbonyl chloride
> <PUBCHEM_IUPAC_NAME>
2-phenylcyclopropane-1-carbonyl chloride
> <PUBCHEM_IUPAC_SYSTEMATIC_NAME>
2-phenylcyclopropane-1-carbonyl chloride
> <PUBCHEM_IUPAC_TRADITIONAL_NAME>
2-phenylcyclopropanecarbonyl chloride
> <PUBCHEM_IUPAC_INCHI>
InChI=1S/C10H9ClO/c11-10(12)9-6-8(9)7-4-2-1-3-5-7/h1-5,8-9H,6H2
> <PUBCHEM_IUPAC_INCHIKEY>
SODZBMGDYKEZJG-UHFFFAOYSA-N
> <PUBCHEM_XLOGP3_AA>
2.6
> <PUBCHEM_EXACT_MASS>
180.0341926
> <PUBCHEM_MOLECULAR_FORMULA>
C10H9ClO
> <PUBCHEM_MOLECULAR_WEIGHT>
180.63
> <PUBCHEM_OPENEYE_CAN_SMILES>
C1C(C1C(=O)Cl)C2=CC=CC=C2
> <PUBCHEM_OPENEYE_ISO_SMILES>
C1C(C1C(=O)Cl)C2=CC=CC=C2
> <PUBCHEM_CACTVS_TPSA>
17.1
> <PUBCHEM_MONOISOTOPIC_WEIGHT>
180.0341926
> <PUBCHEM_TOTAL_CHARGE>
0
> <PUBCHEM_HEAVY_ATOM_COUNT>
12
> <PUBCHEM_ATOM_DEF_STEREO_COUNT>
0
> <PUBCHEM_ATOM_UDEF_STEREO_COUNT>
2
> <PUBCHEM_BOND_DEF_STEREO_COUNT>
0
> <PUBCHEM_BOND_UDEF_STEREO_COUNT>
0
> <PUBCHEM_ISOTOPIC_ATOM_COUNT>
0
> <PUBCHEM_COMPONENT_COUNT>
1
> <PUBCHEM_CACTVS_TAUTO_COUNT>
-1
> <PUBCHEM_COORDINATE_TYPE>
1
5
255
> <PUBCHEM_BONDANNOTATIONS>
10  12  8
11  12  8
3  6  3
4  7  3
6  8  8
6  9  8
8  10  8
9  11  8
$$$$
