523004
  -OEChem-10302200292D
 11 10  0     1  0  0  0  0  0999 V2000
    2.0000   -0.8170    0.0000 Br  0  0  0  0  0  0  0  0  0  0  0  0
    2.3660    0.5490    0.0000 Cl  0  0  0  0  0  0  0  0  0  0  0  0
    4.5981   -0.3170    0.0000 O   0  0  0  0  0  0  0  0  0  0  0  0
    3.7320    1.1830    0.0000 O   0  0  0  0  0  0  0  0  0  0  0  0
    2.8660   -0.3170    0.0000 C   0  0  3  0  0  0  0  0  0  0  0  0
    3.3660   -1.1830    0.0000 C   0  0  0  0  0  0  0  0  0  0  0  0
    3.7320    0.1830    0.0000 C   0  0  0  0  0  0  0  0  0  0  0  0
    2.8291   -1.4930    0.0000 H   0  0  0  0  0  0  0  0  0  0  0  0
    3.6760   -1.7200    0.0000 H   0  0  0  0  0  0  0  0  0  0  0  0
    3.9030   -0.8730    0.0000 H   0  0  0  0  0  0  0  0  0  0  0  0
    5.1350   -0.0070    0.0000 H   0  0  0  0  0  0  0  0  0  0  0  0
  1  5  1  0  0  0  0
  2  5  1  0  0  0  0
  3  7  1  0  0  0  0
  3 11  1  0  0  0  0
  4  7  2  0  0  0  0
  5  6  1  0  0  0  0
  5  7  1  0  0  0  0
  6  8  1  0  0  0  0
  6  9  1  0  0  0  0
  6 10  1  0  0  0  0
M  END
> <PUBCHEM_COMPOUND_CID>
523004
> <PUBCHEM_COMPOUND_CANONICALIZED>
1
> <PUBCHEM_CACTVS_COMPLEXITY>
94.9
> <PUBCHEM_CACTVS_HBOND_ACCEPTOR>
2
> <PUBCHEM_CACTVS_HBOND_DONOR>
1
> <PUBCHEM_CACTVS_ROTATABLE_BOND>
1
> <PUBCHEM_CACTVS_SUBSKEYS>
AAADcYBAMAAEEAAAAAAAAAAAAAAAAAAAAAAAAAAAAAAAAAAAAAAAGgJACAABiAKAgAACCAAAAgAIAACQCAAAAAAAAAAAAAEAAQBgAAAAAAAAQAAAAAAAAAAAAAAAAAAAAAAAAAAAAAAAAAAAAAAAAAAAAA==
> <PUBCHEM_IUPAC_OPENEYE_NAME>
2-bromo-2-chloro-propanoic acid
> <PUBCHEM_IUPAC_CAS_NAME>
2-bromo-2-chloropropanoic acid
> <PUBCHEM_IUPAC_NAME_MARKUP>
2-bromo-2-chloropropanoic acid
> <PUBCHEM_IUPAC_NAME>
2-bromo-2-chloropropanoic acid
> <PUBCHEM_IUPAC_SYSTEMATIC_NAME>
2-bromanyl-2-chloranyl-propanoic acid
> <PUBCHEM_IUPAC_TRADITIONAL_NAME>
2-bromo-2-chloro-propionic acid
> <PUBCHEM_IUPAC_INCHI>
InChI=1S/C3H4BrClO2/c1-3(4,5)2(6)7/h1H3,(H,6,7)
> <PUBCHEM_IUPAC_INCHIKEY>
DQCULHMEDFODNL-UHFFFAOYSA-N
> <PUBCHEM_XLOGP3_AA>
1.5
> <PUBCHEM_EXACT_MASS>
185.90832
> <PUBCHEM_MOLECULAR_FORMULA>
C3H4BrClO2
> <PUBCHEM_MOLECULAR_WEIGHT>
187.42
> <PUBCHEM_OPENEYE_CAN_SMILES>
CC(C(=O)O)(Cl)Br
> <PUBCHEM_OPENEYE_ISO_SMILES>
CC(C(=O)O)(Cl)Br
> <PUBCHEM_CACTVS_TPSA>
37.3
> <PUBCHEM_MONOISOTOPIC_WEIGHT>
185.90832
> <PUBCHEM_TOTAL_CHARGE>
0
> <PUBCHEM_HEAVY_ATOM_COUNT>
7
> <PUBCHEM_ATOM_DEF_STEREO_COUNT>
0
> <PUBCHEM_ATOM_UDEF_STEREO_COUNT>
1
> <PUBCHEM_BOND_DEF_STEREO_COUNT>
0
> <PUBCHEM_BOND_UDEF_STEREO_COUNT>
0
> <PUBCHEM_ISOTOPIC_ATOM_COUNT>
0
> <PUBCHEM_COMPONENT_COUNT>
1
> <PUBCHEM_CACTVS_TAUTO_COUNT>
-1
> <PUBCHEM_COORDINATE_TYPE>
1
5
255
> <PUBCHEM_BONDANNOTATIONS>
5  2  3
$$$$
