523063
  -OEChem-10302200292D
 35 37  0     1  0  0  0  0  0999 V2000
    5.5321    1.3503    0.0000 Br  0  0  0  0  0  0  0  0  0  0  0  0
    4.0481    2.6912    0.0000 Br  0  0  0  0  0  0  0  0  0  0  0  0
    4.6783   -2.4959    0.0000 O   0  0  0  0  0  0  0  0  0  0  0  0
    6.2619   -1.6912    0.0000 O   0  0  0  0  0  0  0  0  0  0  0  0
    4.6783   -0.8864    0.0000 C   0  0  3  0  0  0  0  0  0  0  0  0
    4.3709    0.0652    0.0000 C   0  0  0  0  0  0  0  0  0  0  0  0
    3.7320   -1.1912    0.0000 C   0  0  0  0  0  0  0  0  0  0  0  0
    5.4883   -0.3000    0.0000 C   0  0  0  0  0  0  0  0  0  0  0  0
    5.2619   -1.6912    0.0000 C   0  0  0  0  0  0  0  0  0  0  0  0
    4.5805    1.0430    0.0000 C   0  0  3  0  0  0  0  0  0  0  0  0
    3.7320   -2.1912    0.0000 C   0  0  0  0  0  0  0  0  0  0  0  0
    2.8660   -0.6912    0.0000 C   0  0  0  0  0  0  0  0  0  0  0  0
    6.4011   -0.7084    0.0000 C   0  0  0  0  0  0  0  0  0  0  0  0
    5.3855    0.6947    0.0000 C   0  0  0  0  0  0  0  0  0  0  0  0
    3.8385    1.7134    0.0000 C   0  0  0  0  0  0  0  0  0  0  0  0
    2.8660   -2.6912    0.0000 C   0  0  0  0  0  0  0  0  0  0  0  0
    2.0000   -1.1912    0.0000 C   0  0  0  0  0  0  0  0  0  0  0  0
    2.0000   -2.1912    0.0000 C   0  0  0  0  0  0  0  0  0  0  0  0
    7.2112   -0.1220    0.0000 C   0  0  0  0  0  0  0  0  0  0  0  0
    6.1955    1.2810    0.0000 C   0  0  0  0  0  0  0  0  0  0  0  0
    7.1084    0.8727    0.0000 C   0  0  0  0  0  0  0  0  0  0  0  0
    3.8457    0.3946    0.0000 H   0  0  0  0  0  0  0  0  0  0  0  0
    4.9901    0.0965    0.0000 H   0  0  0  0  0  0  0  0  0  0  0  0
    5.0405    0.6273    0.0000 H   0  0  0  0  0  0  0  0  0  0  0  0
    2.8660   -0.0712    0.0000 H   0  0  0  0  0  0  0  0  0  0  0  0
    6.4649   -1.3251    0.0000 H   0  0  0  0  0  0  0  0  0  0  0  0
    4.8195    0.9478    0.0000 H   0  0  0  0  0  0  0  0  0  0  0  0
    3.2641    1.9466    0.0000 H   0  0  0  0  0  0  0  0  0  0  0  0
    3.5091    1.1882    0.0000 H   0  0  0  0  0  0  0  0  0  0  0  0
    2.8660   -3.3112    0.0000 H   0  0  0  0  0  0  0  0  0  0  0  0
    1.4631   -0.8812    0.0000 H   0  0  0  0  0  0  0  0  0  0  0  0
    1.4631   -2.5012    0.0000 H   0  0  0  0  0  0  0  0  0  0  0  0
    7.7771   -0.3751    0.0000 H   0  0  0  0  0  0  0  0  0  0  0  0
    6.1318    1.8978    0.0000 H   0  0  0  0  0  0  0  0  0  0  0  0
    7.6106    1.2363    0.0000 H   0  0  0  0  0  0  0  0  0  0  0  0
  1 10  1  0  0  0  0
  2 15  1  0  0  0  0
  3  9  1  0  0  0  0
  3 11  1  0  0  0  0
  4  9  2  0  0  0  0
  5  6  1  0  0  0  0
  5  7  1  0  0  0  0
  5  8  1  0  0  0  0
  5  9  1  0  0  0  0
  6 10  1  0  0  0  0
  6 22  1  0  0  0  0
  6 23  1  0  0  0  0
  7 11  1  0  0  0  0
  7 12  2  0  0  0  0
  8 13  2  0  0  0  0
  8 14  1  0  0  0  0
 10 15  1  0  0  0  0
 10 24  1  0  0  0  0
 11 16  2  0  0  0  0
 12 17  1  0  0  0  0
 12 25  1  0  0  0  0
 13 19  1  0  0  0  0
 13 26  1  0  0  0  0
 14 20  2  0  0  0  0
 14 27  1  0  0  0  0
 15 28  1  0  0  0  0
 15 29  1  0  0  0  0
 16 18  1  0  0  0  0
 16 30  1  0  0  0  0
 17 18  2  0  0  0  0
 17 31  1  0  0  0  0
 18 32  1  0  0  0  0
 19 21  2  0  0  0  0
 19 33  1  0  0  0  0
 20 21  1  0  0  0  0
 20 34  1  0  0  0  0
 21 35  1  0  0  0  0
M  END
> <PUBCHEM_COMPOUND_CID>
523063
> <PUBCHEM_COMPOUND_CANONICALIZED>
1
> <PUBCHEM_CACTVS_COMPLEXITY>
381
> <PUBCHEM_CACTVS_HBOND_ACCEPTOR>
2
> <PUBCHEM_CACTVS_HBOND_DONOR>
0
> <PUBCHEM_CACTVS_ROTATABLE_BOND>
4
> <PUBCHEM_CACTVS_SUBSKEYS>
AAADccB4MAAAGAAAAAAAAAAAAAAAASAAAAAwYAAAAAAAAEgBQAAAGgBAAAABzgSAmAAwDoAABACIAiDSCAACCAAgIAAIiAEGCKgMJjKENRqCOiCkwBEIqAeKyOCPgAAAAAAIAAAAAAAAABAAAAAAAAAAAA==
> <PUBCHEM_IUPAC_OPENEYE_NAME>
3-(2,3-dibromopropyl)-3-phenyl-benzofuran-2-one
> <PUBCHEM_IUPAC_CAS_NAME>
3-(2,3-dibromopropyl)-3-phenyl-2-benzofuranone
> <PUBCHEM_IUPAC_NAME_MARKUP>
3-(2,3-dibromopropyl)-3-phenyl-1-benzofuran-2-one
> <PUBCHEM_IUPAC_NAME>
3-(2,3-dibromopropyl)-3-phenyl-1-benzofuran-2-one
> <PUBCHEM_IUPAC_SYSTEMATIC_NAME>
3-[2,3-bis(bromanyl)propyl]-3-phenyl-1-benzofuran-2-one
> <PUBCHEM_IUPAC_TRADITIONAL_NAME>
3-(2,3-dibromopropyl)-3-phenyl-coumaran-2-one
> <PUBCHEM_IUPAC_INCHI>
InChI=1S/C17H14Br2O2/c18-11-13(19)10-17(12-6-2-1-3-7-12)14-8-4-5-9-15(14)21-16(17)20/h1-9,13H,10-11H2
> <PUBCHEM_IUPAC_INCHIKEY>
FKSMJSVUWKOPCJ-UHFFFAOYSA-N
> <PUBCHEM_XLOGP3_AA>
4.8
> <PUBCHEM_EXACT_MASS>
409.93401
> <PUBCHEM_MOLECULAR_FORMULA>
C17H14Br2O2
> <PUBCHEM_MOLECULAR_WEIGHT>
410.1
> <PUBCHEM_OPENEYE_CAN_SMILES>
C1=CC=C(C=C1)C2(C3=CC=CC=C3OC2=O)CC(CBr)Br
> <PUBCHEM_OPENEYE_ISO_SMILES>
C1=CC=C(C=C1)C2(C3=CC=CC=C3OC2=O)CC(CBr)Br
> <PUBCHEM_CACTVS_TPSA>
26.3
> <PUBCHEM_MONOISOTOPIC_WEIGHT>
407.93605
> <PUBCHEM_TOTAL_CHARGE>
0
> <PUBCHEM_HEAVY_ATOM_COUNT>
21
> <PUBCHEM_ATOM_DEF_STEREO_COUNT>
0
> <PUBCHEM_ATOM_UDEF_STEREO_COUNT>
2
> <PUBCHEM_BOND_DEF_STEREO_COUNT>
0
> <PUBCHEM_BOND_UDEF_STEREO_COUNT>
0
> <PUBCHEM_ISOTOPIC_ATOM_COUNT>
0
> <PUBCHEM_COMPONENT_COUNT>
1
> <PUBCHEM_CACTVS_TAUTO_COUNT>
-1
> <PUBCHEM_COORDINATE_TYPE>
1
5
255
> <PUBCHEM_BONDANNOTATIONS>
10  1  3
11  16  8
12  17  8
13  19  8
14  20  8
16  18  8
17  18  8
19  21  8
20  21  8
5  6  3
7  11  8
7  12  8
8  13  8
8  14  8
$$$$
