523064
  -OEChem-10302200292D
 34 37  0     1  0  0  0  0  0999 V2000
    3.2994    1.1748    0.0000 O   0  0  0  0  0  0  0  0  0  0  0  0
    7.1227    0.3547    0.0000 O   0  0  0  0  0  0  0  0  0  0  0  0
    6.8902   -1.1133    0.0000 O   0  0  0  0  0  0  0  0  0  0  0  0
    5.0739    0.5200    0.0000 C   0  0  3  0  0  0  0  0  0  0  0  0
    4.5961    2.4686    0.0000 C   0  0  0  0  0  0  0  0  0  0  0  0
    5.3327    1.4859    0.0000 C   0  0  3  0  0  0  0  0  0  0  0  0
    3.8528   -0.3456    0.0000 C   0  0  0  0  0  0  0  0  0  0  0  0
    6.7643    1.2883    0.0000 C   0  0  0  0  0  0  0  0  0  0  0  0
    5.1611   -0.4762    0.0000 C   0  0  0  0  0  0  0  0  0  0  0  0
    6.3456   -0.2746    0.0000 C   0  0  0  0  0  0  0  0  0  0  0  0
    3.0238    0.2136    0.0000 C   0  0  0  0  0  0  0  0  0  0  0  0
    3.7962   -1.3857    0.0000 C   0  0  0  0  0  0  0  0  0  0  0  0
    6.0673   -0.8988    0.0000 C   0  0  0  0  0  0  0  0  0  0  0  0
    4.3419   -1.0498    0.0000 C   0  0  0  0  0  0  0  0  0  0  0  0
    2.0807   -0.2286    0.0000 C   0  0  0  0  0  0  0  0  0  0  0  0
    2.8636   -1.8496    0.0000 C   0  0  0  0  0  0  0  0  0  0  0  0
    2.0000   -1.2671    0.0000 C   0  0  0  0  0  0  0  0  0  0  0  0
    6.1545   -1.8950    0.0000 C   0  0  0  0  0  0  0  0  0  0  0  0
    4.4291   -2.0460    0.0000 C   0  0  0  0  0  0  0  0  0  0  0  0
    5.3354   -2.4686    0.0000 C   0  0  0  0  0  0  0  0  0  0  0  0
    4.9139    3.0009    0.0000 H   0  0  0  0  0  0  0  0  0  0  0  0
    3.9829    2.5605    0.0000 H   0  0  0  0  0  0  0  0  0  0  0  0
    5.3372    0.8660    0.0000 H   0  0  0  0  0  0  0  0  0  0  0  0
    7.3721    1.4106    0.0000 H   0  0  0  0  0  0  0  0  0  0  0  0
    6.7453    1.9080    0.0000 H   0  0  0  0  0  0  0  0  0  0  0  0
    4.3142   -1.7265    0.0000 H   0  0  0  0  0  0  0  0  0  0  0  0
    6.5752   -0.5432    0.0000 H   0  0  0  0  0  0  0  0  0  0  0  0
    3.7800   -0.7877    0.0000 H   0  0  0  0  0  0  0  0  0  0  0  0
    1.5707    0.1240    0.0000 H   0  0  0  0  0  0  0  0  0  0  0  0
    2.8227   -2.4682    0.0000 H   0  0  0  0  0  0  0  0  0  0  0  0
    1.4417   -1.5367    0.0000 H   0  0  0  0  0  0  0  0  0  0  0  0
    6.7164   -2.1570    0.0000 H   0  0  0  0  0  0  0  0  0  0  0  0
    3.9212   -2.4016    0.0000 H   0  0  0  0  0  0  0  0  0  0  0  0
    5.3895   -3.0862    0.0000 H   0  0  0  0  0  0  0  0  0  0  0  0
  1  6  1  0  0  0  0
  1 11  1  0  0  0  0
  2  8  1  0  0  0  0
  2 10  1  0  0  0  0
  3 10  2  0  0  0  0
  4  5  1  0  0  0  0
  4  7  1  0  0  0  0
  4  9  1  0  0  0  0
  4 10  1  0  0  0  0
  5  6  1  0  0  0  0
  5 21  1  0  0  0  0
  5 22  1  0  0  0  0
  6  8  1  0  0  0  0
  6 23  1  0  0  0  0
  7 11  1  0  0  0  0
  7 12  2  0  0  0  0
  8 24  1  0  0  0  0
  8 25  1  0  0  0  0
  9 13  2  0  0  0  0
  9 14  1  0  0  0  0
 11 15  2  0  0  0  0
 12 16  1  0  0  0  0
 12 26  1  0  0  0  0
 13 18  1  0  0  0  0
 13 27  1  0  0  0  0
 14 19  2  0  0  0  0
 14 28  1  0  0  0  0
 15 17  1  0  0  0  0
 15 29  1  0  0  0  0
 16 17  2  0  0  0  0
 16 30  1  0  0  0  0
 17 31  1  0  0  0  0
 18 20  2  0  0  0  0
 18 32  1  0  0  0  0
 19 20  1  0  0  0  0
 19 33  1  0  0  0  0
 20 34  1  0  0  0  0
M  END
> <PUBCHEM_COMPOUND_CID>
523064
> <PUBCHEM_COMPOUND_CANONICALIZED>
1
> <PUBCHEM_CACTVS_COMPLEXITY>
388
> <PUBCHEM_CACTVS_HBOND_ACCEPTOR>
3
> <PUBCHEM_CACTVS_HBOND_DONOR>
0
> <PUBCHEM_CACTVS_ROTATABLE_BOND>
1
> <PUBCHEM_CACTVS_SUBSKEYS>
AAADccB4MAAAAAAAAAAAAAAAAAAAAAAAAAA0aIEAAAASAACRQAAAGgAAAAAADhSgmAIwDoAABACIAiDSCAACCAAgIAAIiAEGCIgNJjKENRqCOCCkwBEKqAfKzPCPgAAAAAAIAAAAAAAAABAAAAAAAAAAAA==
> <PUBCHEM_IUPAC_OPENEYE_NAME>
1-phenyl-8,11-dioxatricyclo[7.3.1.02,7]trideca-2,4,6-trien-12-one
> <PUBCHEM_IUPAC_CAS_NAME>
1-phenyl-8,11-dioxatricyclo[7.3.1.02,7]trideca-2,4,6-trien-12-one
> <PUBCHEM_IUPAC_NAME_MARKUP>
1-phenyl-8,11-dioxatricyclo[7.3.1.0<SUP>2,7</SUP>]trideca-2,4,6-trien-12-one
> <PUBCHEM_IUPAC_NAME>
1-phenyl-8,11-dioxatricyclo[7.3.1.02,7]trideca-2,4,6-trien-12-one
> <PUBCHEM_IUPAC_SYSTEMATIC_NAME>
1-phenyl-8,11-dioxatricyclo[7.3.1.02,7]trideca-2,4,6-trien-12-one
> <PUBCHEM_IUPAC_TRADITIONAL_NAME>
1-phenyl-8,11-dioxatricyclo[7.3.1.02,7]trideca-2,4,6-trien-12-one
> <PUBCHEM_IUPAC_INCHI>
InChI=1S/C17H14O3/c18-16-17(12-6-2-1-3-7-12)10-13(11-19-16)20-15-9-5-4-8-14(15)17/h1-9,13H,10-11H2
> <PUBCHEM_IUPAC_INCHIKEY>
NLBWDTCEJFEMED-UHFFFAOYSA-N
> <PUBCHEM_XLOGP3_AA>
3.2
> <PUBCHEM_EXACT_MASS>
266.094294304
> <PUBCHEM_MOLECULAR_FORMULA>
C17H14O3
> <PUBCHEM_MOLECULAR_WEIGHT>
266.29
> <PUBCHEM_OPENEYE_CAN_SMILES>
C1C2COC(=O)C1(C3=CC=CC=C3O2)C4=CC=CC=C4
> <PUBCHEM_OPENEYE_ISO_SMILES>
C1C2COC(=O)C1(C3=CC=CC=C3O2)C4=CC=CC=C4
> <PUBCHEM_CACTVS_TPSA>
35.5
> <PUBCHEM_MONOISOTOPIC_WEIGHT>
266.094294304
> <PUBCHEM_TOTAL_CHARGE>
0
> <PUBCHEM_HEAVY_ATOM_COUNT>
20
> <PUBCHEM_ATOM_DEF_STEREO_COUNT>
0
> <PUBCHEM_ATOM_UDEF_STEREO_COUNT>
2
> <PUBCHEM_BOND_DEF_STEREO_COUNT>
0
> <PUBCHEM_BOND_UDEF_STEREO_COUNT>
0
> <PUBCHEM_ISOTOPIC_ATOM_COUNT>
0
> <PUBCHEM_COMPONENT_COUNT>
1
> <PUBCHEM_CACTVS_TAUTO_COUNT>
-1
> <PUBCHEM_COORDINATE_TYPE>
1
5
255
> <PUBCHEM_BONDANNOTATIONS>
11  15  8
12  16  8
13  18  8
14  19  8
15  17  8
16  17  8
18  20  8
19  20  8
4  9  3
6  5  3
7  11  8
7  12  8
9  13  8
9  14  8
$$$$
