523130
  -OEChem-10302200292D
 49 52  0     1  0  0  0  0  0999 V2000
    2.6704    3.2880    0.0000 O   0  0  0  0  0  0  0  0  0  0  0  0
    6.4613   -1.5327    0.0000 O   0  0  0  0  0  0  0  0  0  0  0  0
    4.8777   -2.3374    0.0000 N   0  0  0  0  0  0  0  0  0  0  0  0
    3.2852    1.3848    0.0000 N   0  0  0  0  0  0  0  0  0  0  0  0
    4.8777   -0.7280    0.0000 C   0  0  3  0  0  0  0  0  0  0  0  0
    4.5703    0.2236    0.0000 C   0  0  0  0  0  0  0  0  0  0  0  0
    3.9315   -1.0327    0.0000 C   0  0  0  0  0  0  0  0  0  0  0  0
    3.5925    0.4332    0.0000 C   0  0  0  0  0  0  0  0  0  0  0  0
    5.4613   -1.5327    0.0000 C   0  0  0  0  0  0  0  0  0  0  0  0
    5.6877   -0.1416    0.0000 C   0  0  0  0  0  0  0  0  0  0  0  0
    3.9315   -2.0327    0.0000 C   0  0  0  0  0  0  0  0  0  0  0  0
    2.3074    1.5944    0.0000 C   0  0  0  0  0  0  0  0  0  0  0  0
    3.9556    2.1268    0.0000 C   0  0  0  0  0  0  0  0  0  0  0  0
    3.0654   -0.5327    0.0000 C   0  0  0  0  0  0  0  0  0  0  0  0
    3.0654   -2.5327    0.0000 C   0  0  0  0  0  0  0  0  0  0  0  0
    6.6006   -0.5499    0.0000 C   0  0  0  0  0  0  0  0  0  0  0  0
    5.5849    0.8531    0.0000 C   0  0  0  0  0  0  0  0  0  0  0  0
    5.1884   -3.2880    0.0000 C   0  0  0  0  0  0  0  0  0  0  0  0
    2.0000    2.5460    0.0000 C   0  0  0  0  0  0  0  0  0  0  0  0
    3.6482    3.0784    0.0000 C   0  0  0  0  0  0  0  0  0  0  0  0
    2.1994   -1.0327    0.0000 C   0  0  0  0  0  0  0  0  0  0  0  0
    2.1994   -2.0327    0.0000 C   0  0  0  0  0  0  0  0  0  0  0  0
    7.4106    0.0365    0.0000 C   0  0  0  0  0  0  0  0  0  0  0  0
    6.3949    1.4395    0.0000 C   0  0  0  0  0  0  0  0  0  0  0  0
    7.3078    1.0312    0.0000 C   0  0  0  0  0  0  0  0  0  0  0  0
    5.1844    0.3088    0.0000 H   0  0  0  0  0  0  0  0  0  0  0  0
    4.5930    0.8432    0.0000 H   0  0  0  0  0  0  0  0  0  0  0  0
    2.9784    0.3480    0.0000 H   0  0  0  0  0  0  0  0  0  0  0  0
    3.5698   -0.1864    0.0000 H   0  0  0  0  0  0  0  0  0  0  0  0
    1.6933    1.5092    0.0000 H   0  0  0  0  0  0  0  0  0  0  0  0
    2.2847    0.9748    0.0000 H   0  0  0  0  0  0  0  0  0  0  0  0
    4.3364    1.6376    0.0000 H   0  0  0  0  0  0  0  0  0  0  0  0
    4.5035    2.4169    0.0000 H   0  0  0  0  0  0  0  0  0  0  0  0
    3.0654    0.0873    0.0000 H   0  0  0  0  0  0  0  0  0  0  0  0
    3.0654   -3.1527    0.0000 H   0  0  0  0  0  0  0  0  0  0  0  0
    6.6643   -1.1666    0.0000 H   0  0  0  0  0  0  0  0  0  0  0  0
    5.0190    1.1062    0.0000 H   0  0  0  0  0  0  0  0  0  0  0  0
    4.5990   -3.4806    0.0000 H   0  0  0  0  0  0  0  0  0  0  0  0
    5.3810   -3.8773    0.0000 H   0  0  0  0  0  0  0  0  0  0  0  0
    5.7777   -3.0954    0.0000 H   0  0  0  0  0  0  0  0  0  0  0  0
    1.6191    3.0352    0.0000 H   0  0  0  0  0  0  0  0  0  0  0  0
    1.4521    2.2559    0.0000 H   0  0  0  0  0  0  0  0  0  0  0  0
    4.2623    3.1636    0.0000 H   0  0  0  0  0  0  0  0  0  0  0  0
    3.6709    3.6980    0.0000 H   0  0  0  0  0  0  0  0  0  0  0  0
    1.6625   -0.7227    0.0000 H   0  0  0  0  0  0  0  0  0  0  0  0
    1.6625   -2.3427    0.0000 H   0  0  0  0  0  0  0  0  0  0  0  0
    7.9766   -0.2167    0.0000 H   0  0  0  0  0  0  0  0  0  0  0  0
    6.3312    2.0562    0.0000 H   0  0  0  0  0  0  0  0  0  0  0  0
    7.8100    1.3947    0.0000 H   0  0  0  0  0  0  0  0  0  0  0  0
  1 19  1  0  0  0  0
  1 20  1  0  0  0  0
  2  9  2  0  0  0  0
  3  9  1  0  0  0  0
  3 11  1  0  0  0  0
  3 18  1  0  0  0  0
  4  8  1  0  0  0  0
  4 12  1  0  0  0  0
  4 13  1  0  0  0  0
  5  6  1  0  0  0  0
  5  7  1  0  0  0  0
  5  9  1  0  0  0  0
  5 10  1  0  0  0  0
  6  8  1  0  0  0  0
  6 26  1  0  0  0  0
  6 27  1  0  0  0  0
  7 11  1  0  0  0  0
  7 14  2  0  0  0  0
  8 28  1  0  0  0  0
  8 29  1  0  0  0  0
 10 16  2  0  0  0  0
 10 17  1  0  0  0  0
 11 15  2  0  0  0  0
 12 19  1  0  0  0  0
 12 30  1  0  0  0  0
 12 31  1  0  0  0  0
 13 20  1  0  0  0  0
 13 32  1  0  0  0  0
 13 33  1  0  0  0  0
 14 21  1  0  0  0  0
 14 34  1  0  0  0  0
 15 22  1  0  0  0  0
 15 35  1  0  0  0  0
 16 23  1  0  0  0  0
 16 36  1  0  0  0  0
 17 24  2  0  0  0  0
 17 37  1  0  0  0  0
 18 38  1  0  0  0  0
 18 39  1  0  0  0  0
 18 40  1  0  0  0  0
 19 41  1  0  0  0  0
 19 42  1  0  0  0  0
 20 43  1  0  0  0  0
 20 44  1  0  0  0  0
 21 22  2  0  0  0  0
 21 45  1  0  0  0  0
 22 46  1  0  0  0  0
 23 25  2  0  0  0  0
 23 47  1  0  0  0  0
 24 25  1  0  0  0  0
 24 48  1  0  0  0  0
 25 49  1  0  0  0  0
M  END
> <PUBCHEM_COMPOUND_CID>
523130
> <PUBCHEM_COMPOUND_CANONICALIZED>
1
> <PUBCHEM_CACTVS_COMPLEXITY>
471
> <PUBCHEM_CACTVS_HBOND_ACCEPTOR>
3
> <PUBCHEM_CACTVS_HBOND_DONOR>
0
> <PUBCHEM_CACTVS_ROTATABLE_BOND>
4
> <PUBCHEM_CACTVS_SUBSKEYS>
AAADceB7MAAAAAAAAAAAAAAAAAAAAWAAAAA8YIAAAAAAAFgBQAAAHgAAAAAADgjhmAYywIMABACIAiVSUACCAAAhAgAIiAEIZIgKIDLAlZGHIAhghgDYyAcciMCPgAAAAAACAAAAAAAAAAQAAAAAAAAAAA==
> <PUBCHEM_IUPAC_OPENEYE_NAME>
1-methyl-3-(2-morpholinoethyl)-3-phenyl-indolin-2-one
> <PUBCHEM_IUPAC_CAS_NAME>
1-methyl-3-[2-(4-morpholinyl)ethyl]-3-phenyl-2-indolone
> <PUBCHEM_IUPAC_NAME_MARKUP>
1-methyl-3-(2-morpholin-4-ylethyl)-3-phenylindol-2-one
> <PUBCHEM_IUPAC_NAME>
1-methyl-3-(2-morpholin-4-ylethyl)-3-phenylindol-2-one
> <PUBCHEM_IUPAC_SYSTEMATIC_NAME>
1-methyl-3-(2-morpholin-4-ylethyl)-3-phenyl-indol-2-one
> <PUBCHEM_IUPAC_TRADITIONAL_NAME>
1-methyl-3-(2-morpholinoethyl)-3-phenyl-oxindole
> <PUBCHEM_IUPAC_INCHI>
InChI=1S/C21H24N2O2/c1-22-19-10-6-5-9-18(19)21(20(22)24,17-7-3-2-4-8-17)11-12-23-13-15-25-16-14-23/h2-10H,11-16H2,1H3
> <PUBCHEM_IUPAC_INCHIKEY>
SVUKYIWICXDODR-UHFFFAOYSA-N
> <PUBCHEM_XLOGP3_AA>
2.5
> <PUBCHEM_EXACT_MASS>
336.183778013
> <PUBCHEM_MOLECULAR_FORMULA>
C21H24N2O2
> <PUBCHEM_MOLECULAR_WEIGHT>
336.4
> <PUBCHEM_OPENEYE_CAN_SMILES>
CN1C2=CC=CC=C2C(C1=O)(CCN3CCOCC3)C4=CC=CC=C4
> <PUBCHEM_OPENEYE_ISO_SMILES>
CN1C2=CC=CC=C2C(C1=O)(CCN3CCOCC3)C4=CC=CC=C4
> <PUBCHEM_CACTVS_TPSA>
32.8
> <PUBCHEM_MONOISOTOPIC_WEIGHT>
336.183778013
> <PUBCHEM_TOTAL_CHARGE>
0
> <PUBCHEM_HEAVY_ATOM_COUNT>
25
> <PUBCHEM_ATOM_DEF_STEREO_COUNT>
0
> <PUBCHEM_ATOM_UDEF_STEREO_COUNT>
1
> <PUBCHEM_BOND_DEF_STEREO_COUNT>
0
> <PUBCHEM_BOND_UDEF_STEREO_COUNT>
0
> <PUBCHEM_ISOTOPIC_ATOM_COUNT>
0
> <PUBCHEM_COMPONENT_COUNT>
1
> <PUBCHEM_CACTVS_TAUTO_COUNT>
-1
> <PUBCHEM_COORDINATE_TYPE>
1
5
255
> <PUBCHEM_BONDANNOTATIONS>
10  16  8
10  17  8
11  15  8
14  21  8
15  22  8
16  23  8
17  24  8
21  22  8
23  25  8
24  25  8
5  6  3
7  11  8
7  14  8
$$$$
