523176
  -OEChem-10302200292D
 55 58  0     1  0  0  0  0  0999 V2000
   10.8148   -0.5562    0.0000 O   0  0  0  0  0  0  0  0  0  0  0  0
    9.2450    0.1758    0.0000 O   0  0  0  0  0  0  0  0  0  0  0  0
    9.3960   -1.5496    0.0000 N   0  0  0  0  0  0  0  0  0  0  0  0
    5.4112   -1.8983    0.0000 N   0  0  0  0  0  0  0  0  0  0  0  0
    4.9886   -2.8046    0.0000 N   0  0  0  0  0  0  0  0  0  0  0  0
   12.6101    0.9421    0.0000 C   0  0  3  0  0  0  0  0  0  0  0  0
   12.1323    2.8907    0.0000 C   0  0  0  0  0  0  0  0  0  0  0  0
   12.8689    1.9081    0.0000 C   0  0  3  0  0  0  0  0  0  0  0  0
   11.2374    0.3501    0.0000 C   0  0  3  0  0  0  0  0  0  0  0  0
   14.0091    0.4333    0.0000 C   0  0  0  0  0  0  0  0  0  0  0  0
   10.8954    1.2898    0.0000 C   0  0  0  0  0  0  0  0  0  0  0  0
   14.2679    1.3993    0.0000 C   0  0  0  0  0  0  0  0  0  0  0  0
   12.3513   -0.0238    0.0000 C   0  0  0  0  0  0  0  0  0  0  0  0
   12.2369    3.8852    0.0000 C   0  0  0  0  0  0  0  0  0  0  0  0
   11.2188    3.2974    0.0000 C   0  0  0  0  0  0  0  0  0  0  0  0
    9.8186   -0.6433    0.0000 C   0  0  0  0  0  0  0  0  0  0  0  0
    8.3998   -1.6368    0.0000 C   0  0  0  0  0  0  0  0  0  0  0  0
    7.9772   -2.5431    0.0000 C   0  0  0  0  0  0  0  0  0  0  0  0
    7.8262   -0.8177    0.0000 C   0  0  0  0  0  0  0  0  0  0  0  0
    6.9810   -2.6303    0.0000 C   0  0  0  0  0  0  0  0  0  0  0  0
    6.8300   -0.9048    0.0000 C   0  0  0  0  0  0  0  0  0  0  0  0
    6.4074   -1.8111    0.0000 C   0  0  0  0  0  0  0  0  0  0  0  0
    3.9924   -2.8917    0.0000 C   0  0  0  0  0  0  0  0  0  0  0  0
    3.4188   -2.0726    0.0000 C   0  0  0  0  0  0  0  0  0  0  0  0
    3.5698   -3.7980    0.0000 C   0  0  0  0  0  0  0  0  0  0  0  0
    2.4226   -2.1597    0.0000 C   0  0  0  0  0  0  0  0  0  0  0  0
    2.5736   -3.8852    0.0000 C   0  0  0  0  0  0  0  0  0  0  0  0
    2.0000   -3.0660    0.0000 C   0  0  0  0  0  0  0  0  0  0  0  0
   12.8549    1.2882    0.0000 H   0  0  0  0  0  0  0  0  0  0  0  0
   11.6694   -0.0946    0.0000 H   0  0  0  0  0  0  0  0  0  0  0  0
   13.8141   -0.1552    0.0000 H   0  0  0  0  0  0  0  0  0  0  0  0
   14.6030    0.2555    0.0000 H   0  0  0  0  0  0  0  0  0  0  0  0
   10.7011    1.8786    0.0000 H   0  0  0  0  0  0  0  0  0  0  0  0
   10.3096    1.0866    0.0000 H   0  0  0  0  0  0  0  0  0  0  0  0
   14.8618    1.2215    0.0000 H   0  0  0  0  0  0  0  0  0  0  0  0
   14.4628    1.9878    0.0000 H   0  0  0  0  0  0  0  0  0  0  0  0
   11.7524    0.1367    0.0000 H   0  0  0  0  0  0  0  0  0  0  0  0
   12.1908   -0.6227    0.0000 H   0  0  0  0  0  0  0  0  0  0  0  0
   12.9502   -0.1843    0.0000 H   0  0  0  0  0  0  0  0  0  0  0  0
   12.8535    3.8204    0.0000 H   0  0  0  0  0  0  0  0  0  0  0  0
   12.3017    4.5018    0.0000 H   0  0  0  0  0  0  0  0  0  0  0  0
   11.6202    3.9500    0.0000 H   0  0  0  0  0  0  0  0  0  0  0  0
   11.4710    3.8638    0.0000 H   0  0  0  0  0  0  0  0  0  0  0  0
   10.6524    3.5496    0.0000 H   0  0  0  0  0  0  0  0  0  0  0  0
   10.9666    2.7310    0.0000 H   0  0  0  0  0  0  0  0  0  0  0  0
    9.7516   -2.0575    0.0000 H   0  0  0  0  0  0  0  0  0  0  0  0
    8.3328   -3.0510    0.0000 H   0  0  0  0  0  0  0  0  0  0  0  0
    8.0882   -0.2557    0.0000 H   0  0  0  0  0  0  0  0  0  0  0  0
    6.7190   -3.1922    0.0000 H   0  0  0  0  0  0  0  0  0  0  0  0
    6.4744   -0.3969    0.0000 H   0  0  0  0  0  0  0  0  0  0  0  0
    3.6808   -1.5107    0.0000 H   0  0  0  0  0  0  0  0  0  0  0  0
    3.9254   -4.3059    0.0000 H   0  0  0  0  0  0  0  0  0  0  0  0
    2.0670   -1.6519    0.0000 H   0  0  0  0  0  0  0  0  0  0  0  0
    2.3116   -4.4471    0.0000 H   0  0  0  0  0  0  0  0  0  0  0  0
    1.3824   -3.1201    0.0000 H   0  0  0  0  0  0  0  0  0  0  0  0
  1  9  1  0  0  0  0
  1 16  1  0  0  0  0
  2 16  2  0  0  0  0
  3 16  1  0  0  0  0
  3 17  1  0  0  0  0
  3 46  1  0  0  0  0
  4  5  2  0  0  0  0
  4 22  1  0  0  0  0
  5 23  1  0  0  0  0
  6  7  1  0  0  0  0
  6  9  1  0  0  0  0
  6 10  1  0  0  0  0
  6 13  1  0  0  0  0
  7  8  1  0  0  0  0
  7 14  1  0  0  0  0
  7 15  1  0  0  0  0
  8 11  1  0  0  0  0
  8 12  1  0  0  0  0
  8 29  1  0  0  0  0
  9 11  1  0  0  0  0
  9 30  1  0  0  0  0
 10 12  1  0  0  0  0
 10 31  1  0  0  0  0
 10 32  1  0  0  0  0
 11 33  1  0  0  0  0
 11 34  1  0  0  0  0
 12 35  1  0  0  0  0
 12 36  1  0  0  0  0
 13 37  1  0  0  0  0
 13 38  1  0  0  0  0
 13 39  1  0  0  0  0
 14 40  1  0  0  0  0
 14 41  1  0  0  0  0
 14 42  1  0  0  0  0
 15 43  1  0  0  0  0
 15 44  1  0  0  0  0
 15 45  1  0  0  0  0
 17 18  2  0  0  0  0
 17 19  1  0  0  0  0
 18 20  1  0  0  0  0
 18 47  1  0  0  0  0
 19 21  2  0  0  0  0
 19 48  1  0  0  0  0
 20 22  2  0  0  0  0
 20 49  1  0  0  0  0
 21 22  1  0  0  0  0
 21 50  1  0  0  0  0
 23 24  2  0  0  0  0
 23 25  1  0  0  0  0
 24 26  1  0  0  0  0
 24 51  1  0  0  0  0
 25 27  2  0  0  0  0
 25 52  1  0  0  0  0
 26 28  2  0  0  0  0
 26 53  1  0  0  0  0
 27 28  1  0  0  0  0
 27 54  1  0  0  0  0
 28 55  1  0  0  0  0
M  END
> <PUBCHEM_COMPOUND_CID>
523176
> <PUBCHEM_COMPOUND_CANONICALIZED>
1
> <PUBCHEM_CACTVS_COMPLEXITY>
591
> <PUBCHEM_CACTVS_HBOND_ACCEPTOR>
4
> <PUBCHEM_CACTVS_HBOND_DONOR>
1
> <PUBCHEM_CACTVS_ROTATABLE_BOND>
5
> <PUBCHEM_CACTVS_SUBSKEYS>
AAADceB7MAAAAAAAAAAAAAAAAAAAAYMAAAAwYMAAAAAAAAABQAAAHgAYAAAADxyhkAIyyILABACKACRCWACCAAAhAgAIiAAAZIkIICLAkZGMIAhklABIyAeQwPAPgACAAAAAAACAAQIAABAAAYAADAAAAA==
> <PUBCHEM_IUPAC_OPENEYE_NAME>
(1,7,7-trimethylnorbornan-2-yl) N-(4-phenylazophenyl)carbamate
> <PUBCHEM_IUPAC_CAS_NAME>
N-(4-phenyldiazenylphenyl)carbamic acid (1,7,7-trimethyl-2-bicyclo[2.2.1]heptanyl) ester
> <PUBCHEM_IUPAC_NAME_MARKUP>
(1,7,7-trimethyl-2-bicyclo[2.2.1]heptanyl) <I>N</I>-(4-phenyldiazenylphenyl)carbamate
> <PUBCHEM_IUPAC_NAME>
(1,7,7-trimethyl-2-bicyclo[2.2.1]heptanyl) N-(4-phenyldiazenylphenyl)carbamate
> <PUBCHEM_IUPAC_SYSTEMATIC_NAME>
(1,7,7-trimethyl-2-bicyclo[2.2.1]heptanyl) N-(4-phenyldiazenylphenyl)carbamate
> <PUBCHEM_IUPAC_TRADITIONAL_NAME>
N-(4-phenylazophenyl)carbamic acid 2-bornyl ester
> <PUBCHEM_IUPAC_INCHI>
InChI=1S/C23H27N3O2/c1-22(2)16-13-14-23(22,3)20(15-16)28-21(27)24-17-9-11-19(12-10-17)26-25-18-7-5-4-6-8-18/h4-12,16,20H,13-15H2,1-3H3,(H,24,27)
> <PUBCHEM_IUPAC_INCHIKEY>
CVSNPQASIXWELE-UHFFFAOYSA-N
> <PUBCHEM_XLOGP3_AA>
6.2
> <PUBCHEM_EXACT_MASS>
377.21032711
> <PUBCHEM_MOLECULAR_FORMULA>
C23H27N3O2
> <PUBCHEM_MOLECULAR_WEIGHT>
377.5
> <PUBCHEM_OPENEYE_CAN_SMILES>
CC1(C2CCC1(C(C2)OC(=O)NC3=CC=C(C=C3)N=NC4=CC=CC=C4)C)C
> <PUBCHEM_OPENEYE_ISO_SMILES>
CC1(C2CCC1(C(C2)OC(=O)NC3=CC=C(C=C3)N=NC4=CC=CC=C4)C)C
> <PUBCHEM_CACTVS_TPSA>
63
> <PUBCHEM_MONOISOTOPIC_WEIGHT>
377.21032711
> <PUBCHEM_TOTAL_CHARGE>
0
> <PUBCHEM_HEAVY_ATOM_COUNT>
28
> <PUBCHEM_ATOM_DEF_STEREO_COUNT>
0
> <PUBCHEM_ATOM_UDEF_STEREO_COUNT>
3
> <PUBCHEM_BOND_DEF_STEREO_COUNT>
0
> <PUBCHEM_BOND_UDEF_STEREO_COUNT>
0
> <PUBCHEM_ISOTOPIC_ATOM_COUNT>
0
> <PUBCHEM_COMPONENT_COUNT>
1
> <PUBCHEM_CACTVS_TAUTO_COUNT>
-1
> <PUBCHEM_COORDINATE_TYPE>
1
5
255
> <PUBCHEM_BONDANNOTATIONS>
9  1  3
17  18  8
17  19  8
18  20  8
19  21  8
20  22  8
21  22  8
23  24  8
23  25  8
24  26  8
25  27  8
26  28  8
27  28  8
6  13  3
8  12  3
$$$$
