523139
  -OEChem-10302200292D
 36 38  0     1  0  0  0  0  0999 V2000
    4.6783   -1.8683    0.0000 O   0  0  0  0  0  0  0  0  0  0  0  0
    3.0857    1.8540    0.0000 O   0  0  0  0  0  0  0  0  0  0  0  0
    6.2619   -1.0636    0.0000 O   0  0  0  0  0  0  0  0  0  0  0  0
    4.6783   -0.2588    0.0000 C   0  0  3  0  0  0  0  0  0  0  0  0
    4.3709    0.6928    0.0000 C   0  0  0  0  0  0  0  0  0  0  0  0
    3.7320   -0.5636    0.0000 C   0  0  0  0  0  0  0  0  0  0  0  0
    5.4883    0.3276    0.0000 C   0  0  0  0  0  0  0  0  0  0  0  0
    5.2619   -1.0636    0.0000 C   0  0  0  0  0  0  0  0  0  0  0  0
    3.7320   -1.5636    0.0000 C   0  0  0  0  0  0  0  0  0  0  0  0
    3.3931    0.9024    0.0000 C   0  0  0  0  0  0  0  0  0  0  0  0
    2.8660   -0.0636    0.0000 C   0  0  0  0  0  0  0  0  0  0  0  0
    6.4011   -0.0808    0.0000 C   0  0  0  0  0  0  0  0  0  0  0  0
    5.3855    1.3223    0.0000 C   0  0  0  0  0  0  0  0  0  0  0  0
    2.8660   -2.0636    0.0000 C   0  0  0  0  0  0  0  0  0  0  0  0
    2.0000   -0.5636    0.0000 C   0  0  0  0  0  0  0  0  0  0  0  0
    2.0000   -1.5636    0.0000 C   0  0  0  0  0  0  0  0  0  0  0  0
    7.2112    0.5056    0.0000 C   0  0  0  0  0  0  0  0  0  0  0  0
    6.1955    1.9086    0.0000 C   0  0  0  0  0  0  0  0  0  0  0  0
    7.1084    1.5003    0.0000 C   0  0  0  0  0  0  0  0  0  0  0  0
    2.1080    2.0636    0.0000 C   0  0  0  0  0  0  0  0  0  0  0  0
    4.9850    0.7780    0.0000 H   0  0  0  0  0  0  0  0  0  0  0  0
    4.3936    1.3123    0.0000 H   0  0  0  0  0  0  0  0  0  0  0  0
    2.7790    0.8171    0.0000 H   0  0  0  0  0  0  0  0  0  0  0  0
    3.3704    0.2828    0.0000 H   0  0  0  0  0  0  0  0  0  0  0  0
    2.8660    0.5564    0.0000 H   0  0  0  0  0  0  0  0  0  0  0  0
    6.4649   -0.6975    0.0000 H   0  0  0  0  0  0  0  0  0  0  0  0
    4.8195    1.5754    0.0000 H   0  0  0  0  0  0  0  0  0  0  0  0
    2.8660   -2.6836    0.0000 H   0  0  0  0  0  0  0  0  0  0  0  0
    1.4631   -0.2536    0.0000 H   0  0  0  0  0  0  0  0  0  0  0  0
    1.4631   -1.8736    0.0000 H   0  0  0  0  0  0  0  0  0  0  0  0
    7.7771    0.2525    0.0000 H   0  0  0  0  0  0  0  0  0  0  0  0
    6.1318    2.5254    0.0000 H   0  0  0  0  0  0  0  0  0  0  0  0
    7.6106    1.8639    0.0000 H   0  0  0  0  0  0  0  0  0  0  0  0
    2.2379    2.6698    0.0000 H   0  0  0  0  0  0  0  0  0  0  0  0
    1.5017    2.1935    0.0000 H   0  0  0  0  0  0  0  0  0  0  0  0
    1.9780    1.4573    0.0000 H   0  0  0  0  0  0  0  0  0  0  0  0
  1  8  1  0  0  0  0
  1  9  1  0  0  0  0
  2 10  1  0  0  0  0
  2 20  1  0  0  0  0
  3  8  2  0  0  0  0
  4  5  1  0  0  0  0
  4  6  1  0  0  0  0
  4  7  1  0  0  0  0
  4  8  1  0  0  0  0
  5 10  1  0  0  0  0
  5 21  1  0  0  0  0
  5 22  1  0  0  0  0
  6  9  1  0  0  0  0
  6 11  2  0  0  0  0
  7 12  2  0  0  0  0
  7 13  1  0  0  0  0
  9 14  2  0  0  0  0
 10 23  1  0  0  0  0
 10 24  1  0  0  0  0
 11 15  1  0  0  0  0
 11 25  1  0  0  0  0
 12 17  1  0  0  0  0
 12 26  1  0  0  0  0
 13 18  2  0  0  0  0
 13 27  1  0  0  0  0
 14 16  1  0  0  0  0
 14 28  1  0  0  0  0
 15 16  2  0  0  0  0
 15 29  1  0  0  0  0
 16 30  1  0  0  0  0
 17 19  2  0  0  0  0
 17 31  1  0  0  0  0
 18 19  1  0  0  0  0
 18 32  1  0  0  0  0
 19 33  1  0  0  0  0
 20 34  1  0  0  0  0
 20 35  1  0  0  0  0
 20 36  1  0  0  0  0
M  END
> <PUBCHEM_COMPOUND_CID>
523139
> <PUBCHEM_COMPOUND_CANONICALIZED>
1
> <PUBCHEM_CACTVS_COMPLEXITY>
348
> <PUBCHEM_CACTVS_HBOND_ACCEPTOR>
3
> <PUBCHEM_CACTVS_HBOND_DONOR>
0
> <PUBCHEM_CACTVS_ROTATABLE_BOND>
4
> <PUBCHEM_CACTVS_SUBSKEYS>
AAADceB4MAAAAAAAAAAAAAAAAAAAASAAAAAwYAAAAAAAAEgBQAAAGgAAAAAADgSgmAIyDoAABACIAiDSCAACCAAgIAAIiAEGCIgMJjKENRqCOiCkwBEIqAfK6OyPgAAAAAAIAAAAAAAAABAAAAAAAAAAAA==
> <PUBCHEM_IUPAC_OPENEYE_NAME>
3-(2-methoxyethyl)-3-phenyl-benzofuran-2-one
> <PUBCHEM_IUPAC_CAS_NAME>
3-(2-methoxyethyl)-3-phenyl-2-benzofuranone
> <PUBCHEM_IUPAC_NAME_MARKUP>
3-(2-methoxyethyl)-3-phenyl-1-benzofuran-2-one
> <PUBCHEM_IUPAC_NAME>
3-(2-methoxyethyl)-3-phenyl-1-benzofuran-2-one
> <PUBCHEM_IUPAC_SYSTEMATIC_NAME>
3-(2-methoxyethyl)-3-phenyl-1-benzofuran-2-one
> <PUBCHEM_IUPAC_TRADITIONAL_NAME>
3-(2-methoxyethyl)-3-phenyl-coumaran-2-one
> <PUBCHEM_IUPAC_INCHI>
InChI=1S/C17H16O3/c1-19-12-11-17(13-7-3-2-4-8-13)14-9-5-6-10-15(14)20-16(17)18/h2-10H,11-12H2,1H3
> <PUBCHEM_IUPAC_INCHIKEY>
RJWYAYIWXFJXBK-UHFFFAOYSA-N
> <PUBCHEM_XLOGP3_AA>
3.1
> <PUBCHEM_EXACT_MASS>
268.109944368
> <PUBCHEM_MOLECULAR_FORMULA>
C17H16O3
> <PUBCHEM_MOLECULAR_WEIGHT>
268.31
> <PUBCHEM_OPENEYE_CAN_SMILES>
COCCC1(C2=CC=CC=C2OC1=O)C3=CC=CC=C3
> <PUBCHEM_OPENEYE_ISO_SMILES>
COCCC1(C2=CC=CC=C2OC1=O)C3=CC=CC=C3
> <PUBCHEM_CACTVS_TPSA>
35.5
> <PUBCHEM_MONOISOTOPIC_WEIGHT>
268.109944368
> <PUBCHEM_TOTAL_CHARGE>
0
> <PUBCHEM_HEAVY_ATOM_COUNT>
20
> <PUBCHEM_ATOM_DEF_STEREO_COUNT>
0
> <PUBCHEM_ATOM_UDEF_STEREO_COUNT>
1
> <PUBCHEM_BOND_DEF_STEREO_COUNT>
0
> <PUBCHEM_BOND_UDEF_STEREO_COUNT>
0
> <PUBCHEM_ISOTOPIC_ATOM_COUNT>
0
> <PUBCHEM_COMPONENT_COUNT>
1
> <PUBCHEM_CACTVS_TAUTO_COUNT>
-1
> <PUBCHEM_COORDINATE_TYPE>
1
5
255
> <PUBCHEM_BONDANNOTATIONS>
11  15  8
12  17  8
13  18  8
14  16  8
15  16  8
17  19  8
18  19  8
4  5  3
6  11  8
6  9  8
7  12  8
7  13  8
9  14  8
$$$$
