523149
  -OEChem-10302200292D
 60 63  0     1  0  0  0  0  0999 V2000
    2.5357   -2.7092    0.0000 O   0  0  0  0  0  0  0  0  0  0  0  0
   10.8321    1.0603    0.0000 O   0  0  0  0  0  0  0  0  0  0  0  0
    9.1857    1.5983    0.0000 N   0  0  0  0  0  0  0  0  0  0  0  0
    7.9288    0.3431    0.0000 C   0  0  3  0  0  0  0  0  0  0  0  0
    7.9288   -0.6569    0.0000 C   0  0  3  0  0  0  0  0  0  0  0  0
    7.0628   -1.1569    0.0000 C   0  0  3  0  0  0  0  0  0  0  0  0
    6.1968   -0.6569    0.0000 C   0  0  3  0  0  0  0  0  0  0  0  0
    8.8750    0.6478    0.0000 C   0  0  3  0  0  0  0  0  0  0  0  0
    5.2868   -1.1638    0.0000 C   0  0  3  0  0  0  0  0  0  0  0  0
    7.0628    0.8431    0.0000 C   0  0  0  0  0  0  0  0  0  0  0  0
    8.8750   -0.9616    0.0000 C   0  0  0  0  0  0  0  0  0  0  0  0
    6.1968    0.3431    0.0000 C   0  0  0  0  0  0  0  0  0  0  0  0
    9.4586   -0.1569    0.0000 C   0  0  3  0  0  0  0  0  0  0  0  0
    7.0789   -2.1984    0.0000 C   0  0  0  0  0  0  0  0  0  0  0  0
    7.9288    1.3431    0.0000 C   0  0  0  0  0  0  0  0  0  0  0  0
    5.2787   -2.2054    0.0000 C   0  0  0  0  0  0  0  0  0  0  0  0
    4.3599   -0.5997    0.0000 C   0  0  0  0  0  0  0  0  0  0  0  0
    6.1808   -2.7262    0.0000 C   0  0  0  0  0  0  0  0  0  0  0  0
    5.2945   -0.1638    0.0000 C   0  0  0  0  0  0  0  0  0  0  0  0
   10.4586   -0.1569    0.0000 C   0  0  0  0  0  0  0  0  0  0  0  0
    4.3433   -2.7551    0.0000 C   0  0  0  0  0  0  0  0  0  0  0  0
    3.4120   -1.1276    0.0000 C   0  0  0  0  0  0  0  0  0  0  0  0
    3.4037   -2.2126    0.0000 C   0  0  3  0  0  0  0  0  0  0  0  0
   10.1642    1.8046    0.0000 C   0  0  0  0  0  0  0  0  0  0  0  0
   10.4749    2.7551    0.0000 C   0  0  0  0  0  0  0  0  0  0  0  0
    7.9944   -1.2734    0.0000 H   0  0  0  0  0  0  0  0  0  0  0  0
    7.6021   -1.4628    0.0000 H   0  0  0  0  0  0  0  0  0  0  0  0
    6.7337   -0.3469    0.0000 H   0  0  0  0  0  0  0  0  0  0  0  0
    9.4875    0.7440    0.0000 H   0  0  0  0  0  0  0  0  0  0  0  0
    7.4613    1.3180    0.0000 H   0  0  0  0  0  0  0  0  0  0  0  0
    6.6643    1.3180    0.0000 H   0  0  0  0  0  0  0  0  0  0  0  0
    8.6240   -1.5286    0.0000 H   0  0  0  0  0  0  0  0  0  0  0  0
    9.4124   -1.2709    0.0000 H   0  0  0  0  0  0  0  0  0  0  0  0
    5.9847    0.9257    0.0000 H   0  0  0  0  0  0  0  0  0  0  0  0
    5.5862    0.2354    0.0000 H   0  0  0  0  0  0  0  0  0  0  0  0
    9.7404   -0.7092    0.0000 H   0  0  0  0  0  0  0  0  0  0  0  0
    7.2969   -2.7788    0.0000 H   0  0  0  0  0  0  0  0  0  0  0  0
    7.6880   -2.0829    0.0000 H   0  0  0  0  0  0  0  0  0  0  0  0
    8.5488    1.3431    0.0000 H   0  0  0  0  0  0  0  0  0  0  0  0
    7.9288    1.9631    0.0000 H   0  0  0  0  0  0  0  0  0  0  0  0
    7.3088    1.3431    0.0000 H   0  0  0  0  0  0  0  0  0  0  0  0
    4.7681   -0.1330    0.0000 H   0  0  0  0  0  0  0  0  0  0  0  0
    3.9700   -0.1176    0.0000 H   0  0  0  0  0  0  0  0  0  0  0  0
    6.1832   -3.3462    0.0000 H   0  0  0  0  0  0  0  0  0  0  0  0
    5.9145   -0.1686    0.0000 H   0  0  0  0  0  0  0  0  0  0  0  0
    5.2993    0.4562    0.0000 H   0  0  0  0  0  0  0  0  0  0  0  0
    4.6745   -0.1590    0.0000 H   0  0  0  0  0  0  0  0  0  0  0  0
    8.7716    2.0598    0.0000 H   0  0  0  0  0  0  0  0  0  0  0  0
   10.4586   -0.7769    0.0000 H   0  0  0  0  0  0  0  0  0  0  0  0
   11.0786   -0.1569    0.0000 H   0  0  0  0  0  0  0  0  0  0  0  0
   10.4586    0.4631    0.0000 H   0  0  0  0  0  0  0  0  0  0  0  0
    3.9460   -3.2311    0.0000 H   0  0  0  0  0  0  0  0  0  0  0  0
    4.7443   -3.2280    0.0000 H   0  0  0  0  0  0  0  0  0  0  0  0
    3.2075   -0.5423    0.0000 H   0  0  0  0  0  0  0  0  0  0  0  0
    2.8004   -1.2290    0.0000 H   0  0  0  0  0  0  0  0  0  0  0  0
    3.4025   -2.8326    0.0000 H   0  0  0  0  0  0  0  0  0  0  0  0
    2.0000   -2.3972    0.0000 H   0  0  0  0  0  0  0  0  0  0  0  0
   11.0642    2.5625    0.0000 H   0  0  0  0  0  0  0  0  0  0  0  0
   10.6675    3.3444    0.0000 H   0  0  0  0  0  0  0  0  0  0  0  0
    9.8856    2.9477    0.0000 H   0  0  0  0  0  0  0  0  0  0  0  0
  1 23  1  0  0  0  0
  1 57  1  0  0  0  0
  2 24  2  0  0  0  0
  3  8  1  0  0  0  0
  3 24  1  0  0  0  0
  3 48  1  0  0  0  0
  4  5  1  0  0  0  0
  4  8  1  0  0  0  0
  4 10  1  0  0  0  0
  4 15  1  0  0  0  0
  5  6  1  0  0  0  0
  5 11  1  0  0  0  0
  5 26  1  0  0  0  0
  6  7  1  0  0  0  0
  6 14  1  0  0  0  0
  6 27  1  0  0  0  0
  7  9  1  0  0  0  0
  7 12  1  0  0  0  0
  7 28  1  0  0  0  0
  8 13  1  0  0  0  0
  8 29  1  0  0  0  0
  9 16  1  0  0  0  0
  9 17  1  0  0  0  0
  9 19  1  0  0  0  0
 10 12  1  0  0  0  0
 10 30  1  0  0  0  0
 10 31  1  0  0  0  0
 11 13  1  0  0  0  0
 11 32  1  0  0  0  0
 11 33  1  0  0  0  0
 12 34  1  0  0  0  0
 12 35  1  0  0  0  0
 13 20  1  0  0  0  0
 13 36  1  0  0  0  0
 14 18  1  0  0  0  0
 14 37  1  0  0  0  0
 14 38  1  0  0  0  0
 15 39  1  0  0  0  0
 15 40  1  0  0  0  0
 15 41  1  0  0  0  0
 16 18  2  0  0  0  0
 16 21  1  0  0  0  0
 17 22  1  0  0  0  0
 17 42  1  0  0  0  0
 17 43  1  0  0  0  0
 18 44  1  0  0  0  0
 19 45  1  0  0  0  0
 19 46  1  0  0  0  0
 19 47  1  0  0  0  0
 20 49  1  0  0  0  0
 20 50  1  0  0  0  0
 20 51  1  0  0  0  0
 21 23  1  0  0  0  0
 21 52  1  0  0  0  0
 21 53  1  0  0  0  0
 22 23  1  0  0  0  0
 22 54  1  0  0  0  0
 22 55  1  0  0  0  0
 23 56  1  0  0  0  0
 24 25  1  0  0  0  0
 25 58  1  0  0  0  0
 25 59  1  0  0  0  0
 25 60  1  0  0  0  0
M  END
> <PUBCHEM_COMPOUND_CID>
523149
> <PUBCHEM_COMPOUND_CANONICALIZED>
1
> <PUBCHEM_CACTVS_COMPLEXITY>
599
> <PUBCHEM_CACTVS_HBOND_ACCEPTOR>
2
> <PUBCHEM_CACTVS_HBOND_DONOR>
2
> <PUBCHEM_CACTVS_ROTATABLE_BOND>
1
> <PUBCHEM_CACTVS_SUBSKEYS>
AAADcfB6MAAAAAAAAAAAAAAAAAAAAYAAAAAwYIAAAAAAAGCAAAAAHgAQCAAADzzhgAYCAALAAgCIAiFSEAAAAAAgAAAACIAIAAgAEAIAgQAEQAAE1gCIAAOQwPAPgAAAAAAAAADAAAQAACAAASAACQAAAA==
> <PUBCHEM_IUPAC_OPENEYE_NAME>
N-(3-hydroxy-10,13,16-trimethyl-2,3,4,7,8,9,11,12,14,15,16,17-dodecahydro-1H-cyclopenta[a]phenanthren-17-yl)acetamide
> <PUBCHEM_IUPAC_CAS_NAME>
N-(3-hydroxy-10,13,16-trimethyl-2,3,4,7,8,9,11,12,14,15,16,17-dodecahydro-1H-cyclopenta[a]phenanthren-17-yl)acetamide
> <PUBCHEM_IUPAC_NAME_MARKUP>
<I>N</I>-(3-hydroxy-10,13,16-trimethyl-2,3,4,7,8,9,11,12,14,15,16,17-dodecahydro-1<I>H</I>-cyclopenta[a]phenanthren-17-yl)acetamide
> <PUBCHEM_IUPAC_NAME>
N-(3-hydroxy-10,13,16-trimethyl-2,3,4,7,8,9,11,12,14,15,16,17-dodecahydro-1H-cyclopenta[a]phenanthren-17-yl)acetamide
> <PUBCHEM_IUPAC_SYSTEMATIC_NAME>
N-(10,13,16-trimethyl-3-oxidanyl-2,3,4,7,8,9,11,12,14,15,16,17-dodecahydro-1H-cyclopenta[a]phenanthren-17-yl)ethanamide
> <PUBCHEM_IUPAC_TRADITIONAL_NAME>
N-(3-hydroxy-10,13,16-trimethyl-2,3,4,7,8,9,11,12,14,15,16,17-dodecahydro-1H-cyclopenta[a]phenanthren-17-yl)acetamide
> <PUBCHEM_IUPAC_INCHI>
InChI=1S/C22H35NO2/c1-13-11-19-17-6-5-15-12-16(25)7-9-21(15,3)18(17)8-10-22(19,4)20(13)23-14(2)24/h5,13,16-20,25H,6-12H2,1-4H3,(H,23,24)
> <PUBCHEM_IUPAC_INCHIKEY>
LGGHTNIMFTVTOB-UHFFFAOYSA-N
> <PUBCHEM_XLOGP3>
4
> <PUBCHEM_EXACT_MASS>
345.266779359
> <PUBCHEM_MOLECULAR_FORMULA>
C22H35NO2
> <PUBCHEM_MOLECULAR_WEIGHT>
345.5
> <PUBCHEM_OPENEYE_CAN_SMILES>
CC1CC2C3CC=C4CC(CCC4(C3CCC2(C1NC(=O)C)C)C)O
> <PUBCHEM_OPENEYE_ISO_SMILES>
CC1CC2C3CC=C4CC(CCC4(C3CCC2(C1NC(=O)C)C)C)O
> <PUBCHEM_CACTVS_TPSA>
49.3
> <PUBCHEM_MONOISOTOPIC_WEIGHT>
345.266779359
> <PUBCHEM_TOTAL_CHARGE>
0
> <PUBCHEM_HEAVY_ATOM_COUNT>
25
> <PUBCHEM_ATOM_DEF_STEREO_COUNT>
0
> <PUBCHEM_ATOM_UDEF_STEREO_COUNT>
8
> <PUBCHEM_BOND_DEF_STEREO_COUNT>
0
> <PUBCHEM_BOND_UDEF_STEREO_COUNT>
0
> <PUBCHEM_ISOTOPIC_ATOM_COUNT>
0
> <PUBCHEM_COMPONENT_COUNT>
1
> <PUBCHEM_CACTVS_TAUTO_COUNT>
-1
> <PUBCHEM_COORDINATE_TYPE>
1
5
255
> <PUBCHEM_BONDANNOTATIONS>
23  1  3
13  20  3
8  3  3
4  15  3
5  11  3
6  14  3
7  12  3
9  19  3
$$$$
