523283
  -OEChem-10302200292D
 52 52  0     1  0  0  0  0  0999 V2000
    3.7320   -2.9330    0.0000 Si  0  0  0  0  0  0  0  0  0  0  0  0
    5.4641    3.0670    0.0000 Si  0  0  0  0  0  0  0  0  0  0  0  0
    3.7320   -1.9330    0.0000 O   0  0  0  0  0  0  0  0  0  0  0  0
    4.5981    2.5670    0.0000 O   0  0  0  0  0  0  0  0  0  0  0  0
    6.3301    1.5670    0.0000 O   0  0  0  0  0  0  0  0  0  0  0  0
    2.8660    1.5670    0.0000 O   0  0  0  0  0  0  0  0  0  0  0  0
    4.5981   -1.4330    0.0000 C   0  0  3  0  0  0  0  0  0  0  0  0
    4.5981   -0.4330    0.0000 C   0  0  0  0  0  0  0  0  0  0  0  0
    3.7320   -3.9330    0.0000 C   0  0  0  0  0  0  0  0  0  0  0  0
    2.7320   -2.9330    0.0000 C   0  0  0  0  0  0  0  0  0  0  0  0
    4.7320   -2.9330    0.0000 C   0  0  0  0  0  0  0  0  0  0  0  0
    4.5981    1.5670    0.0000 C   0  0  0  0  0  0  0  0  0  0  0  0
    5.4641   -1.9330    0.0000 C   0  0  0  0  0  0  0  0  0  0  0  0
    5.4641    0.0670    0.0000 C   0  0  0  0  0  0  0  0  0  0  0  0
    3.7320    0.0670    0.0000 C   0  0  0  0  0  0  0  0  0  0  0  0
    5.4641    1.0670    0.0000 C   0  0  0  0  0  0  0  0  0  0  0  0
    3.7320    1.0670    0.0000 C   0  0  0  0  0  0  0  0  0  0  0  0
    6.3301    3.5670    0.0000 C   0  0  0  0  0  0  0  0  0  0  0  0
    4.9641    3.9330    0.0000 C   0  0  0  0  0  0  0  0  0  0  0  0
    5.9641    2.2010    0.0000 C   0  0  0  0  0  0  0  0  0  0  0  0
    7.1962    1.0670    0.0000 C   0  0  0  0  0  0  0  0  0  0  0  0
    2.0000    1.0670    0.0000 C   0  0  0  0  0  0  0  0  0  0  0  0
    4.5981   -2.0530    0.0000 H   0  0  0  0  0  0  0  0  0  0  0  0
    3.1120   -3.9330    0.0000 H   0  0  0  0  0  0  0  0  0  0  0  0
    3.7320   -4.5530    0.0000 H   0  0  0  0  0  0  0  0  0  0  0  0
    4.3520   -3.9330    0.0000 H   0  0  0  0  0  0  0  0  0  0  0  0
    2.7320   -2.3130    0.0000 H   0  0  0  0  0  0  0  0  0  0  0  0
    2.1120   -2.9330    0.0000 H   0  0  0  0  0  0  0  0  0  0  0  0
    2.7320   -3.5530    0.0000 H   0  0  0  0  0  0  0  0  0  0  0  0
    4.7320   -3.5530    0.0000 H   0  0  0  0  0  0  0  0  0  0  0  0
    5.3520   -2.9330    0.0000 H   0  0  0  0  0  0  0  0  0  0  0  0
    4.7320   -2.3130    0.0000 H   0  0  0  0  0  0  0  0  0  0  0  0
    5.1541   -2.4700    0.0000 H   0  0  0  0  0  0  0  0  0  0  0  0
    6.0010   -2.2430    0.0000 H   0  0  0  0  0  0  0  0  0  0  0  0
    5.7741   -1.3961    0.0000 H   0  0  0  0  0  0  0  0  0  0  0  0
    6.0010   -0.2430    0.0000 H   0  0  0  0  0  0  0  0  0  0  0  0
    3.1951   -0.2430    0.0000 H   0  0  0  0  0  0  0  0  0  0  0  0
    6.6401    3.0300    0.0000 H   0  0  0  0  0  0  0  0  0  0  0  0
    6.8671    3.8770    0.0000 H   0  0  0  0  0  0  0  0  0  0  0  0
    6.0201    4.1039    0.0000 H   0  0  0  0  0  0  0  0  0  0  0  0
    5.5010    4.2430    0.0000 H   0  0  0  0  0  0  0  0  0  0  0  0
    4.6541    4.4700    0.0000 H   0  0  0  0  0  0  0  0  0  0  0  0
    4.4272    3.6230    0.0000 H   0  0  0  0  0  0  0  0  0  0  0  0
    5.4272    1.8910    0.0000 H   0  0  0  0  0  0  0  0  0  0  0  0
    6.2741    1.6640    0.0000 H   0  0  0  0  0  0  0  0  0  0  0  0
    6.5010    2.5110    0.0000 H   0  0  0  0  0  0  0  0  0  0  0  0
    6.8862    0.5301    0.0000 H   0  0  0  0  0  0  0  0  0  0  0  0
    7.7331    0.7570    0.0000 H   0  0  0  0  0  0  0  0  0  0  0  0
    7.5062    1.6039    0.0000 H   0  0  0  0  0  0  0  0  0  0  0  0
    1.6900    1.6039    0.0000 H   0  0  0  0  0  0  0  0  0  0  0  0
    1.4631    0.7570    0.0000 H   0  0  0  0  0  0  0  0  0  0  0  0
    2.3100    0.5301    0.0000 H   0  0  0  0  0  0  0  0  0  0  0  0
  1  3  1  0  0  0  0
  1  9  1  0  0  0  0
  1 10  1  0  0  0  0
  1 11  1  0  0  0  0
  2  4  1  0  0  0  0
  2 18  1  0  0  0  0
  2 19  1  0  0  0  0
  2 20  1  0  0  0  0
  3  7  1  0  0  0  0
  4 12  1  0  0  0  0
  5 16  1  0  0  0  0
  5 21  1  0  0  0  0
  6 17  1  0  0  0  0
  6 22  1  0  0  0  0
  7  8  1  0  0  0  0
  7 13  1  0  0  0  0
  7 23  1  0  0  0  0
  8 14  2  0  0  0  0
  8 15  1  0  0  0  0
  9 24  1  0  0  0  0
  9 25  1  0  0  0  0
  9 26  1  0  0  0  0
 10 27  1  0  0  0  0
 10 28  1  0  0  0  0
 10 29  1  0  0  0  0
 11 30  1  0  0  0  0
 11 31  1  0  0  0  0
 11 32  1  0  0  0  0
 12 16  2  0  0  0  0
 12 17  1  0  0  0  0
 13 33  1  0  0  0  0
 13 34  1  0  0  0  0
 13 35  1  0  0  0  0
 14 16  1  0  0  0  0
 14 36  1  0  0  0  0
 15 17  2  0  0  0  0
 15 37  1  0  0  0  0
 18 38  1  0  0  0  0
 18 39  1  0  0  0  0
 18 40  1  0  0  0  0
 19 41  1  0  0  0  0
 19 42  1  0  0  0  0
 19 43  1  0  0  0  0
 20 44  1  0  0  0  0
 20 45  1  0  0  0  0
 20 46  1  0  0  0  0
 21 47  1  0  0  0  0
 21 48  1  0  0  0  0
 21 49  1  0  0  0  0
 22 50  1  0  0  0  0
 22 51  1  0  0  0  0
 22 52  1  0  0  0  0
M  END
> <PUBCHEM_COMPOUND_CID>
523283
> <PUBCHEM_COMPOUND_CANONICALIZED>
1
> <PUBCHEM_CACTVS_COMPLEXITY>
324
> <PUBCHEM_CACTVS_HBOND_ACCEPTOR>
4
> <PUBCHEM_CACTVS_HBOND_DONOR>
0
> <PUBCHEM_CACTVS_ROTATABLE_BOND>
7
> <PUBCHEM_CACTVS_SUBSKEYS>
AAADceB4OAwAAAAAAAAAAAAAAAAAAAAAAAAwAAAAAAAAAAABAAAAGhAAAEAADBSgmAJyBoAABAGAAiBCAAACCAAgIAAAiAAGiIgNJyKEMRqAMCIlwBUKqAfA4LwOIAABCAAAQABAAAIQAACAAAAAAAAAAA==
> <PUBCHEM_IUPAC_OPENEYE_NAME>
[2,6-dimethoxy-4-(1-trimethylsilyloxyethyl)phenoxy]-trimethyl-silane
> <PUBCHEM_IUPAC_CAS_NAME>
[2,6-dimethoxy-4-(1-trimethylsilyloxyethyl)phenoxy]-trimethylsilane
> <PUBCHEM_IUPAC_NAME_MARKUP>
[2,6-dimethoxy-4-(1-trimethylsilyloxyethyl)phenoxy]-trimethylsilane
> <PUBCHEM_IUPAC_NAME>
[2,6-dimethoxy-4-(1-trimethylsilyloxyethyl)phenoxy]-trimethylsilane
> <PUBCHEM_IUPAC_SYSTEMATIC_NAME>
[2,6-dimethoxy-4-(1-trimethylsilyloxyethyl)phenoxy]-trimethyl-silane
> <PUBCHEM_IUPAC_TRADITIONAL_NAME>
[2,6-dimethoxy-4-(1-trimethylsilyloxyethyl)phenoxy]-trimethyl-silane
> <PUBCHEM_IUPAC_INCHI>
InChI=1S/C16H30O4Si2/c1-12(19-21(4,5)6)13-10-14(17-2)16(15(11-13)18-3)20-22(7,8)9/h10-12H,1-9H3
> <PUBCHEM_IUPAC_INCHIKEY>
WFRNCUQYXQWZDO-UHFFFAOYSA-N
> <PUBCHEM_EXACT_MASS>
342.16826250
> <PUBCHEM_MOLECULAR_FORMULA>
C16H30O4Si2
> <PUBCHEM_MOLECULAR_WEIGHT>
342.58
> <PUBCHEM_OPENEYE_CAN_SMILES>
CC(C1=CC(=C(C(=C1)OC)O[Si](C)(C)C)OC)O[Si](C)(C)C
> <PUBCHEM_OPENEYE_ISO_SMILES>
CC(C1=CC(=C(C(=C1)OC)O[Si](C)(C)C)OC)O[Si](C)(C)C
> <PUBCHEM_CACTVS_TPSA>
36.9
> <PUBCHEM_MONOISOTOPIC_WEIGHT>
342.16826250
> <PUBCHEM_TOTAL_CHARGE>
0
> <PUBCHEM_HEAVY_ATOM_COUNT>
22
> <PUBCHEM_ATOM_DEF_STEREO_COUNT>
0
> <PUBCHEM_ATOM_UDEF_STEREO_COUNT>
1
> <PUBCHEM_BOND_DEF_STEREO_COUNT>
0
> <PUBCHEM_BOND_UDEF_STEREO_COUNT>
0
> <PUBCHEM_ISOTOPIC_ATOM_COUNT>
0
> <PUBCHEM_COMPONENT_COUNT>
1
> <PUBCHEM_CACTVS_TAUTO_COUNT>
-1
> <PUBCHEM_COORDINATE_TYPE>
1
5
255
> <PUBCHEM_BONDANNOTATIONS>
12  16  8
12  17  8
14  16  8
15  17  8
7  13  3
8  14  8
8  15  8
$$$$
