523212
  -OEChem-10302200292D
 21 21  0     1  0  0  0  0  0999 V2000
    4.2320    0.7685    0.0000 O   0  0  0  0  0  0  0  0  0  0  0  0
    2.8660    1.1345    0.0000 C   0  0  0  0  0  0  0  0  0  0  0  0
    2.0000    0.6345    0.0000 C   0  0  0  0  0  0  0  0  0  0  0  0
    2.0000    1.6345    0.0000 C   0  0  0  0  0  0  0  0  0  0  0  0
    3.3660    0.2685    0.0000 C   0  0  3  0  0  0  0  0  0  0  0  0
    3.3660    2.0005    0.0000 C   0  0  0  0  0  0  0  0  0  0  0  0
    2.5000   -0.2315    0.0000 C   0  0  0  0  0  0  0  0  0  0  0  0
    3.8660   -0.5976    0.0000 C   0  0  0  0  0  0  0  0  0  0  0  0
    4.3660   -1.4636    0.0000 C   0  0  0  0  0  0  0  0  0  0  0  0
    1.3894    0.5268    0.0000 H   0  0  0  0  0  0  0  0  0  0  0  0
    2.2120    0.0519    0.0000 H   0  0  0  0  0  0  0  0  0  0  0  0
    2.2120    2.2171    0.0000 H   0  0  0  0  0  0  0  0  0  0  0  0
    1.3894    1.7422    0.0000 H   0  0  0  0  0  0  0  0  0  0  0  0
    3.9030    1.6905    0.0000 H   0  0  0  0  0  0  0  0  0  0  0  0
    3.6760    2.5375    0.0000 H   0  0  0  0  0  0  0  0  0  0  0  0
    2.8291    2.3105    0.0000 H   0  0  0  0  0  0  0  0  0  0  0  0
    2.1900    0.3054    0.0000 H   0  0  0  0  0  0  0  0  0  0  0  0
    1.9631   -0.5415    0.0000 H   0  0  0  0  0  0  0  0  0  0  0  0
    2.8100   -0.7685    0.0000 H   0  0  0  0  0  0  0  0  0  0  0  0
    4.7690    0.4585    0.0000 H   0  0  0  0  0  0  0  0  0  0  0  0
    4.6760   -2.0005    0.0000 H   0  0  0  0  0  0  0  0  0  0  0  0
  1  5  1  0  0  0  0
  1 20  1  0  0  0  0
  2  3  1  0  0  0  0
  2  4  1  0  0  0  0
  2  5  1  0  0  0  0
  2  6  1  0  0  0  0
  3  4  1  0  0  0  0
  3 10  1  0  0  0  0
  3 11  1  0  0  0  0
  4 12  1  0  0  0  0
  4 13  1  0  0  0  0
  5  7  1  0  0  0  0
  5  8  1  0  0  0  0
  6 14  1  0  0  0  0
  6 15  1  0  0  0  0
  6 16  1  0  0  0  0
  7 17  1  0  0  0  0
  7 18  1  0  0  0  0
  7 19  1  0  0  0  0
  8  9  3  0  0  0  0
  9 21  1  0  0  0  0
M  END
> <PUBCHEM_COMPOUND_CID>
523212
> <PUBCHEM_COMPOUND_CANONICALIZED>
1
> <PUBCHEM_CACTVS_COMPLEXITY>
170
> <PUBCHEM_CACTVS_HBOND_ACCEPTOR>
1
> <PUBCHEM_CACTVS_HBOND_DONOR>
1
> <PUBCHEM_CACTVS_ROTATABLE_BOND>
2
> <PUBCHEM_CACTVS_SUBSKEYS>
AAADccBwIAAAAAAAAAAAAAAAGAAAAAAAAAAAAAAAAAAAAAAAAAAAGgAACAAADkSAgAACAAAAAgBAGAAAAAgAAAAAAAAAAAAAAAAAAAIAAAAAQAAEAAAAAAAAAAAPgAAAAAAAAAAAAAAAAAAAAAAAAAAAAA==
> <PUBCHEM_IUPAC_OPENEYE_NAME>
2-(1-methylcyclopropyl)but-3-yn-2-ol
> <PUBCHEM_IUPAC_CAS_NAME>
2-(1-methylcyclopropyl)-3-butyn-2-ol
> <PUBCHEM_IUPAC_NAME_MARKUP>
2-(1-methylcyclopropyl)but-3-yn-2-ol
> <PUBCHEM_IUPAC_NAME>
2-(1-methylcyclopropyl)but-3-yn-2-ol
> <PUBCHEM_IUPAC_SYSTEMATIC_NAME>
2-(1-methylcyclopropyl)but-3-yn-2-ol
> <PUBCHEM_IUPAC_TRADITIONAL_NAME>
2-(1-methylcyclopropyl)but-3-yn-2-ol
> <PUBCHEM_IUPAC_INCHI>
InChI=1S/C8H12O/c1-4-8(3,9)7(2)5-6-7/h1,9H,5-6H2,2-3H3
> <PUBCHEM_IUPAC_INCHIKEY>
MWOFUOAWMMDAHZ-UHFFFAOYSA-N
> <PUBCHEM_XLOGP3_AA>
1
> <PUBCHEM_EXACT_MASS>
124.088815002
> <PUBCHEM_MOLECULAR_FORMULA>
C8H12O
> <PUBCHEM_MOLECULAR_WEIGHT>
124.18
> <PUBCHEM_OPENEYE_CAN_SMILES>
CC1(CC1)C(C)(C#C)O
> <PUBCHEM_OPENEYE_ISO_SMILES>
CC1(CC1)C(C)(C#C)O
> <PUBCHEM_CACTVS_TPSA>
20.2
> <PUBCHEM_MONOISOTOPIC_WEIGHT>
124.088815002
> <PUBCHEM_TOTAL_CHARGE>
0
> <PUBCHEM_HEAVY_ATOM_COUNT>
9
> <PUBCHEM_ATOM_DEF_STEREO_COUNT>
0
> <PUBCHEM_ATOM_UDEF_STEREO_COUNT>
1
> <PUBCHEM_BOND_DEF_STEREO_COUNT>
0
> <PUBCHEM_BOND_UDEF_STEREO_COUNT>
0
> <PUBCHEM_ISOTOPIC_ATOM_COUNT>
0
> <PUBCHEM_COMPONENT_COUNT>
1
> <PUBCHEM_CACTVS_TAUTO_COUNT>
-1
> <PUBCHEM_COORDINATE_TYPE>
1
5
255
> <PUBCHEM_BONDANNOTATIONS>
5  1  3
$$$$
