523343
  -OEChem-10302200292D
 71 70  0     1  0  0  0  0  0999 V2000
    3.8660   -2.3170    0.0000 Si  0  0  0  0  0  0  0  0  0  0  0  0
    6.4641    1.1830    0.0000 Si  0  0  0  0  0  0  0  0  0  0  0  0
    8.1962   -0.8170    0.0000 Si  0  0  0  0  0  0  0  0  0  0  0  0
    3.0000    2.1830    0.0000 Si  0  0  0  0  0  0  0  0  0  0  0  0
    4.7320   -1.8170    0.0000 O   0  0  0  0  0  0  0  0  0  0  0  0
    5.5981    0.6830    0.0000 O   0  0  0  0  0  0  0  0  0  0  0  0
    3.0000   -0.8170    0.0000 O   0  0  0  0  0  0  0  0  0  0  0  0
    7.3301   -0.3170    0.0000 O   0  0  0  0  0  0  0  0  0  0  0  0
    3.0000    1.1830    0.0000 O   0  0  0  0  0  0  0  0  0  0  0  0
    6.4641   -1.8170    0.0000 O   0  0  0  0  0  0  0  0  0  0  0  0
    4.7320    1.1830    0.0000 O   0  0  0  0  0  0  0  0  0  0  0  0
    4.7320   -0.8170    0.0000 C   0  0  2  0  0  0  0  0  0  0  0  0
    5.5981   -0.3170    0.0000 C   0  0  2  0  0  0  0  0  0  0  0  0
    3.8660   -0.3170    0.0000 C   0  0  1  0  0  0  0  0  0  0  0  0
    6.4641   -0.8170    0.0000 C   0  0  0  0  0  0  0  0  0  0  0  0
    3.8660    0.6830    0.0000 C   0  0  0  0  0  0  0  0  0  0  0  0
    4.3660   -3.1830    0.0000 C   0  0  0  0  0  0  0  0  0  0  0  0
    3.0000   -2.8170    0.0000 C   0  0  0  0  0  0  0  0  0  0  0  0
    3.3660   -1.4510    0.0000 C   0  0  0  0  0  0  0  0  0  0  0  0
    7.3301    1.6830    0.0000 C   0  0  0  0  0  0  0  0  0  0  0  0
    5.9641    2.0490    0.0000 C   0  0  0  0  0  0  0  0  0  0  0  0
    6.9641    0.3170    0.0000 C   0  0  0  0  0  0  0  0  0  0  0  0
    9.0622   -1.3170    0.0000 C   0  0  0  0  0  0  0  0  0  0  0  0
    8.6962    0.0490    0.0000 C   0  0  0  0  0  0  0  0  0  0  0  0
    7.6962   -1.6830    0.0000 C   0  0  0  0  0  0  0  0  0  0  0  0
    3.0000    3.1830    0.0000 C   0  0  0  0  0  0  0  0  0  0  0  0
    2.0000    2.1830    0.0000 C   0  0  0  0  0  0  0  0  0  0  0  0
    4.0000    2.1830    0.0000 C   0  0  0  0  0  0  0  0  0  0  0  0
    2.1340   -0.3170    0.0000 C   0  0  0  0  0  0  0  0  0  0  0  0
    5.2690   -1.1270    0.0000 H   0  0  0  0  0  0  0  0  0  0  0  0
    6.1350   -0.0070    0.0000 H   0  0  0  0  0  0  0  0  0  0  0  0
    3.8660   -0.9370    0.0000 H   0  0  0  0  0  0  0  0  0  0  0  0
    3.8291   -3.4930    0.0000 H   0  0  0  0  0  0  0  0  0  0  0  0
    4.6760   -3.7200    0.0000 H   0  0  0  0  0  0  0  0  0  0  0  0
    4.9030   -2.8730    0.0000 H   0  0  0  0  0  0  0  0  0  0  0  0
    2.6900   -2.2800    0.0000 H   0  0  0  0  0  0  0  0  0  0  0  0
    2.4631   -3.1270    0.0000 H   0  0  0  0  0  0  0  0  0  0  0  0
    3.3100   -3.3539    0.0000 H   0  0  0  0  0  0  0  0  0  0  0  0
    3.9030   -1.1410    0.0000 H   0  0  0  0  0  0  0  0  0  0  0  0
    3.0560   -0.9140    0.0000 H   0  0  0  0  0  0  0  0  0  0  0  0
    2.8291   -1.7610    0.0000 H   0  0  0  0  0  0  0  0  0  0  0  0
    7.6401    1.1461    0.0000 H   0  0  0  0  0  0  0  0  0  0  0  0
    7.8671    1.9930    0.0000 H   0  0  0  0  0  0  0  0  0  0  0  0
    7.0201    2.2200    0.0000 H   0  0  0  0  0  0  0  0  0  0  0  0
    6.5010    2.3590    0.0000 H   0  0  0  0  0  0  0  0  0  0  0  0
    5.6541    2.5860    0.0000 H   0  0  0  0  0  0  0  0  0  0  0  0
    5.4272    1.7390    0.0000 H   0  0  0  0  0  0  0  0  0  0  0  0
    6.4272    0.0070    0.0000 H   0  0  0  0  0  0  0  0  0  0  0  0
    7.2741   -0.2199    0.0000 H   0  0  0  0  0  0  0  0  0  0  0  0
    7.5010    0.6270    0.0000 H   0  0  0  0  0  0  0  0  0  0  0  0
    8.7522   -1.8539    0.0000 H   0  0  0  0  0  0  0  0  0  0  0  0
    9.5991   -1.6270    0.0000 H   0  0  0  0  0  0  0  0  0  0  0  0
    9.3722   -0.7801    0.0000 H   0  0  0  0  0  0  0  0  0  0  0  0
    9.2331   -0.2610    0.0000 H   0  0  0  0  0  0  0  0  0  0  0  0
    9.0062    0.5860    0.0000 H   0  0  0  0  0  0  0  0  0  0  0  0
    8.1592    0.3590    0.0000 H   0  0  0  0  0  0  0  0  0  0  0  0
    7.1592   -1.3730    0.0000 H   0  0  0  0  0  0  0  0  0  0  0  0
    7.3862   -2.2200    0.0000 H   0  0  0  0  0  0  0  0  0  0  0  0
    8.2331   -1.9930    0.0000 H   0  0  0  0  0  0  0  0  0  0  0  0
    3.6200    3.1830    0.0000 H   0  0  0  0  0  0  0  0  0  0  0  0
    3.0000    3.8030    0.0000 H   0  0  0  0  0  0  0  0  0  0  0  0
    2.3800    3.1830    0.0000 H   0  0  0  0  0  0  0  0  0  0  0  0
    2.0000    2.8030    0.0000 H   0  0  0  0  0  0  0  0  0  0  0  0
    1.3800    2.1830    0.0000 H   0  0  0  0  0  0  0  0  0  0  0  0
    2.0000    1.5630    0.0000 H   0  0  0  0  0  0  0  0  0  0  0  0
    4.0000    1.5630    0.0000 H   0  0  0  0  0  0  0  0  0  0  0  0
    4.6200    2.1830    0.0000 H   0  0  0  0  0  0  0  0  0  0  0  0
    4.0000    2.8030    0.0000 H   0  0  0  0  0  0  0  0  0  0  0  0
    2.4440    0.2199    0.0000 H   0  0  0  0  0  0  0  0  0  0  0  0
    1.5970   -0.0070    0.0000 H   0  0  0  0  0  0  0  0  0  0  0  0
    1.8240   -0.8539    0.0000 H   0  0  0  0  0  0  0  0  0  0  0  0
  1  5  1  0  0  0  0
  1 17  1  0  0  0  0
  1 18  1  0  0  0  0
  1 19  1  0  0  0  0
  2  6  1  0  0  0  0
  2 20  1  0  0  0  0
  2 21  1  0  0  0  0
  2 22  1  0  0  0  0
  3  8  1  0  0  0  0
  3 23  1  0  0  0  0
  3 24  1  0  0  0  0
  3 25  1  0  0  0  0
  4  9  1  0  0  0  0
  4 26  1  0  0  0  0
  4 27  1  0  0  0  0
  4 28  1  0  0  0  0
 12  5  1  1  0  0  0
 13  6  1  1  0  0  0
 14  7  1  6  0  0  0
  7 29  1  0  0  0  0
  8 15  1  0  0  0  0
  9 16  1  0  0  0  0
 10 15  2  0  0  0  0
 11 16  2  0  0  0  0
 12 13  1  0  0  0  0
 12 14  1  0  0  0  0
 12 30  1  0  0  0  0
 13 15  1  0  0  0  0
 13 31  1  0  0  0  0
 14 16  1  0  0  0  0
 14 32  1  0  0  0  0
 17 33  1  0  0  0  0
 17 34  1  0  0  0  0
 17 35  1  0  0  0  0
 18 36  1  0  0  0  0
 18 37  1  0  0  0  0
 18 38  1  0  0  0  0
 19 39  1  0  0  0  0
 19 40  1  0  0  0  0
 19 41  1  0  0  0  0
 20 42  1  0  0  0  0
 20 43  1  0  0  0  0
 20 44  1  0  0  0  0
 21 45  1  0  0  0  0
 21 46  1  0  0  0  0
 21 47  1  0  0  0  0
 22 48  1  0  0  0  0
 22 49  1  0  0  0  0
 22 50  1  0  0  0  0
 23 51  1  0  0  0  0
 23 52  1  0  0  0  0
 23 53  1  0  0  0  0
 24 54  1  0  0  0  0
 24 55  1  0  0  0  0
 24 56  1  0  0  0  0
 25 57  1  0  0  0  0
 25 58  1  0  0  0  0
 25 59  1  0  0  0  0
 26 60  1  0  0  0  0
 26 61  1  0  0  0  0
 26 62  1  0  0  0  0
 27 63  1  0  0  0  0
 27 64  1  0  0  0  0
 27 65  1  0  0  0  0
 28 66  1  0  0  0  0
 28 67  1  0  0  0  0
 28 68  1  0  0  0  0
 29 69  1  0  0  0  0
 29 70  1  0  0  0  0
 29 71  1  0  0  0  0
M  END
> <PUBCHEM_COMPOUND_CID>
523343
> <PUBCHEM_COMPOUND_CANONICALIZED>
1
> <PUBCHEM_CACTVS_COMPLEXITY>
557
> <PUBCHEM_CACTVS_HBOND_ACCEPTOR>
7
> <PUBCHEM_CACTVS_HBOND_DONOR>
0
> <PUBCHEM_CACTVS_ROTATABLE_BOND>
13
> <PUBCHEM_CACTVS_SUBSKEYS>
AAADcfB4OAwAAAAAAAAAAAAAAAAAAAAAAAAAAAAAAAAAAAAAAAAAGhAAAEAACBSggAJCCAAABAEIAACQCAIAAAAAAAAAAAFAAAABABYAAAQAAAAFIAACAADKJgAAAAAAAAAAAAAAAAAAAAAAAAAAAAAAAA==
> <PUBCHEM_IUPAC_OPENEYE_NAME>
bis(trimethylsilyl) (2S,3S,4R)-2-methoxy-3,4-bis(trimethylsilyloxy)pentanedioate
> <PUBCHEM_IUPAC_CAS_NAME>
(2S,3S,4R)-2-methoxy-3,4-bis(trimethylsilyloxy)pentanedioic acid bis(trimethylsilyl) ester
> <PUBCHEM_IUPAC_NAME_MARKUP>
bis(trimethylsilyl) (2<I>S</I>,3<I>S</I>,4<I>R</I>)-2-methoxy-3,4-bis(trimethylsilyloxy)pentanedioate
> <PUBCHEM_IUPAC_NAME>
bis(trimethylsilyl) (2S,3S,4R)-2-methoxy-3,4-bis(trimethylsilyloxy)pentanedioate
> <PUBCHEM_IUPAC_SYSTEMATIC_NAME>
bis(trimethylsilyl) (2S,3S,4R)-2-methoxy-3,4-bis(trimethylsilyloxy)pentanedioate
> <PUBCHEM_IUPAC_TRADITIONAL_NAME>
(2S,3S,4R)-2-methoxy-3,4-bis(trimethylsilyloxy)glutaric acid bis(trimethylsilyl) ester
> <PUBCHEM_IUPAC_INCHI>
InChI=1S/C18H42O7Si4/c1-21-15(17(19)24-28(8,9)10)14(22-26(2,3)4)16(23-27(5,6)7)18(20)25-29(11,12)13/h14-16H,1-13H3/t14-,15-,16+/m0/s1
> <PUBCHEM_IUPAC_INCHIKEY>
XHKNNVYRCFXZBF-HRCADAONSA-N
> <PUBCHEM_EXACT_MASS>
482.20075981
> <PUBCHEM_MOLECULAR_FORMULA>
C18H42O7Si4
> <PUBCHEM_MOLECULAR_WEIGHT>
482.9
> <PUBCHEM_OPENEYE_CAN_SMILES>
COC(C(C(C(=O)O[Si](C)(C)C)O[Si](C)(C)C)O[Si](C)(C)C)C(=O)O[Si](C)(C)C
> <PUBCHEM_OPENEYE_ISO_SMILES>
CO[C@@H]([C@@H]([C@H](C(=O)O[Si](C)(C)C)O[Si](C)(C)C)O[Si](C)(C)C)C(=O)O[Si](C)(C)C
> <PUBCHEM_CACTVS_TPSA>
80.3
> <PUBCHEM_MONOISOTOPIC_WEIGHT>
482.20075981
> <PUBCHEM_TOTAL_CHARGE>
0
> <PUBCHEM_HEAVY_ATOM_COUNT>
29
> <PUBCHEM_ATOM_DEF_STEREO_COUNT>
3
> <PUBCHEM_ATOM_UDEF_STEREO_COUNT>
0
> <PUBCHEM_BOND_DEF_STEREO_COUNT>
0
> <PUBCHEM_BOND_UDEF_STEREO_COUNT>
0
> <PUBCHEM_ISOTOPIC_ATOM_COUNT>
0
> <PUBCHEM_COMPONENT_COUNT>
1
> <PUBCHEM_CACTVS_TAUTO_COUNT>
-1
> <PUBCHEM_COORDINATE_TYPE>
1
5
255
> <PUBCHEM_BONDANNOTATIONS>
12  5  5
13  6  5
14  7  6
$$$$
