523344
  -OEChem-10302200292D
 70 69  0     1  0  0  0  0  0999 V2000
    5.4641   -2.0670    0.0000 Si  0  0  0  0  0  0  0  0  0  0  0  0
    3.7320    1.9330    0.0000 Si  0  0  0  0  0  0  0  0  0  0  0  0
    2.8660   -2.5670    0.0000 Si  0  0  0  0  0  0  0  0  0  0  0  0
    8.0622    2.4330    0.0000 Si  0  0  0  0  0  0  0  0  0  0  0  0
    5.4641   -1.0670    0.0000 O   0  0  0  0  0  0  0  0  0  0  0  0
    4.5981    2.4330    0.0000 O   0  0  0  0  0  0  0  0  0  0  0  0
    3.7320   -2.0670    0.0000 O   0  0  0  0  0  0  0  0  0  0  0  0
    7.1962    1.9330    0.0000 O   0  0  0  0  0  0  0  0  0  0  0  0
    2.8660   -0.5670    0.0000 O   0  0  0  0  0  0  0  0  0  0  0  0
    6.3301    3.4330    0.0000 O   0  0  0  0  0  0  0  0  0  0  0  0
    4.5981    0.4330    0.0000 C   0  0  0  0  0  0  0  0  0  0  0  0
    5.4641    0.9330    0.0000 C   0  0  0  0  0  0  0  0  0  0  0  0
    4.5981   -0.5670    0.0000 C   0  0  3  0  0  0  0  0  0  0  0  0
    5.4641    1.9330    0.0000 C   0  0  3  0  0  0  0  0  0  0  0  0
    3.7320   -1.0670    0.0000 C   0  0  0  0  0  0  0  0  0  0  0  0
    6.3301    2.4330    0.0000 C   0  0  0  0  0  0  0  0  0  0  0  0
    5.4641   -3.0670    0.0000 C   0  0  0  0  0  0  0  0  0  0  0  0
    6.4641   -2.0670    0.0000 C   0  0  0  0  0  0  0  0  0  0  0  0
    4.4641   -2.0670    0.0000 C   0  0  0  0  0  0  0  0  0  0  0  0
    2.8660    1.4330    0.0000 C   0  0  0  0  0  0  0  0  0  0  0  0
    3.2320    2.7990    0.0000 C   0  0  0  0  0  0  0  0  0  0  0  0
    4.2320    1.0670    0.0000 C   0  0  0  0  0  0  0  0  0  0  0  0
    2.0000   -3.0670    0.0000 C   0  0  0  0  0  0  0  0  0  0  0  0
    3.3660   -3.4330    0.0000 C   0  0  0  0  0  0  0  0  0  0  0  0
    2.3660   -1.7010    0.0000 C   0  0  0  0  0  0  0  0  0  0  0  0
    8.9282    2.9330    0.0000 C   0  0  0  0  0  0  0  0  0  0  0  0
    8.5622    1.5670    0.0000 C   0  0  0  0  0  0  0  0  0  0  0  0
    7.5622    3.2990    0.0000 C   0  0  0  0  0  0  0  0  0  0  0  0
    4.3860    1.0156    0.0000 H   0  0  0  0  0  0  0  0  0  0  0  0
    3.9875    0.3254    0.0000 H   0  0  0  0  0  0  0  0  0  0  0  0
    5.6762    0.3504    0.0000 H   0  0  0  0  0  0  0  0  0  0  0  0
    6.0747    1.0407    0.0000 H   0  0  0  0  0  0  0  0  0  0  0  0
    4.5981   -1.1870    0.0000 H   0  0  0  0  0  0  0  0  0  0  0  0
    5.4641    2.5530    0.0000 H   0  0  0  0  0  0  0  0  0  0  0  0
    4.8441   -3.0670    0.0000 H   0  0  0  0  0  0  0  0  0  0  0  0
    5.4641   -3.6870    0.0000 H   0  0  0  0  0  0  0  0  0  0  0  0
    6.0841   -3.0670    0.0000 H   0  0  0  0  0  0  0  0  0  0  0  0
    6.4641   -2.6870    0.0000 H   0  0  0  0  0  0  0  0  0  0  0  0
    7.0841   -2.0670    0.0000 H   0  0  0  0  0  0  0  0  0  0  0  0
    6.4641   -1.4470    0.0000 H   0  0  0  0  0  0  0  0  0  0  0  0
    4.4641   -1.4470    0.0000 H   0  0  0  0  0  0  0  0  0  0  0  0
    3.8441   -2.0670    0.0000 H   0  0  0  0  0  0  0  0  0  0  0  0
    4.4641   -2.6870    0.0000 H   0  0  0  0  0  0  0  0  0  0  0  0
    2.5560    1.9700    0.0000 H   0  0  0  0  0  0  0  0  0  0  0  0
    2.3291    1.1230    0.0000 H   0  0  0  0  0  0  0  0  0  0  0  0
    3.1760    0.8961    0.0000 H   0  0  0  0  0  0  0  0  0  0  0  0
    3.7690    3.1090    0.0000 H   0  0  0  0  0  0  0  0  0  0  0  0
    2.9220    3.3360    0.0000 H   0  0  0  0  0  0  0  0  0  0  0  0
    2.6951    2.4890    0.0000 H   0  0  0  0  0  0  0  0  0  0  0  0
    3.6951    0.7570    0.0000 H   0  0  0  0  0  0  0  0  0  0  0  0
    4.5420    0.5301    0.0000 H   0  0  0  0  0  0  0  0  0  0  0  0
    4.7690    1.3770    0.0000 H   0  0  0  0  0  0  0  0  0  0  0  0
    1.6900   -2.5300    0.0000 H   0  0  0  0  0  0  0  0  0  0  0  0
    1.4631   -3.3770    0.0000 H   0  0  0  0  0  0  0  0  0  0  0  0
    2.3100   -3.6039    0.0000 H   0  0  0  0  0  0  0  0  0  0  0  0
    2.8291   -3.7430    0.0000 H   0  0  0  0  0  0  0  0  0  0  0  0
    3.6760   -3.9700    0.0000 H   0  0  0  0  0  0  0  0  0  0  0  0
    3.9030   -3.1230    0.0000 H   0  0  0  0  0  0  0  0  0  0  0  0
    2.9030   -1.3910    0.0000 H   0  0  0  0  0  0  0  0  0  0  0  0
    2.0560   -1.1640    0.0000 H   0  0  0  0  0  0  0  0  0  0  0  0
    1.8291   -2.0110    0.0000 H   0  0  0  0  0  0  0  0  0  0  0  0
    9.2382    2.3961    0.0000 H   0  0  0  0  0  0  0  0  0  0  0  0
    9.4651    3.2430    0.0000 H   0  0  0  0  0  0  0  0  0  0  0  0
    8.6182    3.4700    0.0000 H   0  0  0  0  0  0  0  0  0  0  0  0
    8.0252    1.2570    0.0000 H   0  0  0  0  0  0  0  0  0  0  0  0
    8.8722    1.0300    0.0000 H   0  0  0  0  0  0  0  0  0  0  0  0
    9.0991    1.8770    0.0000 H   0  0  0  0  0  0  0  0  0  0  0  0
    8.0991    3.6090    0.0000 H   0  0  0  0  0  0  0  0  0  0  0  0
    7.2522    3.8360    0.0000 H   0  0  0  0  0  0  0  0  0  0  0  0
    7.0252    2.9890    0.0000 H   0  0  0  0  0  0  0  0  0  0  0  0
  1  5  1  0  0  0  0
  1 17  1  0  0  0  0
  1 18  1  0  0  0  0
  1 19  1  0  0  0  0
  2  6  1  0  0  0  0
  2 20  1  0  0  0  0
  2 21  1  0  0  0  0
  2 22  1  0  0  0  0
  3  7  1  0  0  0  0
  3 23  1  0  0  0  0
  3 24  1  0  0  0  0
  3 25  1  0  0  0  0
  4  8  1  0  0  0  0
  4 26  1  0  0  0  0
  4 27  1  0  0  0  0
  4 28  1  0  0  0  0
  5 13  1  0  0  0  0
  6 14  1  0  0  0  0
  7 15  1  0  0  0  0
  8 16  1  0  0  0  0
  9 15  2  0  0  0  0
 10 16  2  0  0  0  0
 11 12  1  0  0  0  0
 11 13  1  0  0  0  0
 11 29  1  0  0  0  0
 11 30  1  0  0  0  0
 12 14  1  0  0  0  0
 12 31  1  0  0  0  0
 12 32  1  0  0  0  0
 13 15  1  0  0  0  0
 13 33  1  0  0  0  0
 14 16  1  0  0  0  0
 14 34  1  0  0  0  0
 17 35  1  0  0  0  0
 17 36  1  0  0  0  0
 17 37  1  0  0  0  0
 18 38  1  0  0  0  0
 18 39  1  0  0  0  0
 18 40  1  0  0  0  0
 19 41  1  0  0  0  0
 19 42  1  0  0  0  0
 19 43  1  0  0  0  0
 20 44  1  0  0  0  0
 20 45  1  0  0  0  0
 20 46  1  0  0  0  0
 21 47  1  0  0  0  0
 21 48  1  0  0  0  0
 21 49  1  0  0  0  0
 22 50  1  0  0  0  0
 22 51  1  0  0  0  0
 22 52  1  0  0  0  0
 23 53  1  0  0  0  0
 23 54  1  0  0  0  0
 23 55  1  0  0  0  0
 24 56  1  0  0  0  0
 24 57  1  0  0  0  0
 24 58  1  0  0  0  0
 25 59  1  0  0  0  0
 25 60  1  0  0  0  0
 25 61  1  0  0  0  0
 26 62  1  0  0  0  0
 26 63  1  0  0  0  0
 26 64  1  0  0  0  0
 27 65  1  0  0  0  0
 27 66  1  0  0  0  0
 27 67  1  0  0  0  0
 28 68  1  0  0  0  0
 28 69  1  0  0  0  0
 28 70  1  0  0  0  0
M  END
> <PUBCHEM_COMPOUND_CID>
523344
> <PUBCHEM_COMPOUND_CANONICALIZED>
1
> <PUBCHEM_CACTVS_COMPLEXITY>
478
> <PUBCHEM_CACTVS_HBOND_ACCEPTOR>
6
> <PUBCHEM_CACTVS_HBOND_DONOR>
0
> <PUBCHEM_CACTVS_ROTATABLE_BOND>
13
> <PUBCHEM_CACTVS_SUBSKEYS>
AAADcfB4OAwAAAAAAAAAAAAAAAAAAAAAAAAAAAAAAAAAAAAAAAAAGhAAAEAACBSggAJCCAAAAAEIAACQCAIAAAAAAAAAAAFAAAABABIAAAAAAAAEAAAAAAHIbARAAAAAAAAAAAAAAAAAAAAAAAAAAAAAAA==
> <PUBCHEM_IUPAC_OPENEYE_NAME>
bis(trimethylsilyl) 2,5-bis(trimethylsilyloxy)hexanedioate
> <PUBCHEM_IUPAC_CAS_NAME>
2,5-bis(trimethylsilyloxy)hexanedioic acid bis(trimethylsilyl) ester
> <PUBCHEM_IUPAC_NAME_MARKUP>
bis(trimethylsilyl) 2,5-bis(trimethylsilyloxy)hexanedioate
> <PUBCHEM_IUPAC_NAME>
bis(trimethylsilyl) 2,5-bis(trimethylsilyloxy)hexanedioate
> <PUBCHEM_IUPAC_SYSTEMATIC_NAME>
bis(trimethylsilyl) 2,5-bis(trimethylsilyloxy)hexanedioate
> <PUBCHEM_IUPAC_TRADITIONAL_NAME>
2,5-bis(trimethylsilyloxy)adipic acid bis(trimethylsilyl) ester
> <PUBCHEM_IUPAC_INCHI>
InChI=1S/C18H42O6Si4/c1-25(2,3)21-15(17(19)23-27(7,8)9)13-14-16(22-26(4,5)6)18(20)24-28(10,11)12/h15-16H,13-14H2,1-12H3
> <PUBCHEM_IUPAC_INCHIKEY>
HJYBMEQUUKHGAZ-UHFFFAOYSA-N
> <PUBCHEM_EXACT_MASS>
466.20584519
> <PUBCHEM_MOLECULAR_FORMULA>
C18H42O6Si4
> <PUBCHEM_MOLECULAR_WEIGHT>
466.9
> <PUBCHEM_OPENEYE_CAN_SMILES>
C[Si](C)(C)OC(CCC(C(=O)O[Si](C)(C)C)O[Si](C)(C)C)C(=O)O[Si](C)(C)C
> <PUBCHEM_OPENEYE_ISO_SMILES>
C[Si](C)(C)OC(CCC(C(=O)O[Si](C)(C)C)O[Si](C)(C)C)C(=O)O[Si](C)(C)C
> <PUBCHEM_CACTVS_TPSA>
71.1
> <PUBCHEM_MONOISOTOPIC_WEIGHT>
466.20584519
> <PUBCHEM_TOTAL_CHARGE>
0
> <PUBCHEM_HEAVY_ATOM_COUNT>
28
> <PUBCHEM_ATOM_DEF_STEREO_COUNT>
0
> <PUBCHEM_ATOM_UDEF_STEREO_COUNT>
2
> <PUBCHEM_BOND_DEF_STEREO_COUNT>
0
> <PUBCHEM_BOND_UDEF_STEREO_COUNT>
0
> <PUBCHEM_ISOTOPIC_ATOM_COUNT>
0
> <PUBCHEM_COMPONENT_COUNT>
1
> <PUBCHEM_CACTVS_TAUTO_COUNT>
-1
> <PUBCHEM_COORDINATE_TYPE>
1
5
255
> <PUBCHEM_BONDANNOTATIONS>
13  11  3
14  12  3
$$$$
