523351
  -OEChem-10302200292D
 71 70  0     1  0  0  0  0  0999 V2000
    8.0622   -1.0670    0.0000 Si  0  0  0  0  0  0  0  0  0  0  0  0
    9.7942    0.9330    0.0000 Si  0  0  0  0  0  0  0  0  0  0  0  0
    4.5981   -1.0670    0.0000 Si  0  0  0  0  0  0  0  0  0  0  0  0
    2.8660    0.9330    0.0000 Si  0  0  0  0  0  0  0  0  0  0  0  0
    7.1962   -0.5670    0.0000 O   0  0  0  0  0  0  0  0  0  0  0  0
    8.9282    0.4330    0.0000 O   0  0  0  0  0  0  0  0  0  0  0  0
    5.4641   -0.5670    0.0000 O   0  0  0  0  0  0  0  0  0  0  0  0
    3.7320    0.4330    0.0000 O   0  0  0  0  0  0  0  0  0  0  0  0
    4.5981    1.9330    0.0000 O   0  0  0  0  0  0  0  0  0  0  0  0
    7.1962    0.4330    0.0000 C   0  0  2  0  0  0  0  0  0  0  0  0
    6.3301    0.9330    0.0000 C   0  0  0  0  0  0  0  0  0  0  0  0
    8.0622    0.9330    0.0000 C   0  0  3  0  0  0  0  0  0  0  0  0
    5.4641    0.4330    0.0000 C   0  0  1  0  0  0  0  0  0  0  0  0
    8.0622    1.9330    0.0000 C   0  0  0  0  0  0  0  0  0  0  0  0
    4.5981    0.9330    0.0000 C   0  0  0  0  0  0  0  0  0  0  0  0
    8.9282   -1.5670    0.0000 C   0  0  0  0  0  0  0  0  0  0  0  0
    7.5622   -1.9330    0.0000 C   0  0  0  0  0  0  0  0  0  0  0  0
    8.5622   -0.2010    0.0000 C   0  0  0  0  0  0  0  0  0  0  0  0
   10.6603    1.4330    0.0000 C   0  0  0  0  0  0  0  0  0  0  0  0
   10.2942    0.0670    0.0000 C   0  0  0  0  0  0  0  0  0  0  0  0
    9.2942    1.7990    0.0000 C   0  0  0  0  0  0  0  0  0  0  0  0
    3.7320   -1.5670    0.0000 C   0  0  0  0  0  0  0  0  0  0  0  0
    5.0981   -1.9330    0.0000 C   0  0  0  0  0  0  0  0  0  0  0  0
    4.0981   -0.2010    0.0000 C   0  0  0  0  0  0  0  0  0  0  0  0
    2.0000    1.4330    0.0000 C   0  0  0  0  0  0  0  0  0  0  0  0
    2.3660    0.0670    0.0000 C   0  0  0  0  0  0  0  0  0  0  0  0
    3.3660    1.7990    0.0000 C   0  0  0  0  0  0  0  0  0  0  0  0
    6.6592    0.1230    0.0000 H   0  0  0  0  0  0  0  0  0  0  0  0
    6.7287    1.4080    0.0000 H   0  0  0  0  0  0  0  0  0  0  0  0
    5.9316    1.4080    0.0000 H   0  0  0  0  0  0  0  0  0  0  0  0
    8.0622    0.3130    0.0000 H   0  0  0  0  0  0  0  0  0  0  0  0
    6.0010    0.1230    0.0000 H   0  0  0  0  0  0  0  0  0  0  0  0
    8.6822    1.9330    0.0000 H   0  0  0  0  0  0  0  0  0  0  0  0
    8.0622    2.5530    0.0000 H   0  0  0  0  0  0  0  0  0  0  0  0
    7.4422    1.9330    0.0000 H   0  0  0  0  0  0  0  0  0  0  0  0
    8.6182   -2.1039    0.0000 H   0  0  0  0  0  0  0  0  0  0  0  0
    9.4651   -1.8770    0.0000 H   0  0  0  0  0  0  0  0  0  0  0  0
    9.2382   -1.0300    0.0000 H   0  0  0  0  0  0  0  0  0  0  0  0
    7.0252   -1.6230    0.0000 H   0  0  0  0  0  0  0  0  0  0  0  0
    7.2522   -2.4700    0.0000 H   0  0  0  0  0  0  0  0  0  0  0  0
    8.0991   -2.2430    0.0000 H   0  0  0  0  0  0  0  0  0  0  0  0
    9.0991   -0.5110    0.0000 H   0  0  0  0  0  0  0  0  0  0  0  0
    8.8722    0.3360    0.0000 H   0  0  0  0  0  0  0  0  0  0  0  0
    8.0252    0.1090    0.0000 H   0  0  0  0  0  0  0  0  0  0  0  0
   10.9703    0.8961    0.0000 H   0  0  0  0  0  0  0  0  0  0  0  0
   11.1972    1.7430    0.0000 H   0  0  0  0  0  0  0  0  0  0  0  0
   10.3503    1.9700    0.0000 H   0  0  0  0  0  0  0  0  0  0  0  0
    9.7573   -0.2430    0.0000 H   0  0  0  0  0  0  0  0  0  0  0  0
   10.6042   -0.4699    0.0000 H   0  0  0  0  0  0  0  0  0  0  0  0
   10.8312    0.3770    0.0000 H   0  0  0  0  0  0  0  0  0  0  0  0
    9.8312    2.1090    0.0000 H   0  0  0  0  0  0  0  0  0  0  0  0
    8.9842    2.3360    0.0000 H   0  0  0  0  0  0  0  0  0  0  0  0
    8.7573    1.4890    0.0000 H   0  0  0  0  0  0  0  0  0  0  0  0
    3.4220   -1.0300    0.0000 H   0  0  0  0  0  0  0  0  0  0  0  0
    3.1951   -1.8770    0.0000 H   0  0  0  0  0  0  0  0  0  0  0  0
    4.0420   -2.1039    0.0000 H   0  0  0  0  0  0  0  0  0  0  0  0
    4.5611   -2.2430    0.0000 H   0  0  0  0  0  0  0  0  0  0  0  0
    5.4081   -2.4700    0.0000 H   0  0  0  0  0  0  0  0  0  0  0  0
    5.6350   -1.6230    0.0000 H   0  0  0  0  0  0  0  0  0  0  0  0
    4.6350    0.1090    0.0000 H   0  0  0  0  0  0  0  0  0  0  0  0
    3.7881    0.3360    0.0000 H   0  0  0  0  0  0  0  0  0  0  0  0
    3.5611   -0.5110    0.0000 H   0  0  0  0  0  0  0  0  0  0  0  0
    2.3100    1.9700    0.0000 H   0  0  0  0  0  0  0  0  0  0  0  0
    1.4631    1.7430    0.0000 H   0  0  0  0  0  0  0  0  0  0  0  0
    1.6900    0.8961    0.0000 H   0  0  0  0  0  0  0  0  0  0  0  0
    1.8291    0.3770    0.0000 H   0  0  0  0  0  0  0  0  0  0  0  0
    2.0560   -0.4699    0.0000 H   0  0  0  0  0  0  0  0  0  0  0  0
    2.9030   -0.2430    0.0000 H   0  0  0  0  0  0  0  0  0  0  0  0
    3.9030    1.4890    0.0000 H   0  0  0  0  0  0  0  0  0  0  0  0
    3.6760    2.3360    0.0000 H   0  0  0  0  0  0  0  0  0  0  0  0
    2.8291    2.1090    0.0000 H   0  0  0  0  0  0  0  0  0  0  0  0
  1  5  1  0  0  0  0
  1 16  1  0  0  0  0
  1 17  1  0  0  0  0
  1 18  1  0  0  0  0
  2  6  1  0  0  0  0
  2 19  1  0  0  0  0
  2 20  1  0  0  0  0
  2 21  1  0  0  0  0
  3  7  1  0  0  0  0
  3 22  1  0  0  0  0
  3 23  1  0  0  0  0
  3 24  1  0  0  0  0
  4  8  1  0  0  0  0
  4 25  1  0  0  0  0
  4 26  1  0  0  0  0
  4 27  1  0  0  0  0
 10  5  1  6  0  0  0
  6 12  1  0  0  0  0
 13  7  1  6  0  0  0
  8 15  1  0  0  0  0
  9 15  2  0  0  0  0
 10 11  1  0  0  0  0
 10 12  1  0  0  0  0
 10 28  1  0  0  0  0
 11 13  1  0  0  0  0
 11 29  1  0  0  0  0
 11 30  1  0  0  0  0
 12 14  1  0  0  0  0
 12 31  1  0  0  0  0
 13 15  1  0  0  0  0
 13 32  1  0  0  0  0
 14 33  1  0  0  0  0
 14 34  1  0  0  0  0
 14 35  1  0  0  0  0
 16 36  1  0  0  0  0
 16 37  1  0  0  0  0
 16 38  1  0  0  0  0
 17 39  1  0  0  0  0
 17 40  1  0  0  0  0
 17 41  1  0  0  0  0
 18 42  1  0  0  0  0
 18 43  1  0  0  0  0
 18 44  1  0  0  0  0
 19 45  1  0  0  0  0
 19 46  1  0  0  0  0
 19 47  1  0  0  0  0
 20 48  1  0  0  0  0
 20 49  1  0  0  0  0
 20 50  1  0  0  0  0
 21 51  1  0  0  0  0
 21 52  1  0  0  0  0
 21 53  1  0  0  0  0
 22 54  1  0  0  0  0
 22 55  1  0  0  0  0
 22 56  1  0  0  0  0
 23 57  1  0  0  0  0
 23 58  1  0  0  0  0
 23 59  1  0  0  0  0
 24 60  1  0  0  0  0
 24 61  1  0  0  0  0
 24 62  1  0  0  0  0
 25 63  1  0  0  0  0
 25 64  1  0  0  0  0
 25 65  1  0  0  0  0
 26 66  1  0  0  0  0
 26 67  1  0  0  0  0
 26 68  1  0  0  0  0
 27 69  1  0  0  0  0
 27 70  1  0  0  0  0
 27 71  1  0  0  0  0
M  END
> <PUBCHEM_COMPOUND_CID>
523351
> <PUBCHEM_COMPOUND_CANONICALIZED>
1
> <PUBCHEM_CACTVS_COMPLEXITY>
472
> <PUBCHEM_CACTVS_HBOND_ACCEPTOR>
5
> <PUBCHEM_CACTVS_HBOND_DONOR>
0
> <PUBCHEM_CACTVS_ROTATABLE_BOND>
12
> <PUBCHEM_CACTVS_SUBSKEYS>
AAADcfB4OAwAAAAAAAAAAAAAAAAAAAAAAAAAAAAAAAAAAAAAAAAAGhAAAEAACBSggAJCCAAAAAEIAACQCAIAAAAAAAAAAAFAAAABABIAAAAAAAAFAAAAAAHKbARAAAAAAAAAAAAAAAAAAAAAAAAAAAAAAA==
> <PUBCHEM_IUPAC_OPENEYE_NAME>
trimethylsilyl (2S,4R)-2,4,5-tris(trimethylsilyloxy)hexanoate
> <PUBCHEM_IUPAC_CAS_NAME>
(2S,4R)-2,4,5-tris(trimethylsilyloxy)hexanoic acid trimethylsilyl ester
> <PUBCHEM_IUPAC_NAME_MARKUP>
trimethylsilyl (2<I>S</I>,4<I>R</I>)-2,4,5-tris(trimethylsilyloxy)hexanoate
> <PUBCHEM_IUPAC_NAME>
trimethylsilyl (2S,4R)-2,4,5-tris(trimethylsilyloxy)hexanoate
> <PUBCHEM_IUPAC_SYSTEMATIC_NAME>
trimethylsilyl (2S,4R)-2,4,5-tris(trimethylsilyloxy)hexanoate
> <PUBCHEM_IUPAC_TRADITIONAL_NAME>
(2S,4R)-2,4,5-tris(trimethylsilyloxy)hexanoic acid trimethylsilyl ester
> <PUBCHEM_IUPAC_INCHI>
InChI=1S/C18H44O5Si4/c1-15(20-24(2,3)4)16(21-25(5,6)7)14-17(22-26(8,9)10)18(19)23-27(11,12)13/h15-17H,14H2,1-13H3/t15?,16-,17+/m1/s1
> <PUBCHEM_IUPAC_INCHIKEY>
XOPZJDYYVRROEQ-FGJGXXMFSA-N
> <PUBCHEM_EXACT_MASS>
452.22658064
> <PUBCHEM_MOLECULAR_FORMULA>
C18H44O5Si4
> <PUBCHEM_MOLECULAR_WEIGHT>
452.9
> <PUBCHEM_OPENEYE_CAN_SMILES>
CC(C(CC(C(=O)O[Si](C)(C)C)O[Si](C)(C)C)O[Si](C)(C)C)O[Si](C)(C)C
> <PUBCHEM_OPENEYE_ISO_SMILES>
CC([C@@H](C[C@@H](C(=O)O[Si](C)(C)C)O[Si](C)(C)C)O[Si](C)(C)C)O[Si](C)(C)C
> <PUBCHEM_CACTVS_TPSA>
54
> <PUBCHEM_MONOISOTOPIC_WEIGHT>
452.22658064
> <PUBCHEM_TOTAL_CHARGE>
0
> <PUBCHEM_HEAVY_ATOM_COUNT>
27
> <PUBCHEM_ATOM_DEF_STEREO_COUNT>
2
> <PUBCHEM_ATOM_UDEF_STEREO_COUNT>
1
> <PUBCHEM_BOND_DEF_STEREO_COUNT>
0
> <PUBCHEM_BOND_UDEF_STEREO_COUNT>
0
> <PUBCHEM_ISOTOPIC_ATOM_COUNT>
0
> <PUBCHEM_COMPONENT_COUNT>
1
> <PUBCHEM_CACTVS_TAUTO_COUNT>
-1
> <PUBCHEM_COORDINATE_TYPE>
1
5
255
> <PUBCHEM_BONDANNOTATIONS>
12  14  3
10  5  6
13  7  6
$$$$
