523315
  -OEChem-10302200292D
 58 57  0     1  0  0  0  0  0999 V2000
    8.0622   -1.7320    0.0000 Si  0  0  0  0  0  0  0  0  0  0  0  0
    6.3301    1.7320    0.0000 Si  0  0  0  0  0  0  0  0  0  0  0  0
    2.8660   -1.7320    0.0000 Si  0  0  0  0  0  0  0  0  0  0  0  0
    7.1962   -1.2320    0.0000 O   0  0  0  0  0  0  0  0  0  0  0  0
    5.8301    0.8660    0.0000 O   0  0  0  0  0  0  0  0  0  0  0  0
    3.7320   -2.2320    0.0000 O   0  0  0  0  0  0  0  0  0  0  0  0
    4.5981   -0.7321    0.0000 O   0  0  0  0  0  0  0  0  0  0  0  0
    6.3301   -1.7320    0.0000 C   0  0  3  0  0  0  0  0  0  0  0  0
    5.8301   -0.8660    0.0000 C   0  0  0  0  0  0  0  0  0  0  0  0
    5.4641   -2.2320    0.0000 C   0  0  0  0  0  0  0  0  0  0  0  0
    6.8301   -2.5981    0.0000 C   0  0  0  0  0  0  0  0  0  0  0  0
    6.3301    0.0000    0.0000 C   0  0  0  0  0  0  0  0  0  0  0  0
    8.9282   -2.2320    0.0000 C   0  0  0  0  0  0  0  0  0  0  0  0
    8.5622   -0.8660    0.0000 C   0  0  0  0  0  0  0  0  0  0  0  0
    7.5622   -2.5981    0.0000 C   0  0  0  0  0  0  0  0  0  0  0  0
    4.5981   -1.7320    0.0000 C   0  0  0  0  0  0  0  0  0  0  0  0
    6.8301    2.5981    0.0000 C   0  0  0  0  0  0  0  0  0  0  0  0
    5.4641    2.2320    0.0000 C   0  0  0  0  0  0  0  0  0  0  0  0
    7.1962    1.2320    0.0000 C   0  0  0  0  0  0  0  0  0  0  0  0
    2.0000   -1.2320    0.0000 C   0  0  0  0  0  0  0  0  0  0  0  0
    2.3660   -2.5981    0.0000 C   0  0  0  0  0  0  0  0  0  0  0  0
    3.3660   -0.8660    0.0000 C   0  0  0  0  0  0  0  0  0  0  0  0
    5.3552   -0.4675    0.0000 H   0  0  0  0  0  0  0  0  0  0  0  0
    5.3552   -1.2646    0.0000 H   0  0  0  0  0  0  0  0  0  0  0  0
    5.0656   -2.7070    0.0000 H   0  0  0  0  0  0  0  0  0  0  0  0
    5.8626   -2.7070    0.0000 H   0  0  0  0  0  0  0  0  0  0  0  0
    6.2932   -2.9081    0.0000 H   0  0  0  0  0  0  0  0  0  0  0  0
    7.1401   -3.1350    0.0000 H   0  0  0  0  0  0  0  0  0  0  0  0
    7.3671   -2.2881    0.0000 H   0  0  0  0  0  0  0  0  0  0  0  0
    6.8051   -0.3985    0.0000 H   0  0  0  0  0  0  0  0  0  0  0  0
    6.8051    0.3985    0.0000 H   0  0  0  0  0  0  0  0  0  0  0  0
    8.6182   -2.7690    0.0000 H   0  0  0  0  0  0  0  0  0  0  0  0
    9.4651   -2.5420    0.0000 H   0  0  0  0  0  0  0  0  0  0  0  0
    9.2382   -1.6951    0.0000 H   0  0  0  0  0  0  0  0  0  0  0  0
    9.0991   -1.1760    0.0000 H   0  0  0  0  0  0  0  0  0  0  0  0
    8.8722   -0.3291    0.0000 H   0  0  0  0  0  0  0  0  0  0  0  0
    8.0252   -0.5560    0.0000 H   0  0  0  0  0  0  0  0  0  0  0  0
    7.0252   -2.2881    0.0000 H   0  0  0  0  0  0  0  0  0  0  0  0
    7.2522   -3.1350    0.0000 H   0  0  0  0  0  0  0  0  0  0  0  0
    8.0991   -2.9081    0.0000 H   0  0  0  0  0  0  0  0  0  0  0  0
    7.3671    2.2881    0.0000 H   0  0  0  0  0  0  0  0  0  0  0  0
    7.1401    3.1350    0.0000 H   0  0  0  0  0  0  0  0  0  0  0  0
    6.2932    2.9081    0.0000 H   0  0  0  0  0  0  0  0  0  0  0  0
    5.7741    2.7690    0.0000 H   0  0  0  0  0  0  0  0  0  0  0  0
    4.9272    2.5420    0.0000 H   0  0  0  0  0  0  0  0  0  0  0  0
    5.1541    1.6951    0.0000 H   0  0  0  0  0  0  0  0  0  0  0  0
    6.8862    0.6951    0.0000 H   0  0  0  0  0  0  0  0  0  0  0  0
    7.7331    0.9221    0.0000 H   0  0  0  0  0  0  0  0  0  0  0  0
    7.5062    1.7690    0.0000 H   0  0  0  0  0  0  0  0  0  0  0  0
    2.3100   -0.6951    0.0000 H   0  0  0  0  0  0  0  0  0  0  0  0
    1.4631   -0.9221    0.0000 H   0  0  0  0  0  0  0  0  0  0  0  0
    1.6900   -1.7690    0.0000 H   0  0  0  0  0  0  0  0  0  0  0  0
    1.8291   -2.2881    0.0000 H   0  0  0  0  0  0  0  0  0  0  0  0
    2.0560   -3.1350    0.0000 H   0  0  0  0  0  0  0  0  0  0  0  0
    2.9030   -2.9081    0.0000 H   0  0  0  0  0  0  0  0  0  0  0  0
    3.9030   -1.1760    0.0000 H   0  0  0  0  0  0  0  0  0  0  0  0
    3.6760   -0.3291    0.0000 H   0  0  0  0  0  0  0  0  0  0  0  0
    2.8291   -0.5560    0.0000 H   0  0  0  0  0  0  0  0  0  0  0  0
  1  4  1  0  0  0  0
  1 13  1  0  0  0  0
  1 14  1  0  0  0  0
  1 15  1  0  0  0  0
  2  5  1  0  0  0  0
  2 17  1  0  0  0  0
  2 18  1  0  0  0  0
  2 19  1  0  0  0  0
  3  6  1  0  0  0  0
  3 20  1  0  0  0  0
  3 21  1  0  0  0  0
  3 22  1  0  0  0  0
  4  8  1  0  0  0  0
  5 12  1  0  0  0  0
  6 16  1  0  0  0  0
  7 16  2  0  0  0  0
  8  9  1  0  0  0  0
  8 10  1  0  0  0  0
  8 11  1  0  0  0  0
  9 12  1  0  0  0  0
  9 23  1  0  0  0  0
  9 24  1  0  0  0  0
 10 16  1  0  0  0  0
 10 25  1  0  0  0  0
 10 26  1  0  0  0  0
 11 27  1  0  0  0  0
 11 28  1  0  0  0  0
 11 29  1  0  0  0  0
 12 30  1  0  0  0  0
 12 31  1  0  0  0  0
 13 32  1  0  0  0  0
 13 33  1  0  0  0  0
 13 34  1  0  0  0  0
 14 35  1  0  0  0  0
 14 36  1  0  0  0  0
 14 37  1  0  0  0  0
 15 38  1  0  0  0  0
 15 39  1  0  0  0  0
 15 40  1  0  0  0  0
 17 41  1  0  0  0  0
 17 42  1  0  0  0  0
 17 43  1  0  0  0  0
 18 44  1  0  0  0  0
 18 45  1  0  0  0  0
 18 46  1  0  0  0  0
 19 47  1  0  0  0  0
 19 48  1  0  0  0  0
 19 49  1  0  0  0  0
 20 50  1  0  0  0  0
 20 51  1  0  0  0  0
 20 52  1  0  0  0  0
 21 53  1  0  0  0  0
 21 54  1  0  0  0  0
 21 55  1  0  0  0  0
 22 56  1  0  0  0  0
 22 57  1  0  0  0  0
 22 58  1  0  0  0  0
M  END
> <PUBCHEM_COMPOUND_CID>
523315
> <PUBCHEM_COMPOUND_CANONICALIZED>
1
> <PUBCHEM_CACTVS_COMPLEXITY>
367
> <PUBCHEM_CACTVS_HBOND_ACCEPTOR>
4
> <PUBCHEM_CACTVS_HBOND_DONOR>
0
> <PUBCHEM_CACTVS_ROTATABLE_BOND>
10
> <PUBCHEM_CACTVS_SUBSKEYS>
AAADcfBwOAwAAAAAAAAAAAAAAAAAAAAAAAAAAAAAAAAAAAAAAAAAGhAAAEAADESggAJCCAAAAAEIAACQCAAAAAAAAAAAAAEAAAAAABYAAAAAAAAFIAAAAACIJAAKAAAAAAAAAAAAAAAAAAAAAAAAAAAAAA==
> <PUBCHEM_IUPAC_OPENEYE_NAME>
trimethylsilyl 3-methyl-3,5-bis(trimethylsilyloxy)pentanoate
> <PUBCHEM_IUPAC_CAS_NAME>
3-methyl-3,5-bis(trimethylsilyloxy)pentanoic acid trimethylsilyl ester
> <PUBCHEM_IUPAC_NAME_MARKUP>
trimethylsilyl 3-methyl-3,5-bis(trimethylsilyloxy)pentanoate
> <PUBCHEM_IUPAC_NAME>
trimethylsilyl 3-methyl-3,5-bis(trimethylsilyloxy)pentanoate
> <PUBCHEM_IUPAC_SYSTEMATIC_NAME>
trimethylsilyl 3-methyl-3,5-bis(trimethylsilyloxy)pentanoate
> <PUBCHEM_IUPAC_TRADITIONAL_NAME>
3-methyl-3,5-bis(trimethylsilyloxy)valeric acid trimethylsilyl ester
> <PUBCHEM_IUPAC_INCHI>
InChI=1S/C15H36O4Si3/c1-15(19-22(8,9)10,11-12-17-20(2,3)4)13-14(16)18-21(5,6)7/h11-13H2,1-10H3
> <PUBCHEM_IUPAC_INCHIKEY>
HUAKLDAFGDRXAP-UHFFFAOYSA-N
> <PUBCHEM_EXACT_MASS>
364.19213923
> <PUBCHEM_MOLECULAR_FORMULA>
C15H36O4Si3
> <PUBCHEM_MOLECULAR_WEIGHT>
364.70
> <PUBCHEM_OPENEYE_CAN_SMILES>
CC(CCO[Si](C)(C)C)(CC(=O)O[Si](C)(C)C)O[Si](C)(C)C
> <PUBCHEM_OPENEYE_ISO_SMILES>
CC(CCO[Si](C)(C)C)(CC(=O)O[Si](C)(C)C)O[Si](C)(C)C
> <PUBCHEM_CACTVS_TPSA>
44.8
> <PUBCHEM_MONOISOTOPIC_WEIGHT>
364.19213923
> <PUBCHEM_TOTAL_CHARGE>
0
> <PUBCHEM_HEAVY_ATOM_COUNT>
22
> <PUBCHEM_ATOM_DEF_STEREO_COUNT>
0
> <PUBCHEM_ATOM_UDEF_STEREO_COUNT>
1
> <PUBCHEM_BOND_DEF_STEREO_COUNT>
0
> <PUBCHEM_BOND_UDEF_STEREO_COUNT>
0
> <PUBCHEM_ISOTOPIC_ATOM_COUNT>
0
> <PUBCHEM_COMPONENT_COUNT>
1
> <PUBCHEM_CACTVS_TAUTO_COUNT>
-1
> <PUBCHEM_COORDINATE_TYPE>
1
5
255
> <PUBCHEM_BONDANNOTATIONS>
8  11  3
$$$$
