523355
  -OEChem-10302200292D
 41 41  0     1  0  0  0  0  0999 V2000
    6.2420    1.1739    0.0000 Si  0  0  0  0  0  0  0  0  0  0  0  0
    2.9136   -0.4039    0.0000 Si  0  0  0  0  0  0  0  0  0  0  0  0
    6.1374    0.1794    0.0000 O   0  0  0  0  0  0  0  0  0  0  0  0
    3.8271   -0.8107    0.0000 O   0  0  0  0  0  0  0  0  0  0  0  0
    6.0496   -2.1684    0.0000 O   0  0  0  0  0  0  0  0  0  0  0  0
    7.3097   -0.9084    0.0000 O   0  0  0  0  0  0  0  0  0  0  0  0
    5.5496   -0.6296    0.0000 C   0  0  3  0  0  0  0  0  0  0  0  0
    4.7406   -1.2174    0.0000 C   0  0  0  0  0  0  0  0  0  0  0  0
    4.6361   -0.2229    0.0000 C   0  0  0  0  0  0  0  0  0  0  0  0
    5.0496   -2.1684    0.0000 C   0  0  0  0  0  0  0  0  0  0  0  0
    6.3587   -1.2174    0.0000 C   0  0  0  0  0  0  0  0  0  0  0  0
    6.3465    2.1684    0.0000 C   0  0  0  0  0  0  0  0  0  0  0  0
    7.2365    1.0694    0.0000 C   0  0  0  0  0  0  0  0  0  0  0  0
    5.2474    1.2785    0.0000 C   0  0  0  0  0  0  0  0  0  0  0  0
    2.0000    0.0028    0.0000 C   0  0  0  0  0  0  0  0  0  0  0  0
    2.5068   -1.3175    0.0000 C   0  0  0  0  0  0  0  0  0  0  0  0
    3.3203    0.5096    0.0000 C   0  0  0  0  0  0  0  0  0  0  0  0
    4.4306   -0.6805    0.0000 H   0  0  0  0  0  0  0  0  0  0  0  0
    4.1742   -1.4696    0.0000 H   0  0  0  0  0  0  0  0  0  0  0  0
    4.9828    0.2911    0.0000 H   0  0  0  0  0  0  0  0  0  0  0  0
    4.1901    0.2078    0.0000 H   0  0  0  0  0  0  0  0  0  0  0  0
    4.4432   -2.2974    0.0000 H   0  0  0  0  0  0  0  0  0  0  0  0
    5.1145   -2.7850    0.0000 H   0  0  0  0  0  0  0  0  0  0  0  0
    6.9631    2.1036    0.0000 H   0  0  0  0  0  0  0  0  0  0  0  0
    6.4113    2.7850    0.0000 H   0  0  0  0  0  0  0  0  0  0  0  0
    5.7299    2.2333    0.0000 H   0  0  0  0  0  0  0  0  0  0  0  0
    7.1717    0.4528    0.0000 H   0  0  0  0  0  0  0  0  0  0  0  0
    7.8531    1.0046    0.0000 H   0  0  0  0  0  0  0  0  0  0  0  0
    7.3013    1.6860    0.0000 H   0  0  0  0  0  0  0  0  0  0  0  0
    5.3122    1.8951    0.0000 H   0  0  0  0  0  0  0  0  0  0  0  0
    4.6308    1.3433    0.0000 H   0  0  0  0  0  0  0  0  0  0  0  0
    5.1826    0.6619    0.0000 H   0  0  0  0  0  0  0  0  0  0  0  0
    2.2522    0.5692    0.0000 H   0  0  0  0  0  0  0  0  0  0  0  0
    1.4336    0.2550    0.0000 H   0  0  0  0  0  0  0  0  0  0  0  0
    1.7478   -0.5636    0.0000 H   0  0  0  0  0  0  0  0  0  0  0  0
    1.9404   -1.0653    0.0000 H   0  0  0  0  0  0  0  0  0  0  0  0
    2.2546   -1.8839    0.0000 H   0  0  0  0  0  0  0  0  0  0  0  0
    3.0732   -1.5696    0.0000 H   0  0  0  0  0  0  0  0  0  0  0  0
    3.8867    0.2574    0.0000 H   0  0  0  0  0  0  0  0  0  0  0  0
    3.5725    1.0760    0.0000 H   0  0  0  0  0  0  0  0  0  0  0  0
    2.7539    0.7618    0.0000 H   0  0  0  0  0  0  0  0  0  0  0  0
  1  3  1  0  0  0  0
  1 12  1  0  0  0  0
  1 13  1  0  0  0  0
  1 14  1  0  0  0  0
  2  4  1  0  0  0  0
  2 15  1  0  0  0  0
  2 16  1  0  0  0  0
  2 17  1  0  0  0  0
  3  7  1  0  0  0  0
  4  9  1  0  0  0  0
  5 10  1  0  0  0  0
  5 11  1  0  0  0  0
  6 11  2  0  0  0  0
  7  8  1  0  0  0  0
  7  9  1  0  0  0  0
  7 11  1  0  0  0  0
  8 10  1  0  0  0  0
  8 18  1  0  0  0  0
  8 19  1  0  0  0  0
  9 20  1  0  0  0  0
  9 21  1  0  0  0  0
 10 22  1  0  0  0  0
 10 23  1  0  0  0  0
 12 24  1  0  0  0  0
 12 25  1  0  0  0  0
 12 26  1  0  0  0  0
 13 27  1  0  0  0  0
 13 28  1  0  0  0  0
 13 29  1  0  0  0  0
 14 30  1  0  0  0  0
 14 31  1  0  0  0  0
 14 32  1  0  0  0  0
 15 33  1  0  0  0  0
 15 34  1  0  0  0  0
 15 35  1  0  0  0  0
 16 36  1  0  0  0  0
 16 37  1  0  0  0  0
 16 38  1  0  0  0  0
 17 39  1  0  0  0  0
 17 40  1  0  0  0  0
 17 41  1  0  0  0  0
M  END
> <PUBCHEM_COMPOUND_CID>
523355
> <PUBCHEM_COMPOUND_CANONICALIZED>
1
> <PUBCHEM_CACTVS_COMPLEXITY>
293
> <PUBCHEM_CACTVS_HBOND_ACCEPTOR>
4
> <PUBCHEM_CACTVS_HBOND_DONOR>
0
> <PUBCHEM_CACTVS_ROTATABLE_BOND>
5
> <PUBCHEM_CACTVS_SUBSKEYS>
AAADceBwOAwAAAAAAAAAAAAAAAAAASAAAAAAAAAAAAAAAAAAAAAAGhAAAEAADESggAJCCAAABAEIAACQCAIAAAAAAAAAAAFAAAABABQAAAACAAAFIAACAABCAAAIAAAAAAAAAAAAAAAAAAAAAAAAAAAAAA==
> <PUBCHEM_IUPAC_OPENEYE_NAME>
3-trimethylsilyloxy-3-(trimethylsilyloxymethyl)tetrahydrofuran-2-one
> <PUBCHEM_IUPAC_CAS_NAME>
3-trimethylsilyloxy-3-(trimethylsilyloxymethyl)-2-oxolanone
> <PUBCHEM_IUPAC_NAME_MARKUP>
3-trimethylsilyloxy-3-(trimethylsilyloxymethyl)oxolan-2-one
> <PUBCHEM_IUPAC_NAME>
3-trimethylsilyloxy-3-(trimethylsilyloxymethyl)oxolan-2-one
> <PUBCHEM_IUPAC_SYSTEMATIC_NAME>
3-trimethylsilyloxy-3-(trimethylsilyloxymethyl)oxolan-2-one
> <PUBCHEM_IUPAC_TRADITIONAL_NAME>
3-trimethylsilyloxy-3-(trimethylsilyloxymethyl)tetrahydrofuran-2-one
> <PUBCHEM_IUPAC_INCHI>
InChI=1S/C11H24O4Si2/c1-16(2,3)14-9-11(15-17(4,5)6)7-8-13-10(11)12/h7-9H2,1-6H3
> <PUBCHEM_IUPAC_INCHIKEY>
FGIXDNRNJCTTJD-UHFFFAOYSA-N
> <PUBCHEM_EXACT_MASS>
276.12131231
> <PUBCHEM_MOLECULAR_FORMULA>
C11H24O4Si2
> <PUBCHEM_MOLECULAR_WEIGHT>
276.48
> <PUBCHEM_OPENEYE_CAN_SMILES>
C[Si](C)(C)OCC1(CCOC1=O)O[Si](C)(C)C
> <PUBCHEM_OPENEYE_ISO_SMILES>
C[Si](C)(C)OCC1(CCOC1=O)O[Si](C)(C)C
> <PUBCHEM_CACTVS_TPSA>
44.8
> <PUBCHEM_MONOISOTOPIC_WEIGHT>
276.12131231
> <PUBCHEM_TOTAL_CHARGE>
0
> <PUBCHEM_HEAVY_ATOM_COUNT>
17
> <PUBCHEM_ATOM_DEF_STEREO_COUNT>
0
> <PUBCHEM_ATOM_UDEF_STEREO_COUNT>
1
> <PUBCHEM_BOND_DEF_STEREO_COUNT>
0
> <PUBCHEM_BOND_UDEF_STEREO_COUNT>
0
> <PUBCHEM_ISOTOPIC_ATOM_COUNT>
0
> <PUBCHEM_COMPONENT_COUNT>
1
> <PUBCHEM_CACTVS_TAUTO_COUNT>
1
> <PUBCHEM_COORDINATE_TYPE>
1
5
255
> <PUBCHEM_BONDANNOTATIONS>
7  9  3
$$$$
