523347
  -OEChem-10302200292D
 55 54  0     1  0  0  0  0  0999 V2000
    3.7320    2.1830    0.0000 Si  0  0  0  0  0  0  0  0  0  0  0  0
    2.8660   -2.3170    0.0000 Si  0  0  0  0  0  0  0  0  0  0  0  0
    7.1962    1.1830    0.0000 Si  0  0  0  0  0  0  0  0  0  0  0  0
    3.7320    1.1830    0.0000 O   0  0  0  0  0  0  0  0  0  0  0  0
    3.7320   -1.8170    0.0000 O   0  0  0  0  0  0  0  0  0  0  0  0
    6.3301    0.6830    0.0000 O   0  0  0  0  0  0  0  0  0  0  0  0
    5.4641    2.1830    0.0000 O   0  0  0  0  0  0  0  0  0  0  0  0
    4.5981   -0.3170    0.0000 C   0  0  0  0  0  0  0  0  0  0  0  0
    4.5981    0.6830    0.0000 C   0  0  1  0  0  0  0  0  0  0  0  0
    3.7320   -0.8170    0.0000 C   0  0  1  0  0  0  0  0  0  0  0  0
    2.8660   -0.3170    0.0000 C   0  0  0  0  0  0  0  0  0  0  0  0
    5.4641    1.1830    0.0000 C   0  0  0  0  0  0  0  0  0  0  0  0
    3.7320    3.1830    0.0000 C   0  0  0  0  0  0  0  0  0  0  0  0
    2.7320    2.1830    0.0000 C   0  0  0  0  0  0  0  0  0  0  0  0
    4.7320    2.1830    0.0000 C   0  0  0  0  0  0  0  0  0  0  0  0
    2.0000   -2.8170    0.0000 C   0  0  0  0  0  0  0  0  0  0  0  0
    3.3660   -3.1830    0.0000 C   0  0  0  0  0  0  0  0  0  0  0  0
    2.3660   -1.4510    0.0000 C   0  0  0  0  0  0  0  0  0  0  0  0
    8.0622    1.6830    0.0000 C   0  0  0  0  0  0  0  0  0  0  0  0
    7.6962    0.3170    0.0000 C   0  0  0  0  0  0  0  0  0  0  0  0
    6.6962    2.0490    0.0000 C   0  0  0  0  0  0  0  0  0  0  0  0
    4.8101   -0.8996    0.0000 H   0  0  0  0  0  0  0  0  0  0  0  0
    5.2087   -0.2093    0.0000 H   0  0  0  0  0  0  0  0  0  0  0  0
    4.5981    1.3030    0.0000 H   0  0  0  0  0  0  0  0  0  0  0  0
    4.2690   -1.1270    0.0000 H   0  0  0  0  0  0  0  0  0  0  0  0
    3.1760    0.2199    0.0000 H   0  0  0  0  0  0  0  0  0  0  0  0
    2.3291   -0.0070    0.0000 H   0  0  0  0  0  0  0  0  0  0  0  0
    2.5560   -0.8539    0.0000 H   0  0  0  0  0  0  0  0  0  0  0  0
    4.3520    3.1830    0.0000 H   0  0  0  0  0  0  0  0  0  0  0  0
    3.7320    3.8030    0.0000 H   0  0  0  0  0  0  0  0  0  0  0  0
    3.1120    3.1830    0.0000 H   0  0  0  0  0  0  0  0  0  0  0  0
    2.7320    2.8030    0.0000 H   0  0  0  0  0  0  0  0  0  0  0  0
    2.1120    2.1830    0.0000 H   0  0  0  0  0  0  0  0  0  0  0  0
    2.7320    1.5630    0.0000 H   0  0  0  0  0  0  0  0  0  0  0  0
    4.7320    1.5630    0.0000 H   0  0  0  0  0  0  0  0  0  0  0  0
    5.3520    2.1830    0.0000 H   0  0  0  0  0  0  0  0  0  0  0  0
    4.7320    2.8030    0.0000 H   0  0  0  0  0  0  0  0  0  0  0  0
    1.6900   -2.2800    0.0000 H   0  0  0  0  0  0  0  0  0  0  0  0
    1.4631   -3.1270    0.0000 H   0  0  0  0  0  0  0  0  0  0  0  0
    2.3100   -3.3539    0.0000 H   0  0  0  0  0  0  0  0  0  0  0  0
    2.8291   -3.4930    0.0000 H   0  0  0  0  0  0  0  0  0  0  0  0
    3.6760   -3.7200    0.0000 H   0  0  0  0  0  0  0  0  0  0  0  0
    3.9030   -2.8730    0.0000 H   0  0  0  0  0  0  0  0  0  0  0  0
    2.9030   -1.1410    0.0000 H   0  0  0  0  0  0  0  0  0  0  0  0
    2.0560   -0.9140    0.0000 H   0  0  0  0  0  0  0  0  0  0  0  0
    1.8291   -1.7610    0.0000 H   0  0  0  0  0  0  0  0  0  0  0  0
    8.3722    1.1461    0.0000 H   0  0  0  0  0  0  0  0  0  0  0  0
    8.5991    1.9930    0.0000 H   0  0  0  0  0  0  0  0  0  0  0  0
    7.7522    2.2200    0.0000 H   0  0  0  0  0  0  0  0  0  0  0  0
    7.1592    0.0070    0.0000 H   0  0  0  0  0  0  0  0  0  0  0  0
    8.0062   -0.2199    0.0000 H   0  0  0  0  0  0  0  0  0  0  0  0
    8.2331    0.6270    0.0000 H   0  0  0  0  0  0  0  0  0  0  0  0
    7.2331    2.3590    0.0000 H   0  0  0  0  0  0  0  0  0  0  0  0
    6.3862    2.5860    0.0000 H   0  0  0  0  0  0  0  0  0  0  0  0
    6.1592    1.7390    0.0000 H   0  0  0  0  0  0  0  0  0  0  0  0
  1  4  1  0  0  0  0
  1 13  1  0  0  0  0
  1 14  1  0  0  0  0
  1 15  1  0  0  0  0
  2  5  1  0  0  0  0
  2 16  1  0  0  0  0
  2 17  1  0  0  0  0
  2 18  1  0  0  0  0
  3  6  1  0  0  0  0
  3 19  1  0  0  0  0
  3 20  1  0  0  0  0
  3 21  1  0  0  0  0
  9  4  1  6  0  0  0
 10  5  1  6  0  0  0
  6 12  1  0  0  0  0
  7 12  2  0  0  0  0
  8  9  1  0  0  0  0
  8 10  1  0  0  0  0
  8 22  1  0  0  0  0
  8 23  1  0  0  0  0
  9 12  1  0  0  0  0
  9 24  1  0  0  0  0
 10 11  1  0  0  0  0
 10 25  1  0  0  0  0
 11 26  1  0  0  0  0
 11 27  1  0  0  0  0
 11 28  1  0  0  0  0
 13 29  1  0  0  0  0
 13 30  1  0  0  0  0
 13 31  1  0  0  0  0
 14 32  1  0  0  0  0
 14 33  1  0  0  0  0
 14 34  1  0  0  0  0
 15 35  1  0  0  0  0
 15 36  1  0  0  0  0
 15 37  1  0  0  0  0
 16 38  1  0  0  0  0
 16 39  1  0  0  0  0
 16 40  1  0  0  0  0
 17 41  1  0  0  0  0
 17 42  1  0  0  0  0
 17 43  1  0  0  0  0
 18 44  1  0  0  0  0
 18 45  1  0  0  0  0
 18 46  1  0  0  0  0
 19 47  1  0  0  0  0
 19 48  1  0  0  0  0
 19 49  1  0  0  0  0
 20 50  1  0  0  0  0
 20 51  1  0  0  0  0
 20 52  1  0  0  0  0
 21 53  1  0  0  0  0
 21 54  1  0  0  0  0
 21 55  1  0  0  0  0
M  END
> <PUBCHEM_COMPOUND_CID>
523347
> <PUBCHEM_COMPOUND_CANONICALIZED>
1
> <PUBCHEM_CACTVS_COMPLEXITY>
340
> <PUBCHEM_CACTVS_HBOND_ACCEPTOR>
4
> <PUBCHEM_CACTVS_HBOND_DONOR>
0
> <PUBCHEM_CACTVS_ROTATABLE_BOND>
9
> <PUBCHEM_CACTVS_SUBSKEYS>
AAADcfBwOAwAAAAAAAAAAAAAAAAAAAAAAAAAAAAAAAAAAAAAAAAAGhAAAEAACBSggAJCCAAAAAEIAACQCAIAAAAAAAAAAAFAAAABABIAAAAAAAAFAAAAAADKAAAAAAAAAAAAAAAAAAAAAAAAAAAAAAAAAA==
> <PUBCHEM_IUPAC_OPENEYE_NAME>
trimethylsilyl (2S,4R)-2,4-bis(trimethylsilyloxy)pentanoate
> <PUBCHEM_IUPAC_CAS_NAME>
(2S,4R)-2,4-bis(trimethylsilyloxy)pentanoic acid trimethylsilyl ester
> <PUBCHEM_IUPAC_NAME_MARKUP>
trimethylsilyl (2<I>S</I>,4<I>R</I>)-2,4-bis(trimethylsilyloxy)pentanoate
> <PUBCHEM_IUPAC_NAME>
trimethylsilyl (2S,4R)-2,4-bis(trimethylsilyloxy)pentanoate
> <PUBCHEM_IUPAC_SYSTEMATIC_NAME>
trimethylsilyl (2S,4R)-2,4-bis(trimethylsilyloxy)pentanoate
> <PUBCHEM_IUPAC_TRADITIONAL_NAME>
(2S,4R)-2,4-bis(trimethylsilyloxy)valeric acid trimethylsilyl ester
> <PUBCHEM_IUPAC_INCHI>
InChI=1S/C14H34O4Si3/c1-12(16-19(2,3)4)11-13(17-20(5,6)7)14(15)18-21(8,9)10/h12-13H,11H2,1-10H3/t12-,13+/m1/s1
> <PUBCHEM_IUPAC_INCHIKEY>
KDUBUBHHCGXSBY-OLZOCXBDSA-N
> <PUBCHEM_EXACT_MASS>
350.17648916
> <PUBCHEM_MOLECULAR_FORMULA>
C14H34O4Si3
> <PUBCHEM_MOLECULAR_WEIGHT>
350.67
> <PUBCHEM_OPENEYE_CAN_SMILES>
CC(CC(C(=O)O[Si](C)(C)C)O[Si](C)(C)C)O[Si](C)(C)C
> <PUBCHEM_OPENEYE_ISO_SMILES>
C[C@H](C[C@@H](C(=O)O[Si](C)(C)C)O[Si](C)(C)C)O[Si](C)(C)C
> <PUBCHEM_CACTVS_TPSA>
44.8
> <PUBCHEM_MONOISOTOPIC_WEIGHT>
350.17648916
> <PUBCHEM_TOTAL_CHARGE>
0
> <PUBCHEM_HEAVY_ATOM_COUNT>
21
> <PUBCHEM_ATOM_DEF_STEREO_COUNT>
2
> <PUBCHEM_ATOM_UDEF_STEREO_COUNT>
0
> <PUBCHEM_BOND_DEF_STEREO_COUNT>
0
> <PUBCHEM_BOND_UDEF_STEREO_COUNT>
0
> <PUBCHEM_ISOTOPIC_ATOM_COUNT>
0
> <PUBCHEM_COMPONENT_COUNT>
1
> <PUBCHEM_CACTVS_TAUTO_COUNT>
-1
> <PUBCHEM_COORDINATE_TYPE>
1
5
255
> <PUBCHEM_BONDANNOTATIONS>
9  4  6
10  5  6
$$$$
