523372
  -OEChem-10302200292D
 71 70  0     1  0  0  0  0  0999 V2000
    4.5981   -1.3170    0.0000 Si  0  0  0  0  0  0  0  0  0  0  0  0
    8.0622   -1.3170    0.0000 Si  0  0  0  0  0  0  0  0  0  0  0  0
    2.8660    0.6830    0.0000 Si  0  0  0  0  0  0  0  0  0  0  0  0
    9.7942    0.6830    0.0000 Si  0  0  0  0  0  0  0  0  0  0  0  0
    5.4641   -0.8170    0.0000 O   0  0  0  0  0  0  0  0  0  0  0  0
    7.1962   -0.8170    0.0000 O   0  0  0  0  0  0  0  0  0  0  0  0
    6.3301    1.6830    0.0000 O   0  0  0  0  0  0  0  0  0  0  0  0
    3.7320    0.1830    0.0000 O   0  0  0  0  0  0  0  0  0  0  0  0
    8.9282    0.1830    0.0000 O   0  0  0  0  0  0  0  0  0  0  0  0
    4.5981    1.6830    0.0000 O   0  0  0  0  0  0  0  0  0  0  0  0
    8.0622    1.6830    0.0000 O   0  0  0  0  0  0  0  0  0  0  0  0
    6.3301    0.6830    0.0000 C   0  0  0  0  0  0  0  0  0  0  0  0
    5.4641    0.1830    0.0000 C   0  0  2  0  0  0  0  0  0  0  0  0
    7.1962    0.1830    0.0000 C   0  0  2  0  0  0  0  0  0  0  0  0
    4.5981    0.6830    0.0000 C   0  0  0  0  0  0  0  0  0  0  0  0
    8.0622    0.6830    0.0000 C   0  0  0  0  0  0  0  0  0  0  0  0
    3.7320   -1.8170    0.0000 C   0  0  0  0  0  0  0  0  0  0  0  0
    5.0981   -2.1830    0.0000 C   0  0  0  0  0  0  0  0  0  0  0  0
    4.0981   -0.4510    0.0000 C   0  0  0  0  0  0  0  0  0  0  0  0
    8.9282   -1.8170    0.0000 C   0  0  0  0  0  0  0  0  0  0  0  0
    7.5622   -2.1830    0.0000 C   0  0  0  0  0  0  0  0  0  0  0  0
    8.5622   -0.4510    0.0000 C   0  0  0  0  0  0  0  0  0  0  0  0
    7.1962    2.1830    0.0000 C   0  0  0  0  0  0  0  0  0  0  0  0
    2.0000    1.1830    0.0000 C   0  0  0  0  0  0  0  0  0  0  0  0
    2.3660   -0.1830    0.0000 C   0  0  0  0  0  0  0  0  0  0  0  0
    3.3660    1.5490    0.0000 C   0  0  0  0  0  0  0  0  0  0  0  0
   10.6603    1.1830    0.0000 C   0  0  0  0  0  0  0  0  0  0  0  0
   10.2942   -0.1830    0.0000 C   0  0  0  0  0  0  0  0  0  0  0  0
    9.2942    1.5490    0.0000 C   0  0  0  0  0  0  0  0  0  0  0  0
    6.8671    0.9930    0.0000 H   0  0  0  0  0  0  0  0  0  0  0  0
    6.0010   -0.1270    0.0000 H   0  0  0  0  0  0  0  0  0  0  0  0
    6.6592   -0.1270    0.0000 H   0  0  0  0  0  0  0  0  0  0  0  0
    3.4220   -1.2800    0.0000 H   0  0  0  0  0  0  0  0  0  0  0  0
    3.1951   -2.1270    0.0000 H   0  0  0  0  0  0  0  0  0  0  0  0
    4.0420   -2.3539    0.0000 H   0  0  0  0  0  0  0  0  0  0  0  0
    4.5611   -2.4930    0.0000 H   0  0  0  0  0  0  0  0  0  0  0  0
    5.4081   -2.7200    0.0000 H   0  0  0  0  0  0  0  0  0  0  0  0
    5.6350   -1.8730    0.0000 H   0  0  0  0  0  0  0  0  0  0  0  0
    4.6350   -0.1410    0.0000 H   0  0  0  0  0  0  0  0  0  0  0  0
    3.7881    0.0860    0.0000 H   0  0  0  0  0  0  0  0  0  0  0  0
    3.5611   -0.7610    0.0000 H   0  0  0  0  0  0  0  0  0  0  0  0
    8.6182   -2.3539    0.0000 H   0  0  0  0  0  0  0  0  0  0  0  0
    9.4651   -2.1270    0.0000 H   0  0  0  0  0  0  0  0  0  0  0  0
    9.2382   -1.2800    0.0000 H   0  0  0  0  0  0  0  0  0  0  0  0
    7.0252   -1.8730    0.0000 H   0  0  0  0  0  0  0  0  0  0  0  0
    7.2522   -2.7200    0.0000 H   0  0  0  0  0  0  0  0  0  0  0  0
    8.0991   -2.4930    0.0000 H   0  0  0  0  0  0  0  0  0  0  0  0
    9.0991   -0.7610    0.0000 H   0  0  0  0  0  0  0  0  0  0  0  0
    8.8722    0.0860    0.0000 H   0  0  0  0  0  0  0  0  0  0  0  0
    8.0252   -0.1410    0.0000 H   0  0  0  0  0  0  0  0  0  0  0  0
    7.5062    1.6461    0.0000 H   0  0  0  0  0  0  0  0  0  0  0  0
    7.7331    2.4930    0.0000 H   0  0  0  0  0  0  0  0  0  0  0  0
    6.8862    2.7200    0.0000 H   0  0  0  0  0  0  0  0  0  0  0  0
    2.3100    1.7200    0.0000 H   0  0  0  0  0  0  0  0  0  0  0  0
    1.4631    1.4930    0.0000 H   0  0  0  0  0  0  0  0  0  0  0  0
    1.6900    0.6461    0.0000 H   0  0  0  0  0  0  0  0  0  0  0  0
    1.8291    0.1270    0.0000 H   0  0  0  0  0  0  0  0  0  0  0  0
    2.0560   -0.7199    0.0000 H   0  0  0  0  0  0  0  0  0  0  0  0
    2.9030   -0.4930    0.0000 H   0  0  0  0  0  0  0  0  0  0  0  0
    3.9030    1.2390    0.0000 H   0  0  0  0  0  0  0  0  0  0  0  0
    3.6760    2.0860    0.0000 H   0  0  0  0  0  0  0  0  0  0  0  0
    2.8291    1.8590    0.0000 H   0  0  0  0  0  0  0  0  0  0  0  0
   10.9703    0.6461    0.0000 H   0  0  0  0  0  0  0  0  0  0  0  0
   11.1972    1.4930    0.0000 H   0  0  0  0  0  0  0  0  0  0  0  0
   10.3503    1.7200    0.0000 H   0  0  0  0  0  0  0  0  0  0  0  0
    9.7573   -0.4930    0.0000 H   0  0  0  0  0  0  0  0  0  0  0  0
   10.6042   -0.7199    0.0000 H   0  0  0  0  0  0  0  0  0  0  0  0
   10.8312    0.1270    0.0000 H   0  0  0  0  0  0  0  0  0  0  0  0
    9.8312    1.8590    0.0000 H   0  0  0  0  0  0  0  0  0  0  0  0
    8.9842    2.0860    0.0000 H   0  0  0  0  0  0  0  0  0  0  0  0
    8.7573    1.2390    0.0000 H   0  0  0  0  0  0  0  0  0  0  0  0
  1  5  1  0  0  0  0
  1 17  1  0  0  0  0
  1 18  1  0  0  0  0
  1 19  1  0  0  0  0
  2  6  1  0  0  0  0
  2 20  1  0  0  0  0
  2 21  1  0  0  0  0
  2 22  1  0  0  0  0
  3  8  1  0  0  0  0
  3 24  1  0  0  0  0
  3 25  1  0  0  0  0
  3 26  1  0  0  0  0
  4  9  1  0  0  0  0
  4 27  1  0  0  0  0
  4 28  1  0  0  0  0
  4 29  1  0  0  0  0
 13  5  1  1  0  0  0
 14  6  1  6  0  0  0
  7 12  1  0  0  0  0
  7 23  1  0  0  0  0
  8 15  1  0  0  0  0
  9 16  1  0  0  0  0
 10 15  2  0  0  0  0
 11 16  2  0  0  0  0
 12 13  1  0  0  0  0
 12 14  1  0  0  0  0
 12 30  1  0  0  0  0
 13 15  1  0  0  0  0
 13 31  1  0  0  0  0
 14 16  1  0  0  0  0
 14 32  1  0  0  0  0
 17 33  1  0  0  0  0
 17 34  1  0  0  0  0
 17 35  1  0  0  0  0
 18 36  1  0  0  0  0
 18 37  1  0  0  0  0
 18 38  1  0  0  0  0
 19 39  1  0  0  0  0
 19 40  1  0  0  0  0
 19 41  1  0  0  0  0
 20 42  1  0  0  0  0
 20 43  1  0  0  0  0
 20 44  1  0  0  0  0
 21 45  1  0  0  0  0
 21 46  1  0  0  0  0
 21 47  1  0  0  0  0
 22 48  1  0  0  0  0
 22 49  1  0  0  0  0
 22 50  1  0  0  0  0
 23 51  1  0  0  0  0
 23 52  1  0  0  0  0
 23 53  1  0  0  0  0
 24 54  1  0  0  0  0
 24 55  1  0  0  0  0
 24 56  1  0  0  0  0
 25 57  1  0  0  0  0
 25 58  1  0  0  0  0
 25 59  1  0  0  0  0
 26 60  1  0  0  0  0
 26 61  1  0  0  0  0
 26 62  1  0  0  0  0
 27 63  1  0  0  0  0
 27 64  1  0  0  0  0
 27 65  1  0  0  0  0
 28 66  1  0  0  0  0
 28 67  1  0  0  0  0
 28 68  1  0  0  0  0
 29 69  1  0  0  0  0
 29 70  1  0  0  0  0
 29 71  1  0  0  0  0
M  END
> <PUBCHEM_COMPOUND_CID>
523372
> <PUBCHEM_COMPOUND_CANONICALIZED>
1
> <PUBCHEM_CACTVS_COMPLEXITY>
509
> <PUBCHEM_CACTVS_HBOND_ACCEPTOR>
7
> <PUBCHEM_CACTVS_HBOND_DONOR>
0
> <PUBCHEM_CACTVS_ROTATABLE_BOND>
13
> <PUBCHEM_CACTVS_SUBSKEYS>
AAADcfB4OAwAAAAAAAAAAAAAAAAAAAAAAAAAAAAAAAAAAAAAAAAAGhAAAEAACBSggAJCCAAABAEIAACQCAIAAAAAAAAAAAFAAAABABYAAAAAAAAFIAACAADKJgAAAAAAAAAAAAAAAAAAAAAAAAAAAAAAAA==
> <PUBCHEM_IUPAC_OPENEYE_NAME>
bis(trimethylsilyl) (2R,4R)-3-methoxy-2,4-bis(trimethylsilyloxy)pentanedioate
> <PUBCHEM_IUPAC_CAS_NAME>
(2R,4R)-3-methoxy-2,4-bis(trimethylsilyloxy)pentanedioic acid bis(trimethylsilyl) ester
> <PUBCHEM_IUPAC_NAME_MARKUP>
bis(trimethylsilyl) (2<I>R</I>,4<I>R</I>)-3-methoxy-2,4-bis(trimethylsilyloxy)pentanedioate
> <PUBCHEM_IUPAC_NAME>
bis(trimethylsilyl) (2R,4R)-3-methoxy-2,4-bis(trimethylsilyloxy)pentanedioate
> <PUBCHEM_IUPAC_SYSTEMATIC_NAME>
bis(trimethylsilyl) (2R,4R)-3-methoxy-2,4-bis(trimethylsilyloxy)pentanedioate
> <PUBCHEM_IUPAC_TRADITIONAL_NAME>
(2R,4R)-3-methoxy-2,4-bis(trimethylsilyloxy)glutaric acid bis(trimethylsilyl) ester
> <PUBCHEM_IUPAC_INCHI>
InChI=1S/C18H42O7Si4/c1-21-14(15(22-26(2,3)4)17(19)24-28(8,9)10)16(23-27(5,6)7)18(20)25-29(11,12)13/h14-16H,1-13H3/t15-,16-/m1/s1
> <PUBCHEM_IUPAC_INCHIKEY>
KXFQIMOZGZNGBJ-HZPDHXFCSA-N
> <PUBCHEM_EXACT_MASS>
482.20075981
> <PUBCHEM_MOLECULAR_FORMULA>
C18H42O7Si4
> <PUBCHEM_MOLECULAR_WEIGHT>
482.9
> <PUBCHEM_OPENEYE_CAN_SMILES>
COC(C(C(=O)O[Si](C)(C)C)O[Si](C)(C)C)C(C(=O)O[Si](C)(C)C)O[Si](C)(C)C
> <PUBCHEM_OPENEYE_ISO_SMILES>
COC([C@H](C(=O)O[Si](C)(C)C)O[Si](C)(C)C)[C@H](C(=O)O[Si](C)(C)C)O[Si](C)(C)C
> <PUBCHEM_CACTVS_TPSA>
80.3
> <PUBCHEM_MONOISOTOPIC_WEIGHT>
482.20075981
> <PUBCHEM_TOTAL_CHARGE>
0
> <PUBCHEM_HEAVY_ATOM_COUNT>
29
> <PUBCHEM_ATOM_DEF_STEREO_COUNT>
2
> <PUBCHEM_ATOM_UDEF_STEREO_COUNT>
0
> <PUBCHEM_BOND_DEF_STEREO_COUNT>
0
> <PUBCHEM_BOND_UDEF_STEREO_COUNT>
0
> <PUBCHEM_ISOTOPIC_ATOM_COUNT>
0
> <PUBCHEM_COMPONENT_COUNT>
1
> <PUBCHEM_CACTVS_TAUTO_COUNT>
-1
> <PUBCHEM_COORDINATE_TYPE>
1
5
255
> <PUBCHEM_BONDANNOTATIONS>
13  5  5
14  6  6
$$$$
