523398
  -OEChem-10302200292D
 38 38  0     1  0  0  0  0  0999 V2000
    2.7431   -1.2854    0.0000 Si  0  0  0  0  0  0  0  0  0  0  0  0
    6.1124    1.1625    0.0000 Si  0  0  0  0  0  0  0  0  0  0  0  0
    3.4863   -0.6163    0.0000 O   0  0  0  0  0  0  0  0  0  0  0  0
    5.2464    0.6625    0.0000 O   0  0  0  0  0  0  0  0  0  0  0  0
    5.7464   -1.8763    0.0000 O   0  0  0  0  0  0  0  0  0  0  0  0
    7.0064   -0.6163    0.0000 O   0  0  0  0  0  0  0  0  0  0  0  0
    4.4374   -0.9253    0.0000 C   0  0  3  0  0  0  0  0  0  0  0  0
    5.2464   -0.3375    0.0000 C   0  0  3  0  0  0  0  0  0  0  0  0
    4.7464   -1.8763    0.0000 C   0  0  0  0  0  0  0  0  0  0  0  0
    6.0554   -0.9253    0.0000 C   0  0  0  0  0  0  0  0  0  0  0  0
    2.0000   -1.9545    0.0000 C   0  0  0  0  0  0  0  0  0  0  0  0
    2.0740   -0.5422    0.0000 C   0  0  0  0  0  0  0  0  0  0  0  0
    3.4123   -2.0285    0.0000 C   0  0  0  0  0  0  0  0  0  0  0  0
    6.9784    1.6625    0.0000 C   0  0  0  0  0  0  0  0  0  0  0  0
    5.6124    2.0285    0.0000 C   0  0  0  0  0  0  0  0  0  0  0  0
    6.6124    0.2965    0.0000 C   0  0  0  0  0  0  0  0  0  0  0  0
    3.9989   -1.3637    0.0000 H   0  0  0  0  0  0  0  0  0  0  0  0
    5.7988   -0.0560    0.0000 H   0  0  0  0  0  0  0  0  0  0  0  0
    4.1399   -2.0052    0.0000 H   0  0  0  0  0  0  0  0  0  0  0  0
    4.8112   -2.4929    0.0000 H   0  0  0  0  0  0  0  0  0  0  0  0
    1.5851   -1.4938    0.0000 H   0  0  0  0  0  0  0  0  0  0  0  0
    1.5392   -2.3694    0.0000 H   0  0  0  0  0  0  0  0  0  0  0  0
    2.4149   -2.4153    0.0000 H   0  0  0  0  0  0  0  0  0  0  0  0
    2.5348   -0.1274    0.0000 H   0  0  0  0  0  0  0  0  0  0  0  0
    1.6592   -0.0815    0.0000 H   0  0  0  0  0  0  0  0  0  0  0  0
    1.6133   -0.9571    0.0000 H   0  0  0  0  0  0  0  0  0  0  0  0
    2.9515   -2.4434    0.0000 H   0  0  0  0  0  0  0  0  0  0  0  0
    3.8271   -2.4893    0.0000 H   0  0  0  0  0  0  0  0  0  0  0  0
    3.8730   -1.6137    0.0000 H   0  0  0  0  0  0  0  0  0  0  0  0
    7.2884    1.1256    0.0000 H   0  0  0  0  0  0  0  0  0  0  0  0
    7.5154    1.9725    0.0000 H   0  0  0  0  0  0  0  0  0  0  0  0
    6.6684    2.1994    0.0000 H   0  0  0  0  0  0  0  0  0  0  0  0
    6.1493    2.3385    0.0000 H   0  0  0  0  0  0  0  0  0  0  0  0
    5.3024    2.5655    0.0000 H   0  0  0  0  0  0  0  0  0  0  0  0
    5.0754    1.7185    0.0000 H   0  0  0  0  0  0  0  0  0  0  0  0
    6.0754   -0.0135    0.0000 H   0  0  0  0  0  0  0  0  0  0  0  0
    6.9224   -0.2405    0.0000 H   0  0  0  0  0  0  0  0  0  0  0  0
    7.1493    0.6065    0.0000 H   0  0  0  0  0  0  0  0  0  0  0  0
  1  3  1  0  0  0  0
  1 11  1  0  0  0  0
  1 12  1  0  0  0  0
  1 13  1  0  0  0  0
  2  4  1  0  0  0  0
  2 14  1  0  0  0  0
  2 15  1  0  0  0  0
  2 16  1  0  0  0  0
  3  7  1  0  0  0  0
  4  8  1  0  0  0  0
  5  9  1  0  0  0  0
  5 10  1  0  0  0  0
  6 10  2  0  0  0  0
  7  8  1  0  0  0  0
  7  9  1  0  0  0  0
  7 17  1  0  0  0  0
  8 10  1  0  0  0  0
  8 18  1  0  0  0  0
  9 19  1  0  0  0  0
  9 20  1  0  0  0  0
 11 21  1  0  0  0  0
 11 22  1  0  0  0  0
 11 23  1  0  0  0  0
 12 24  1  0  0  0  0
 12 25  1  0  0  0  0
 12 26  1  0  0  0  0
 13 27  1  0  0  0  0
 13 28  1  0  0  0  0
 13 29  1  0  0  0  0
 14 30  1  0  0  0  0
 14 31  1  0  0  0  0
 14 32  1  0  0  0  0
 15 33  1  0  0  0  0
 15 34  1  0  0  0  0
 15 35  1  0  0  0  0
 16 36  1  0  0  0  0
 16 37  1  0  0  0  0
 16 38  1  0  0  0  0
M  END
> <PUBCHEM_COMPOUND_CID>
523398
> <PUBCHEM_COMPOUND_CANONICALIZED>
1
> <PUBCHEM_CACTVS_COMPLEXITY>
267
> <PUBCHEM_CACTVS_HBOND_ACCEPTOR>
4
> <PUBCHEM_CACTVS_HBOND_DONOR>
0
> <PUBCHEM_CACTVS_ROTATABLE_BOND>
4
> <PUBCHEM_CACTVS_SUBSKEYS>
AAADceBwOAwAAAAAAAAAAAAAAAAAASAAAAAAAAAAAAAAAAAAAAAAGhAAAEAACBSggAJCCAAABAEIAACQCAIAAAAAAAAAAAFAAAABABQAAAACAAAFIAACAAACAAAAAAAAAAAAAAAAAAAAAAAAAAAAAAAAAA==
> <PUBCHEM_IUPAC_OPENEYE_NAME>
3,4-bis(trimethylsilyloxy)tetrahydrofuran-2-one
> <PUBCHEM_IUPAC_CAS_NAME>
3,4-bis(trimethylsilyloxy)-2-oxolanone
> <PUBCHEM_IUPAC_NAME_MARKUP>
3,4-bis(trimethylsilyloxy)oxolan-2-one
> <PUBCHEM_IUPAC_NAME>
3,4-bis(trimethylsilyloxy)oxolan-2-one
> <PUBCHEM_IUPAC_SYSTEMATIC_NAME>
3,4-bis(trimethylsilyloxy)oxolan-2-one
> <PUBCHEM_IUPAC_TRADITIONAL_NAME>
3,4-bis(trimethylsilyloxy)tetrahydrofuran-2-one
> <PUBCHEM_IUPAC_INCHI>
InChI=1S/C10H22O4Si2/c1-15(2,3)13-8-7-12-10(11)9(8)14-16(4,5)6/h8-9H,7H2,1-6H3
> <PUBCHEM_IUPAC_INCHIKEY>
ASNCBNVBJKSVIT-UHFFFAOYSA-N
> <PUBCHEM_EXACT_MASS>
262.10566225
> <PUBCHEM_MOLECULAR_FORMULA>
C10H22O4Si2
> <PUBCHEM_MOLECULAR_WEIGHT>
262.45
> <PUBCHEM_OPENEYE_CAN_SMILES>
C[Si](C)(C)OC1COC(=O)C1O[Si](C)(C)C
> <PUBCHEM_OPENEYE_ISO_SMILES>
C[Si](C)(C)OC1COC(=O)C1O[Si](C)(C)C
> <PUBCHEM_CACTVS_TPSA>
44.8
> <PUBCHEM_MONOISOTOPIC_WEIGHT>
262.10566225
> <PUBCHEM_TOTAL_CHARGE>
0
> <PUBCHEM_HEAVY_ATOM_COUNT>
16
> <PUBCHEM_ATOM_DEF_STEREO_COUNT>
0
> <PUBCHEM_ATOM_UDEF_STEREO_COUNT>
2
> <PUBCHEM_BOND_DEF_STEREO_COUNT>
0
> <PUBCHEM_BOND_UDEF_STEREO_COUNT>
0
> <PUBCHEM_ISOTOPIC_ATOM_COUNT>
0
> <PUBCHEM_COMPONENT_COUNT>
1
> <PUBCHEM_CACTVS_TAUTO_COUNT>
-1
> <PUBCHEM_COORDINATE_TYPE>
1
5
255
> <PUBCHEM_BONDANNOTATIONS>
7  3  3
8  4  3
$$$$
