523357
  -OEChem-10302200292D
 84 83  0     1  0  0  0  0  0999 V2000
    5.5981    1.7141    0.0000 Si  0  0  0  0  0  0  0  0  0  0  0  0
    3.0000   -1.5180    0.0000 Si  0  0  0  0  0  0  0  0  0  0  0  0
    6.0981   -2.6160    0.0000 Si  0  0  0  0  0  0  0  0  0  0  0  0
    3.0000    2.4820    0.0000 Si  0  0  0  0  0  0  0  0  0  0  0  0
    8.2105   -0.4367    0.0000 Si  0  0  0  0  0  0  0  0  0  0  0  0
    5.0981    0.8481    0.0000 O   0  0  0  0  0  0  0  0  0  0  0  0
    3.0000   -0.5179    0.0000 O   0  0  0  0  0  0  0  0  0  0  0  0
    5.5981   -1.7500    0.0000 O   0  0  0  0  0  0  0  0  0  0  0  0
    3.0000    1.4820    0.0000 O   0  0  0  0  0  0  0  0  0  0  0  0
    7.2257   -0.6103    0.0000 O   0  0  0  0  0  0  0  0  0  0  0  0
    7.2257    0.9217    0.0000 O   0  0  0  0  0  0  0  0  0  0  0  0
    5.5981   -0.0179    0.0000 C   0  0  2  0  0  0  0  0  0  0  0  0
    4.7320   -0.5179    0.0000 C   0  0  0  0  0  0  0  0  0  0  0  0
    3.8660   -0.0179    0.0000 C   0  0  2  0  0  0  0  0  0  0  0  0
    6.0981   -0.8840    0.0000 C   0  0  0  0  0  0  0  0  0  0  0  0
    3.8660    0.9821    0.0000 C   0  0  0  0  0  0  0  0  0  0  0  0
    6.5829    0.1557    0.0000 C   0  0  0  0  0  0  0  0  0  0  0  0
    4.7320    2.2141    0.0000 C   0  0  0  0  0  0  0  0  0  0  0  0
    6.0981    2.5801    0.0000 C   0  0  0  0  0  0  0  0  0  0  0  0
    6.5829    1.8878    0.0000 C   0  0  0  0  0  0  0  0  0  0  0  0
    3.0000   -2.5180    0.0000 C   0  0  0  0  0  0  0  0  0  0  0  0
    2.0000   -1.5180    0.0000 C   0  0  0  0  0  0  0  0  0  0  0  0
    4.0000   -1.5180    0.0000 C   0  0  0  0  0  0  0  0  0  0  0  0
    6.5981   -3.4820    0.0000 C   0  0  0  0  0  0  0  0  0  0  0  0
    5.2320   -3.1160    0.0000 C   0  0  0  0  0  0  0  0  0  0  0  0
    6.9641   -2.1160    0.0000 C   0  0  0  0  0  0  0  0  0  0  0  0
    3.0000    3.4820    0.0000 C   0  0  0  0  0  0  0  0  0  0  0  0
    2.0000    2.4820    0.0000 C   0  0  0  0  0  0  0  0  0  0  0  0
    4.0000    2.4820    0.0000 C   0  0  0  0  0  0  0  0  0  0  0  0
    9.1953   -0.2630    0.0000 C   0  0  0  0  0  0  0  0  0  0  0  0
    8.3841   -1.4215    0.0000 C   0  0  0  0  0  0  0  0  0  0  0  0
    8.0368    0.5481    0.0000 C   0  0  0  0  0  0  0  0  0  0  0  0
    4.3335   -0.9929    0.0000 H   0  0  0  0  0  0  0  0  0  0  0  0
    5.1306   -0.9929    0.0000 H   0  0  0  0  0  0  0  0  0  0  0  0
    3.8660   -0.6379    0.0000 H   0  0  0  0  0  0  0  0  0  0  0  0
    6.5730   -1.2825    0.0000 H   0  0  0  0  0  0  0  0  0  0  0  0
    6.5730   -0.4854    0.0000 H   0  0  0  0  0  0  0  0  0  0  0  0
    4.4766    0.8744    0.0000 H   0  0  0  0  0  0  0  0  0  0  0  0
    4.0781    1.5647    0.0000 H   0  0  0  0  0  0  0  0  0  0  0  0
    5.0420    2.7510    0.0000 H   0  0  0  0  0  0  0  0  0  0  0  0
    4.1951    2.5241    0.0000 H   0  0  0  0  0  0  0  0  0  0  0  0
    4.4220    1.6772    0.0000 H   0  0  0  0  0  0  0  0  0  0  0  0
    6.6350    2.2701    0.0000 H   0  0  0  0  0  0  0  0  0  0  0  0
    6.4081    3.1171    0.0000 H   0  0  0  0  0  0  0  0  0  0  0  0
    5.5611    2.8901    0.0000 H   0  0  0  0  0  0  0  0  0  0  0  0
    6.6906    1.2772    0.0000 H   0  0  0  0  0  0  0  0  0  0  0  0
    7.1935    1.9954    0.0000 H   0  0  0  0  0  0  0  0  0  0  0  0
    6.4752    2.4983    0.0000 H   0  0  0  0  0  0  0  0  0  0  0  0
    2.3800   -2.5180    0.0000 H   0  0  0  0  0  0  0  0  0  0  0  0
    3.0000   -3.1380    0.0000 H   0  0  0  0  0  0  0  0  0  0  0  0
    3.6200   -2.5180    0.0000 H   0  0  0  0  0  0  0  0  0  0  0  0
    2.0000   -0.8979    0.0000 H   0  0  0  0  0  0  0  0  0  0  0  0
    1.3800   -1.5180    0.0000 H   0  0  0  0  0  0  0  0  0  0  0  0
    2.0000   -2.1380    0.0000 H   0  0  0  0  0  0  0  0  0  0  0  0
    4.0000   -2.1380    0.0000 H   0  0  0  0  0  0  0  0  0  0  0  0
    4.6200   -1.5180    0.0000 H   0  0  0  0  0  0  0  0  0  0  0  0
    4.0000   -0.8979    0.0000 H   0  0  0  0  0  0  0  0  0  0  0  0
    6.0611   -3.7920    0.0000 H   0  0  0  0  0  0  0  0  0  0  0  0
    6.9081   -4.0190    0.0000 H   0  0  0  0  0  0  0  0  0  0  0  0
    7.1350   -3.1720    0.0000 H   0  0  0  0  0  0  0  0  0  0  0  0
    4.9220   -2.5791    0.0000 H   0  0  0  0  0  0  0  0  0  0  0  0
    4.6951   -3.4260    0.0000 H   0  0  0  0  0  0  0  0  0  0  0  0
    5.5420   -3.6530    0.0000 H   0  0  0  0  0  0  0  0  0  0  0  0
    7.2741   -2.6530    0.0000 H   0  0  0  0  0  0  0  0  0  0  0  0
    7.5010   -1.8060    0.0000 H   0  0  0  0  0  0  0  0  0  0  0  0
    6.6541   -1.5791    0.0000 H   0  0  0  0  0  0  0  0  0  0  0  0
    3.6200    3.4820    0.0000 H   0  0  0  0  0  0  0  0  0  0  0  0
    3.0000    4.1020    0.0000 H   0  0  0  0  0  0  0  0  0  0  0  0
    2.3800    3.4820    0.0000 H   0  0  0  0  0  0  0  0  0  0  0  0
    2.0000    3.1021    0.0000 H   0  0  0  0  0  0  0  0  0  0  0  0
    1.3800    2.4820    0.0000 H   0  0  0  0  0  0  0  0  0  0  0  0
    2.0000    1.8620    0.0000 H   0  0  0  0  0  0  0  0  0  0  0  0
    4.0000    1.8620    0.0000 H   0  0  0  0  0  0  0  0  0  0  0  0
    4.6200    2.4820    0.0000 H   0  0  0  0  0  0  0  0  0  0  0  0
    4.0000    3.1021    0.0000 H   0  0  0  0  0  0  0  0  0  0  0  0
    9.3029   -0.8736    0.0000 H   0  0  0  0  0  0  0  0  0  0  0  0
    9.8059   -0.1554    0.0000 H   0  0  0  0  0  0  0  0  0  0  0  0
    9.0876    0.3475    0.0000 H   0  0  0  0  0  0  0  0  0  0  0  0
    7.7736   -1.5292    0.0000 H   0  0  0  0  0  0  0  0  0  0  0  0
    8.4918   -2.0321    0.0000 H   0  0  0  0  0  0  0  0  0  0  0  0
    8.9947   -1.3138    0.0000 H   0  0  0  0  0  0  0  0  0  0  0  0
    8.6474    0.6558    0.0000 H   0  0  0  0  0  0  0  0  0  0  0  0
    7.9292    1.1587    0.0000 H   0  0  0  0  0  0  0  0  0  0  0  0
    7.4262    0.4404    0.0000 H   0  0  0  0  0  0  0  0  0  0  0  0
  1  6  1  0  0  0  0
  1 18  1  0  0  0  0
  1 19  1  0  0  0  0
  1 20  1  0  0  0  0
  2  7  1  0  0  0  0
  2 21  1  0  0  0  0
  2 22  1  0  0  0  0
  2 23  1  0  0  0  0
  3  8  1  0  0  0  0
  3 24  1  0  0  0  0
  3 25  1  0  0  0  0
  3 26  1  0  0  0  0
  4  9  1  0  0  0  0
  4 27  1  0  0  0  0
  4 28  1  0  0  0  0
  4 29  1  0  0  0  0
  5 10  1  0  0  0  0
  5 30  1  0  0  0  0
  5 31  1  0  0  0  0
  5 32  1  0  0  0  0
 12  6  1  1  0  0  0
 14  7  1  1  0  0  0
  8 15  1  0  0  0  0
  9 16  1  0  0  0  0
 10 17  1  0  0  0  0
 11 17  2  0  0  0  0
 12 13  1  0  0  0  0
 12 15  1  0  0  0  0
 12 17  1  0  0  0  0
 13 14  1  0  0  0  0
 13 33  1  0  0  0  0
 13 34  1  0  0  0  0
 14 16  1  0  0  0  0
 14 35  1  0  0  0  0
 15 36  1  0  0  0  0
 15 37  1  0  0  0  0
 16 38  1  0  0  0  0
 16 39  1  0  0  0  0
 18 40  1  0  0  0  0
 18 41  1  0  0  0  0
 18 42  1  0  0  0  0
 19 43  1  0  0  0  0
 19 44  1  0  0  0  0
 19 45  1  0  0  0  0
 20 46  1  0  0  0  0
 20 47  1  0  0  0  0
 20 48  1  0  0  0  0
 21 49  1  0  0  0  0
 21 50  1  0  0  0  0
 21 51  1  0  0  0  0
 22 52  1  0  0  0  0
 22 53  1  0  0  0  0
 22 54  1  0  0  0  0
 23 55  1  0  0  0  0
 23 56  1  0  0  0  0
 23 57  1  0  0  0  0
 24 58  1  0  0  0  0
 24 59  1  0  0  0  0
 24 60  1  0  0  0  0
 25 61  1  0  0  0  0
 25 62  1  0  0  0  0
 25 63  1  0  0  0  0
 26 64  1  0  0  0  0
 26 65  1  0  0  0  0
 26 66  1  0  0  0  0
 27 67  1  0  0  0  0
 27 68  1  0  0  0  0
 27 69  1  0  0  0  0
 28 70  1  0  0  0  0
 28 71  1  0  0  0  0
 28 72  1  0  0  0  0
 29 73  1  0  0  0  0
 29 74  1  0  0  0  0
 29 75  1  0  0  0  0
 30 76  1  0  0  0  0
 30 77  1  0  0  0  0
 30 78  1  0  0  0  0
 31 79  1  0  0  0  0
 31 80  1  0  0  0  0
 31 81  1  0  0  0  0
 32 82  1  0  0  0  0
 32 83  1  0  0  0  0
 32 84  1  0  0  0  0
M  END
> <PUBCHEM_COMPOUND_CID>
523357
> <PUBCHEM_COMPOUND_CANONICALIZED>
1
> <PUBCHEM_CACTVS_COMPLEXITY>
596
> <PUBCHEM_CACTVS_HBOND_ACCEPTOR>
6
> <PUBCHEM_CACTVS_HBOND_DONOR>
0
> <PUBCHEM_CACTVS_ROTATABLE_BOND>
15
> <PUBCHEM_CACTVS_SUBSKEYS>
AAADcfB4OAwAAAAAAAAAAAAAAAAAAAAAAAAAAAAAAAAAAAAAAAAAGhAAAEAADFSggAJCCAAAAAEIAACQCAIAAAAAAAAAAAFAAAABABYAAAAAAAAFIAAAAADKJAAMAAAAAAAAAAAAAAAAAAAAAAAAAAAAAA==
> <PUBCHEM_IUPAC_OPENEYE_NAME>
trimethylsilyl (2R,4R)-2,4,5-tris(trimethylsilyloxy)-2-(trimethylsilyloxymethyl)pentanoate
> <PUBCHEM_IUPAC_CAS_NAME>
(2R,4R)-2,4,5-tris(trimethylsilyloxy)-2-(trimethylsilyloxymethyl)pentanoic acid trimethylsilyl ester
> <PUBCHEM_IUPAC_NAME_MARKUP>
trimethylsilyl (2<I>R</I>,4<I>R</I>)-2,4,5-tris(trimethylsilyloxy)-2-(trimethylsilyloxymethyl)pentanoate
> <PUBCHEM_IUPAC_NAME>
trimethylsilyl (2R,4R)-2,4,5-tris(trimethylsilyloxy)-2-(trimethylsilyloxymethyl)pentanoate
> <PUBCHEM_IUPAC_SYSTEMATIC_NAME>
trimethylsilyl (2R,4R)-2,4,5-tris(trimethylsilyloxy)-2-(trimethylsilyloxymethyl)pentanoate
> <PUBCHEM_IUPAC_TRADITIONAL_NAME>
(2R,4R)-2,4,5-tris(trimethylsilyloxy)-2-(trimethylsilyloxymethyl)valeric acid trimethylsilyl ester
> <PUBCHEM_IUPAC_INCHI>
InChI=1S/C21H52O6Si5/c1-28(2,3)23-17-19(25-30(7,8)9)16-21(27-32(13,14)15,18-24-29(4,5)6)20(22)26-31(10,11)12/h19H,16-18H2,1-15H3/t19-,21-/m1/s1
> <PUBCHEM_IUPAC_INCHIKEY>
COPXMBFDIHFMGG-TZIWHRDSSA-N
> <PUBCHEM_EXACT_MASS>
540.26102205
> <PUBCHEM_MOLECULAR_FORMULA>
C21H52O6Si5
> <PUBCHEM_MOLECULAR_WEIGHT>
541.1
> <PUBCHEM_OPENEYE_CAN_SMILES>
C[Si](C)(C)OCC(CC(CO[Si](C)(C)C)(C(=O)O[Si](C)(C)C)O[Si](C)(C)C)O[Si](C)(C)C
> <PUBCHEM_OPENEYE_ISO_SMILES>
C[Si](C)(C)OC[C@@H](C[C@@](CO[Si](C)(C)C)(C(=O)O[Si](C)(C)C)O[Si](C)(C)C)O[Si](C)(C)C
> <PUBCHEM_CACTVS_TPSA>
63.2
> <PUBCHEM_MONOISOTOPIC_WEIGHT>
540.26102205
> <PUBCHEM_TOTAL_CHARGE>
0
> <PUBCHEM_HEAVY_ATOM_COUNT>
32
> <PUBCHEM_ATOM_DEF_STEREO_COUNT>
2
> <PUBCHEM_ATOM_UDEF_STEREO_COUNT>
0
> <PUBCHEM_BOND_DEF_STEREO_COUNT>
0
> <PUBCHEM_BOND_UDEF_STEREO_COUNT>
0
> <PUBCHEM_ISOTOPIC_ATOM_COUNT>
0
> <PUBCHEM_COMPONENT_COUNT>
1
> <PUBCHEM_CACTVS_TAUTO_COUNT>
-1
> <PUBCHEM_COORDINATE_TYPE>
1
5
255
> <PUBCHEM_BONDANNOTATIONS>
12  6  5
14  7  5
$$$$
