523368
  -OEChem-10302200292D
 25 25  0     1  0  0  0  0  0999 V2000
    2.8660    1.0864    0.0000 Si  0  0  0  0  0  0  0  0  0  0  0  0
    3.7320    0.5864    0.0000 O   0  0  0  0  0  0  0  0  0  0  0  0
    4.2320   -1.9524    0.0000 O   0  0  0  0  0  0  0  0  0  0  0  0
    5.4921   -0.6924    0.0000 O   0  0  0  0  0  0  0  0  0  0  0  0
    3.7320   -0.4136    0.0000 C   0  0  3  0  0  0  0  0  0  0  0  0
    2.9230   -1.0014    0.0000 C   0  0  0  0  0  0  0  0  0  0  0  0
    3.2320   -1.9524    0.0000 C   0  0  0  0  0  0  0  0  0  0  0  0
    2.0000    1.5864    0.0000 C   0  0  0  0  0  0  0  0  0  0  0  0
    3.3660    1.9524    0.0000 C   0  0  0  0  0  0  0  0  0  0  0  0
    2.3660    0.2204    0.0000 C   0  0  0  0  0  0  0  0  0  0  0  0
    4.5411   -1.0014    0.0000 C   0  0  0  0  0  0  0  0  0  0  0  0
    4.2845   -0.1321    0.0000 H   0  0  0  0  0  0  0  0  0  0  0  0
    2.6130   -0.4644    0.0000 H   0  0  0  0  0  0  0  0  0  0  0  0
    2.3566   -1.2536    0.0000 H   0  0  0  0  0  0  0  0  0  0  0  0
    2.6256   -2.0813    0.0000 H   0  0  0  0  0  0  0  0  0  0  0  0
    3.2969   -2.5690    0.0000 H   0  0  0  0  0  0  0  0  0  0  0  0
    2.3100    2.1233    0.0000 H   0  0  0  0  0  0  0  0  0  0  0  0
    1.4631    1.8964    0.0000 H   0  0  0  0  0  0  0  0  0  0  0  0
    1.6900    1.0495    0.0000 H   0  0  0  0  0  0  0  0  0  0  0  0
    3.9030    1.6424    0.0000 H   0  0  0  0  0  0  0  0  0  0  0  0
    3.6760    2.4894    0.0000 H   0  0  0  0  0  0  0  0  0  0  0  0
    2.8291    2.2624    0.0000 H   0  0  0  0  0  0  0  0  0  0  0  0
    1.8291    0.5304    0.0000 H   0  0  0  0  0  0  0  0  0  0  0  0
    2.0560   -0.3166    0.0000 H   0  0  0  0  0  0  0  0  0  0  0  0
    2.9030   -0.0896    0.0000 H   0  0  0  0  0  0  0  0  0  0  0  0
  1  2  1  0  0  0  0
  1  8  1  0  0  0  0
  1  9  1  0  0  0  0
  1 10  1  0  0  0  0
  2  5  1  0  0  0  0
  3  7  1  0  0  0  0
  3 11  1  0  0  0  0
  4 11  2  0  0  0  0
  5  6  1  0  0  0  0
  5 11  1  0  0  0  0
  5 12  1  0  0  0  0
  6  7  1  0  0  0  0
  6 13  1  0  0  0  0
  6 14  1  0  0  0  0
  7 15  1  0  0  0  0
  7 16  1  0  0  0  0
  8 17  1  0  0  0  0
  8 18  1  0  0  0  0
  8 19  1  0  0  0  0
  9 20  1  0  0  0  0
  9 21  1  0  0  0  0
  9 22  1  0  0  0  0
 10 23  1  0  0  0  0
 10 24  1  0  0  0  0
 10 25  1  0  0  0  0
M  END
> <PUBCHEM_COMPOUND_CID>
523368
> <PUBCHEM_COMPOUND_CANONICALIZED>
1
> <PUBCHEM_CACTVS_COMPLEXITY>
162
> <PUBCHEM_CACTVS_HBOND_ACCEPTOR>
3
> <PUBCHEM_CACTVS_HBOND_DONOR>
0
> <PUBCHEM_CACTVS_ROTATABLE_BOND>
2
> <PUBCHEM_CACTVS_SUBSKEYS>
AAADccBgMAgAAAAAAAAAAAAAAAAAASAAAAAAAAAAAAAAAAAAAAAAGhAAAEAACBSggAJCCAAABAEIAACQCAIAAAAAAAAAAAFAAAABABAAAAACAAAFAAACAAACAAAAAAAAAAAAAAAAAAAAAAAAAAAAAAAAAA==
> <PUBCHEM_IUPAC_OPENEYE_NAME>
3-trimethylsilyloxytetrahydrofuran-2-one
> <PUBCHEM_IUPAC_CAS_NAME>
3-trimethylsilyloxy-2-oxolanone
> <PUBCHEM_IUPAC_NAME_MARKUP>
3-trimethylsilyloxyoxolan-2-one
> <PUBCHEM_IUPAC_NAME>
3-trimethylsilyloxyoxolan-2-one
> <PUBCHEM_IUPAC_SYSTEMATIC_NAME>
3-trimethylsilyloxyoxolan-2-one
> <PUBCHEM_IUPAC_TRADITIONAL_NAME>
3-trimethylsilyloxytetrahydrofuran-2-one
> <PUBCHEM_IUPAC_INCHI>
InChI=1S/C7H14O3Si/c1-11(2,3)10-6-4-5-9-7(6)8/h6H,4-5H2,1-3H3
> <PUBCHEM_IUPAC_INCHIKEY>
GCXFBFDPTBFTIZ-UHFFFAOYSA-N
> <PUBCHEM_EXACT_MASS>
174.07122084
> <PUBCHEM_MOLECULAR_FORMULA>
C7H14O3Si
> <PUBCHEM_MOLECULAR_WEIGHT>
174.27
> <PUBCHEM_OPENEYE_CAN_SMILES>
C[Si](C)(C)OC1CCOC1=O
> <PUBCHEM_OPENEYE_ISO_SMILES>
C[Si](C)(C)OC1CCOC1=O
> <PUBCHEM_CACTVS_TPSA>
35.5
> <PUBCHEM_MONOISOTOPIC_WEIGHT>
174.07122084
> <PUBCHEM_TOTAL_CHARGE>
0
> <PUBCHEM_HEAVY_ATOM_COUNT>
11
> <PUBCHEM_ATOM_DEF_STEREO_COUNT>
0
> <PUBCHEM_ATOM_UDEF_STEREO_COUNT>
1
> <PUBCHEM_BOND_DEF_STEREO_COUNT>
0
> <PUBCHEM_BOND_UDEF_STEREO_COUNT>
0
> <PUBCHEM_ISOTOPIC_ATOM_COUNT>
0
> <PUBCHEM_COMPONENT_COUNT>
1
> <PUBCHEM_CACTVS_TAUTO_COUNT>
-1
> <PUBCHEM_COORDINATE_TYPE>
1
5
255
> <PUBCHEM_BONDANNOTATIONS>
5  2  3
$$$$
