523338
  -OEChem-10302200292D
 25 25  0     1  0  0  0  0  0999 V2000
    5.8424    0.6244    0.0000 Si  0  0  0  0  0  0  0  0  0  0  0  0
    4.8479    0.7289    0.0000 O   0  0  0  0  0  0  0  0  0  0  0  0
    3.7601   -1.6189    0.0000 O   0  0  0  0  0  0  0  0  0  0  0  0
    2.0000   -1.3402    0.0000 O   0  0  0  0  0  0  0  0  0  0  0  0
    4.2601   -0.0801    0.0000 C   0  0  3  0  0  0  0  0  0  0  0  0
    3.2601   -0.0801    0.0000 C   0  0  0  0  0  0  0  0  0  0  0  0
    4.5691   -1.0311    0.0000 C   0  0  0  0  0  0  0  0  0  0  0  0
    6.8369    0.5199    0.0000 C   0  0  0  0  0  0  0  0  0  0  0  0
    5.9469    1.6189    0.0000 C   0  0  0  0  0  0  0  0  0  0  0  0
    5.7378   -0.3701    0.0000 C   0  0  0  0  0  0  0  0  0  0  0  0
    2.9511   -1.0311    0.0000 C   0  0  0  0  0  0  0  0  0  0  0  0
    4.8724   -0.1771    0.0000 H   0  0  0  0  0  0  0  0  0  0  0  0
    3.3249    0.5365    0.0000 H   0  0  0  0  0  0  0  0  0  0  0  0
    2.6536    0.0488    0.0000 H   0  0  0  0  0  0  0  0  0  0  0  0
    4.8791   -1.5681    0.0000 H   0  0  0  0  0  0  0  0  0  0  0  0
    5.1355   -0.7790    0.0000 H   0  0  0  0  0  0  0  0  0  0  0  0
    6.7721   -0.0967    0.0000 H   0  0  0  0  0  0  0  0  0  0  0  0
    7.4535    0.4551    0.0000 H   0  0  0  0  0  0  0  0  0  0  0  0
    6.9017    1.1365    0.0000 H   0  0  0  0  0  0  0  0  0  0  0  0
    6.5635    1.5541    0.0000 H   0  0  0  0  0  0  0  0  0  0  0  0
    6.0117    2.2355    0.0000 H   0  0  0  0  0  0  0  0  0  0  0  0
    5.3303    1.6837    0.0000 H   0  0  0  0  0  0  0  0  0  0  0  0
    5.1212   -0.3053    0.0000 H   0  0  0  0  0  0  0  0  0  0  0  0
    5.6730   -0.9867    0.0000 H   0  0  0  0  0  0  0  0  0  0  0  0
    6.3545   -0.4349    0.0000 H   0  0  0  0  0  0  0  0  0  0  0  0
  1  2  1  0  0  0  0
  1  8  1  0  0  0  0
  1  9  1  0  0  0  0
  1 10  1  0  0  0  0
  2  5  1  0  0  0  0
  3  7  1  0  0  0  0
  3 11  1  0  0  0  0
  4 11  2  0  0  0  0
  5  6  1  0  0  0  0
  5  7  1  0  0  0  0
  5 12  1  0  0  0  0
  6 11  1  0  0  0  0
  6 13  1  0  0  0  0
  6 14  1  0  0  0  0
  7 15  1  0  0  0  0
  7 16  1  0  0  0  0
  8 17  1  0  0  0  0
  8 18  1  0  0  0  0
  8 19  1  0  0  0  0
  9 20  1  0  0  0  0
  9 21  1  0  0  0  0
  9 22  1  0  0  0  0
 10 23  1  0  0  0  0
 10 24  1  0  0  0  0
 10 25  1  0  0  0  0
M  END
> <PUBCHEM_COMPOUND_CID>
523338
> <PUBCHEM_COMPOUND_CANONICALIZED>
1
> <PUBCHEM_CACTVS_COMPLEXITY>
162
> <PUBCHEM_CACTVS_HBOND_ACCEPTOR>
3
> <PUBCHEM_CACTVS_HBOND_DONOR>
0
> <PUBCHEM_CACTVS_ROTATABLE_BOND>
2
> <PUBCHEM_CACTVS_SUBSKEYS>
AAADccBgMAgAAAAAAAAAAAAAAAAAASAAAAAAAAAAAAAAAAAAAAAAGhAAAEAACBSggAJCCAAABAEIAACQCAAAAAAAAAAAAAEAAAABABQAAAACAAAFIAACAAACAAAAAAAAAAAAAAAAAAAAAAAAAAAAAAAAAA==
> <PUBCHEM_IUPAC_OPENEYE_NAME>
4-trimethylsilyloxytetrahydrofuran-2-one
> <PUBCHEM_IUPAC_CAS_NAME>
4-trimethylsilyloxy-2-oxolanone
> <PUBCHEM_IUPAC_NAME_MARKUP>
4-trimethylsilyloxyoxolan-2-one
> <PUBCHEM_IUPAC_NAME>
4-trimethylsilyloxyoxolan-2-one
> <PUBCHEM_IUPAC_SYSTEMATIC_NAME>
4-trimethylsilyloxyoxolan-2-one
> <PUBCHEM_IUPAC_TRADITIONAL_NAME>
4-trimethylsilyloxytetrahydrofuran-2-one
> <PUBCHEM_IUPAC_INCHI>
InChI=1S/C7H14O3Si/c1-11(2,3)10-6-4-7(8)9-5-6/h6H,4-5H2,1-3H3
> <PUBCHEM_IUPAC_INCHIKEY>
MWWSTXOEDHCEKT-UHFFFAOYSA-N
> <PUBCHEM_EXACT_MASS>
174.07122084
> <PUBCHEM_MOLECULAR_FORMULA>
C7H14O3Si
> <PUBCHEM_MOLECULAR_WEIGHT>
174.27
> <PUBCHEM_OPENEYE_CAN_SMILES>
C[Si](C)(C)OC1CC(=O)OC1
> <PUBCHEM_OPENEYE_ISO_SMILES>
C[Si](C)(C)OC1CC(=O)OC1
> <PUBCHEM_CACTVS_TPSA>
35.5
> <PUBCHEM_MONOISOTOPIC_WEIGHT>
174.07122084
> <PUBCHEM_TOTAL_CHARGE>
0
> <PUBCHEM_HEAVY_ATOM_COUNT>
11
> <PUBCHEM_ATOM_DEF_STEREO_COUNT>
0
> <PUBCHEM_ATOM_UDEF_STEREO_COUNT>
1
> <PUBCHEM_BOND_DEF_STEREO_COUNT>
0
> <PUBCHEM_BOND_UDEF_STEREO_COUNT>
0
> <PUBCHEM_ISOTOPIC_ATOM_COUNT>
0
> <PUBCHEM_COMPONENT_COUNT>
1
> <PUBCHEM_CACTVS_TAUTO_COUNT>
-1
> <PUBCHEM_COORDINATE_TYPE>
1
5
255
> <PUBCHEM_BONDANNOTATIONS>
5  2  3
$$$$
