523323
  -OEChem-10302200292D
 84 83  0     1  0  0  0  0  0999 V2000
    6.3301    2.3170    0.0000 Si  0  0  0  0  0  0  0  0  0  0  0  0
    3.3321    1.8259    0.0000 Si  0  0  0  0  0  0  0  0  0  0  0  0
    8.0622    0.3170    0.0000 Si  0  0  0  0  0  0  0  0  0  0  0  0
    7.1962   -2.1830    0.0000 Si  0  0  0  0  0  0  0  0  0  0  0  0
    2.8660   -1.6830    0.0000 Si  0  0  0  0  0  0  0  0  0  0  0  0
    5.4641    1.8170    0.0000 O   0  0  0  0  0  0  0  0  0  0  0  0
    4.0981    1.1830    0.0000 O   0  0  0  0  0  0  0  0  0  0  0  0
    7.1962    0.8170    0.0000 O   0  0  0  0  0  0  0  0  0  0  0  0
    7.1962   -1.1830    0.0000 O   0  0  0  0  0  0  0  0  0  0  0  0
    3.7320   -1.1830    0.0000 O   0  0  0  0  0  0  0  0  0  0  0  0
    2.8660    0.3170    0.0000 O   0  0  0  0  0  0  0  0  0  0  0  0
    5.4641    0.8170    0.0000 C   0  0  2  0  0  0  0  0  0  0  0  0
    4.5981    0.3170    0.0000 C   0  0  2  0  0  0  0  0  0  0  0  0
    6.3301    0.3170    0.0000 C   0  0  2  0  0  0  0  0  0  0  0  0
    6.3301   -0.6830    0.0000 C   0  0  0  0  0  0  0  0  0  0  0  0
    5.0981   -0.5490    0.0000 C   0  0  0  0  0  0  0  0  0  0  0  0
    3.7320   -0.1830    0.0000 C   0  0  0  0  0  0  0  0  0  0  0  0
    7.1962    2.8170    0.0000 C   0  0  0  0  0  0  0  0  0  0  0  0
    5.8301    3.1830    0.0000 C   0  0  0  0  0  0  0  0  0  0  0  0
    6.8301    1.4510    0.0000 C   0  0  0  0  0  0  0  0  0  0  0  0
    2.5660    2.4687    0.0000 C   0  0  0  0  0  0  0  0  0  0  0  0
    3.9748    2.5918    0.0000 C   0  0  0  0  0  0  0  0  0  0  0  0
    2.6892    1.0598    0.0000 C   0  0  0  0  0  0  0  0  0  0  0  0
    8.9282   -0.1830    0.0000 C   0  0  0  0  0  0  0  0  0  0  0  0
    8.5622    1.1830    0.0000 C   0  0  0  0  0  0  0  0  0  0  0  0
    7.5622   -0.5490    0.0000 C   0  0  0  0  0  0  0  0  0  0  0  0
    7.1962   -3.1830    0.0000 C   0  0  0  0  0  0  0  0  0  0  0  0
    8.1962   -2.1830    0.0000 C   0  0  0  0  0  0  0  0  0  0  0  0
    6.1962   -2.1830    0.0000 C   0  0  0  0  0  0  0  0  0  0  0  0
    2.0000   -2.1830    0.0000 C   0  0  0  0  0  0  0  0  0  0  0  0
    2.3660   -0.8170    0.0000 C   0  0  0  0  0  0  0  0  0  0  0  0
    3.3660   -2.5490    0.0000 C   0  0  0  0  0  0  0  0  0  0  0  0
    6.0010    1.1270    0.0000 H   0  0  0  0  0  0  0  0  0  0  0  0
    6.8671    0.0070    0.0000 H   0  0  0  0  0  0  0  0  0  0  0  0
    5.7196   -0.5754    0.0000 H   0  0  0  0  0  0  0  0  0  0  0  0
    6.1181   -1.2656    0.0000 H   0  0  0  0  0  0  0  0  0  0  0  0
    4.5611   -0.8590    0.0000 H   0  0  0  0  0  0  0  0  0  0  0  0
    5.4081   -1.0860    0.0000 H   0  0  0  0  0  0  0  0  0  0  0  0
    5.6350   -0.2390    0.0000 H   0  0  0  0  0  0  0  0  0  0  0  0
    7.5062    2.2800    0.0000 H   0  0  0  0  0  0  0  0  0  0  0  0
    7.7331    3.1270    0.0000 H   0  0  0  0  0  0  0  0  0  0  0  0
    6.8862    3.3539    0.0000 H   0  0  0  0  0  0  0  0  0  0  0  0
    6.3671    3.4930    0.0000 H   0  0  0  0  0  0  0  0  0  0  0  0
    5.5201    3.7200    0.0000 H   0  0  0  0  0  0  0  0  0  0  0  0
    5.2932    2.8730    0.0000 H   0  0  0  0  0  0  0  0  0  0  0  0
    6.2932    1.1410    0.0000 H   0  0  0  0  0  0  0  0  0  0  0  0
    7.1401    0.9140    0.0000 H   0  0  0  0  0  0  0  0  0  0  0  0
    7.3671    1.7610    0.0000 H   0  0  0  0  0  0  0  0  0  0  0  0
    2.9646    2.9436    0.0000 H   0  0  0  0  0  0  0  0  0  0  0  0
    2.0911    2.8672    0.0000 H   0  0  0  0  0  0  0  0  0  0  0  0
    2.1675    1.9937    0.0000 H   0  0  0  0  0  0  0  0  0  0  0  0
    4.4498    2.1933    0.0000 H   0  0  0  0  0  0  0  0  0  0  0  0
    4.3734    3.0668    0.0000 H   0  0  0  0  0  0  0  0  0  0  0  0
    3.4999    2.9904    0.0000 H   0  0  0  0  0  0  0  0  0  0  0  0
    2.2143    1.4583    0.0000 H   0  0  0  0  0  0  0  0  0  0  0  0
    2.2907    0.5848    0.0000 H   0  0  0  0  0  0  0  0  0  0  0  0
    3.1642    0.6612    0.0000 H   0  0  0  0  0  0  0  0  0  0  0  0
    8.6182   -0.7199    0.0000 H   0  0  0  0  0  0  0  0  0  0  0  0
    9.4651   -0.4930    0.0000 H   0  0  0  0  0  0  0  0  0  0  0  0
    9.2382    0.3539    0.0000 H   0  0  0  0  0  0  0  0  0  0  0  0
    9.0991    0.8730    0.0000 H   0  0  0  0  0  0  0  0  0  0  0  0
    8.8722    1.7200    0.0000 H   0  0  0  0  0  0  0  0  0  0  0  0
    8.0252    1.4930    0.0000 H   0  0  0  0  0  0  0  0  0  0  0  0
    7.0252   -0.2390    0.0000 H   0  0  0  0  0  0  0  0  0  0  0  0
    7.2522   -1.0860    0.0000 H   0  0  0  0  0  0  0  0  0  0  0  0
    8.0991   -0.8590    0.0000 H   0  0  0  0  0  0  0  0  0  0  0  0
    6.5762   -3.1830    0.0000 H   0  0  0  0  0  0  0  0  0  0  0  0
    7.1962   -3.8030    0.0000 H   0  0  0  0  0  0  0  0  0  0  0  0
    7.8162   -3.1830    0.0000 H   0  0  0  0  0  0  0  0  0  0  0  0
    8.1962   -2.8030    0.0000 H   0  0  0  0  0  0  0  0  0  0  0  0
    8.8162   -2.1830    0.0000 H   0  0  0  0  0  0  0  0  0  0  0  0
    8.1962   -1.5630    0.0000 H   0  0  0  0  0  0  0  0  0  0  0  0
    6.1962   -1.5630    0.0000 H   0  0  0  0  0  0  0  0  0  0  0  0
    5.5762   -2.1830    0.0000 H   0  0  0  0  0  0  0  0  0  0  0  0
    6.1962   -2.8030    0.0000 H   0  0  0  0  0  0  0  0  0  0  0  0
    1.6900   -1.6461    0.0000 H   0  0  0  0  0  0  0  0  0  0  0  0
    1.4631   -2.4930    0.0000 H   0  0  0  0  0  0  0  0  0  0  0  0
    2.3100   -2.7200    0.0000 H   0  0  0  0  0  0  0  0  0  0  0  0
    2.9030   -0.5070    0.0000 H   0  0  0  0  0  0  0  0  0  0  0  0
    2.0560   -0.2801    0.0000 H   0  0  0  0  0  0  0  0  0  0  0  0
    1.8291   -1.1270    0.0000 H   0  0  0  0  0  0  0  0  0  0  0  0
    2.8291   -2.8590    0.0000 H   0  0  0  0  0  0  0  0  0  0  0  0
    3.6760   -3.0860    0.0000 H   0  0  0  0  0  0  0  0  0  0  0  0
    3.9030   -2.2390    0.0000 H   0  0  0  0  0  0  0  0  0  0  0  0
  1  6  1  0  0  0  0
  1 18  1  0  0  0  0
  1 19  1  0  0  0  0
  1 20  1  0  0  0  0
  2  7  1  0  0  0  0
  2 21  1  0  0  0  0
  2 22  1  0  0  0  0
  2 23  1  0  0  0  0
  3  8  1  0  0  0  0
  3 24  1  0  0  0  0
  3 25  1  0  0  0  0
  3 26  1  0  0  0  0
  4  9  1  0  0  0  0
  4 27  1  0  0  0  0
  4 28  1  0  0  0  0
  4 29  1  0  0  0  0
  5 10  1  0  0  0  0
  5 30  1  0  0  0  0
  5 31  1  0  0  0  0
  5 32  1  0  0  0  0
 12  6  1  1  0  0  0
 13  7  1  6  0  0  0
 14  8  1  1  0  0  0
  9 15  1  0  0  0  0
 10 17  1  0  0  0  0
 11 17  2  0  0  0  0
 12 13  1  0  0  0  0
 12 14  1  0  0  0  0
 12 33  1  0  0  0  0
 13 16  1  0  0  0  0
 13 17  1  0  0  0  0
 14 15  1  0  0  0  0
 14 34  1  0  0  0  0
 15 35  1  0  0  0  0
 15 36  1  0  0  0  0
 16 37  1  0  0  0  0
 16 38  1  0  0  0  0
 16 39  1  0  0  0  0
 18 40  1  0  0  0  0
 18 41  1  0  0  0  0
 18 42  1  0  0  0  0
 19 43  1  0  0  0  0
 19 44  1  0  0  0  0
 19 45  1  0  0  0  0
 20 46  1  0  0  0  0
 20 47  1  0  0  0  0
 20 48  1  0  0  0  0
 21 49  1  0  0  0  0
 21 50  1  0  0  0  0
 21 51  1  0  0  0  0
 22 52  1  0  0  0  0
 22 53  1  0  0  0  0
 22 54  1  0  0  0  0
 23 55  1  0  0  0  0
 23 56  1  0  0  0  0
 23 57  1  0  0  0  0
 24 58  1  0  0  0  0
 24 59  1  0  0  0  0
 24 60  1  0  0  0  0
 25 61  1  0  0  0  0
 25 62  1  0  0  0  0
 25 63  1  0  0  0  0
 26 64  1  0  0  0  0
 26 65  1  0  0  0  0
 26 66  1  0  0  0  0
 27 67  1  0  0  0  0
 27 68  1  0  0  0  0
 27 69  1  0  0  0  0
 28 70  1  0  0  0  0
 28 71  1  0  0  0  0
 28 72  1  0  0  0  0
 29 73  1  0  0  0  0
 29 74  1  0  0  0  0
 29 75  1  0  0  0  0
 30 76  1  0  0  0  0
 30 77  1  0  0  0  0
 30 78  1  0  0  0  0
 31 79  1  0  0  0  0
 31 80  1  0  0  0  0
 31 81  1  0  0  0  0
 32 82  1  0  0  0  0
 32 83  1  0  0  0  0
 32 84  1  0  0  0  0
M  END
> <PUBCHEM_COMPOUND_CID>
523323
> <PUBCHEM_COMPOUND_CANONICALIZED>
1
> <PUBCHEM_CACTVS_COMPLEXITY>
611
> <PUBCHEM_CACTVS_HBOND_ACCEPTOR>
6
> <PUBCHEM_CACTVS_HBOND_DONOR>
0
> <PUBCHEM_CACTVS_ROTATABLE_BOND>
14
> <PUBCHEM_CACTVS_SUBSKEYS>
AAADcfB4OAwAAAAAAAAAAAAAAAAAAAAAAAAAAAAAAAAAAAAAAAAAGhAAAEAADFSggAJCCAAAAAEIAACQCAIAAAAAAAAAAAFAAAABABYAAAAAAAAFIAAAAADKJAAMAAAAAAAAAAAAAAAAAAAAAAAAAAAAAA==
> <PUBCHEM_IUPAC_OPENEYE_NAME>
trimethylsilyl (2S,3S,4S)-2-methyl-2,3,4,5-tetrakis(trimethylsilyloxy)pentanoate
> <PUBCHEM_IUPAC_CAS_NAME>
(2S,3S,4S)-2-methyl-2,3,4,5-tetrakis(trimethylsilyloxy)pentanoic acid trimethylsilyl ester
> <PUBCHEM_IUPAC_NAME_MARKUP>
trimethylsilyl (2<I>S</I>,3<I>S</I>,4<I>S</I>)-2-methyl-2,3,4,5-tetrakis(trimethylsilyloxy)pentanoate
> <PUBCHEM_IUPAC_NAME>
trimethylsilyl (2S,3S,4S)-2-methyl-2,3,4,5-tetrakis(trimethylsilyloxy)pentanoate
> <PUBCHEM_IUPAC_SYSTEMATIC_NAME>
trimethylsilyl (2S,3S,4S)-2-methyl-2,3,4,5-tetrakis(trimethylsilyloxy)pentanoate
> <PUBCHEM_IUPAC_TRADITIONAL_NAME>
(2S,3S,4S)-2-methyl-2,3,4,5-tetrakis(trimethylsilyloxy)valeric acid trimethylsilyl ester
> <PUBCHEM_IUPAC_INCHI>
InChI=1S/C21H52O6Si5/c1-21(27-32(14,15)16,20(22)26-31(11,12)13)19(25-30(8,9)10)18(24-29(5,6)7)17-23-28(2,3)4/h18-19H,17H2,1-16H3/t18-,19-,21-/m0/s1
> <PUBCHEM_IUPAC_INCHIKEY>
SOYWKUNHUVGLPR-ZJOUEHCJSA-N
> <PUBCHEM_EXACT_MASS>
540.26102205
> <PUBCHEM_MOLECULAR_FORMULA>
C21H52O6Si5
> <PUBCHEM_MOLECULAR_WEIGHT>
541.1
> <PUBCHEM_OPENEYE_CAN_SMILES>
CC(C(C(CO[Si](C)(C)C)O[Si](C)(C)C)O[Si](C)(C)C)(C(=O)O[Si](C)(C)C)O[Si](C)(C)C
> <PUBCHEM_OPENEYE_ISO_SMILES>
C[C@]([C@H]([C@H](CO[Si](C)(C)C)O[Si](C)(C)C)O[Si](C)(C)C)(C(=O)O[Si](C)(C)C)O[Si](C)(C)C
> <PUBCHEM_CACTVS_TPSA>
63.2
> <PUBCHEM_MONOISOTOPIC_WEIGHT>
540.26102205
> <PUBCHEM_TOTAL_CHARGE>
0
> <PUBCHEM_HEAVY_ATOM_COUNT>
32
> <PUBCHEM_ATOM_DEF_STEREO_COUNT>
3
> <PUBCHEM_ATOM_UDEF_STEREO_COUNT>
0
> <PUBCHEM_BOND_DEF_STEREO_COUNT>
0
> <PUBCHEM_BOND_UDEF_STEREO_COUNT>
0
> <PUBCHEM_ISOTOPIC_ATOM_COUNT>
0
> <PUBCHEM_COMPONENT_COUNT>
1
> <PUBCHEM_CACTVS_TAUTO_COUNT>
-1
> <PUBCHEM_COORDINATE_TYPE>
1
5
255
> <PUBCHEM_BONDANNOTATIONS>
12  6  5
13  7  6
14  8  5
$$$$
