523330
  -OEChem-10302200292D
 83 82  0     1  0  0  0  0  0999 V2000
    4.5981   -2.7990    0.0000 Si  0  0  0  0  0  0  0  0  0  0  0  0
    2.8660   -0.7990    0.0000 Si  0  0  0  0  0  0  0  0  0  0  0  0
    7.1962    0.7010    0.0000 Si  0  0  0  0  0  0  0  0  0  0  0  0
    8.9282   -1.2990    0.0000 Si  0  0  0  0  0  0  0  0  0  0  0  0
    4.0981    2.7990    0.0000 Si  0  0  0  0  0  0  0  0  0  0  0  0
    5.4641   -2.2990    0.0000 O   0  0  0  0  0  0  0  0  0  0  0  0
    3.7320   -1.2990    0.0000 O   0  0  0  0  0  0  0  0  0  0  0  0
    6.3301    0.2010    0.0000 O   0  0  0  0  0  0  0  0  0  0  0  0
    8.0622   -0.7990    0.0000 O   0  0  0  0  0  0  0  0  0  0  0  0
    4.5981    1.9330    0.0000 O   0  0  0  0  0  0  0  0  0  0  0  0
    7.1962   -2.2990    0.0000 O   0  0  0  0  0  0  0  0  0  0  0  0
    3.0981    1.0671    0.0000 O   0  0  0  0  0  0  0  0  0  0  0  0
    5.4641   -1.2990    0.0000 C   0  0  2  0  0  0  0  0  0  0  0  0
    4.5981   -0.7990    0.0000 C   0  0  1  0  0  0  0  0  0  0  0  0
    6.3301   -0.7990    0.0000 C   0  0  3  0  0  0  0  0  0  0  0  0
    4.5981    0.2010    0.0000 C   0  0  0  0  0  0  0  0  0  0  0  0
    7.1962   -1.2990    0.0000 C   0  0  0  0  0  0  0  0  0  0  0  0
    3.7320   -3.2990    0.0000 C   0  0  0  0  0  0  0  0  0  0  0  0
    5.0981   -3.6651    0.0000 C   0  0  0  0  0  0  0  0  0  0  0  0
    4.0981   -1.9330    0.0000 C   0  0  0  0  0  0  0  0  0  0  0  0
    2.0000   -0.2990    0.0000 C   0  0  0  0  0  0  0  0  0  0  0  0
    2.3660   -1.6651    0.0000 C   0  0  0  0  0  0  0  0  0  0  0  0
    2.8660    0.2010    0.0000 C   0  0  0  0  0  0  0  0  0  0  0  0
    4.0981    1.0670    0.0000 C   0  0  0  0  0  0  0  0  0  0  0  0
    8.0622    1.2010    0.0000 C   0  0  0  0  0  0  0  0  0  0  0  0
    6.6962    1.5670    0.0000 C   0  0  0  0  0  0  0  0  0  0  0  0
    7.6962   -0.1651    0.0000 C   0  0  0  0  0  0  0  0  0  0  0  0
    9.7942   -1.7990    0.0000 C   0  0  0  0  0  0  0  0  0  0  0  0
    9.4282   -0.4330    0.0000 C   0  0  0  0  0  0  0  0  0  0  0  0
    8.4282   -2.1651    0.0000 C   0  0  0  0  0  0  0  0  0  0  0  0
    3.5981    3.6651    0.0000 C   0  0  0  0  0  0  0  0  0  0  0  0
    4.9641    3.2990    0.0000 C   0  0  0  0  0  0  0  0  0  0  0  0
    3.2320    2.2990    0.0000 C   0  0  0  0  0  0  0  0  0  0  0  0
    6.0010   -1.6090    0.0000 H   0  0  0  0  0  0  0  0  0  0  0  0
    4.5981   -1.4190    0.0000 H   0  0  0  0  0  0  0  0  0  0  0  0
    6.8671   -0.4890    0.0000 H   0  0  0  0  0  0  0  0  0  0  0  0
    5.1807   -0.0111    0.0000 H   0  0  0  0  0  0  0  0  0  0  0  0
    3.9992    0.0405    0.0000 H   0  0  0  0  0  0  0  0  0  0  0  0
    3.4220   -2.7621    0.0000 H   0  0  0  0  0  0  0  0  0  0  0  0
    3.1951   -3.6090    0.0000 H   0  0  0  0  0  0  0  0  0  0  0  0
    4.0420   -3.8360    0.0000 H   0  0  0  0  0  0  0  0  0  0  0  0
    4.5611   -3.9751    0.0000 H   0  0  0  0  0  0  0  0  0  0  0  0
    5.4081   -4.2020    0.0000 H   0  0  0  0  0  0  0  0  0  0  0  0
    5.6350   -3.3551    0.0000 H   0  0  0  0  0  0  0  0  0  0  0  0
    4.6350   -1.6230    0.0000 H   0  0  0  0  0  0  0  0  0  0  0  0
    3.7881   -1.3961    0.0000 H   0  0  0  0  0  0  0  0  0  0  0  0
    3.5611   -2.2430    0.0000 H   0  0  0  0  0  0  0  0  0  0  0  0
    2.3100    0.2379    0.0000 H   0  0  0  0  0  0  0  0  0  0  0  0
    1.4631    0.0110    0.0000 H   0  0  0  0  0  0  0  0  0  0  0  0
    1.6900   -0.8360    0.0000 H   0  0  0  0  0  0  0  0  0  0  0  0
    1.8291   -1.3551    0.0000 H   0  0  0  0  0  0  0  0  0  0  0  0
    2.0560   -2.2020    0.0000 H   0  0  0  0  0  0  0  0  0  0  0  0
    2.9030   -1.9751    0.0000 H   0  0  0  0  0  0  0  0  0  0  0  0
    3.4860    0.2010    0.0000 H   0  0  0  0  0  0  0  0  0  0  0  0
    2.8660    0.8210    0.0000 H   0  0  0  0  0  0  0  0  0  0  0  0
    2.2460    0.2010    0.0000 H   0  0  0  0  0  0  0  0  0  0  0  0
    8.3722    0.6640    0.0000 H   0  0  0  0  0  0  0  0  0  0  0  0
    8.5991    1.5110    0.0000 H   0  0  0  0  0  0  0  0  0  0  0  0
    7.7522    1.7379    0.0000 H   0  0  0  0  0  0  0  0  0  0  0  0
    7.2331    1.8770    0.0000 H   0  0  0  0  0  0  0  0  0  0  0  0
    6.3862    2.1039    0.0000 H   0  0  0  0  0  0  0  0  0  0  0  0
    6.1592    1.2570    0.0000 H   0  0  0  0  0  0  0  0  0  0  0  0
    7.1592   -0.4751    0.0000 H   0  0  0  0  0  0  0  0  0  0  0  0
    8.0062   -0.7020    0.0000 H   0  0  0  0  0  0  0  0  0  0  0  0
    8.2331    0.1449    0.0000 H   0  0  0  0  0  0  0  0  0  0  0  0
    9.4842   -2.3360    0.0000 H   0  0  0  0  0  0  0  0  0  0  0  0
   10.3312   -2.1090    0.0000 H   0  0  0  0  0  0  0  0  0  0  0  0
   10.1042   -1.2621    0.0000 H   0  0  0  0  0  0  0  0  0  0  0  0
    9.9651   -0.7430    0.0000 H   0  0  0  0  0  0  0  0  0  0  0  0
    9.7382    0.1039    0.0000 H   0  0  0  0  0  0  0  0  0  0  0  0
    8.8913   -0.1230    0.0000 H   0  0  0  0  0  0  0  0  0  0  0  0
    7.8913   -1.8551    0.0000 H   0  0  0  0  0  0  0  0  0  0  0  0
    8.1182   -2.7020    0.0000 H   0  0  0  0  0  0  0  0  0  0  0  0
    8.9651   -2.4751    0.0000 H   0  0  0  0  0  0  0  0  0  0  0  0
    4.1350    3.9751    0.0000 H   0  0  0  0  0  0  0  0  0  0  0  0
    3.2881    4.2020    0.0000 H   0  0  0  0  0  0  0  0  0  0  0  0
    3.0611    3.3551    0.0000 H   0  0  0  0  0  0  0  0  0  0  0  0
    5.2741    2.7621    0.0000 H   0  0  0  0  0  0  0  0  0  0  0  0
    5.5010    3.6090    0.0000 H   0  0  0  0  0  0  0  0  0  0  0  0
    4.6541    3.8360    0.0000 H   0  0  0  0  0  0  0  0  0  0  0  0
    2.9220    2.8360    0.0000 H   0  0  0  0  0  0  0  0  0  0  0  0
    2.6951    1.9890    0.0000 H   0  0  0  0  0  0  0  0  0  0  0  0
    3.5420    1.7621    0.0000 H   0  0  0  0  0  0  0  0  0  0  0  0
  1  6  1  0  0  0  0
  1 18  1  0  0  0  0
  1 19  1  0  0  0  0
  1 20  1  0  0  0  0
  2  7  1  0  0  0  0
  2 21  1  0  0  0  0
  2 22  1  0  0  0  0
  2 23  1  0  0  0  0
  3  8  1  0  0  0  0
  3 25  1  0  0  0  0
  3 26  1  0  0  0  0
  3 27  1  0  0  0  0
  4  9  1  0  0  0  0
  4 28  1  0  0  0  0
  4 29  1  0  0  0  0
  4 30  1  0  0  0  0
  5 10  1  0  0  0  0
  5 31  1  0  0  0  0
  5 32  1  0  0  0  0
  5 33  1  0  0  0  0
 13  6  1  6  0  0  0
 14  7  1  6  0  0  0
  8 15  1  0  0  0  0
  9 17  1  0  0  0  0
 10 24  1  0  0  0  0
 11 17  2  0  0  0  0
 12 24  2  0  0  0  0
 13 14  1  0  0  0  0
 13 15  1  0  0  0  0
 13 34  1  0  0  0  0
 14 16  1  0  0  0  0
 14 35  1  0  0  0  0
 15 17  1  0  0  0  0
 15 36  1  0  0  0  0
 16 24  1  0  0  0  0
 16 37  1  0  0  0  0
 16 38  1  0  0  0  0
 18 39  1  0  0  0  0
 18 40  1  0  0  0  0
 18 41  1  0  0  0  0
 19 42  1  0  0  0  0
 19 43  1  0  0  0  0
 19 44  1  0  0  0  0
 20 45  1  0  0  0  0
 20 46  1  0  0  0  0
 20 47  1  0  0  0  0
 21 48  1  0  0  0  0
 21 49  1  0  0  0  0
 21 50  1  0  0  0  0
 22 51  1  0  0  0  0
 22 52  1  0  0  0  0
 22 53  1  0  0  0  0
 23 54  1  0  0  0  0
 23 55  1  0  0  0  0
 23 56  1  0  0  0  0
 25 57  1  0  0  0  0
 25 58  1  0  0  0  0
 25 59  1  0  0  0  0
 26 60  1  0  0  0  0
 26 61  1  0  0  0  0
 26 62  1  0  0  0  0
 27 63  1  0  0  0  0
 27 64  1  0  0  0  0
 27 65  1  0  0  0  0
 28 66  1  0  0  0  0
 28 67  1  0  0  0  0
 28 68  1  0  0  0  0
 29 69  1  0  0  0  0
 29 70  1  0  0  0  0
 29 71  1  0  0  0  0
 30 72  1  0  0  0  0
 30 73  1  0  0  0  0
 30 74  1  0  0  0  0
 31 75  1  0  0  0  0
 31 76  1  0  0  0  0
 31 77  1  0  0  0  0
 32 78  1  0  0  0  0
 32 79  1  0  0  0  0
 32 80  1  0  0  0  0
 33 81  1  0  0  0  0
 33 82  1  0  0  0  0
 33 83  1  0  0  0  0
M  END
> <PUBCHEM_COMPOUND_CID>
523330
> <PUBCHEM_COMPOUND_CANONICALIZED>
1
> <PUBCHEM_CACTVS_COMPLEXITY>
652
> <PUBCHEM_CACTVS_HBOND_ACCEPTOR>
7
> <PUBCHEM_CACTVS_HBOND_DONOR>
0
> <PUBCHEM_CACTVS_ROTATABLE_BOND>
15
> <PUBCHEM_CACTVS_SUBSKEYS>
AAADcfB4OAwAAAAAAAAAAAAAAAAAAAAAAAAAAAAAAAAAAAAAAAAAGhAAAEAACBSggAJCCAAAAAEIAACQCAIAAAAAAAAAAAFAAAABABYAAAAAAAAFIAAAAAHKbARAAAAAAAAAAAAAAAAAAAAAAAAAAAAAAA==
> <PUBCHEM_IUPAC_OPENEYE_NAME>
bis(trimethylsilyl) (3R,4R)-2,3,4-tris(trimethylsilyloxy)hexanedioate
> <PUBCHEM_IUPAC_CAS_NAME>
(3R,4R)-2,3,4-tris(trimethylsilyloxy)hexanedioic acid bis(trimethylsilyl) ester
> <PUBCHEM_IUPAC_NAME_MARKUP>
bis(trimethylsilyl) (3<I>R</I>,4<I>R</I>)-2,3,4-tris(trimethylsilyloxy)hexanedioate
> <PUBCHEM_IUPAC_NAME>
bis(trimethylsilyl) (3R,4R)-2,3,4-tris(trimethylsilyloxy)hexanedioate
> <PUBCHEM_IUPAC_SYSTEMATIC_NAME>
bis(trimethylsilyl) (3R,4R)-2,3,4-tris(trimethylsilyloxy)hexanedioate
> <PUBCHEM_IUPAC_TRADITIONAL_NAME>
(3R,4R)-2,3,4-tris(trimethylsilyloxy)adipic acid bis(trimethylsilyl) ester
> <PUBCHEM_IUPAC_INCHI>
InChI=1S/C21H50O7Si5/c1-29(2,3)24-17(16-18(22)25-30(4,5)6)19(26-31(7,8)9)20(27-32(10,11)12)21(23)28-33(13,14)15/h17,19-20H,16H2,1-15H3/t17-,19-,20?/m1/s1
> <PUBCHEM_IUPAC_INCHIKEY>
DLLLLQVGPTWBCA-RIBPFEIKSA-N
> <PUBCHEM_EXACT_MASS>
554.24028660
> <PUBCHEM_MOLECULAR_FORMULA>
C21H50O7Si5
> <PUBCHEM_MOLECULAR_WEIGHT>
555.0
> <PUBCHEM_OPENEYE_CAN_SMILES>
C[Si](C)(C)OC(CC(=O)O[Si](C)(C)C)C(C(C(=O)O[Si](C)(C)C)O[Si](C)(C)C)O[Si](C)(C)C
> <PUBCHEM_OPENEYE_ISO_SMILES>
C[Si](C)(C)O[C@H](CC(=O)O[Si](C)(C)C)[C@H](C(C(=O)O[Si](C)(C)C)O[Si](C)(C)C)O[Si](C)(C)C
> <PUBCHEM_CACTVS_TPSA>
80.3
> <PUBCHEM_MONOISOTOPIC_WEIGHT>
554.24028660
> <PUBCHEM_TOTAL_CHARGE>
0
> <PUBCHEM_HEAVY_ATOM_COUNT>
33
> <PUBCHEM_ATOM_DEF_STEREO_COUNT>
2
> <PUBCHEM_ATOM_UDEF_STEREO_COUNT>
1
> <PUBCHEM_BOND_DEF_STEREO_COUNT>
0
> <PUBCHEM_BOND_UDEF_STEREO_COUNT>
0
> <PUBCHEM_ISOTOPIC_ATOM_COUNT>
0
> <PUBCHEM_COMPONENT_COUNT>
1
> <PUBCHEM_CACTVS_TAUTO_COUNT>
-1
> <PUBCHEM_COORDINATE_TYPE>
1
5
255
> <PUBCHEM_BONDANNOTATIONS>
15  17  3
13  6  6
14  7  6
$$$$
