523325
  -OEChem-10302200292D
 68 67  0     1  0  0  0  0  0999 V2000
    2.9397    0.8271    0.0000 Si  0  0  0  0  0  0  0  0  0  0  0  0
    6.9774    0.1189    0.0000 Si  0  0  0  0  0  0  0  0  0  0  0  0
    6.1114    2.6189    0.0000 Si  0  0  0  0  0  0  0  0  0  0  0  0
    3.4358   -2.8529    0.0000 Si  0  0  0  0  0  0  0  0  0  0  0  0
    3.8794    0.4849    0.0000 O   0  0  0  0  0  0  0  0  0  0  0  0
    6.1114   -0.3811    0.0000 O   0  0  0  0  0  0  0  0  0  0  0  0
    6.1114    1.6189    0.0000 O   0  0  0  0  0  0  0  0  0  0  0  0
    4.0786   -2.0868    0.0000 O   0  0  0  0  0  0  0  0  0  0  0  0
    2.7517   -0.9734    0.0000 O   0  0  0  0  0  0  0  0  0  0  0  0
    4.3793   -0.3811    0.0000 C   0  0  2  0  0  0  0  0  0  0  0  0
    5.2454    0.1189    0.0000 C   0  0  1  0  0  0  0  0  0  0  0  0
    5.2454    1.1189    0.0000 C   0  0  0  0  0  0  0  0  0  0  0  0
    4.8793   -1.2471    0.0000 C   0  0  0  0  0  0  0  0  0  0  0  0
    3.7365   -1.1471    0.0000 C   0  0  0  0  0  0  0  0  0  0  0  0
    3.2817    1.7666    0.0000 C   0  0  0  0  0  0  0  0  0  0  0  0
    2.0000    1.1691    0.0000 C   0  0  0  0  0  0  0  0  0  0  0  0
    2.5976   -0.1127    0.0000 C   0  0  0  0  0  0  0  0  0  0  0  0
    7.8434    0.6189    0.0000 C   0  0  0  0  0  0  0  0  0  0  0  0
    7.4774   -0.7471    0.0000 C   0  0  0  0  0  0  0  0  0  0  0  0
    6.4774    0.9849    0.0000 C   0  0  0  0  0  0  0  0  0  0  0  0
    6.1114    3.6189    0.0000 C   0  0  0  0  0  0  0  0  0  0  0  0
    7.1114    2.6189    0.0000 C   0  0  0  0  0  0  0  0  0  0  0  0
    5.1114    2.6189    0.0000 C   0  0  0  0  0  0  0  0  0  0  0  0
    2.7930   -3.6189    0.0000 C   0  0  0  0  0  0  0  0  0  0  0  0
    4.2019   -3.4957    0.0000 C   0  0  0  0  0  0  0  0  0  0  0  0
    2.6697   -2.2100    0.0000 C   0  0  0  0  0  0  0  0  0  0  0  0
    5.2454   -0.5011    0.0000 H   0  0  0  0  0  0  0  0  0  0  0  0
    5.0333    1.7015    0.0000 H   0  0  0  0  0  0  0  0  0  0  0  0
    4.6348    1.0112    0.0000 H   0  0  0  0  0  0  0  0  0  0  0  0
    4.3424   -1.5571    0.0000 H   0  0  0  0  0  0  0  0  0  0  0  0
    5.1894   -1.7840    0.0000 H   0  0  0  0  0  0  0  0  0  0  0  0
    5.4163   -0.9371    0.0000 H   0  0  0  0  0  0  0  0  0  0  0  0
    3.8643    1.5546    0.0000 H   0  0  0  0  0  0  0  0  0  0  0  0
    3.4937    2.3493    0.0000 H   0  0  0  0  0  0  0  0  0  0  0  0
    2.6991    1.9787    0.0000 H   0  0  0  0  0  0  0  0  0  0  0  0
    2.2120    1.7517    0.0000 H   0  0  0  0  0  0  0  0  0  0  0  0
    1.4174    1.3811    0.0000 H   0  0  0  0  0  0  0  0  0  0  0  0
    1.7880    0.5865    0.0000 H   0  0  0  0  0  0  0  0  0  0  0  0
    2.0150    0.0993    0.0000 H   0  0  0  0  0  0  0  0  0  0  0  0
    2.3856   -0.6953    0.0000 H   0  0  0  0  0  0  0  0  0  0  0  0
    3.1802   -0.3248    0.0000 H   0  0  0  0  0  0  0  0  0  0  0  0
    8.1534    0.0820    0.0000 H   0  0  0  0  0  0  0  0  0  0  0  0
    8.3804    0.9289    0.0000 H   0  0  0  0  0  0  0  0  0  0  0  0
    7.5334    1.1558    0.0000 H   0  0  0  0  0  0  0  0  0  0  0  0
    6.9405   -1.0571    0.0000 H   0  0  0  0  0  0  0  0  0  0  0  0
    7.7874   -1.2840    0.0000 H   0  0  0  0  0  0  0  0  0  0  0  0
    8.0144   -0.4371    0.0000 H   0  0  0  0  0  0  0  0  0  0  0  0
    7.0144    1.2949    0.0000 H   0  0  0  0  0  0  0  0  0  0  0  0
    6.1674    1.5219    0.0000 H   0  0  0  0  0  0  0  0  0  0  0  0
    5.9405    0.6749    0.0000 H   0  0  0  0  0  0  0  0  0  0  0  0
    6.7314    3.6189    0.0000 H   0  0  0  0  0  0  0  0  0  0  0  0
    6.1114    4.2389    0.0000 H   0  0  0  0  0  0  0  0  0  0  0  0
    5.4914    3.6189    0.0000 H   0  0  0  0  0  0  0  0  0  0  0  0
    7.1114    1.9989    0.0000 H   0  0  0  0  0  0  0  0  0  0  0  0
    7.7314    2.6189    0.0000 H   0  0  0  0  0  0  0  0  0  0  0  0
    7.1114    3.2389    0.0000 H   0  0  0  0  0  0  0  0  0  0  0  0
    5.1114    3.2389    0.0000 H   0  0  0  0  0  0  0  0  0  0  0  0
    4.4914    2.6189    0.0000 H   0  0  0  0  0  0  0  0  0  0  0  0
    5.1114    1.9989    0.0000 H   0  0  0  0  0  0  0  0  0  0  0  0
    2.3181   -3.2204    0.0000 H   0  0  0  0  0  0  0  0  0  0  0  0
    2.3945   -4.0939    0.0000 H   0  0  0  0  0  0  0  0  0  0  0  0
    3.2680   -4.0174    0.0000 H   0  0  0  0  0  0  0  0  0  0  0  0
    3.8034   -3.9706    0.0000 H   0  0  0  0  0  0  0  0  0  0  0  0
    4.6768   -3.8942    0.0000 H   0  0  0  0  0  0  0  0  0  0  0  0
    4.6004   -3.0207    0.0000 H   0  0  0  0  0  0  0  0  0  0  0  0
    3.0682   -1.7351    0.0000 H   0  0  0  0  0  0  0  0  0  0  0  0
    2.1948   -1.8115    0.0000 H   0  0  0  0  0  0  0  0  0  0  0  0
    2.2712   -2.6850    0.0000 H   0  0  0  0  0  0  0  0  0  0  0  0
  1  5  1  0  0  0  0
  1 15  1  0  0  0  0
  1 16  1  0  0  0  0
  1 17  1  0  0  0  0
  2  6  1  0  0  0  0
  2 18  1  0  0  0  0
  2 19  1  0  0  0  0
  2 20  1  0  0  0  0
  3  7  1  0  0  0  0
  3 21  1  0  0  0  0
  3 22  1  0  0  0  0
  3 23  1  0  0  0  0
  4  8  1  0  0  0  0
  4 24  1  0  0  0  0
  4 25  1  0  0  0  0
  4 26  1  0  0  0  0
 10  5  1  6  0  0  0
 11  6  1  1  0  0  0
  7 12  1  0  0  0  0
  8 14  1  0  0  0  0
  9 14  2  0  0  0  0
 10 11  1  0  0  0  0
 10 13  1  0  0  0  0
 10 14  1  0  0  0  0
 11 12  1  0  0  0  0
 11 27  1  0  0  0  0
 12 28  1  0  0  0  0
 12 29  1  0  0  0  0
 13 30  1  0  0  0  0
 13 31  1  0  0  0  0
 13 32  1  0  0  0  0
 15 33  1  0  0  0  0
 15 34  1  0  0  0  0
 15 35  1  0  0  0  0
 16 36  1  0  0  0  0
 16 37  1  0  0  0  0
 16 38  1  0  0  0  0
 17 39  1  0  0  0  0
 17 40  1  0  0  0  0
 17 41  1  0  0  0  0
 18 42  1  0  0  0  0
 18 43  1  0  0  0  0
 18 44  1  0  0  0  0
 19 45  1  0  0  0  0
 19 46  1  0  0  0  0
 19 47  1  0  0  0  0
 20 48  1  0  0  0  0
 20 49  1  0  0  0  0
 20 50  1  0  0  0  0
 21 51  1  0  0  0  0
 21 52  1  0  0  0  0
 21 53  1  0  0  0  0
 22 54  1  0  0  0  0
 22 55  1  0  0  0  0
 22 56  1  0  0  0  0
 23 57  1  0  0  0  0
 23 58  1  0  0  0  0
 23 59  1  0  0  0  0
 24 60  1  0  0  0  0
 24 61  1  0  0  0  0
 24 62  1  0  0  0  0
 25 63  1  0  0  0  0
 25 64  1  0  0  0  0
 25 65  1  0  0  0  0
 26 66  1  0  0  0  0
 26 67  1  0  0  0  0
 26 68  1  0  0  0  0
M  END
> <PUBCHEM_COMPOUND_CID>
523325
> <PUBCHEM_COMPOUND_CANONICALIZED>
1
> <PUBCHEM_CACTVS_COMPLEXITY>
472
> <PUBCHEM_CACTVS_HBOND_ACCEPTOR>
5
> <PUBCHEM_CACTVS_HBOND_DONOR>
0
> <PUBCHEM_CACTVS_ROTATABLE_BOND>
11
> <PUBCHEM_CACTVS_SUBSKEYS>
AAADcfB4OAwAAAAAAAAAAAAAAAAAAAAAAAAAAAAAAAAAAAAAAAAAGhAAAEAADFSggAJCCAAAAAEIAACQCAIAAAAAAAAAAAFAAAABABQAAAAAAAAFIAAAAABCAAAIAAAAAAAAAAAAAAAAAAAAAAAAAAAAAA==
> <PUBCHEM_IUPAC_OPENEYE_NAME>
trimethylsilyl (2S,3R)-2-methyl-2,3,4-tris(trimethylsilyloxy)butanoate
> <PUBCHEM_IUPAC_CAS_NAME>
(2S,3R)-2-methyl-2,3,4-tris(trimethylsilyloxy)butanoic acid trimethylsilyl ester
> <PUBCHEM_IUPAC_NAME_MARKUP>
trimethylsilyl (2<I>S</I>,3<I>R</I>)-2-methyl-2,3,4-tris(trimethylsilyloxy)butanoate
> <PUBCHEM_IUPAC_NAME>
trimethylsilyl (2S,3R)-2-methyl-2,3,4-tris(trimethylsilyloxy)butanoate
> <PUBCHEM_IUPAC_SYSTEMATIC_NAME>
trimethylsilyl (2S,3R)-2-methyl-2,3,4-tris(trimethylsilyloxy)butanoate
> <PUBCHEM_IUPAC_TRADITIONAL_NAME>
(2S,3R)-2-methyl-2,3,4-tris(trimethylsilyloxy)butyric acid trimethylsilyl ester
> <PUBCHEM_IUPAC_INCHI>
InChI=1S/C17H42O5Si4/c1-17(22-26(11,12)13,16(18)21-25(8,9)10)15(20-24(5,6)7)14-19-23(2,3)4/h15H,14H2,1-13H3/t15-,17+/m1/s1
> <PUBCHEM_IUPAC_INCHIKEY>
UZLWHXGOWNGVDE-WBVHZDCISA-N
> <PUBCHEM_EXACT_MASS>
438.21093057
> <PUBCHEM_MOLECULAR_FORMULA>
C17H42O5Si4
> <PUBCHEM_MOLECULAR_WEIGHT>
438.9
> <PUBCHEM_OPENEYE_CAN_SMILES>
CC(C(CO[Si](C)(C)C)O[Si](C)(C)C)(C(=O)O[Si](C)(C)C)O[Si](C)(C)C
> <PUBCHEM_OPENEYE_ISO_SMILES>
C[C@]([C@@H](CO[Si](C)(C)C)O[Si](C)(C)C)(C(=O)O[Si](C)(C)C)O[Si](C)(C)C
> <PUBCHEM_CACTVS_TPSA>
54
> <PUBCHEM_MONOISOTOPIC_WEIGHT>
438.21093057
> <PUBCHEM_TOTAL_CHARGE>
0
> <PUBCHEM_HEAVY_ATOM_COUNT>
26
> <PUBCHEM_ATOM_DEF_STEREO_COUNT>
2
> <PUBCHEM_ATOM_UDEF_STEREO_COUNT>
0
> <PUBCHEM_BOND_DEF_STEREO_COUNT>
0
> <PUBCHEM_BOND_UDEF_STEREO_COUNT>
0
> <PUBCHEM_ISOTOPIC_ATOM_COUNT>
0
> <PUBCHEM_COMPONENT_COUNT>
1
> <PUBCHEM_CACTVS_TAUTO_COUNT>
-1
> <PUBCHEM_COORDINATE_TYPE>
1
5
255
> <PUBCHEM_BONDANNOTATIONS>
10  5  6
11  6  5
$$$$
