523382
  -OEChem-10302200292D
 70 70  0     1  0  0  0  0  0999 V2000
    4.3803    1.1916    0.0000 Si  0  0  0  0  0  0  0  0  0  0  0  0
    2.7431   -1.2563    0.0000 Si  0  0  0  0  0  0  0  0  0  0  0  0
    8.7006   -0.9473    0.0000 Si  0  0  0  0  0  0  0  0  0  0  0  0
    8.3733    1.6781    0.0000 Si  0  0  0  0  0  0  0  0  0  0  0  0
    5.7464   -1.8473    0.0000 O   0  0  0  0  0  0  0  0  0  0  0  0
    5.2464    0.6916    0.0000 O   0  0  0  0  0  0  0  0  0  0  0  0
    3.4863   -0.5872    0.0000 O   0  0  0  0  0  0  0  0  0  0  0  0
    7.7496   -1.2563    0.0000 O   0  0  0  0  0  0  0  0  0  0  0  0
    8.1654    0.7000    0.0000 O   0  0  0  0  0  0  0  0  0  0  0  0
    4.1586   -2.6563    0.0000 O   0  0  0  0  0  0  0  0  0  0  0  0
    6.0554   -0.8962    0.0000 C   0  0  3  0  0  0  0  0  0  0  0  0
    5.2464   -0.3084    0.0000 C   0  0  3  0  0  0  0  0  0  0  0  0
    4.4374   -0.8962    0.0000 C   0  0  3  0  0  0  0  0  0  0  0  0
    7.0064   -0.5872    0.0000 C   0  0  3  0  0  0  0  0  0  0  0  0
    4.7464   -1.8473    0.0000 C   0  0  0  0  0  0  0  0  0  0  0  0
    7.2144    0.3910    0.0000 C   0  0  0  0  0  0  0  0  0  0  0  0
    3.5143    1.6916    0.0000 C   0  0  0  0  0  0  0  0  0  0  0  0
    4.8803    2.0576    0.0000 C   0  0  0  0  0  0  0  0  0  0  0  0
    3.8803    0.3256    0.0000 C   0  0  0  0  0  0  0  0  0  0  0  0
    2.0000   -1.9254    0.0000 C   0  0  0  0  0  0  0  0  0  0  0  0
    2.0740   -0.5132    0.0000 C   0  0  0  0  0  0  0  0  0  0  0  0
    3.4123   -1.9995    0.0000 C   0  0  0  0  0  0  0  0  0  0  0  0
    9.6517   -0.6383    0.0000 C   0  0  0  0  0  0  0  0  0  0  0  0
    9.0096   -1.8984    0.0000 C   0  0  0  0  0  0  0  0  0  0  0  0
    8.3916    0.0038    0.0000 C   0  0  0  0  0  0  0  0  0  0  0  0
    8.5812    2.6563    0.0000 C   0  0  0  0  0  0  0  0  0  0  0  0
    9.3515    1.4702    0.0000 C   0  0  0  0  0  0  0  0  0  0  0  0
    7.3952    1.8860    0.0000 C   0  0  0  0  0  0  0  0  0  0  0  0
    6.4938   -1.3346    0.0000 H   0  0  0  0  0  0  0  0  0  0  0  0
    5.7988   -0.0269    0.0000 H   0  0  0  0  0  0  0  0  0  0  0  0
    3.9989   -1.3346    0.0000 H   0  0  0  0  0  0  0  0  0  0  0  0
    7.5961   -0.3956    0.0000 H   0  0  0  0  0  0  0  0  0  0  0  0
    7.1281    1.0049    0.0000 H   0  0  0  0  0  0  0  0  0  0  0  0
    6.5947    0.4126    0.0000 H   0  0  0  0  0  0  0  0  0  0  0  0
    3.8243    2.2285    0.0000 H   0  0  0  0  0  0  0  0  0  0  0  0
    2.9774    2.0016    0.0000 H   0  0  0  0  0  0  0  0  0  0  0  0
    3.2043    1.1546    0.0000 H   0  0  0  0  0  0  0  0  0  0  0  0
    5.4173    1.7476    0.0000 H   0  0  0  0  0  0  0  0  0  0  0  0
    5.1903    2.5945    0.0000 H   0  0  0  0  0  0  0  0  0  0  0  0
    4.3434    2.3676    0.0000 H   0  0  0  0  0  0  0  0  0  0  0  0
    3.3434    0.6356    0.0000 H   0  0  0  0  0  0  0  0  0  0  0  0
    3.5703   -0.2114    0.0000 H   0  0  0  0  0  0  0  0  0  0  0  0
    4.4173    0.0156    0.0000 H   0  0  0  0  0  0  0  0  0  0  0  0
    9.8433   -1.2279    0.0000 H   0  0  0  0  0  0  0  0  0  0  0  0
   10.2413   -0.4467    0.0000 H   0  0  0  0  0  0  0  0  0  0  0  0
    9.4601   -0.0486    0.0000 H   0  0  0  0  0  0  0  0  0  0  0  0
    8.4200   -2.0900    0.0000 H   0  0  0  0  0  0  0  0  0  0  0  0
    9.2012   -2.4880    0.0000 H   0  0  0  0  0  0  0  0  0  0  0  0
    9.5993   -1.7068    0.0000 H   0  0  0  0  0  0  0  0  0  0  0  0
    8.9813    0.1953    0.0000 H   0  0  0  0  0  0  0  0  0  0  0  0
    8.2000    0.5934    0.0000 H   0  0  0  0  0  0  0  0  0  0  0  0
    7.8020   -0.1878    0.0000 H   0  0  0  0  0  0  0  0  0  0  0  0
    1.5851   -1.4647    0.0000 H   0  0  0  0  0  0  0  0  0  0  0  0
    1.5392   -2.3403    0.0000 H   0  0  0  0  0  0  0  0  0  0  0  0
    2.4149   -2.3862    0.0000 H   0  0  0  0  0  0  0  0  0  0  0  0
    2.5348   -0.0983    0.0000 H   0  0  0  0  0  0  0  0  0  0  0  0
    1.6592   -0.0524    0.0000 H   0  0  0  0  0  0  0  0  0  0  0  0
    1.6133   -0.9280    0.0000 H   0  0  0  0  0  0  0  0  0  0  0  0
    2.9515   -2.4143    0.0000 H   0  0  0  0  0  0  0  0  0  0  0  0
    3.8271   -2.4602    0.0000 H   0  0  0  0  0  0  0  0  0  0  0  0
    3.8730   -1.5846    0.0000 H   0  0  0  0  0  0  0  0  0  0  0  0
    9.1877    2.5274    0.0000 H   0  0  0  0  0  0  0  0  0  0  0  0
    8.7101    3.2627    0.0000 H   0  0  0  0  0  0  0  0  0  0  0  0
    7.9748    2.7852    0.0000 H   0  0  0  0  0  0  0  0  0  0  0  0
    9.2226    0.8638    0.0000 H   0  0  0  0  0  0  0  0  0  0  0  0
    9.9579    1.3413    0.0000 H   0  0  0  0  0  0  0  0  0  0  0  0
    9.4804    2.0767    0.0000 H   0  0  0  0  0  0  0  0  0  0  0  0
    7.5241    2.4925    0.0000 H   0  0  0  0  0  0  0  0  0  0  0  0
    6.7887    2.0149    0.0000 H   0  0  0  0  0  0  0  0  0  0  0  0
    7.2663    1.2796    0.0000 H   0  0  0  0  0  0  0  0  0  0  0  0
  1  6  1  0  0  0  0
  1 17  1  0  0  0  0
  1 18  1  0  0  0  0
  1 19  1  0  0  0  0
  2  7  1  0  0  0  0
  2 20  1  0  0  0  0
  2 21  1  0  0  0  0
  2 22  1  0  0  0  0
  3  8  1  0  0  0  0
  3 23  1  0  0  0  0
  3 24  1  0  0  0  0
  3 25  1  0  0  0  0
  4  9  1  0  0  0  0
  4 26  1  0  0  0  0
  4 27  1  0  0  0  0
  4 28  1  0  0  0  0
  5 11  1  0  0  0  0
  5 15  1  0  0  0  0
  6 12  1  0  0  0  0
  7 13  1  0  0  0  0
  8 14  1  0  0  0  0
  9 16  1  0  0  0  0
 10 15  2  0  0  0  0
 11 12  1  0  0  0  0
 11 14  1  0  0  0  0
 11 29  1  0  0  0  0
 12 13  1  0  0  0  0
 12 30  1  0  0  0  0
 13 15  1  0  0  0  0
 13 31  1  0  0  0  0
 14 16  1  0  0  0  0
 14 32  1  0  0  0  0
 16 33  1  0  0  0  0
 16 34  1  0  0  0  0
 17 35  1  0  0  0  0
 17 36  1  0  0  0  0
 17 37  1  0  0  0  0
 18 38  1  0  0  0  0
 18 39  1  0  0  0  0
 18 40  1  0  0  0  0
 19 41  1  0  0  0  0
 19 42  1  0  0  0  0
 19 43  1  0  0  0  0
 20 53  1  0  0  0  0
 20 54  1  0  0  0  0
 20 55  1  0  0  0  0
 21 56  1  0  0  0  0
 21 57  1  0  0  0  0
 21 58  1  0  0  0  0
 22 59  1  0  0  0  0
 22 60  1  0  0  0  0
 22 61  1  0  0  0  0
 23 44  1  0  0  0  0
 23 45  1  0  0  0  0
 23 46  1  0  0  0  0
 24 47  1  0  0  0  0
 24 48  1  0  0  0  0
 24 49  1  0  0  0  0
 25 50  1  0  0  0  0
 25 51  1  0  0  0  0
 25 52  1  0  0  0  0
 26 62  1  0  0  0  0
 26 63  1  0  0  0  0
 26 64  1  0  0  0  0
 27 65  1  0  0  0  0
 27 66  1  0  0  0  0
 27 67  1  0  0  0  0
 28 68  1  0  0  0  0
 28 69  1  0  0  0  0
 28 70  1  0  0  0  0
M  END
> <PUBCHEM_COMPOUND_CID>
523382
> <PUBCHEM_COMPOUND_CANONICALIZED>
1
> <PUBCHEM_CACTVS_COMPLEXITY>
530
> <PUBCHEM_CACTVS_HBOND_ACCEPTOR>
6
> <PUBCHEM_CACTVS_HBOND_DONOR>
0
> <PUBCHEM_CACTVS_ROTATABLE_BOND>
10
> <PUBCHEM_CACTVS_SUBSKEYS>
AAADcfB4OAwAAAAAAAAAAAAAAAAAASAAAAAAAAAAAAAAAAAAAAAAGhAAAEAACBSggAJCCAAABAEIAACQCAIAAAAAAAAAAAFAAAABABYAAAACAAAFIAACAAHKbARAAAAAAAAAAAAAAAAAAAAAAAAAAAAAAA==
> <PUBCHEM_IUPAC_OPENEYE_NAME>
5-[1,2-bis(trimethylsilyloxy)ethyl]-3,4-bis(trimethylsilyloxy)tetrahydrofuran-2-one
> <PUBCHEM_IUPAC_CAS_NAME>
5-[1,2-bis(trimethylsilyloxy)ethyl]-3,4-bis(trimethylsilyloxy)-2-oxolanone
> <PUBCHEM_IUPAC_NAME_MARKUP>
5-[1,2-bis(trimethylsilyloxy)ethyl]-3,4-bis(trimethylsilyloxy)oxolan-2-one
> <PUBCHEM_IUPAC_NAME>
5-[1,2-bis(trimethylsilyloxy)ethyl]-3,4-bis(trimethylsilyloxy)oxolan-2-one
> <PUBCHEM_IUPAC_SYSTEMATIC_NAME>
5-[1,2-bis(trimethylsilyloxy)ethyl]-3,4-bis(trimethylsilyloxy)oxolan-2-one
> <PUBCHEM_IUPAC_TRADITIONAL_NAME>
5-[1,2-bis(trimethylsilyloxy)ethyl]-3,4-bis(trimethylsilyloxy)tetrahydrofuran-2-one
> <PUBCHEM_IUPAC_INCHI>
InChI=1S/C18H42O6Si4/c1-25(2,3)20-13-14(22-26(4,5)6)15-16(23-27(7,8)9)17(18(19)21-15)24-28(10,11)12/h14-17H,13H2,1-12H3
> <PUBCHEM_IUPAC_INCHIKEY>
FTOCXQVQZOFUDF-UHFFFAOYSA-N
> <PUBCHEM_EXACT_MASS>
466.20584519
> <PUBCHEM_MOLECULAR_FORMULA>
C18H42O6Si4
> <PUBCHEM_MOLECULAR_WEIGHT>
466.9
> <PUBCHEM_OPENEYE_CAN_SMILES>
C[Si](C)(C)OCC(C1C(C(C(=O)O1)O[Si](C)(C)C)O[Si](C)(C)C)O[Si](C)(C)C
> <PUBCHEM_OPENEYE_ISO_SMILES>
C[Si](C)(C)OCC(C1C(C(C(=O)O1)O[Si](C)(C)C)O[Si](C)(C)C)O[Si](C)(C)C
> <PUBCHEM_CACTVS_TPSA>
63.2
> <PUBCHEM_MONOISOTOPIC_WEIGHT>
466.20584519
> <PUBCHEM_TOTAL_CHARGE>
0
> <PUBCHEM_HEAVY_ATOM_COUNT>
28
> <PUBCHEM_ATOM_DEF_STEREO_COUNT>
0
> <PUBCHEM_ATOM_UDEF_STEREO_COUNT>
4
> <PUBCHEM_BOND_DEF_STEREO_COUNT>
0
> <PUBCHEM_BOND_UDEF_STEREO_COUNT>
0
> <PUBCHEM_ISOTOPIC_ATOM_COUNT>
0
> <PUBCHEM_COMPONENT_COUNT>
1
> <PUBCHEM_CACTVS_TAUTO_COUNT>
-1
> <PUBCHEM_COORDINATE_TYPE>
1
5
255
> <PUBCHEM_BONDANNOTATIONS>
14  16  3
11  5  3
12  6  3
13  7  3
$$$$
