523373
  -OEChem-10302200292D
 87 86  0     1  0  0  0  0  0999 V2000
    8.0622   -2.3170    0.0000 Si  0  0  0  0  0  0  0  0  0  0  0  0
    9.7942   -0.3170    0.0000 Si  0  0  0  0  0  0  0  0  0  0  0  0
    4.5981   -2.3170    0.0000 Si  0  0  0  0  0  0  0  0  0  0  0  0
    8.9282    2.1830    0.0000 Si  0  0  0  0  0  0  0  0  0  0  0  0
    2.8660   -0.3170    0.0000 Si  0  0  0  0  0  0  0  0  0  0  0  0
    7.1962   -1.8170    0.0000 O   0  0  0  0  0  0  0  0  0  0  0  0
    8.9282   -0.8170    0.0000 O   0  0  0  0  0  0  0  0  0  0  0  0
    5.4641   -1.8170    0.0000 O   0  0  0  0  0  0  0  0  0  0  0  0
    6.3301    0.6830    0.0000 O   0  0  0  0  0  0  0  0  0  0  0  0
    8.9282    1.1830    0.0000 O   0  0  0  0  0  0  0  0  0  0  0  0
    3.7320   -0.8170    0.0000 O   0  0  0  0  0  0  0  0  0  0  0  0
    7.1962    1.1830    0.0000 O   0  0  0  0  0  0  0  0  0  0  0  0
    4.5981    0.6830    0.0000 O   0  0  0  0  0  0  0  0  0  0  0  0
    7.1962   -0.8170    0.0000 C   0  0  1  0  0  0  0  0  0  0  0  0
    6.3301   -0.3170    0.0000 C   0  0  1  0  0  0  0  0  0  0  0  0
    8.0622   -0.3170    0.0000 C   0  0  2  0  0  0  0  0  0  0  0  0
    5.4641   -0.8170    0.0000 C   0  0  2  0  0  0  0  0  0  0  0  0
    8.0622    0.6830    0.0000 C   0  0  0  0  0  0  0  0  0  0  0  0
    4.5981   -0.3170    0.0000 C   0  0  0  0  0  0  0  0  0  0  0  0
    7.5622   -3.1830    0.0000 C   0  0  0  0  0  0  0  0  0  0  0  0
    8.9282   -2.8170    0.0000 C   0  0  0  0  0  0  0  0  0  0  0  0
    8.5622   -1.4510    0.0000 C   0  0  0  0  0  0  0  0  0  0  0  0
   10.6603    0.1830    0.0000 C   0  0  0  0  0  0  0  0  0  0  0  0
   10.2942   -1.1830    0.0000 C   0  0  0  0  0  0  0  0  0  0  0  0
    9.2942    0.5490    0.0000 C   0  0  0  0  0  0  0  0  0  0  0  0
    3.7320   -2.8170    0.0000 C   0  0  0  0  0  0  0  0  0  0  0  0
    4.0981   -1.4510    0.0000 C   0  0  0  0  0  0  0  0  0  0  0  0
    5.0981   -3.1830    0.0000 C   0  0  0  0  0  0  0  0  0  0  0  0
    5.4641    1.1830    0.0000 C   0  0  0  0  0  0  0  0  0  0  0  0
    8.9282    3.1830    0.0000 C   0  0  0  0  0  0  0  0  0  0  0  0
    9.9282    2.1830    0.0000 C   0  0  0  0  0  0  0  0  0  0  0  0
    7.9282    2.1830    0.0000 C   0  0  0  0  0  0  0  0  0  0  0  0
    2.0000    0.1830    0.0000 C   0  0  0  0  0  0  0  0  0  0  0  0
    2.3660   -1.1830    0.0000 C   0  0  0  0  0  0  0  0  0  0  0  0
    3.3660    0.5490    0.0000 C   0  0  0  0  0  0  0  0  0  0  0  0
    6.6592   -1.1270    0.0000 H   0  0  0  0  0  0  0  0  0  0  0  0
    6.8671   -0.0070    0.0000 H   0  0  0  0  0  0  0  0  0  0  0  0
    8.0622   -0.9370    0.0000 H   0  0  0  0  0  0  0  0  0  0  0  0
    6.0010   -1.1270    0.0000 H   0  0  0  0  0  0  0  0  0  0  0  0
    7.0252   -2.8730    0.0000 H   0  0  0  0  0  0  0  0  0  0  0  0
    7.2522   -3.7200    0.0000 H   0  0  0  0  0  0  0  0  0  0  0  0
    8.0991   -3.4930    0.0000 H   0  0  0  0  0  0  0  0  0  0  0  0
    8.6182   -3.3539    0.0000 H   0  0  0  0  0  0  0  0  0  0  0  0
    9.4651   -3.1270    0.0000 H   0  0  0  0  0  0  0  0  0  0  0  0
    9.2382   -2.2800    0.0000 H   0  0  0  0  0  0  0  0  0  0  0  0
    9.0991   -1.7610    0.0000 H   0  0  0  0  0  0  0  0  0  0  0  0
    8.8722   -0.9140    0.0000 H   0  0  0  0  0  0  0  0  0  0  0  0
    8.0252   -1.1410    0.0000 H   0  0  0  0  0  0  0  0  0  0  0  0
   10.9703   -0.3539    0.0000 H   0  0  0  0  0  0  0  0  0  0  0  0
   11.1972    0.4930    0.0000 H   0  0  0  0  0  0  0  0  0  0  0  0
   10.3503    0.7199    0.0000 H   0  0  0  0  0  0  0  0  0  0  0  0
    9.7573   -1.4930    0.0000 H   0  0  0  0  0  0  0  0  0  0  0  0
   10.6042   -1.7200    0.0000 H   0  0  0  0  0  0  0  0  0  0  0  0
   10.8312   -0.8730    0.0000 H   0  0  0  0  0  0  0  0  0  0  0  0
    9.8312    0.8590    0.0000 H   0  0  0  0  0  0  0  0  0  0  0  0
    8.9842    1.0860    0.0000 H   0  0  0  0  0  0  0  0  0  0  0  0
    8.7573    0.2390    0.0000 H   0  0  0  0  0  0  0  0  0  0  0  0
    3.4220   -2.2800    0.0000 H   0  0  0  0  0  0  0  0  0  0  0  0
    3.1951   -3.1270    0.0000 H   0  0  0  0  0  0  0  0  0  0  0  0
    4.0420   -3.3539    0.0000 H   0  0  0  0  0  0  0  0  0  0  0  0
    4.6350   -1.1410    0.0000 H   0  0  0  0  0  0  0  0  0  0  0  0
    3.7881   -0.9140    0.0000 H   0  0  0  0  0  0  0  0  0  0  0  0
    3.5611   -1.7610    0.0000 H   0  0  0  0  0  0  0  0  0  0  0  0
    4.5611   -3.4930    0.0000 H   0  0  0  0  0  0  0  0  0  0  0  0
    5.4081   -3.7200    0.0000 H   0  0  0  0  0  0  0  0  0  0  0  0
    5.6350   -2.8730    0.0000 H   0  0  0  0  0  0  0  0  0  0  0  0
    5.7741    1.7200    0.0000 H   0  0  0  0  0  0  0  0  0  0  0  0
    4.9272    1.4930    0.0000 H   0  0  0  0  0  0  0  0  0  0  0  0
    5.1541    0.6461    0.0000 H   0  0  0  0  0  0  0  0  0  0  0  0
    9.5482    3.1830    0.0000 H   0  0  0  0  0  0  0  0  0  0  0  0
    8.9282    3.8030    0.0000 H   0  0  0  0  0  0  0  0  0  0  0  0
    8.3082    3.1830    0.0000 H   0  0  0  0  0  0  0  0  0  0  0  0
    9.9282    1.5630    0.0000 H   0  0  0  0  0  0  0  0  0  0  0  0
   10.5482    2.1830    0.0000 H   0  0  0  0  0  0  0  0  0  0  0  0
    9.9282    2.8030    0.0000 H   0  0  0  0  0  0  0  0  0  0  0  0
    7.9282    2.8030    0.0000 H   0  0  0  0  0  0  0  0  0  0  0  0
    7.3082    2.1830    0.0000 H   0  0  0  0  0  0  0  0  0  0  0  0
    7.9282    1.5630    0.0000 H   0  0  0  0  0  0  0  0  0  0  0  0
    2.3100    0.7199    0.0000 H   0  0  0  0  0  0  0  0  0  0  0  0
    1.4631    0.4930    0.0000 H   0  0  0  0  0  0  0  0  0  0  0  0
    1.6900   -0.3539    0.0000 H   0  0  0  0  0  0  0  0  0  0  0  0
    1.8291   -0.8730    0.0000 H   0  0  0  0  0  0  0  0  0  0  0  0
    2.0560   -1.7200    0.0000 H   0  0  0  0  0  0  0  0  0  0  0  0
    2.9030   -1.4930    0.0000 H   0  0  0  0  0  0  0  0  0  0  0  0
    3.9030    0.2390    0.0000 H   0  0  0  0  0  0  0  0  0  0  0  0
    3.6760    1.0860    0.0000 H   0  0  0  0  0  0  0  0  0  0  0  0
    2.8291    0.8590    0.0000 H   0  0  0  0  0  0  0  0  0  0  0  0
  1  6  1  0  0  0  0
  1 20  1  0  0  0  0
  1 21  1  0  0  0  0
  1 22  1  0  0  0  0
  2  7  1  0  0  0  0
  2 23  1  0  0  0  0
  2 24  1  0  0  0  0
  2 25  1  0  0  0  0
  3  8  1  0  0  0  0
  3 26  1  0  0  0  0
  3 27  1  0  0  0  0
  3 28  1  0  0  0  0
  4 10  1  0  0  0  0
  4 30  1  0  0  0  0
  4 31  1  0  0  0  0
  4 32  1  0  0  0  0
  5 11  1  0  0  0  0
  5 33  1  0  0  0  0
  5 34  1  0  0  0  0
  5 35  1  0  0  0  0
 14  6  1  1  0  0  0
 16  7  1  6  0  0  0
 17  8  1  1  0  0  0
 15  9  1  1  0  0  0
  9 29  1  0  0  0  0
 10 18  1  0  0  0  0
 11 19  1  0  0  0  0
 12 18  2  0  0  0  0
 13 19  2  0  0  0  0
 14 15  1  0  0  0  0
 14 16  1  0  0  0  0
 14 36  1  0  0  0  0
 15 17  1  0  0  0  0
 15 37  1  0  0  0  0
 16 18  1  0  0  0  0
 16 38  1  0  0  0  0
 17 19  1  0  0  0  0
 17 39  1  0  0  0  0
 20 40  1  0  0  0  0
 20 41  1  0  0  0  0
 20 42  1  0  0  0  0
 21 43  1  0  0  0  0
 21 44  1  0  0  0  0
 21 45  1  0  0  0  0
 22 46  1  0  0  0  0
 22 47  1  0  0  0  0
 22 48  1  0  0  0  0
 23 49  1  0  0  0  0
 23 50  1  0  0  0  0
 23 51  1  0  0  0  0
 24 52  1  0  0  0  0
 24 53  1  0  0  0  0
 24 54  1  0  0  0  0
 25 55  1  0  0  0  0
 25 56  1  0  0  0  0
 25 57  1  0  0  0  0
 26 58  1  0  0  0  0
 26 59  1  0  0  0  0
 26 60  1  0  0  0  0
 27 61  1  0  0  0  0
 27 62  1  0  0  0  0
 27 63  1  0  0  0  0
 28 64  1  0  0  0  0
 28 65  1  0  0  0  0
 28 66  1  0  0  0  0
 29 67  1  0  0  0  0
 29 68  1  0  0  0  0
 29 69  1  0  0  0  0
 30 70  1  0  0  0  0
 30 71  1  0  0  0  0
 30 72  1  0  0  0  0
 31 73  1  0  0  0  0
 31 74  1  0  0  0  0
 31 75  1  0  0  0  0
 32 76  1  0  0  0  0
 32 77  1  0  0  0  0
 32 78  1  0  0  0  0
 33 79  1  0  0  0  0
 33 80  1  0  0  0  0
 33 81  1  0  0  0  0
 34 82  1  0  0  0  0
 34 83  1  0  0  0  0
 34 84  1  0  0  0  0
 35 85  1  0  0  0  0
 35 86  1  0  0  0  0
 35 87  1  0  0  0  0
M  END
> <PUBCHEM_COMPOUND_CID>
523373
> <PUBCHEM_COMPOUND_CANONICALIZED>
1
> <PUBCHEM_CACTVS_COMPLEXITY>
699
> <PUBCHEM_CACTVS_HBOND_ACCEPTOR>
8
> <PUBCHEM_CACTVS_HBOND_DONOR>
0
> <PUBCHEM_CACTVS_ROTATABLE_BOND>
16
> <PUBCHEM_CACTVS_SUBSKEYS>
AAADcfB4PAwAAAAAAAAAAAAAAAAAAAAAAAAAAAAAAAAAAAAAAAAAGhAAAEAACBSggAJCCAAABAEIAACQCAIAAAAAAAAAAAFAAAABABYAAAAAAAAFIAACAAHKbARAAAAAAAAAAAAAAAAAAAAAAAAAAAAAAA==
> <PUBCHEM_IUPAC_OPENEYE_NAME>
bis(trimethylsilyl) (2R,3S,4S,5R)-3-methoxy-2,4,5-tris(trimethylsilyloxy)hexanedioate
> <PUBCHEM_IUPAC_CAS_NAME>
(2R,3S,4S,5R)-3-methoxy-2,4,5-tris(trimethylsilyloxy)hexanedioic acid bis(trimethylsilyl) ester
> <PUBCHEM_IUPAC_NAME_MARKUP>
bis(trimethylsilyl) (2<I>R</I>,3<I>S</I>,4<I>S</I>,5<I>R</I>)-3-methoxy-2,4,5-tris(trimethylsilyloxy)hexanedioate
> <PUBCHEM_IUPAC_NAME>
bis(trimethylsilyl) (2R,3S,4S,5R)-3-methoxy-2,4,5-tris(trimethylsilyloxy)hexanedioate
> <PUBCHEM_IUPAC_SYSTEMATIC_NAME>
bis(trimethylsilyl) (2R,3S,4S,5R)-3-methoxy-2,4,5-tris(trimethylsilyloxy)hexanedioate
> <PUBCHEM_IUPAC_TRADITIONAL_NAME>
(2R,3S,4S,5R)-3-methoxy-2,4,5-tris(trimethylsilyloxy)adipic acid bis(trimethylsilyl) ester
> <PUBCHEM_IUPAC_INCHI>
InChI=1S/C22H52O8Si5/c1-25-17(19(27-32(5,6)7)21(23)29-34(11,12)13)18(26-31(2,3)4)20(28-33(8,9)10)22(24)30-35(14,15)16/h17-20H,1-16H3/t17-,18-,19+,20+/m0/s1
> <PUBCHEM_IUPAC_INCHIKEY>
BIWFCGHEFHVCHR-VNTMZGSJSA-N
> <PUBCHEM_EXACT_MASS>
584.25085128
> <PUBCHEM_MOLECULAR_FORMULA>
C22H52O8Si5
> <PUBCHEM_MOLECULAR_WEIGHT>
585.1
> <PUBCHEM_OPENEYE_CAN_SMILES>
COC(C(C(C(=O)O[Si](C)(C)C)O[Si](C)(C)C)O[Si](C)(C)C)C(C(=O)O[Si](C)(C)C)O[Si](C)(C)C
> <PUBCHEM_OPENEYE_ISO_SMILES>
CO[C@@H]([C@@H]([C@H](C(=O)O[Si](C)(C)C)O[Si](C)(C)C)O[Si](C)(C)C)[C@H](C(=O)O[Si](C)(C)C)O[Si](C)(C)C
> <PUBCHEM_CACTVS_TPSA>
89.5
> <PUBCHEM_MONOISOTOPIC_WEIGHT>
584.25085128
> <PUBCHEM_TOTAL_CHARGE>
0
> <PUBCHEM_HEAVY_ATOM_COUNT>
35
> <PUBCHEM_ATOM_DEF_STEREO_COUNT>
4
> <PUBCHEM_ATOM_UDEF_STEREO_COUNT>
0
> <PUBCHEM_BOND_DEF_STEREO_COUNT>
0
> <PUBCHEM_BOND_UDEF_STEREO_COUNT>
0
> <PUBCHEM_ISOTOPIC_ATOM_COUNT>
0
> <PUBCHEM_COMPONENT_COUNT>
1
> <PUBCHEM_CACTVS_TAUTO_COUNT>
-1
> <PUBCHEM_COORDINATE_TYPE>
1
5
255
> <PUBCHEM_BONDANNOTATIONS>
14  6  5
16  7  6
17  8  5
15  9  5
$$$$
