523322
  -OEChem-10302200292D
 57 57  0     1  0  0  0  0  0999 V2000
    2.7431    0.0928    0.0000 Si  0  0  0  0  0  0  0  0  0  0  0  0
    5.9387    2.8442    0.0000 Si  0  0  0  0  0  0  0  0  0  0  0  0
    3.9775   -3.0297    0.0000 Si  0  0  0  0  0  0  0  0  0  0  0  0
    3.4863    0.7619    0.0000 O   0  0  0  0  0  0  0  0  0  0  0  0
    5.8342    1.8497    0.0000 O   0  0  0  0  0  0  0  0  0  0  0  0
    5.7464   -0.4982    0.0000 O   0  0  0  0  0  0  0  0  0  0  0  0
    4.5653   -2.2207    0.0000 O   0  0  0  0  0  0  0  0  0  0  0  0
    7.0064    0.7619    0.0000 O   0  0  0  0  0  0  0  0  0  0  0  0
    4.4374    0.4529    0.0000 C   0  0  3  0  0  0  0  0  0  0  0  0
    5.2464    1.0407    0.0000 C   0  0  3  0  0  0  0  0  0  0  0  0
    4.7464   -0.4982    0.0000 C   0  0  3  0  0  0  0  0  0  0  0  0
    6.0554    0.4529    0.0000 C   0  0  0  0  0  0  0  0  0  0  0  0
    4.1586   -1.3072    0.0000 C   0  0  0  0  0  0  0  0  0  0  0  0
    4.6586    1.8497    0.0000 C   0  0  0  0  0  0  0  0  0  0  0  0
    2.0000   -0.5763    0.0000 C   0  0  0  0  0  0  0  0  0  0  0  0
    2.0740    0.8359    0.0000 C   0  0  0  0  0  0  0  0  0  0  0  0
    3.4123   -0.6504    0.0000 C   0  0  0  0  0  0  0  0  0  0  0  0
    6.0432    3.8388    0.0000 C   0  0  0  0  0  0  0  0  0  0  0  0
    6.9332    2.7397    0.0000 C   0  0  0  0  0  0  0  0  0  0  0  0
    4.9442    2.9488    0.0000 C   0  0  0  0  0  0  0  0  0  0  0  0
    3.3897   -3.8388    0.0000 C   0  0  0  0  0  0  0  0  0  0  0  0
    4.7866   -3.6175    0.0000 C   0  0  0  0  0  0  0  0  0  0  0  0
    3.1685   -2.4420    0.0000 C   0  0  0  0  0  0  0  0  0  0  0  0
    3.9989    0.0145    0.0000 H   0  0  0  0  0  0  0  0  0  0  0  0
    5.0278   -1.0506    0.0000 H   0  0  0  0  0  0  0  0  0  0  0  0
    3.7279   -0.8612    0.0000 H   0  0  0  0  0  0  0  0  0  0  0  0
    3.6446   -1.6539    0.0000 H   0  0  0  0  0  0  0  0  0  0  0  0
    5.1602    2.2141    0.0000 H   0  0  0  0  0  0  0  0  0  0  0  0
    4.2942    2.3513    0.0000 H   0  0  0  0  0  0  0  0  0  0  0  0
    4.1570    1.4853    0.0000 H   0  0  0  0  0  0  0  0  0  0  0  0
    1.5851   -0.1156    0.0000 H   0  0  0  0  0  0  0  0  0  0  0  0
    1.5392   -0.9912    0.0000 H   0  0  0  0  0  0  0  0  0  0  0  0
    2.4149   -1.0371    0.0000 H   0  0  0  0  0  0  0  0  0  0  0  0
    2.5348    1.2508    0.0000 H   0  0  0  0  0  0  0  0  0  0  0  0
    1.6592    1.2967    0.0000 H   0  0  0  0  0  0  0  0  0  0  0  0
    1.6133    0.4211    0.0000 H   0  0  0  0  0  0  0  0  0  0  0  0
    2.9515   -1.0652    0.0000 H   0  0  0  0  0  0  0  0  0  0  0  0
    3.8271   -1.1111    0.0000 H   0  0  0  0  0  0  0  0  0  0  0  0
    3.8730   -0.2355    0.0000 H   0  0  0  0  0  0  0  0  0  0  0  0
    6.6598    3.7739    0.0000 H   0  0  0  0  0  0  0  0  0  0  0  0
    6.1080    4.4554    0.0000 H   0  0  0  0  0  0  0  0  0  0  0  0
    5.4266    3.9036    0.0000 H   0  0  0  0  0  0  0  0  0  0  0  0
    6.8684    2.1231    0.0000 H   0  0  0  0  0  0  0  0  0  0  0  0
    7.5498    2.6749    0.0000 H   0  0  0  0  0  0  0  0  0  0  0  0
    6.9980    3.3563    0.0000 H   0  0  0  0  0  0  0  0  0  0  0  0
    5.0090    3.5654    0.0000 H   0  0  0  0  0  0  0  0  0  0  0  0
    4.3275    3.0136    0.0000 H   0  0  0  0  0  0  0  0  0  0  0  0
    4.8793    2.3322    0.0000 H   0  0  0  0  0  0  0  0  0  0  0  0
    2.8882   -3.4743    0.0000 H   0  0  0  0  0  0  0  0  0  0  0  0
    3.0253   -4.3403    0.0000 H   0  0  0  0  0  0  0  0  0  0  0  0
    3.8913   -4.2032    0.0000 H   0  0  0  0  0  0  0  0  0  0  0  0
    4.4221   -4.1191    0.0000 H   0  0  0  0  0  0  0  0  0  0  0  0
    5.2881   -3.9819    0.0000 H   0  0  0  0  0  0  0  0  0  0  0  0
    5.1510   -3.1159    0.0000 H   0  0  0  0  0  0  0  0  0  0  0  0
    3.5329   -1.9404    0.0000 H   0  0  0  0  0  0  0  0  0  0  0  0
    2.6669   -2.0775    0.0000 H   0  0  0  0  0  0  0  0  0  0  0  0
    2.8041   -2.9435    0.0000 H   0  0  0  0  0  0  0  0  0  0  0  0
  1  4  1  0  0  0  0
  1 15  1  0  0  0  0
  1 16  1  0  0  0  0
  1 17  1  0  0  0  0
  2  5  1  0  0  0  0
  2 18  1  0  0  0  0
  2 19  1  0  0  0  0
  2 20  1  0  0  0  0
  3  7  1  0  0  0  0
  3 21  1  0  0  0  0
  3 22  1  0  0  0  0
  3 23  1  0  0  0  0
  4  9  1  0  0  0  0
  5 10  1  0  0  0  0
  6 11  1  0  0  0  0
  6 12  1  0  0  0  0
  7 13  1  0  0  0  0
  8 12  2  0  0  0  0
  9 10  1  0  0  0  0
  9 11  1  0  0  0  0
  9 24  1  0  0  0  0
 10 12  1  0  0  0  0
 10 14  1  0  0  0  0
 11 13  1  0  0  0  0
 11 25  1  0  0  0  0
 13 26  1  0  0  0  0
 13 27  1  0  0  0  0
 14 28  1  0  0  0  0
 14 29  1  0  0  0  0
 14 30  1  0  0  0  0
 15 31  1  0  0  0  0
 15 32  1  0  0  0  0
 15 33  1  0  0  0  0
 16 34  1  0  0  0  0
 16 35  1  0  0  0  0
 16 36  1  0  0  0  0
 17 37  1  0  0  0  0
 17 38  1  0  0  0  0
 17 39  1  0  0  0  0
 18 40  1  0  0  0  0
 18 41  1  0  0  0  0
 18 42  1  0  0  0  0
 19 43  1  0  0  0  0
 19 44  1  0  0  0  0
 19 45  1  0  0  0  0
 20 46  1  0  0  0  0
 20 47  1  0  0  0  0
 20 48  1  0  0  0  0
 21 49  1  0  0  0  0
 21 50  1  0  0  0  0
 21 51  1  0  0  0  0
 22 52  1  0  0  0  0
 22 53  1  0  0  0  0
 22 54  1  0  0  0  0
 23 55  1  0  0  0  0
 23 56  1  0  0  0  0
 23 57  1  0  0  0  0
M  END
> <PUBCHEM_COMPOUND_CID>
523322
> <PUBCHEM_COMPOUND_CANONICALIZED>
1
> <PUBCHEM_CACTVS_COMPLEXITY>
436
> <PUBCHEM_CACTVS_HBOND_ACCEPTOR>
5
> <PUBCHEM_CACTVS_HBOND_DONOR>
0
> <PUBCHEM_CACTVS_ROTATABLE_BOND>
7
> <PUBCHEM_CACTVS_SUBSKEYS>
AAADcfBwOAwAAAAAAAAAAAAAAAAAASAAAAAAAAAAAAAAAAAAAAAAGhAAAEAADFSggAJCCAAABAEIAACQCAIAAAAAAAAAAAFAAAABABYAAAACAAAFIAACAADKJAAMAAAAAAAAAAAAAAAAAAAAAAAAAAAAAA==
> <PUBCHEM_IUPAC_OPENEYE_NAME>
3-methyl-3,4-bis(trimethylsilyloxy)-5-(trimethylsilyloxymethyl)tetrahydrofuran-2-one
> <PUBCHEM_IUPAC_CAS_NAME>
3-methyl-3,4-bis(trimethylsilyloxy)-5-(trimethylsilyloxymethyl)-2-oxolanone
> <PUBCHEM_IUPAC_NAME_MARKUP>
3-methyl-3,4-bis(trimethylsilyloxy)-5-(trimethylsilyloxymethyl)oxolan-2-one
> <PUBCHEM_IUPAC_NAME>
3-methyl-3,4-bis(trimethylsilyloxy)-5-(trimethylsilyloxymethyl)oxolan-2-one
> <PUBCHEM_IUPAC_SYSTEMATIC_NAME>
3-methyl-3,4-bis(trimethylsilyloxy)-5-(trimethylsilyloxymethyl)oxolan-2-one
> <PUBCHEM_IUPAC_TRADITIONAL_NAME>
3-methyl-3,4-bis(trimethylsilyloxy)-5-(trimethylsilyloxymethyl)tetrahydrofuran-2-one
> <PUBCHEM_IUPAC_INCHI>
InChI=1S/C15H34O5Si3/c1-15(20-23(8,9)10)13(19-22(5,6)7)12(18-14(15)16)11-17-21(2,3)4/h12-13H,11H2,1-10H3
> <PUBCHEM_IUPAC_INCHIKEY>
KOEYIGNFJQAGJP-UHFFFAOYSA-N
> <PUBCHEM_EXACT_MASS>
378.17140378
> <PUBCHEM_MOLECULAR_FORMULA>
C15H34O5Si3
> <PUBCHEM_MOLECULAR_WEIGHT>
378.68
> <PUBCHEM_OPENEYE_CAN_SMILES>
CC1(C(C(OC1=O)CO[Si](C)(C)C)O[Si](C)(C)C)O[Si](C)(C)C
> <PUBCHEM_OPENEYE_ISO_SMILES>
CC1(C(C(OC1=O)CO[Si](C)(C)C)O[Si](C)(C)C)O[Si](C)(C)C
> <PUBCHEM_CACTVS_TPSA>
54
> <PUBCHEM_MONOISOTOPIC_WEIGHT>
378.17140378
> <PUBCHEM_TOTAL_CHARGE>
0
> <PUBCHEM_HEAVY_ATOM_COUNT>
23
> <PUBCHEM_ATOM_DEF_STEREO_COUNT>
0
> <PUBCHEM_ATOM_UDEF_STEREO_COUNT>
3
> <PUBCHEM_BOND_DEF_STEREO_COUNT>
0
> <PUBCHEM_BOND_UDEF_STEREO_COUNT>
0
> <PUBCHEM_ISOTOPIC_ATOM_COUNT>
0
> <PUBCHEM_COMPONENT_COUNT>
1
> <PUBCHEM_CACTVS_TAUTO_COUNT>
-1
> <PUBCHEM_COORDINATE_TYPE>
1
5
255
> <PUBCHEM_BONDANNOTATIONS>
10  14  3
11  13  3
9  4  3
$$$$
