523321
  -OEChem-10302200292D
 97 96  0     1  0  0  0  0  0999 V2000
    3.6777    0.4151    0.0000 Si  0  0  0  0  0  0  0  0  0  0  0  0
    7.7757    0.0490    0.0000 Si  0  0  0  0  0  0  0  0  0  0  0  0
    6.9097    2.5490    0.0000 Si  0  0  0  0  0  0  0  0  0  0  0  0
    5.6777   -3.0490    0.0000 Si  0  0  0  0  0  0  0  0  0  0  0  0
    4.3116    3.0490    0.0000 Si  0  0  0  0  0  0  0  0  0  0  0  0
    2.9848   -2.0643    0.0000 Si  0  0  0  0  0  0  0  0  0  0  0  0
    4.6777    0.4151    0.0000 O   0  0  0  0  0  0  0  0  0  0  0  0
    6.9097   -0.4510    0.0000 O   0  0  0  0  0  0  0  0  0  0  0  0
    6.9097    1.5490    0.0000 O   0  0  0  0  0  0  0  0  0  0  0  0
    5.1777   -2.1830    0.0000 O   0  0  0  0  0  0  0  0  0  0  0  0
    5.1777    2.5490    0.0000 O   0  0  0  0  0  0  0  0  0  0  0  0
    3.9697   -1.8907    0.0000 O   0  0  0  0  0  0  0  0  0  0  0  0
    3.3268   -1.1246    0.0000 O   0  0  0  0  0  0  0  0  0  0  0  0
    5.1777   -0.4510    0.0000 C   0  0  3  0  0  0  0  0  0  0  0  0
    6.0437    0.0490    0.0000 C   0  0  3  0  0  0  0  0  0  0  0  0
    6.0437    1.0490    0.0000 C   0  0  3  0  0  0  0  0  0  0  0  0
    5.6777   -1.3170    0.0000 C   0  0  0  0  0  0  0  0  0  0  0  0
    5.1777    1.5490    0.0000 C   0  0  0  0  0  0  0  0  0  0  0  0
    4.3116   -0.9510    0.0000 C   0  0  0  0  0  0  0  0  0  0  0  0
    2.6777    0.4151    0.0000 C   0  0  0  0  0  0  0  0  0  0  0  0
    3.6777    1.4151    0.0000 C   0  0  0  0  0  0  0  0  0  0  0  0
    3.0349   -0.3510    0.0000 C   0  0  0  0  0  0  0  0  0  0  0  0
    8.6418    0.5490    0.0000 C   0  0  0  0  0  0  0  0  0  0  0  0
    8.2757   -0.8170    0.0000 C   0  0  0  0  0  0  0  0  0  0  0  0
    7.2757    0.9151    0.0000 C   0  0  0  0  0  0  0  0  0  0  0  0
    6.9097    3.5490    0.0000 C   0  0  0  0  0  0  0  0  0  0  0  0
    7.9097    2.5490    0.0000 C   0  0  0  0  0  0  0  0  0  0  0  0
    5.9097    2.5490    0.0000 C   0  0  0  0  0  0  0  0  0  0  0  0
    6.1777   -3.9151    0.0000 C   0  0  0  0  0  0  0  0  0  0  0  0
    4.8116   -3.5490    0.0000 C   0  0  0  0  0  0  0  0  0  0  0  0
    6.5437   -2.5490    0.0000 C   0  0  0  0  0  0  0  0  0  0  0  0
    3.4456    3.5490    0.0000 C   0  0  0  0  0  0  0  0  0  0  0  0
    4.8116    3.9151    0.0000 C   0  0  0  0  0  0  0  0  0  0  0  0
    3.8116    2.1830    0.0000 C   0  0  0  0  0  0  0  0  0  0  0  0
    2.0000   -2.2380    0.0000 C   0  0  0  0  0  0  0  0  0  0  0  0
    2.4848   -1.1982    0.0000 C   0  0  0  0  0  0  0  0  0  0  0  0
    3.1585   -3.0492    0.0000 C   0  0  0  0  0  0  0  0  0  0  0  0
    6.0437   -0.5710    0.0000 H   0  0  0  0  0  0  0  0  0  0  0  0
    6.0437    1.6690    0.0000 H   0  0  0  0  0  0  0  0  0  0  0  0
    6.1526   -1.7155    0.0000 H   0  0  0  0  0  0  0  0  0  0  0  0
    6.1526   -0.9185    0.0000 H   0  0  0  0  0  0  0  0  0  0  0  0
    4.5671    1.6567    0.0000 H   0  0  0  0  0  0  0  0  0  0  0  0
    4.9656    0.9664    0.0000 H   0  0  0  0  0  0  0  0  0  0  0  0
    2.6777    1.0351    0.0000 H   0  0  0  0  0  0  0  0  0  0  0  0
    2.0577    0.4151    0.0000 H   0  0  0  0  0  0  0  0  0  0  0  0
    2.6777   -0.2049    0.0000 H   0  0  0  0  0  0  0  0  0  0  0  0
    4.2977    1.4151    0.0000 H   0  0  0  0  0  0  0  0  0  0  0  0
    3.6777    2.0351    0.0000 H   0  0  0  0  0  0  0  0  0  0  0  0
    3.0577    1.4151    0.0000 H   0  0  0  0  0  0  0  0  0  0  0  0
    2.5600    0.0474    0.0000 H   0  0  0  0  0  0  0  0  0  0  0  0
    2.6365   -0.8260    0.0000 H   0  0  0  0  0  0  0  0  0  0  0  0
    3.5099   -0.7495    0.0000 H   0  0  0  0  0  0  0  0  0  0  0  0
    8.9518    0.0121    0.0000 H   0  0  0  0  0  0  0  0  0  0  0  0
    9.1787    0.8590    0.0000 H   0  0  0  0  0  0  0  0  0  0  0  0
    8.3318    1.0860    0.0000 H   0  0  0  0  0  0  0  0  0  0  0  0
    7.7388   -1.1270    0.0000 H   0  0  0  0  0  0  0  0  0  0  0  0
    8.5857   -1.3539    0.0000 H   0  0  0  0  0  0  0  0  0  0  0  0
    8.8127   -0.5070    0.0000 H   0  0  0  0  0  0  0  0  0  0  0  0
    7.8127    1.2251    0.0000 H   0  0  0  0  0  0  0  0  0  0  0  0
    6.9657    1.4520    0.0000 H   0  0  0  0  0  0  0  0  0  0  0  0
    6.7388    0.6051    0.0000 H   0  0  0  0  0  0  0  0  0  0  0  0
    7.5297    3.5490    0.0000 H   0  0  0  0  0  0  0  0  0  0  0  0
    6.9097    4.1690    0.0000 H   0  0  0  0  0  0  0  0  0  0  0  0
    6.2897    3.5490    0.0000 H   0  0  0  0  0  0  0  0  0  0  0  0
    7.9097    1.9290    0.0000 H   0  0  0  0  0  0  0  0  0  0  0  0
    8.5297    2.5490    0.0000 H   0  0  0  0  0  0  0  0  0  0  0  0
    7.9097    3.1690    0.0000 H   0  0  0  0  0  0  0  0  0  0  0  0
    5.9097    3.1690    0.0000 H   0  0  0  0  0  0  0  0  0  0  0  0
    5.2897    2.5490    0.0000 H   0  0  0  0  0  0  0  0  0  0  0  0
    5.9097    1.9290    0.0000 H   0  0  0  0  0  0  0  0  0  0  0  0
    5.6407   -4.2251    0.0000 H   0  0  0  0  0  0  0  0  0  0  0  0
    6.4877   -4.4520    0.0000 H   0  0  0  0  0  0  0  0  0  0  0  0
    6.7146   -3.6051    0.0000 H   0  0  0  0  0  0  0  0  0  0  0  0
    4.5016   -3.0121    0.0000 H   0  0  0  0  0  0  0  0  0  0  0  0
    4.2747   -3.8590    0.0000 H   0  0  0  0  0  0  0  0  0  0  0  0
    5.1216   -4.0860    0.0000 H   0  0  0  0  0  0  0  0  0  0  0  0
    6.8537   -3.0860    0.0000 H   0  0  0  0  0  0  0  0  0  0  0  0
    7.0806   -2.2390    0.0000 H   0  0  0  0  0  0  0  0  0  0  0  0
    6.2337   -2.0121    0.0000 H   0  0  0  0  0  0  0  0  0  0  0  0
    3.7556    4.0860    0.0000 H   0  0  0  0  0  0  0  0  0  0  0  0
    2.9087    3.8590    0.0000 H   0  0  0  0  0  0  0  0  0  0  0  0
    3.1356    3.0121    0.0000 H   0  0  0  0  0  0  0  0  0  0  0  0
    5.3486    3.6051    0.0000 H   0  0  0  0  0  0  0  0  0  0  0  0
    5.1216    4.4520    0.0000 H   0  0  0  0  0  0  0  0  0  0  0  0
    4.2747    4.2251    0.0000 H   0  0  0  0  0  0  0  0  0  0  0  0
    3.2747    2.4930    0.0000 H   0  0  0  0  0  0  0  0  0  0  0  0
    3.5016    1.6461    0.0000 H   0  0  0  0  0  0  0  0  0  0  0  0
    4.3486    1.8730    0.0000 H   0  0  0  0  0  0  0  0  0  0  0  0
    1.8924   -1.6274    0.0000 H   0  0  0  0  0  0  0  0  0  0  0  0
    1.3894   -2.3456    0.0000 H   0  0  0  0  0  0  0  0  0  0  0  0
    2.1076   -2.8485    0.0000 H   0  0  0  0  0  0  0  0  0  0  0  0
    3.0217   -0.8882    0.0000 H   0  0  0  0  0  0  0  0  0  0  0  0
    2.1748   -0.6613    0.0000 H   0  0  0  0  0  0  0  0  0  0  0  0
    1.9479   -1.5082    0.0000 H   0  0  0  0  0  0  0  0  0  0  0  0
    2.5480   -3.1568    0.0000 H   0  0  0  0  0  0  0  0  0  0  0  0
    3.2662   -3.6597    0.0000 H   0  0  0  0  0  0  0  0  0  0  0  0
    3.7691   -2.9415    0.0000 H   0  0  0  0  0  0  0  0  0  0  0  0
  1  7  1  0  0  0  0
  1 20  1  0  0  0  0
  1 21  1  0  0  0  0
  1 22  1  0  0  0  0
  2  8  1  0  0  0  0
  2 23  1  0  0  0  0
  2 24  1  0  0  0  0
  2 25  1  0  0  0  0
  3  9  1  0  0  0  0
  3 26  1  0  0  0  0
  3 27  1  0  0  0  0
  3 28  1  0  0  0  0
  4 10  1  0  0  0  0
  4 29  1  0  0  0  0
  4 30  1  0  0  0  0
  4 31  1  0  0  0  0
  5 11  1  0  0  0  0
  5 32  1  0  0  0  0
  5 33  1  0  0  0  0
  5 34  1  0  0  0  0
  6 12  1  0  0  0  0
  6 35  1  0  0  0  0
  6 36  1  0  0  0  0
  6 37  1  0  0  0  0
  7 14  1  0  0  0  0
  8 15  1  0  0  0  0
  9 16  1  0  0  0  0
 10 17  1  0  0  0  0
 11 18  1  0  0  0  0
 12 19  1  0  0  0  0
 13 19  2  0  0  0  0
 14 15  1  0  0  0  0
 14 17  1  0  0  0  0
 14 19  1  0  0  0  0
 15 16  1  0  0  0  0
 15 38  1  0  0  0  0
 16 18  1  0  0  0  0
 16 39  1  0  0  0  0
 17 40  1  0  0  0  0
 17 41  1  0  0  0  0
 18 42  1  0  0  0  0
 18 43  1  0  0  0  0
 20 44  1  0  0  0  0
 20 45  1  0  0  0  0
 20 46  1  0  0  0  0
 21 47  1  0  0  0  0
 21 48  1  0  0  0  0
 21 49  1  0  0  0  0
 22 50  1  0  0  0  0
 22 51  1  0  0  0  0
 22 52  1  0  0  0  0
 23 53  1  0  0  0  0
 23 54  1  0  0  0  0
 23 55  1  0  0  0  0
 24 56  1  0  0  0  0
 24 57  1  0  0  0  0
 24 58  1  0  0  0  0
 25 59  1  0  0  0  0
 25 60  1  0  0  0  0
 25 61  1  0  0  0  0
 26 62  1  0  0  0  0
 26 63  1  0  0  0  0
 26 64  1  0  0  0  0
 27 65  1  0  0  0  0
 27 66  1  0  0  0  0
 27 67  1  0  0  0  0
 28 68  1  0  0  0  0
 28 69  1  0  0  0  0
 28 70  1  0  0  0  0
 29 71  1  0  0  0  0
 29 72  1  0  0  0  0
 29 73  1  0  0  0  0
 30 74  1  0  0  0  0
 30 75  1  0  0  0  0
 30 76  1  0  0  0  0
 31 77  1  0  0  0  0
 31 78  1  0  0  0  0
 31 79  1  0  0  0  0
 32 80  1  0  0  0  0
 32 81  1  0  0  0  0
 32 82  1  0  0  0  0
 33 83  1  0  0  0  0
 33 84  1  0  0  0  0
 33 85  1  0  0  0  0
 34 86  1  0  0  0  0
 34 87  1  0  0  0  0
 34 88  1  0  0  0  0
 35 89  1  0  0  0  0
 35 90  1  0  0  0  0
 35 91  1  0  0  0  0
 36 92  1  0  0  0  0
 36 93  1  0  0  0  0
 36 94  1  0  0  0  0
 37 95  1  0  0  0  0
 37 96  1  0  0  0  0
 37 97  1  0  0  0  0
M  END
> <PUBCHEM_COMPOUND_CID>
523321
> <PUBCHEM_COMPOUND_CANONICALIZED>
1
> <PUBCHEM_CACTVS_COMPLEXITY>
725
> <PUBCHEM_CACTVS_HBOND_ACCEPTOR>
7
> <PUBCHEM_CACTVS_HBOND_DONOR>
0
> <PUBCHEM_CACTVS_ROTATABLE_BOND>
17
> <PUBCHEM_CACTVS_SUBSKEYS>
AAADcfB4OAwAAAAAAAAAAAAAAAAAAAAAAAAAAAAAAAAAAAAAAAAAGhAAAEAADFSggAJCCAAAAAEIAACQCAIAAAAAAAAAAAFAAAABABYAAAAAAAAFIAAAAADKJAAMAAAAAAAAAAAAAAAAAAAAAAAAAAAAAA==
> <PUBCHEM_IUPAC_OPENEYE_NAME>
trimethylsilyl 2,3,4,5-tetrakis(trimethylsilyloxy)-2-(trimethylsilyloxymethyl)pentanoate
> <PUBCHEM_IUPAC_CAS_NAME>
2,3,4,5-tetrakis(trimethylsilyloxy)-2-(trimethylsilyloxymethyl)pentanoic acid trimethylsilyl ester
> <PUBCHEM_IUPAC_NAME_MARKUP>
trimethylsilyl 2,3,4,5-tetrakis(trimethylsilyloxy)-2-(trimethylsilyloxymethyl)pentanoate
> <PUBCHEM_IUPAC_NAME>
trimethylsilyl 2,3,4,5-tetrakis(trimethylsilyloxy)-2-(trimethylsilyloxymethyl)pentanoate
> <PUBCHEM_IUPAC_SYSTEMATIC_NAME>
trimethylsilyl 2,3,4,5-tetrakis(trimethylsilyloxy)-2-(trimethylsilyloxymethyl)pentanoate
> <PUBCHEM_IUPAC_TRADITIONAL_NAME>
2,3,4,5-tetrakis(trimethylsilyloxy)-2-(trimethylsilyloxymethyl)valeric acid trimethylsilyl ester
> <PUBCHEM_IUPAC_INCHI>
InChI=1S/C24H60O7Si6/c1-32(2,3)26-19-21(28-34(7,8)9)22(29-35(10,11)12)24(31-37(16,17)18,20-27-33(4,5)6)23(25)30-36(13,14)15/h21-22H,19-20H2,1-18H3
> <PUBCHEM_IUPAC_INCHIKEY>
KGHUMIAEJNYKKE-UHFFFAOYSA-N
> <PUBCHEM_EXACT_MASS>
628.29546346
> <PUBCHEM_MOLECULAR_FORMULA>
C24H60O7Si6
> <PUBCHEM_MOLECULAR_WEIGHT>
629.2
> <PUBCHEM_OPENEYE_CAN_SMILES>
C[Si](C)(C)OCC(C(C(CO[Si](C)(C)C)(C(=O)O[Si](C)(C)C)O[Si](C)(C)C)O[Si](C)(C)C)O[Si](C)(C)C
> <PUBCHEM_OPENEYE_ISO_SMILES>
C[Si](C)(C)OCC(C(C(CO[Si](C)(C)C)(C(=O)O[Si](C)(C)C)O[Si](C)(C)C)O[Si](C)(C)C)O[Si](C)(C)C
> <PUBCHEM_CACTVS_TPSA>
72.4
> <PUBCHEM_MONOISOTOPIC_WEIGHT>
628.29546346
> <PUBCHEM_TOTAL_CHARGE>
0
> <PUBCHEM_HEAVY_ATOM_COUNT>
37
> <PUBCHEM_ATOM_DEF_STEREO_COUNT>
0
> <PUBCHEM_ATOM_UDEF_STEREO_COUNT>
3
> <PUBCHEM_BOND_DEF_STEREO_COUNT>
0
> <PUBCHEM_BOND_UDEF_STEREO_COUNT>
0
> <PUBCHEM_ISOTOPIC_ATOM_COUNT>
0
> <PUBCHEM_COMPONENT_COUNT>
1
> <PUBCHEM_CACTVS_TAUTO_COUNT>
-1
> <PUBCHEM_COORDINATE_TYPE>
1
5
255
> <PUBCHEM_BONDANNOTATIONS>
14  17  3
16  18  3
15  8  3
$$$$
