523363
  -OEChem-10302200292D
 83 82  0     1  0  0  0  0  0999 V2000
    7.1962   -2.5670    0.0000 Si  0  0  0  0  0  0  0  0  0  0  0  0
    4.5981   -3.0670    0.0000 Si  0  0  0  0  0  0  0  0  0  0  0  0
    8.9282    0.4330    0.0000 Si  0  0  0  0  0  0  0  0  0  0  0  0
    2.8660   -1.0670    0.0000 Si  0  0  0  0  0  0  0  0  0  0  0  0
    8.0622    2.9330    0.0000 Si  0  0  0  0  0  0  0  0  0  0  0  0
    7.1962   -1.5670    0.0000 O   0  0  0  0  0  0  0  0  0  0  0  0
    5.4641   -2.5670    0.0000 O   0  0  0  0  0  0  0  0  0  0  0  0
    8.0622   -0.0670    0.0000 O   0  0  0  0  0  0  0  0  0  0  0  0
    3.7320   -1.5670    0.0000 O   0  0  0  0  0  0  0  0  0  0  0  0
    8.0622    1.9330    0.0000 O   0  0  0  0  0  0  0  0  0  0  0  0
    4.5981   -0.0670    0.0000 O   0  0  0  0  0  0  0  0  0  0  0  0
    6.3301    1.9330    0.0000 O   0  0  0  0  0  0  0  0  0  0  0  0
    6.3301   -1.0670    0.0000 C   0  0  1  0  0  0  0  0  0  0  0  0
    6.3301   -0.0670    0.0000 C   0  0  0  0  0  0  0  0  0  0  0  0
    5.4641   -1.5670    0.0000 C   0  0  3  0  0  0  0  0  0  0  0  0
    7.1962    0.4330    0.0000 C   0  0  1  0  0  0  0  0  0  0  0  0
    4.5981   -1.0670    0.0000 C   0  0  0  0  0  0  0  0  0  0  0  0
    7.1962    1.4330    0.0000 C   0  0  0  0  0  0  0  0  0  0  0  0
    8.1962   -2.5670    0.0000 C   0  0  0  0  0  0  0  0  0  0  0  0
    7.1962   -3.5670    0.0000 C   0  0  0  0  0  0  0  0  0  0  0  0
    6.1962   -2.5670    0.0000 C   0  0  0  0  0  0  0  0  0  0  0  0
    3.7320   -3.5670    0.0000 C   0  0  0  0  0  0  0  0  0  0  0  0
    5.0981   -3.9330    0.0000 C   0  0  0  0  0  0  0  0  0  0  0  0
    4.0981   -2.2010    0.0000 C   0  0  0  0  0  0  0  0  0  0  0  0
    9.7942    0.9330    0.0000 C   0  0  0  0  0  0  0  0  0  0  0  0
    8.4282    1.2990    0.0000 C   0  0  0  0  0  0  0  0  0  0  0  0
    9.4282   -0.4330    0.0000 C   0  0  0  0  0  0  0  0  0  0  0  0
    2.0000   -0.5670    0.0000 C   0  0  0  0  0  0  0  0  0  0  0  0
    2.3660   -1.9330    0.0000 C   0  0  0  0  0  0  0  0  0  0  0  0
    3.3660   -0.2010    0.0000 C   0  0  0  0  0  0  0  0  0  0  0  0
    8.0622    3.9330    0.0000 C   0  0  0  0  0  0  0  0  0  0  0  0
    9.0622    2.9330    0.0000 C   0  0  0  0  0  0  0  0  0  0  0  0
    7.0622    2.9330    0.0000 C   0  0  0  0  0  0  0  0  0  0  0  0
    6.8671   -0.7570    0.0000 H   0  0  0  0  0  0  0  0  0  0  0  0
    6.1181    0.5156    0.0000 H   0  0  0  0  0  0  0  0  0  0  0  0
    5.7196   -0.1746    0.0000 H   0  0  0  0  0  0  0  0  0  0  0  0
    6.0010   -1.8770    0.0000 H   0  0  0  0  0  0  0  0  0  0  0  0
    7.7331    0.7430    0.0000 H   0  0  0  0  0  0  0  0  0  0  0  0
    8.1962   -3.1870    0.0000 H   0  0  0  0  0  0  0  0  0  0  0  0
    8.8162   -2.5670    0.0000 H   0  0  0  0  0  0  0  0  0  0  0  0
    8.1962   -1.9470    0.0000 H   0  0  0  0  0  0  0  0  0  0  0  0
    6.5762   -3.5670    0.0000 H   0  0  0  0  0  0  0  0  0  0  0  0
    7.1962   -4.1870    0.0000 H   0  0  0  0  0  0  0  0  0  0  0  0
    7.8162   -3.5670    0.0000 H   0  0  0  0  0  0  0  0  0  0  0  0
    6.1962   -1.9470    0.0000 H   0  0  0  0  0  0  0  0  0  0  0  0
    5.5762   -2.5670    0.0000 H   0  0  0  0  0  0  0  0  0  0  0  0
    6.1962   -3.1870    0.0000 H   0  0  0  0  0  0  0  0  0  0  0  0
    3.4220   -3.0300    0.0000 H   0  0  0  0  0  0  0  0  0  0  0  0
    3.1951   -3.8770    0.0000 H   0  0  0  0  0  0  0  0  0  0  0  0
    4.0420   -4.1039    0.0000 H   0  0  0  0  0  0  0  0  0  0  0  0
    4.5611   -4.2430    0.0000 H   0  0  0  0  0  0  0  0  0  0  0  0
    5.4081   -4.4700    0.0000 H   0  0  0  0  0  0  0  0  0  0  0  0
    5.6350   -3.6230    0.0000 H   0  0  0  0  0  0  0  0  0  0  0  0
    4.6350   -1.8910    0.0000 H   0  0  0  0  0  0  0  0  0  0  0  0
    3.7881   -1.6640    0.0000 H   0  0  0  0  0  0  0  0  0  0  0  0
    3.5611   -2.5110    0.0000 H   0  0  0  0  0  0  0  0  0  0  0  0
   10.1042    0.3961    0.0000 H   0  0  0  0  0  0  0  0  0  0  0  0
   10.3312    1.2430    0.0000 H   0  0  0  0  0  0  0  0  0  0  0  0
    9.4842    1.4700    0.0000 H   0  0  0  0  0  0  0  0  0  0  0  0
    8.9651    1.6090    0.0000 H   0  0  0  0  0  0  0  0  0  0  0  0
    8.1182    1.8360    0.0000 H   0  0  0  0  0  0  0  0  0  0  0  0
    7.8913    0.9890    0.0000 H   0  0  0  0  0  0  0  0  0  0  0  0
    8.8913   -0.7430    0.0000 H   0  0  0  0  0  0  0  0  0  0  0  0
    9.7382   -0.9699    0.0000 H   0  0  0  0  0  0  0  0  0  0  0  0
    9.9651   -0.1230    0.0000 H   0  0  0  0  0  0  0  0  0  0  0  0
    2.3100   -0.0301    0.0000 H   0  0  0  0  0  0  0  0  0  0  0  0
    1.4631   -0.2570    0.0000 H   0  0  0  0  0  0  0  0  0  0  0  0
    1.6900   -1.1039    0.0000 H   0  0  0  0  0  0  0  0  0  0  0  0
    1.8291   -1.6230    0.0000 H   0  0  0  0  0  0  0  0  0  0  0  0
    2.0560   -2.4700    0.0000 H   0  0  0  0  0  0  0  0  0  0  0  0
    2.9030   -2.2430    0.0000 H   0  0  0  0  0  0  0  0  0  0  0  0
    3.9030   -0.5110    0.0000 H   0  0  0  0  0  0  0  0  0  0  0  0
    3.6760    0.3360    0.0000 H   0  0  0  0  0  0  0  0  0  0  0  0
    2.8291    0.1090    0.0000 H   0  0  0  0  0  0  0  0  0  0  0  0
    8.6822    3.9330    0.0000 H   0  0  0  0  0  0  0  0  0  0  0  0
    8.0622    4.5530    0.0000 H   0  0  0  0  0  0  0  0  0  0  0  0
    7.4422    3.9330    0.0000 H   0  0  0  0  0  0  0  0  0  0  0  0
    9.0622    2.3130    0.0000 H   0  0  0  0  0  0  0  0  0  0  0  0
    9.6822    2.9330    0.0000 H   0  0  0  0  0  0  0  0  0  0  0  0
    9.0622    3.5530    0.0000 H   0  0  0  0  0  0  0  0  0  0  0  0
    7.0622    3.5530    0.0000 H   0  0  0  0  0  0  0  0  0  0  0  0
    6.4422    2.9330    0.0000 H   0  0  0  0  0  0  0  0  0  0  0  0
    7.0622    2.3130    0.0000 H   0  0  0  0  0  0  0  0  0  0  0  0
  1  6  1  0  0  0  0
  1 19  1  0  0  0  0
  1 20  1  0  0  0  0
  1 21  1  0  0  0  0
  2  7  1  0  0  0  0
  2 22  1  0  0  0  0
  2 23  1  0  0  0  0
  2 24  1  0  0  0  0
  3  8  1  0  0  0  0
  3 25  1  0  0  0  0
  3 26  1  0  0  0  0
  3 27  1  0  0  0  0
  4  9  1  0  0  0  0
  4 28  1  0  0  0  0
  4 29  1  0  0  0  0
  4 30  1  0  0  0  0
  5 10  1  0  0  0  0
  5 31  1  0  0  0  0
  5 32  1  0  0  0  0
  5 33  1  0  0  0  0
 13  6  1  6  0  0  0
  7 15  1  0  0  0  0
 16  8  1  1  0  0  0
  9 17  1  0  0  0  0
 10 18  1  0  0  0  0
 11 17  2  0  0  0  0
 12 18  2  0  0  0  0
 13 14  1  0  0  0  0
 13 15  1  0  0  0  0
 13 34  1  0  0  0  0
 14 16  1  0  0  0  0
 14 35  1  0  0  0  0
 14 36  1  0  0  0  0
 15 17  1  0  0  0  0
 15 37  1  0  0  0  0
 16 18  1  0  0  0  0
 16 38  1  0  0  0  0
 19 39  1  0  0  0  0
 19 40  1  0  0  0  0
 19 41  1  0  0  0  0
 20 42  1  0  0  0  0
 20 43  1  0  0  0  0
 20 44  1  0  0  0  0
 21 45  1  0  0  0  0
 21 46  1  0  0  0  0
 21 47  1  0  0  0  0
 22 48  1  0  0  0  0
 22 49  1  0  0  0  0
 22 50  1  0  0  0  0
 23 51  1  0  0  0  0
 23 52  1  0  0  0  0
 23 53  1  0  0  0  0
 24 54  1  0  0  0  0
 24 55  1  0  0  0  0
 24 56  1  0  0  0  0
 25 57  1  0  0  0  0
 25 58  1  0  0  0  0
 25 59  1  0  0  0  0
 26 60  1  0  0  0  0
 26 61  1  0  0  0  0
 26 62  1  0  0  0  0
 27 63  1  0  0  0  0
 27 64  1  0  0  0  0
 27 65  1  0  0  0  0
 28 66  1  0  0  0  0
 28 67  1  0  0  0  0
 28 68  1  0  0  0  0
 29 69  1  0  0  0  0
 29 70  1  0  0  0  0
 29 71  1  0  0  0  0
 30 72  1  0  0  0  0
 30 73  1  0  0  0  0
 30 74  1  0  0  0  0
 31 75  1  0  0  0  0
 31 76  1  0  0  0  0
 31 77  1  0  0  0  0
 32 78  1  0  0  0  0
 32 79  1  0  0  0  0
 32 80  1  0  0  0  0
 33 81  1  0  0  0  0
 33 82  1  0  0  0  0
 33 83  1  0  0  0  0
M  END
> <PUBCHEM_COMPOUND_CID>
523363
> <PUBCHEM_COMPOUND_CANONICALIZED>
1
> <PUBCHEM_CACTVS_COMPLEXITY>
652
> <PUBCHEM_CACTVS_HBOND_ACCEPTOR>
7
> <PUBCHEM_CACTVS_HBOND_DONOR>
0
> <PUBCHEM_CACTVS_ROTATABLE_BOND>
15
> <PUBCHEM_CACTVS_SUBSKEYS>
AAADcfB4OAwAAAAAAAAAAAAAAAAAAAAAAAAAAAAAAAAAAAAAAAAAGhAAAEAACBSggAJCCAAAAAEIAACQCAIAAAAAAAAAAAFAAAABABYAAAAAAAAFIAAAAAHKbARAAAAAAAAAAAAAAAAAAAAAAAAAAAAAAA==
> <PUBCHEM_IUPAC_OPENEYE_NAME>
bis(trimethylsilyl) (3S,5S)-2,3,5-tris(trimethylsilyloxy)hexanedioate
> <PUBCHEM_IUPAC_CAS_NAME>
(3S,5S)-2,3,5-tris(trimethylsilyloxy)hexanedioic acid bis(trimethylsilyl) ester
> <PUBCHEM_IUPAC_NAME_MARKUP>
bis(trimethylsilyl) (3<I>S</I>,5<I>S</I>)-2,3,5-tris(trimethylsilyloxy)hexanedioate
> <PUBCHEM_IUPAC_NAME>
bis(trimethylsilyl) (3S,5S)-2,3,5-tris(trimethylsilyloxy)hexanedioate
> <PUBCHEM_IUPAC_SYSTEMATIC_NAME>
bis(trimethylsilyl) (3S,5S)-2,3,5-tris(trimethylsilyloxy)hexanedioate
> <PUBCHEM_IUPAC_TRADITIONAL_NAME>
(3S,5S)-2,3,5-tris(trimethylsilyloxy)adipic acid bis(trimethylsilyl) ester
> <PUBCHEM_IUPAC_INCHI>
InChI=1S/C21H50O7Si5/c1-29(2,3)24-17(19(26-31(7,8)9)21(23)28-33(13,14)15)16-18(25-30(4,5)6)20(22)27-32(10,11)12/h17-19H,16H2,1-15H3/t17-,18-,19?/m0/s1
> <PUBCHEM_IUPAC_INCHIKEY>
ZJKJJLIOZASHHC-ADUPEVMXSA-N
> <PUBCHEM_EXACT_MASS>
554.24028660
> <PUBCHEM_MOLECULAR_FORMULA>
C21H50O7Si5
> <PUBCHEM_MOLECULAR_WEIGHT>
555.0
> <PUBCHEM_OPENEYE_CAN_SMILES>
C[Si](C)(C)OC(CC(C(=O)O[Si](C)(C)C)O[Si](C)(C)C)C(C(=O)O[Si](C)(C)C)O[Si](C)(C)C
> <PUBCHEM_OPENEYE_ISO_SMILES>
C[Si](C)(C)O[C@@H](C[C@@H](C(=O)O[Si](C)(C)C)O[Si](C)(C)C)C(C(=O)O[Si](C)(C)C)O[Si](C)(C)C
> <PUBCHEM_CACTVS_TPSA>
80.3
> <PUBCHEM_MONOISOTOPIC_WEIGHT>
554.24028660
> <PUBCHEM_TOTAL_CHARGE>
0
> <PUBCHEM_HEAVY_ATOM_COUNT>
33
> <PUBCHEM_ATOM_DEF_STEREO_COUNT>
2
> <PUBCHEM_ATOM_UDEF_STEREO_COUNT>
1
> <PUBCHEM_BOND_DEF_STEREO_COUNT>
0
> <PUBCHEM_BOND_UDEF_STEREO_COUNT>
0
> <PUBCHEM_ISOTOPIC_ATOM_COUNT>
0
> <PUBCHEM_COMPONENT_COUNT>
1
> <PUBCHEM_CACTVS_TAUTO_COUNT>
-1
> <PUBCHEM_COORDINATE_TYPE>
1
5
255
> <PUBCHEM_BONDANNOTATIONS>
15  17  3
13  6  6
16  8  5
$$$$
