523403
  -OEChem-10302200292D
 96 95  0     1  0  0  0  0  0999 V2000
    4.5981   -1.7500    0.0000 Si  0  0  0  0  0  0  0  0  0  0  0  0
    7.1962    1.7500    0.0000 Si  0  0  0  0  0  0  0  0  0  0  0  0
    2.8660    0.2500    0.0000 Si  0  0  0  0  0  0  0  0  0  0  0  0
    8.9282   -0.2500    0.0000 Si  0  0  0  0  0  0  0  0  0  0  0  0
    3.7320    2.7500    0.0000 Si  0  0  0  0  0  0  0  0  0  0  0  0
    8.0622   -2.7500    0.0000 Si  0  0  0  0  0  0  0  0  0  0  0  0
    5.4641   -1.2500    0.0000 O   0  0  0  0  0  0  0  0  0  0  0  0
    6.3301    1.2500    0.0000 O   0  0  0  0  0  0  0  0  0  0  0  0
    3.7320   -0.2500    0.0000 O   0  0  0  0  0  0  0  0  0  0  0  0
    8.0622    0.2500    0.0000 O   0  0  0  0  0  0  0  0  0  0  0  0
    3.7320    1.7500    0.0000 O   0  0  0  0  0  0  0  0  0  0  0  0
    8.0622   -1.7500    0.0000 O   0  0  0  0  0  0  0  0  0  0  0  0
    5.4641    1.7500    0.0000 O   0  0  0  0  0  0  0  0  0  0  0  0
    6.3301   -1.7500    0.0000 O   0  0  0  0  0  0  0  0  0  0  0  0
    5.4641   -0.2500    0.0000 C   0  0  1  0  0  0  0  0  0  0  0  0
    6.3301    0.2500    0.0000 C   0  0  1  0  0  0  0  0  0  0  0  0
    4.5981    0.2500    0.0000 C   0  0  2  0  0  0  0  0  0  0  0  0
    7.1962   -0.2500    0.0000 C   0  0  2  0  0  0  0  0  0  0  0  0
    4.5981    1.2500    0.0000 C   0  0  0  0  0  0  0  0  0  0  0  0
    7.1962   -1.2500    0.0000 C   0  0  0  0  0  0  0  0  0  0  0  0
    5.0981   -2.6160    0.0000 C   0  0  0  0  0  0  0  0  0  0  0  0
    3.7320   -2.2500    0.0000 C   0  0  0  0  0  0  0  0  0  0  0  0
    4.0981   -0.8840    0.0000 C   0  0  0  0  0  0  0  0  0  0  0  0
    6.6962    2.6160    0.0000 C   0  0  0  0  0  0  0  0  0  0  0  0
    8.0622    2.2500    0.0000 C   0  0  0  0  0  0  0  0  0  0  0  0
    7.6962    0.8840    0.0000 C   0  0  0  0  0  0  0  0  0  0  0  0
    2.0000    0.7500    0.0000 C   0  0  0  0  0  0  0  0  0  0  0  0
    2.3660   -0.6160    0.0000 C   0  0  0  0  0  0  0  0  0  0  0  0
    3.3660    1.1160    0.0000 C   0  0  0  0  0  0  0  0  0  0  0  0
    9.7942   -0.7500    0.0000 C   0  0  0  0  0  0  0  0  0  0  0  0
    9.4282    0.6160    0.0000 C   0  0  0  0  0  0  0  0  0  0  0  0
    8.4282   -1.1160    0.0000 C   0  0  0  0  0  0  0  0  0  0  0  0
    3.7320    3.7500    0.0000 C   0  0  0  0  0  0  0  0  0  0  0  0
    2.7320    2.7500    0.0000 C   0  0  0  0  0  0  0  0  0  0  0  0
    4.7320    2.7500    0.0000 C   0  0  0  0  0  0  0  0  0  0  0  0
    8.0622   -3.7500    0.0000 C   0  0  0  0  0  0  0  0  0  0  0  0
    9.0622   -2.7500    0.0000 C   0  0  0  0  0  0  0  0  0  0  0  0
    7.0622   -2.7500    0.0000 C   0  0  0  0  0  0  0  0  0  0  0  0
    6.0010   -0.5600    0.0000 H   0  0  0  0  0  0  0  0  0  0  0  0
    6.8671    0.5600    0.0000 H   0  0  0  0  0  0  0  0  0  0  0  0
    4.5981   -0.3700    0.0000 H   0  0  0  0  0  0  0  0  0  0  0  0
    7.7331   -0.5600    0.0000 H   0  0  0  0  0  0  0  0  0  0  0  0
    4.5611   -2.9260    0.0000 H   0  0  0  0  0  0  0  0  0  0  0  0
    5.4081   -3.1530    0.0000 H   0  0  0  0  0  0  0  0  0  0  0  0
    5.6350   -2.3060    0.0000 H   0  0  0  0  0  0  0  0  0  0  0  0
    3.4220   -1.7131    0.0000 H   0  0  0  0  0  0  0  0  0  0  0  0
    3.1951   -2.5600    0.0000 H   0  0  0  0  0  0  0  0  0  0  0  0
    4.0420   -2.7869    0.0000 H   0  0  0  0  0  0  0  0  0  0  0  0
    4.6350   -0.5740    0.0000 H   0  0  0  0  0  0  0  0  0  0  0  0
    3.7881   -0.3470    0.0000 H   0  0  0  0  0  0  0  0  0  0  0  0
    3.5611   -1.1940    0.0000 H   0  0  0  0  0  0  0  0  0  0  0  0
    7.2331    2.9260    0.0000 H   0  0  0  0  0  0  0  0  0  0  0  0
    6.3862    3.1530    0.0000 H   0  0  0  0  0  0  0  0  0  0  0  0
    6.1592    2.3060    0.0000 H   0  0  0  0  0  0  0  0  0  0  0  0
    8.3722    1.7131    0.0000 H   0  0  0  0  0  0  0  0  0  0  0  0
    8.5991    2.5600    0.0000 H   0  0  0  0  0  0  0  0  0  0  0  0
    7.7522    2.7869    0.0000 H   0  0  0  0  0  0  0  0  0  0  0  0
    7.1592    0.5740    0.0000 H   0  0  0  0  0  0  0  0  0  0  0  0
    8.0062    0.3470    0.0000 H   0  0  0  0  0  0  0  0  0  0  0  0
    8.2331    1.1940    0.0000 H   0  0  0  0  0  0  0  0  0  0  0  0
    2.3100    1.2869    0.0000 H   0  0  0  0  0  0  0  0  0  0  0  0
    1.4631    1.0600    0.0000 H   0  0  0  0  0  0  0  0  0  0  0  0
    1.6900    0.2131    0.0000 H   0  0  0  0  0  0  0  0  0  0  0  0
    1.8291   -0.3060    0.0000 H   0  0  0  0  0  0  0  0  0  0  0  0
    2.0560   -1.1530    0.0000 H   0  0  0  0  0  0  0  0  0  0  0  0
    2.9030   -0.9260    0.0000 H   0  0  0  0  0  0  0  0  0  0  0  0
    3.9030    0.8060    0.0000 H   0  0  0  0  0  0  0  0  0  0  0  0
    3.6760    1.6530    0.0000 H   0  0  0  0  0  0  0  0  0  0  0  0
    2.8291    1.4260    0.0000 H   0  0  0  0  0  0  0  0  0  0  0  0
    9.4842   -1.2869    0.0000 H   0  0  0  0  0  0  0  0  0  0  0  0
   10.3312   -1.0600    0.0000 H   0  0  0  0  0  0  0  0  0  0  0  0
   10.1042   -0.2131    0.0000 H   0  0  0  0  0  0  0  0  0  0  0  0
    9.9651    0.3060    0.0000 H   0  0  0  0  0  0  0  0  0  0  0  0
    9.7382    1.1530    0.0000 H   0  0  0  0  0  0  0  0  0  0  0  0
    8.8913    0.9260    0.0000 H   0  0  0  0  0  0  0  0  0  0  0  0
    7.8913   -0.8060    0.0000 H   0  0  0  0  0  0  0  0  0  0  0  0
    8.1182   -1.6530    0.0000 H   0  0  0  0  0  0  0  0  0  0  0  0
    8.9651   -1.4260    0.0000 H   0  0  0  0  0  0  0  0  0  0  0  0
    4.3520    3.7500    0.0000 H   0  0  0  0  0  0  0  0  0  0  0  0
    3.7320    4.3700    0.0000 H   0  0  0  0  0  0  0  0  0  0  0  0
    3.1120    3.7500    0.0000 H   0  0  0  0  0  0  0  0  0  0  0  0
    2.7320    3.3700    0.0000 H   0  0  0  0  0  0  0  0  0  0  0  0
    2.1120    2.7500    0.0000 H   0  0  0  0  0  0  0  0  0  0  0  0
    2.7320    2.1300    0.0000 H   0  0  0  0  0  0  0  0  0  0  0  0
    4.7320    2.1300    0.0000 H   0  0  0  0  0  0  0  0  0  0  0  0
    5.3520    2.7500    0.0000 H   0  0  0  0  0  0  0  0  0  0  0  0
    4.7320    3.3700    0.0000 H   0  0  0  0  0  0  0  0  0  0  0  0
    7.4422   -3.7500    0.0000 H   0  0  0  0  0  0  0  0  0  0  0  0
    8.0622   -4.3700    0.0000 H   0  0  0  0  0  0  0  0  0  0  0  0
    8.6822   -3.7500    0.0000 H   0  0  0  0  0  0  0  0  0  0  0  0
    9.0622   -3.3700    0.0000 H   0  0  0  0  0  0  0  0  0  0  0  0
    9.6822   -2.7500    0.0000 H   0  0  0  0  0  0  0  0  0  0  0  0
    9.0622   -2.1300    0.0000 H   0  0  0  0  0  0  0  0  0  0  0  0
    7.0622   -2.1300    0.0000 H   0  0  0  0  0  0  0  0  0  0  0  0
    6.4422   -2.7500    0.0000 H   0  0  0  0  0  0  0  0  0  0  0  0
    7.0622   -3.3700    0.0000 H   0  0  0  0  0  0  0  0  0  0  0  0
  1  7  1  0  0  0  0
  1 21  1  0  0  0  0
  1 22  1  0  0  0  0
  1 23  1  0  0  0  0
  2  8  1  0  0  0  0
  2 24  1  0  0  0  0
  2 25  1  0  0  0  0
  2 26  1  0  0  0  0
  3  9  1  0  0  0  0
  3 27  1  0  0  0  0
  3 28  1  0  0  0  0
  3 29  1  0  0  0  0
  4 10  1  0  0  0  0
  4 30  1  0  0  0  0
  4 31  1  0  0  0  0
  4 32  1  0  0  0  0
  5 11  1  0  0  0  0
  5 33  1  0  0  0  0
  5 34  1  0  0  0  0
  5 35  1  0  0  0  0
  6 12  1  0  0  0  0
  6 36  1  0  0  0  0
  6 37  1  0  0  0  0
  6 38  1  0  0  0  0
 15  7  1  6  0  0  0
 16  8  1  6  0  0  0
 17  9  1  1  0  0  0
 18 10  1  1  0  0  0
 11 19  1  0  0  0  0
 12 20  1  0  0  0  0
 13 19  2  0  0  0  0
 14 20  2  0  0  0  0
 15 16  1  0  0  0  0
 15 17  1  0  0  0  0
 15 39  1  0  0  0  0
 16 18  1  0  0  0  0
 16 40  1  0  0  0  0
 17 19  1  0  0  0  0
 17 41  1  0  0  0  0
 18 20  1  0  0  0  0
 18 42  1  0  0  0  0
 21 43  1  0  0  0  0
 21 44  1  0  0  0  0
 21 45  1  0  0  0  0
 22 46  1  0  0  0  0
 22 47  1  0  0  0  0
 22 48  1  0  0  0  0
 23 49  1  0  0  0  0
 23 50  1  0  0  0  0
 23 51  1  0  0  0  0
 24 52  1  0  0  0  0
 24 53  1  0  0  0  0
 24 54  1  0  0  0  0
 25 55  1  0  0  0  0
 25 56  1  0  0  0  0
 25 57  1  0  0  0  0
 26 58  1  0  0  0  0
 26 59  1  0  0  0  0
 26 60  1  0  0  0  0
 27 61  1  0  0  0  0
 27 62  1  0  0  0  0
 27 63  1  0  0  0  0
 28 64  1  0  0  0  0
 28 65  1  0  0  0  0
 28 66  1  0  0  0  0
 29 67  1  0  0  0  0
 29 68  1  0  0  0  0
 29 69  1  0  0  0  0
 30 70  1  0  0  0  0
 30 71  1  0  0  0  0
 30 72  1  0  0  0  0
 31 73  1  0  0  0  0
 31 74  1  0  0  0  0
 31 75  1  0  0  0  0
 32 76  1  0  0  0  0
 32 77  1  0  0  0  0
 32 78  1  0  0  0  0
 33 79  1  0  0  0  0
 33 80  1  0  0  0  0
 33 81  1  0  0  0  0
 34 82  1  0  0  0  0
 34 83  1  0  0  0  0
 34 84  1  0  0  0  0
 35 85  1  0  0  0  0
 35 86  1  0  0  0  0
 35 87  1  0  0  0  0
 36 88  1  0  0  0  0
 36 89  1  0  0  0  0
 36 90  1  0  0  0  0
 37 91  1  0  0  0  0
 37 92  1  0  0  0  0
 37 93  1  0  0  0  0
 38 94  1  0  0  0  0
 38 95  1  0  0  0  0
 38 96  1  0  0  0  0
M  END
> <PUBCHEM_COMPOUND_CID>
523403
> <PUBCHEM_COMPOUND_CANONICALIZED>
1
> <PUBCHEM_CACTVS_COMPLEXITY>
717
> <PUBCHEM_CACTVS_HBOND_ACCEPTOR>
8
> <PUBCHEM_CACTVS_HBOND_DONOR>
0
> <PUBCHEM_CACTVS_ROTATABLE_BOND>
17
> <PUBCHEM_CACTVS_SUBSKEYS>
AAADcfB4PAwAAAAAAAAAAAAAAAAAAAAAAAAAAAAAAAAAAAAAAAAAGhAAAEAACBSggAJCCAAAAAEIAACQCAIAAAAAAAAAAAFAAAABABYAAAAAAAAFIAAAAAHKbARAAAAAAAAAAAAAAAAAAAAAAAAAAAAAAA==
> <PUBCHEM_IUPAC_OPENEYE_NAME>
bis(trimethylsilyl) (2R,3S,4S,5R)-2,3,4,5-tetrakis(trimethylsilyloxy)hexanedioate
> <PUBCHEM_IUPAC_CAS_NAME>
(2R,3S,4S,5R)-2,3,4,5-tetrakis(trimethylsilyloxy)hexanedioic acid bis(trimethylsilyl) ester
> <PUBCHEM_IUPAC_NAME_MARKUP>
bis(trimethylsilyl) (2<I>R</I>,3<I>S</I>,4<I>S</I>,5<I>R</I>)-2,3,4,5-tetrakis(trimethylsilyloxy)hexanedioate
> <PUBCHEM_IUPAC_NAME>
bis(trimethylsilyl) (2R,3S,4S,5R)-2,3,4,5-tetrakis(trimethylsilyloxy)hexanedioate
> <PUBCHEM_IUPAC_SYSTEMATIC_NAME>
bis(trimethylsilyl) (2R,3S,4S,5R)-2,3,4,5-tetrakis(trimethylsilyloxy)hexanedioate
> <PUBCHEM_IUPAC_TRADITIONAL_NAME>
(2R,3S,4S,5R)-2,3,4,5-tetrakis(trimethylsilyloxy)adipic acid bis(trimethylsilyl) ester
> <PUBCHEM_IUPAC_INCHI>
InChI=1S/C24H58O8Si6/c1-33(2,3)27-19(21(29-35(7,8)9)23(25)31-37(13,14)15)20(28-34(4,5)6)22(30-36(10,11)12)24(26)32-38(16,17)18/h19-22H,1-18H3/t19-,20-,21+,22+/m0/s1
> <PUBCHEM_IUPAC_INCHIKEY>
AFNUGMFTFWKGLV-FNAHDJPLSA-N
> <PUBCHEM_EXACT_MASS>
642.27472801
> <PUBCHEM_MOLECULAR_FORMULA>
C24H58O8Si6
> <PUBCHEM_MOLECULAR_WEIGHT>
643.2
> <PUBCHEM_OPENEYE_CAN_SMILES>
C[Si](C)(C)OC(C(C(C(=O)O[Si](C)(C)C)O[Si](C)(C)C)O[Si](C)(C)C)C(C(=O)O[Si](C)(C)C)O[Si](C)(C)C
> <PUBCHEM_OPENEYE_ISO_SMILES>
C[Si](C)(C)O[C@@H]([C@@H]([C@H](C(=O)O[Si](C)(C)C)O[Si](C)(C)C)O[Si](C)(C)C)[C@H](C(=O)O[Si](C)(C)C)O[Si](C)(C)C
> <PUBCHEM_CACTVS_TPSA>
89.5
> <PUBCHEM_MONOISOTOPIC_WEIGHT>
642.27472801
> <PUBCHEM_TOTAL_CHARGE>
0
> <PUBCHEM_HEAVY_ATOM_COUNT>
38
> <PUBCHEM_ATOM_DEF_STEREO_COUNT>
4
> <PUBCHEM_ATOM_UDEF_STEREO_COUNT>
0
> <PUBCHEM_BOND_DEF_STEREO_COUNT>
0
> <PUBCHEM_BOND_UDEF_STEREO_COUNT>
0
> <PUBCHEM_ISOTOPIC_ATOM_COUNT>
0
> <PUBCHEM_COMPONENT_COUNT>
1
> <PUBCHEM_CACTVS_TAUTO_COUNT>
-1
> <PUBCHEM_COORDINATE_TYPE>
1
5
255
> <PUBCHEM_BONDANNOTATIONS>
18  10  5
15  7  6
16  8  6
17  9  5
$$$$
