523526
  -OEChem-10302200292D
 33 33  0     1  0  0  0  0  0999 V2000
    3.0878   -0.8261    0.0000 C   0  0  3  0  0  0  0  0  0  0  0  0
    2.5878   -2.3649    0.0000 C   0  0  3  0  0  0  0  0  0  0  0  0
    2.2788   -1.4139    0.0000 C   0  0  0  0  0  0  0  0  0  0  0  0
    3.8968   -1.4139    0.0000 C   0  0  0  0  0  0  0  0  0  0  0  0
    3.5878   -2.3649    0.0000 C   0  0  0  0  0  0  0  0  0  0  0  0
    3.0878    0.1739    0.0000 C   0  0  0  0  0  0  0  0  0  0  0  0
    3.9538    0.6739    0.0000 C   0  0  0  0  0  0  0  0  0  0  0  0
    2.0000   -3.1739    0.0000 C   0  0  0  0  0  0  0  0  0  0  0  0
    3.9538    1.6739    0.0000 C   0  0  0  0  0  0  0  0  0  0  0  0
    4.8198    2.1739    0.0000 C   0  0  0  0  0  0  0  0  0  0  0  0
    4.8198    3.1739    0.0000 C   0  0  0  0  0  0  0  0  0  0  0  0
    3.6402   -0.5446    0.0000 H   0  0  0  0  0  0  0  0  0  0  0  0
    1.9754   -2.2679    0.0000 H   0  0  0  0  0  0  0  0  0  0  0  0
    1.9688   -0.8769    0.0000 H   0  0  0  0  0  0  0  0  0  0  0  0
    1.7124   -1.6660    0.0000 H   0  0  0  0  0  0  0  0  0  0  0  0
    4.4632   -1.6660    0.0000 H   0  0  0  0  0  0  0  0  0  0  0  0
    4.2068   -0.8769    0.0000 H   0  0  0  0  0  0  0  0  0  0  0  0
    3.5230   -2.9815    0.0000 H   0  0  0  0  0  0  0  0  0  0  0  0
    4.1942   -2.4938    0.0000 H   0  0  0  0  0  0  0  0  0  0  0  0
    2.8757    0.7565    0.0000 H   0  0  0  0  0  0  0  0  0  0  0  0
    2.4772    0.0663    0.0000 H   0  0  0  0  0  0  0  0  0  0  0  0
    4.1659    0.0913    0.0000 H   0  0  0  0  0  0  0  0  0  0  0  0
    4.5644    0.7816    0.0000 H   0  0  0  0  0  0  0  0  0  0  0  0
    1.4984   -2.8095    0.0000 H   0  0  0  0  0  0  0  0  0  0  0  0
    1.6356   -3.6755    0.0000 H   0  0  0  0  0  0  0  0  0  0  0  0
    2.5016   -3.5384    0.0000 H   0  0  0  0  0  0  0  0  0  0  0  0
    3.7418    2.2565    0.0000 H   0  0  0  0  0  0  0  0  0  0  0  0
    3.3432    1.5663    0.0000 H   0  0  0  0  0  0  0  0  0  0  0  0
    5.0319    1.5913    0.0000 H   0  0  0  0  0  0  0  0  0  0  0  0
    5.4304    2.2816    0.0000 H   0  0  0  0  0  0  0  0  0  0  0  0
    5.4398    3.1739    0.0000 H   0  0  0  0  0  0  0  0  0  0  0  0
    4.8198    3.7939    0.0000 H   0  0  0  0  0  0  0  0  0  0  0  0
    4.1998    3.1739    0.0000 H   0  0  0  0  0  0  0  0  0  0  0  0
  1  3  1  0  0  0  0
  1  4  1  0  0  0  0
  1  6  1  0  0  0  0
  1 12  1  0  0  0  0
  2  3  1  0  0  0  0
  2  5  1  0  0  0  0
  2  8  1  0  0  0  0
  2 13  1  0  0  0  0
  3 14  1  0  0  0  0
  3 15  1  0  0  0  0
  4  5  1  0  0  0  0
  4 16  1  0  0  0  0
  4 17  1  0  0  0  0
  5 18  1  0  0  0  0
  5 19  1  0  0  0  0
  6  7  1  0  0  0  0
  6 20  1  0  0  0  0
  6 21  1  0  0  0  0
  7  9  1  0  0  0  0
  7 22  1  0  0  0  0
  7 23  1  0  0  0  0
  8 24  1  0  0  0  0
  8 25  1  0  0  0  0
  8 26  1  0  0  0  0
  9 10  1  0  0  0  0
  9 27  1  0  0  0  0
  9 28  1  0  0  0  0
 10 11  1  0  0  0  0
 10 29  1  0  0  0  0
 10 30  1  0  0  0  0
 11 31  1  0  0  0  0
 11 32  1  0  0  0  0
 11 33  1  0  0  0  0
M  END
> <PUBCHEM_COMPOUND_CID>
523526
> <PUBCHEM_COMPOUND_CANONICALIZED>
1
> <PUBCHEM_CACTVS_COMPLEXITY>
96.2
> <PUBCHEM_CACTVS_HBOND_ACCEPTOR>
0
> <PUBCHEM_CACTVS_HBOND_DONOR>
0
> <PUBCHEM_CACTVS_ROTATABLE_BOND>
4
> <PUBCHEM_CACTVS_SUBSKEYS>
AAADceBwAAAAAAAAAAAAAAAAAAAAAYAAAAAAAAAAAAAAAAAAAAAAGAAAAAAADQCAAAACAAAAAAAAAAAAAAAAAAAAAAAAAAAAAAAAAAIAAAAAAAAAAAAAAAEAgMAOAAAAAAAAAAAAAAAAAAAAAQAAAAAAAA==
> <PUBCHEM_IUPAC_OPENEYE_NAME>
1-methyl-3-pentyl-cyclopentane
> <PUBCHEM_IUPAC_CAS_NAME>
1-methyl-3-pentylcyclopentane
> <PUBCHEM_IUPAC_NAME_MARKUP>
1-methyl-3-pentylcyclopentane
> <PUBCHEM_IUPAC_NAME>
1-methyl-3-pentylcyclopentane
> <PUBCHEM_IUPAC_SYSTEMATIC_NAME>
1-methyl-3-pentyl-cyclopentane
> <PUBCHEM_IUPAC_TRADITIONAL_NAME>
1-amyl-3-methyl-cyclopentane
> <PUBCHEM_IUPAC_INCHI>
InChI=1S/C11H22/c1-3-4-5-6-11-8-7-10(2)9-11/h10-11H,3-9H2,1-2H3
> <PUBCHEM_IUPAC_INCHIKEY>
XFMOFFBDPKPNKZ-UHFFFAOYSA-N
> <PUBCHEM_XLOGP3_AA>
5.4
> <PUBCHEM_EXACT_MASS>
154.172150702
> <PUBCHEM_MOLECULAR_FORMULA>
C11H22
> <PUBCHEM_MOLECULAR_WEIGHT>
154.29
> <PUBCHEM_OPENEYE_CAN_SMILES>
CCCCCC1CCC(C1)C
> <PUBCHEM_OPENEYE_ISO_SMILES>
CCCCCC1CCC(C1)C
> <PUBCHEM_CACTVS_TPSA>
0
> <PUBCHEM_MONOISOTOPIC_WEIGHT>
154.172150702
> <PUBCHEM_TOTAL_CHARGE>
0
> <PUBCHEM_HEAVY_ATOM_COUNT>
11
> <PUBCHEM_ATOM_DEF_STEREO_COUNT>
0
> <PUBCHEM_ATOM_UDEF_STEREO_COUNT>
2
> <PUBCHEM_BOND_DEF_STEREO_COUNT>
0
> <PUBCHEM_BOND_UDEF_STEREO_COUNT>
0
> <PUBCHEM_ISOTOPIC_ATOM_COUNT>
0
> <PUBCHEM_COMPONENT_COUNT>
1
> <PUBCHEM_CACTVS_TAUTO_COUNT>
-1
> <PUBCHEM_COORDINATE_TYPE>
1
5
255
> <PUBCHEM_BONDANNOTATIONS>
1  6  3
2  8  3
$$$$
