523581
  -OEChem-10302200292D
 29 31  0     1  0  0  0  0  0999 V2000
    8.1962    1.0241    0.0000 O   0  0  0  0  0  0  0  0  0  0  0  0
    7.3321    0.5208    0.0000 C   0  0  3  0  0  0  0  0  0  0  0  0
    7.3321   -0.5208    0.0000 C   0  0  0  0  0  0  0  0  0  0  0  0
    6.4260    1.0347    0.0000 C   0  0  0  0  0  0  0  0  0  0  0  0
    6.4260   -1.0347    0.0000 C   0  0  0  0  0  0  0  0  0  0  0  0
    5.5321    0.5000    0.0000 C   0  0  0  0  0  0  0  0  0  0  0  0
    5.5321   -0.5000    0.0000 C   0  0  0  0  0  0  0  0  0  0  0  0
    4.6660    1.0000    0.0000 C   0  0  0  0  0  0  0  0  0  0  0  0
    4.6660   -1.0000    0.0000 C   0  0  0  0  0  0  0  0  0  0  0  0
    3.8000    0.5000    0.0000 C   0  0  0  0  0  0  0  0  0  0  0  0
    3.8000   -0.5000    0.0000 C   0  0  0  0  0  0  0  0  0  0  0  0
    2.9061    1.0347    0.0000 C   0  0  0  0  0  0  0  0  0  0  0  0
    2.9061   -1.0347    0.0000 C   0  0  0  0  0  0  0  0  0  0  0  0
    2.0000    0.5208    0.0000 C   0  0  0  0  0  0  0  0  0  0  0  0
    2.0000   -0.5208    0.0000 C   0  0  0  0  0  0  0  0  0  0  0  0
    7.3285    1.1408    0.0000 H   0  0  0  0  0  0  0  0  0  0  0  0
    7.5411   -1.1045    0.0000 H   0  0  0  0  0  0  0  0  0  0  0  0
    7.9429   -0.4147    0.0000 H   0  0  0  0  0  0  0  0  0  0  0  0
    6.8196    1.5137    0.0000 H   0  0  0  0  0  0  0  0  0  0  0  0
    6.0214    1.5044    0.0000 H   0  0  0  0  0  0  0  0  0  0  0  0
    6.0214   -1.5044    0.0000 H   0  0  0  0  0  0  0  0  0  0  0  0
    6.8196   -1.5137    0.0000 H   0  0  0  0  0  0  0  0  0  0  0  0
    4.6660    1.6200    0.0000 H   0  0  0  0  0  0  0  0  0  0  0  0
    4.6660   -1.6200    0.0000 H   0  0  0  0  0  0  0  0  0  0  0  0
    8.7343    0.7162    0.0000 H   0  0  0  0  0  0  0  0  0  0  0  0
    2.9132    1.6546    0.0000 H   0  0  0  0  0  0  0  0  0  0  0  0
    2.9132   -1.6546    0.0000 H   0  0  0  0  0  0  0  0  0  0  0  0
    1.4643    0.8329    0.0000 H   0  0  0  0  0  0  0  0  0  0  0  0
    1.4643   -0.8329    0.0000 H   0  0  0  0  0  0  0  0  0  0  0  0
  1  2  1  0  0  0  0
  1 25  1  0  0  0  0
  2  3  1  0  0  0  0
  2  4  1  0  0  0  0
  2 16  1  0  0  0  0
  3  5  1  0  0  0  0
  3 17  1  0  0  0  0
  3 18  1  0  0  0  0
  4  6  1  0  0  0  0
  4 19  1  0  0  0  0
  4 20  1  0  0  0  0
  5  7  1  0  0  0  0
  5 21  1  0  0  0  0
  5 22  1  0  0  0  0
  6  7  1  0  0  0  0
  6  8  2  0  0  0  0
  7  9  2  0  0  0  0
  8 10  1  0  0  0  0
  8 23  1  0  0  0  0
  9 11  1  0  0  0  0
  9 24  1  0  0  0  0
 10 11  1  0  0  0  0
 10 12  2  0  0  0  0
 11 13  2  0  0  0  0
 12 14  1  0  0  0  0
 12 26  1  0  0  0  0
 13 15  1  0  0  0  0
 13 27  1  0  0  0  0
 14 15  2  0  0  0  0
 14 28  1  0  0  0  0
 15 29  1  0  0  0  0
M  END
> <PUBCHEM_COMPOUND_CID>
523581
> <PUBCHEM_COMPOUND_CANONICALIZED>
1
> <PUBCHEM_CACTVS_COMPLEXITY>
225
> <PUBCHEM_CACTVS_HBOND_ACCEPTOR>
1
> <PUBCHEM_CACTVS_HBOND_DONOR>
1
> <PUBCHEM_CACTVS_ROTATABLE_BOND>
0
> <PUBCHEM_CACTVS_SUBSKEYS>
AAADccBwIAAAAAAAAAAAAAAAAAAAAAAAAAAwYMAAAAAAAADBUAAAGgAACAAADBSgmAIwAMAAAgCAAiBCAAACAAAgAAAIiAAAAIgIMCKAERCAYAAkwAEIiAeAwPAOwAACAAAQAADAAAYAACAAAAAAAAAAAA==
> <PUBCHEM_IUPAC_OPENEYE_NAME>
1,2,3,4-tetrahydroanthracen-2-ol
> <PUBCHEM_IUPAC_CAS_NAME>
1,2,3,4-tetrahydroanthracen-2-ol
> <PUBCHEM_IUPAC_NAME_MARKUP>
1,2,3,4-tetrahydroanthracen-2-ol
> <PUBCHEM_IUPAC_NAME>
1,2,3,4-tetrahydroanthracen-2-ol
> <PUBCHEM_IUPAC_SYSTEMATIC_NAME>
1,2,3,4-tetrahydroanthracen-2-ol
> <PUBCHEM_IUPAC_TRADITIONAL_NAME>
1,2,3,4-tetrahydroanthracen-2-ol
> <PUBCHEM_IUPAC_INCHI>
InChI=1S/C14H14O/c15-14-6-5-12-7-10-3-1-2-4-11(10)8-13(12)9-14/h1-4,7-8,14-15H,5-6,9H2
> <PUBCHEM_IUPAC_INCHIKEY>
FCXKPBDLSOIBTN-UHFFFAOYSA-N
> <PUBCHEM_XLOGP3_AA>
3.2
> <PUBCHEM_EXACT_MASS>
198.104465066
> <PUBCHEM_MOLECULAR_FORMULA>
C14H14O
> <PUBCHEM_MOLECULAR_WEIGHT>
198.26
> <PUBCHEM_OPENEYE_CAN_SMILES>
C1CC2=CC3=CC=CC=C3C=C2CC1O
> <PUBCHEM_OPENEYE_ISO_SMILES>
C1CC2=CC3=CC=CC=C3C=C2CC1O
> <PUBCHEM_CACTVS_TPSA>
20.2
> <PUBCHEM_MONOISOTOPIC_WEIGHT>
198.104465066
> <PUBCHEM_TOTAL_CHARGE>
0
> <PUBCHEM_HEAVY_ATOM_COUNT>
15
> <PUBCHEM_ATOM_DEF_STEREO_COUNT>
0
> <PUBCHEM_ATOM_UDEF_STEREO_COUNT>
1
> <PUBCHEM_BOND_DEF_STEREO_COUNT>
0
> <PUBCHEM_BOND_UDEF_STEREO_COUNT>
0
> <PUBCHEM_ISOTOPIC_ATOM_COUNT>
0
> <PUBCHEM_COMPONENT_COUNT>
1
> <PUBCHEM_CACTVS_TAUTO_COUNT>
-1
> <PUBCHEM_COORDINATE_TYPE>
1
5
255
> <PUBCHEM_BONDANNOTATIONS>
2  1  3
10  11  8
10  12  8
11  13  8
12  14  8
13  15  8
14  15  8
6  7  8
6  8  8
7  9  8
8  10  8
9  11  8
$$$$
