523563
  -OEChem-10302200292D
 96 99  0     1  0  0  0  0  0999 V2000
    9.9697    2.3347    0.0000 Si  0  0  0  0  0  0  0  0  0  0  0  0
   12.6433   -0.1991    0.0000 Si  0  0  0  0  0  0  0  0  0  0  0  0
    2.8641   -2.4484    0.0000 Si  0  0  0  0  0  0  0  0  0  0  0  0
    9.7601    1.3569    0.0000 O   0  0  0  0  0  0  0  0  0  0  0  0
   11.6486   -0.3019    0.0000 O   0  0  0  0  0  0  0  0  0  0  0  0
    3.7282   -2.9517    0.0000 O   0  0  0  0  0  0  0  0  0  0  0  0
    9.1213    0.1006    0.0000 C   0  0  3  0  0  0  0  0  0  0  0  0
    9.1213   -0.8994    0.0000 C   0  0  3  0  0  0  0  0  0  0  0  0
    8.2552   -1.3994    0.0000 C   0  0  3  0  0  0  0  0  0  0  0  0
    7.3892   -0.8994    0.0000 C   0  0  3  0  0  0  0  0  0  0  0  0
    6.4792   -1.4062    0.0000 C   0  0  3  0  0  0  0  0  0  0  0  0
   10.0675    0.4053    0.0000 C   0  0  3  0  0  0  0  0  0  0  0  0
    8.2552    0.6006    0.0000 C   0  0  0  0  0  0  0  0  0  0  0  0
    6.4712   -2.4478    0.0000 C   0  0  3  0  0  0  0  0  0  0  0  0
    7.3892    0.1006    0.0000 C   0  0  0  0  0  0  0  0  0  0  0  0
   10.0675   -1.2041    0.0000 C   0  0  0  0  0  0  0  0  0  0  0  0
    8.2713   -2.4409    0.0000 C   0  0  0  0  0  0  0  0  0  0  0  0
   10.6511   -0.3994    0.0000 C   0  0  0  0  0  0  0  0  0  0  0  0
    7.3733   -2.9687    0.0000 C   0  0  0  0  0  0  0  0  0  0  0  0
    5.5524   -0.8422    0.0000 C   0  0  0  0  0  0  0  0  0  0  0  0
    9.1213    1.1006    0.0000 C   0  0  0  0  0  0  0  0  0  0  0  0
    5.5358   -2.9976    0.0000 C   0  0  0  0  0  0  0  0  0  0  0  0
   11.0622    0.5081    0.0000 C   0  0  3  0  0  0  0  0  0  0  0  0
    6.4869   -0.4063    0.0000 C   0  0  0  0  0  0  0  0  0  0  0  0
    4.6045   -1.3701    0.0000 C   0  0  0  0  0  0  0  0  0  0  0  0
    4.5961   -2.4551    0.0000 C   0  0  3  0  0  0  0  0  0  0  0  0
   11.4705    1.4210    0.0000 C   0  0  0  0  0  0  0  0  0  0  0  0
    8.9919    2.5443    0.0000 C   0  0  0  0  0  0  0  0  0  0  0  0
   10.1793    3.3125    0.0000 C   0  0  0  0  0  0  0  0  0  0  0  0
   10.9475    2.1251    0.0000 C   0  0  0  0  0  0  0  0  0  0  0  0
   13.6380   -0.0963    0.0000 C   0  0  0  0  0  0  0  0  0  0  0  0
   12.7461   -1.1938    0.0000 C   0  0  0  0  0  0  0  0  0  0  0  0
   12.5405    0.7956    0.0000 C   0  0  0  0  0  0  0  0  0  0  0  0
    2.0000   -1.9451    0.0000 C   0  0  0  0  0  0  0  0  0  0  0  0
    2.3608   -3.3125    0.0000 C   0  0  0  0  0  0  0  0  0  0  0  0
    3.3674   -1.5843    0.0000 C   0  0  0  0  0  0  0  0  0  0  0  0
    9.1869   -1.5159    0.0000 H   0  0  0  0  0  0  0  0  0  0  0  0
    8.7945   -1.7052    0.0000 H   0  0  0  0  0  0  0  0  0  0  0  0
    7.9262   -0.5894    0.0000 H   0  0  0  0  0  0  0  0  0  0  0  0
    8.6538    1.0755    0.0000 H   0  0  0  0  0  0  0  0  0  0  0  0
    7.8567    1.0755    0.0000 H   0  0  0  0  0  0  0  0  0  0  0  0
    6.4736   -3.0678    0.0000 H   0  0  0  0  0  0  0  0  0  0  0  0
    7.1772    0.6832    0.0000 H   0  0  0  0  0  0  0  0  0  0  0  0
    6.7786   -0.0071    0.0000 H   0  0  0  0  0  0  0  0  0  0  0  0
    9.8164   -1.7710    0.0000 H   0  0  0  0  0  0  0  0  0  0  0  0
   10.6049   -1.5134    0.0000 H   0  0  0  0  0  0  0  0  0  0  0  0
    8.4893   -3.0213    0.0000 H   0  0  0  0  0  0  0  0  0  0  0  0
    8.8804   -2.3254    0.0000 H   0  0  0  0  0  0  0  0  0  0  0  0
   11.1120   -0.8141    0.0000 H   0  0  0  0  0  0  0  0  0  0  0  0
   11.1120    0.0153    0.0000 H   0  0  0  0  0  0  0  0  0  0  0  0
    6.9760   -3.4446    0.0000 H   0  0  0  0  0  0  0  0  0  0  0  0
    7.7742   -3.4416    0.0000 H   0  0  0  0  0  0  0  0  0  0  0  0
    5.9606   -0.3755    0.0000 H   0  0  0  0  0  0  0  0  0  0  0  0
    5.1625   -0.3601    0.0000 H   0  0  0  0  0  0  0  0  0  0  0  0
    9.7413    1.1006    0.0000 H   0  0  0  0  0  0  0  0  0  0  0  0
    9.1213    1.7206    0.0000 H   0  0  0  0  0  0  0  0  0  0  0  0
    8.5013    1.1006    0.0000 H   0  0  0  0  0  0  0  0  0  0  0  0
    5.1385   -3.4735    0.0000 H   0  0  0  0  0  0  0  0  0  0  0  0
    5.9367   -3.4705    0.0000 H   0  0  0  0  0  0  0  0  0  0  0  0
   11.6789    0.5719    0.0000 H   0  0  0  0  0  0  0  0  0  0  0  0
    7.1069   -0.4111    0.0000 H   0  0  0  0  0  0  0  0  0  0  0  0
    6.4917    0.2137    0.0000 H   0  0  0  0  0  0  0  0  0  0  0  0
    5.8669   -0.4015    0.0000 H   0  0  0  0  0  0  0  0  0  0  0  0
    4.3999   -0.7848    0.0000 H   0  0  0  0  0  0  0  0  0  0  0  0
    3.9928   -1.4715    0.0000 H   0  0  0  0  0  0  0  0  0  0  0  0
    4.5949   -3.0751    0.0000 H   0  0  0  0  0  0  0  0  0  0  0  0
   12.0365    1.1678    0.0000 H   0  0  0  0  0  0  0  0  0  0  0  0
   11.7237    1.9869    0.0000 H   0  0  0  0  0  0  0  0  0  0  0  0
   10.9045    1.6741    0.0000 H   0  0  0  0  0  0  0  0  0  0  0  0
    9.1219    3.1505    0.0000 H   0  0  0  0  0  0  0  0  0  0  0  0
    8.3857    2.6743    0.0000 H   0  0  0  0  0  0  0  0  0  0  0  0
    8.8620    1.9381    0.0000 H   0  0  0  0  0  0  0  0  0  0  0  0
   10.7856    3.1825    0.0000 H   0  0  0  0  0  0  0  0  0  0  0  0
   10.3093    3.9187    0.0000 H   0  0  0  0  0  0  0  0  0  0  0  0
    9.5731    3.4424    0.0000 H   0  0  0  0  0  0  0  0  0  0  0  0
   10.8176    1.5189    0.0000 H   0  0  0  0  0  0  0  0  0  0  0  0
   11.5537    1.9952    0.0000 H   0  0  0  0  0  0  0  0  0  0  0  0
   11.0775    2.7313    0.0000 H   0  0  0  0  0  0  0  0  0  0  0  0
   13.7017   -0.7130    0.0000 H   0  0  0  0  0  0  0  0  0  0  0  0
   14.2547   -0.0325    0.0000 H   0  0  0  0  0  0  0  0  0  0  0  0
   13.5742    0.5204    0.0000 H   0  0  0  0  0  0  0  0  0  0  0  0
   12.1294   -1.2575    0.0000 H   0  0  0  0  0  0  0  0  0  0  0  0
   12.8098   -1.8105    0.0000 H   0  0  0  0  0  0  0  0  0  0  0  0
   13.3628   -1.1300    0.0000 H   0  0  0  0  0  0  0  0  0  0  0  0
   13.1572    0.8594    0.0000 H   0  0  0  0  0  0  0  0  0  0  0  0
   12.4767    1.4123    0.0000 H   0  0  0  0  0  0  0  0  0  0  0  0
   11.9238    0.7319    0.0000 H   0  0  0  0  0  0  0  0  0  0  0  0
    2.3121   -1.4093    0.0000 H   0  0  0  0  0  0  0  0  0  0  0  0
    1.4643   -1.6330    0.0000 H   0  0  0  0  0  0  0  0  0  0  0  0
    1.6879   -2.4808    0.0000 H   0  0  0  0  0  0  0  0  0  0  0  0
    1.8250   -3.0004    0.0000 H   0  0  0  0  0  0  0  0  0  0  0  0
    2.0487   -3.8482    0.0000 H   0  0  0  0  0  0  0  0  0  0  0  0
    2.8965   -3.6246    0.0000 H   0  0  0  0  0  0  0  0  0  0  0  0
    3.9032   -1.8964    0.0000 H   0  0  0  0  0  0  0  0  0  0  0  0
    3.6795   -1.0486    0.0000 H   0  0  0  0  0  0  0  0  0  0  0  0
    2.8317   -1.2722    0.0000 H   0  0  0  0  0  0  0  0  0  0  0  0
  1  4  1  0  0  0  0
  1 28  1  0  0  0  0
  1 29  1  0  0  0  0
  1 30  1  0  0  0  0
  2  5  1  0  0  0  0
  2 31  1  0  0  0  0
  2 32  1  0  0  0  0
  2 33  1  0  0  0  0
  3  6  1  0  0  0  0
  3 34  1  0  0  0  0
  3 35  1  0  0  0  0
  3 36  1  0  0  0  0
  4 12  1  0  0  0  0
  5 23  1  0  0  0  0
  6 26  1  0  0  0  0
  7  8  1  0  0  0  0
  7 12  1  0  0  0  0
  7 13  1  0  0  0  0
  7 21  1  0  0  0  0
  8  9  1  0  0  0  0
  8 16  1  0  0  0  0
  8 37  1  0  0  0  0
  9 10  1  0  0  0  0
  9 17  1  0  0  0  0
  9 38  1  0  0  0  0
 10 11  1  0  0  0  0
 10 15  1  0  0  0  0
 10 39  1  0  0  0  0
 11 14  1  0  0  0  0
 11 20  1  0  0  0  0
 11 24  1  0  0  0  0
 12 18  1  0  0  0  0
 12 23  1  0  0  0  0
 13 15  1  0  0  0  0
 13 40  1  0  0  0  0
 13 41  1  0  0  0  0
 14 19  1  0  0  0  0
 14 22  1  0  0  0  0
 14 42  1  0  0  0  0
 15 43  1  0  0  0  0
 15 44  1  0  0  0  0
 16 18  1  0  0  0  0
 16 45  1  0  0  0  0
 16 46  1  0  0  0  0
 17 19  1  0  0  0  0
 17 47  1  0  0  0  0
 17 48  1  0  0  0  0
 18 49  1  0  0  0  0
 18 50  1  0  0  0  0
 19 51  1  0  0  0  0
 19 52  1  0  0  0  0
 20 25  1  0  0  0  0
 20 53  1  0  0  0  0
 20 54  1  0  0  0  0
 21 55  1  0  0  0  0
 21 56  1  0  0  0  0
 21 57  1  0  0  0  0
 22 26  1  0  0  0  0
 22 58  1  0  0  0  0
 22 59  1  0  0  0  0
 23 27  1  0  0  0  0
 23 60  1  0  0  0  0
 24 61  1  0  0  0  0
 24 62  1  0  0  0  0
 24 63  1  0  0  0  0
 25 26  1  0  0  0  0
 25 64  1  0  0  0  0
 25 65  1  0  0  0  0
 26 66  1  0  0  0  0
 27 67  1  0  0  0  0
 27 68  1  0  0  0  0
 27 69  1  0  0  0  0
 28 70  1  0  0  0  0
 28 71  1  0  0  0  0
 28 72  1  0  0  0  0
 29 73  1  0  0  0  0
 29 74  1  0  0  0  0
 29 75  1  0  0  0  0
 30 76  1  0  0  0  0
 30 77  1  0  0  0  0
 30 78  1  0  0  0  0
 31 79  1  0  0  0  0
 31 80  1  0  0  0  0
 31 81  1  0  0  0  0
 32 82  1  0  0  0  0
 32 83  1  0  0  0  0
 32 84  1  0  0  0  0
 33 85  1  0  0  0  0
 33 86  1  0  0  0  0
 33 87  1  0  0  0  0
 34 88  1  0  0  0  0
 34 89  1  0  0  0  0
 34 90  1  0  0  0  0
 35 91  1  0  0  0  0
 35 92  1  0  0  0  0
 35 93  1  0  0  0  0
 36 94  1  0  0  0  0
 36 95  1  0  0  0  0
 36 96  1  0  0  0  0
M  END
> <PUBCHEM_COMPOUND_CID>
523563
> <PUBCHEM_COMPOUND_CANONICALIZED>
1
> <PUBCHEM_CACTVS_COMPLEXITY>
799
> <PUBCHEM_CACTVS_HBOND_ACCEPTOR>
3
> <PUBCHEM_CACTVS_HBOND_DONOR>
0
> <PUBCHEM_CACTVS_ROTATABLE_BOND>
7
> <PUBCHEM_CACTVS_SUBSKEYS>
AAADcfB4MAwAAAAAAAAAAAAAAAAAAYAAAAAwYMAAAAAAAGDAAAAAGhAAAEAAD1SggAJCAAAAAAEAAAAAAAAAAAAAAAAAAAAAAAABAAIAAAAAAAAEAAAAAAGAwPAPgAAAAAAAAADAAAYAACAAAYAADAAAAA==
> <PUBCHEM_IUPAC_OPENEYE_NAME>
1-[10,13-dimethyl-3,17-bis(trimethylsilyloxy)-1,2,3,4,5,6,7,8,9,11,12,14,15,16-tetradecahydrocyclopenta[a]phenanthren-17-yl]ethoxy-trimethyl-silane
> <PUBCHEM_IUPAC_CAS_NAME>
1-[10,13-dimethyl-3,17-bis(trimethylsilyloxy)-1,2,3,4,5,6,7,8,9,11,12,14,15,16-tetradecahydrocyclopenta[a]phenanthren-17-yl]ethoxy-trimethylsilane
> <PUBCHEM_IUPAC_NAME_MARKUP>
1-[10,13-dimethyl-3,17-bis(trimethylsilyloxy)-1,2,3,4,5,6,7,8,9,11,12,14,15,16-tetradecahydrocyclopenta[a]phenanthren-17-yl]ethoxy-trimethylsilane
> <PUBCHEM_IUPAC_NAME>
1-[10,13-dimethyl-3,17-bis(trimethylsilyloxy)-1,2,3,4,5,6,7,8,9,11,12,14,15,16-tetradecahydrocyclopenta[a]phenanthren-17-yl]ethoxy-trimethylsilane
> <PUBCHEM_IUPAC_SYSTEMATIC_NAME>
1-[10,13-dimethyl-3,17-bis(trimethylsilyloxy)-1,2,3,4,5,6,7,8,9,11,12,14,15,16-tetradecahydrocyclopenta[a]phenanthren-17-yl]ethoxy-trimethyl-silane
> <PUBCHEM_IUPAC_TRADITIONAL_NAME>
1-[10,13-dimethyl-3,17-bis(trimethylsilyloxy)-1,2,3,4,5,6,7,8,9,11,12,14,15,16-tetradecahydrocyclopenta[a]phenanthren-17-yl]ethoxy-trimethyl-silane
> <PUBCHEM_IUPAC_INCHI>
InChI=1S/C30H60O3Si3/c1-22(31-34(4,5)6)30(33-36(10,11)12)20-17-27-25-14-13-23-21-24(32-35(7,8)9)15-18-28(23,2)26(25)16-19-29(27,30)3/h22-27H,13-21H2,1-12H3
> <PUBCHEM_IUPAC_INCHIKEY>
KFUWLVZCEDFJIK-UHFFFAOYSA-N
> <PUBCHEM_EXACT_MASS>
552.38502537
> <PUBCHEM_MOLECULAR_FORMULA>
C30H60O3Si3
> <PUBCHEM_MOLECULAR_WEIGHT>
553.0
> <PUBCHEM_OPENEYE_CAN_SMILES>
CC(C1(CCC2C1(CCC3C2CCC4C3(CCC(C4)O[Si](C)(C)C)C)C)O[Si](C)(C)C)O[Si](C)(C)C
> <PUBCHEM_OPENEYE_ISO_SMILES>
CC(C1(CCC2C1(CCC3C2CCC4C3(CCC(C4)O[Si](C)(C)C)C)C)O[Si](C)(C)C)O[Si](C)(C)C
> <PUBCHEM_CACTVS_TPSA>
27.7
> <PUBCHEM_MONOISOTOPIC_WEIGHT>
552.38502537
> <PUBCHEM_TOTAL_CHARGE>
0
> <PUBCHEM_HEAVY_ATOM_COUNT>
36
> <PUBCHEM_ATOM_DEF_STEREO_COUNT>
0
> <PUBCHEM_ATOM_UDEF_STEREO_COUNT>
9
> <PUBCHEM_BOND_DEF_STEREO_COUNT>
0
> <PUBCHEM_BOND_UDEF_STEREO_COUNT>
0
> <PUBCHEM_ISOTOPIC_ATOM_COUNT>
0
> <PUBCHEM_COMPONENT_COUNT>
1
> <PUBCHEM_CACTVS_TAUTO_COUNT>
-1
> <PUBCHEM_COORDINATE_TYPE>
1
5
255
> <PUBCHEM_BONDANNOTATIONS>
10  15  3
11  24  3
14  19  3
23  27  3
12  4  3
26  6  3
7  21  3
8  16  3
9  17  3
$$$$
