523576
  -OEChem-10302200292D
 44 47  0     1  0  0  0  0  0999 V2000
    2.5604    0.0307    0.0000 O   0  0  0  0  0  0  0  0  0  0  0  0
    4.3260   -0.0960    0.0000 N   0  0  3  0  0  0  0  0  0  0  0  0
    8.4249    0.0452    0.0000 N   0  0  3  0  0  0  0  0  0  0  0  0
    6.3761    0.2105    0.0000 C   0  0  3  0  0  0  0  0  0  0  0  0
    6.6349    1.1764    0.0000 C   0  0  3  0  0  0  0  0  0  0  0  0
    5.1550   -0.6551    0.0000 C   0  0  3  0  0  0  0  0  0  0  0  0
    8.0665    0.9788    0.0000 C   0  0  3  0  0  0  0  0  0  0  0  0
    5.8983    2.1591    0.0000 C   0  0  0  0  0  0  0  0  0  0  0  0
    4.6016    0.8653    0.0000 C   0  0  0  0  0  0  0  0  0  0  0  0
    7.6478   -0.5841    0.0000 C   0  0  0  0  0  0  0  0  0  0  0  0
    5.0984   -1.6952    0.0000 C   0  0  0  0  0  0  0  0  0  0  0  0
    8.7095    1.7983    0.0000 C   0  0  0  0  0  0  0  0  0  0  0  0
    3.3829   -0.5381    0.0000 C   0  0  3  0  0  0  0  0  0  0  0  0
    9.4511   -0.1336    0.0000 C   0  0  0  0  0  0  0  0  0  0  0  0
    4.1658   -2.1591    0.0000 C   0  0  0  0  0  0  0  0  0  0  0  0
    9.7395    1.6433    0.0000 C   0  0  0  0  0  0  0  0  0  0  0  0
    3.3022   -1.5766    0.0000 C   0  0  0  0  0  0  0  0  0  0  0  0
   10.1128    0.6708    0.0000 C   0  0  0  0  0  0  0  0  0  0  0  0
    6.8784    0.5740    0.0000 H   0  0  0  0  0  0  0  0  0  0  0  0
    6.6394    0.5565    0.0000 H   0  0  0  0  0  0  0  0  0  0  0  0
    5.6979   -0.9547    0.0000 H   0  0  0  0  0  0  0  0  0  0  0  0
    8.6796    0.8865    0.0000 H   0  0  0  0  0  0  0  0  0  0  0  0
    6.2161    2.6914    0.0000 H   0  0  0  0  0  0  0  0  0  0  0  0
    5.2851    2.2510    0.0000 H   0  0  0  0  0  0  0  0  0  0  0  0
    4.5966    1.4853    0.0000 H   0  0  0  0  0  0  0  0  0  0  0  0
    3.9873    0.9491    0.0000 H   0  0  0  0  0  0  0  0  0  0  0  0
    7.2632   -1.0705    0.0000 H   0  0  0  0  0  0  0  0  0  0  0  0
    8.0887   -1.0200    0.0000 H   0  0  0  0  0  0  0  0  0  0  0  0
    5.2754   -2.2894    0.0000 H   0  0  0  0  0  0  0  0  0  0  0  0
    5.7141   -1.6225    0.0000 H   0  0  0  0  0  0  0  0  0  0  0  0
    8.9053    2.3866    0.0000 H   0  0  0  0  0  0  0  0  0  0  0  0
    8.1634    2.0919    0.0000 H   0  0  0  0  0  0  0  0  0  0  0  0
    2.8230   -0.8045    0.0000 H   0  0  0  0  0  0  0  0  0  0  0  0
    9.2417   -0.7172    0.0000 H   0  0  0  0  0  0  0  0  0  0  0  0
    9.9902   -0.4397    0.0000 H   0  0  0  0  0  0  0  0  0  0  0  0
    3.7362   -2.6062    0.0000 H   0  0  0  0  0  0  0  0  0  0  0  0
    4.5328   -2.6588    0.0000 H   0  0  0  0  0  0  0  0  0  0  0  0
   10.3478    1.7631    0.0000 H   0  0  0  0  0  0  0  0  0  0  0  0
    9.7255    2.2631    0.0000 H   0  0  0  0  0  0  0  0  0  0  0  0
    2.7014   -1.4235    0.0000 H   0  0  0  0  0  0  0  0  0  0  0  0
    3.0486   -2.1423    0.0000 H   0  0  0  0  0  0  0  0  0  0  0  0
   10.5172    0.2008    0.0000 H   0  0  0  0  0  0  0  0  0  0  0  0
   10.6451    0.9888    0.0000 H   0  0  0  0  0  0  0  0  0  0  0  0
    2.0000   -0.2347    0.0000 H   0  0  0  0  0  0  0  0  0  0  0  0
  1 13  1  0  0  0  0
  1 44  1  0  0  0  0
  2  6  1  0  0  0  0
  2  9  1  0  0  0  0
  2 13  1  0  0  0  0
  3  7  1  0  0  0  0
  3 10  1  0  0  0  0
  3 14  1  0  0  0  0
  4  6  1  0  0  0  0
  4  8  1  0  0  0  0
  4 10  1  0  0  0  0
  4 19  1  0  0  0  0
  5  7  1  0  0  0  0
  5  8  1  0  0  0  0
  5  9  1  0  0  0  0
  5 20  1  0  0  0  0
  6 11  1  0  0  0  0
  6 21  1  0  0  0  0
  7 12  1  0  0  0  0
  7 22  1  0  0  0  0
  8 23  1  0  0  0  0
  8 24  1  0  0  0  0
  9 25  1  0  0  0  0
  9 26  1  0  0  0  0
 10 27  1  0  0  0  0
 10 28  1  0  0  0  0
 11 15  1  0  0  0  0
 11 29  1  0  0  0  0
 11 30  1  0  0  0  0
 12 16  1  0  0  0  0
 12 31  1  0  0  0  0
 12 32  1  0  0  0  0
 13 17  1  0  0  0  0
 13 33  1  0  0  0  0
 14 18  1  0  0  0  0
 14 34  1  0  0  0  0
 14 35  1  0  0  0  0
 15 17  1  0  0  0  0
 15 36  1  0  0  0  0
 15 37  1  0  0  0  0
 16 18  1  0  0  0  0
 16 38  1  0  0  0  0
 16 39  1  0  0  0  0
 17 40  1  0  0  0  0
 17 41  1  0  0  0  0
 18 42  1  0  0  0  0
 18 43  1  0  0  0  0
M  END
> <PUBCHEM_COMPOUND_CID>
523576
> <PUBCHEM_COMPOUND_CANONICALIZED>
1
> <PUBCHEM_CACTVS_COMPLEXITY>
322
> <PUBCHEM_CACTVS_HBOND_ACCEPTOR>
3
> <PUBCHEM_CACTVS_HBOND_DONOR>
1
> <PUBCHEM_CACTVS_ROTATABLE_BOND>
0
> <PUBCHEM_CACTVS_SUBSKEYS>
AAADceBzIAAAAAAAAAAAAAAAAAAAAAAAAAAsWLFgAAAWAACwAAAAHgAACAAADSjhgAYAAAMAAgAAAAAAAAAAAAAAAAAAAAAIAAAAEAIAwAAEQAAEAACAAAGQ0OMOAAAAAAAAAAAAAAAAAAAAAAAAAAAAAA==
> <PUBCHEM_IUPAC_OPENEYE_NAME>
7,15-diazatetracyclo[7.7.1.02,7.010,15]heptadecan-6-ol
> <PUBCHEM_IUPAC_CAS_NAME>
7,15-diazatetracyclo[7.7.1.02,7.010,15]heptadecan-6-ol
> <PUBCHEM_IUPAC_NAME_MARKUP>
7,15-diazatetracyclo[7.7.1.0<SUP>2,7</SUP>.0<SUP>10,15</SUP>]heptadecan-6-ol
> <PUBCHEM_IUPAC_NAME>
7,15-diazatetracyclo[7.7.1.02,7.010,15]heptadecan-6-ol
> <PUBCHEM_IUPAC_SYSTEMATIC_NAME>
7,15-diazatetracyclo[7.7.1.02,7.010,15]heptadecan-6-ol
> <PUBCHEM_IUPAC_TRADITIONAL_NAME>
7,15-diazatetracyclo[7.7.1.02,7.010,15]heptadecan-6-ol
> <PUBCHEM_IUPAC_INCHI>
InChI=1S/C15H26N2O/c18-15-6-3-5-14-11-8-12(10-17(14)15)13-4-1-2-7-16(13)9-11/h11-15,18H,1-10H2
> <PUBCHEM_IUPAC_INCHIKEY>
AFEKUFYCNWZEGZ-UHFFFAOYSA-N
> <PUBCHEM_XLOGP3_AA>
2
> <PUBCHEM_EXACT_MASS>
250.204513457
> <PUBCHEM_MOLECULAR_FORMULA>
C15H26N2O
> <PUBCHEM_MOLECULAR_WEIGHT>
250.38
> <PUBCHEM_OPENEYE_CAN_SMILES>
C1CCN2CC3CC(C2C1)CN4C3CCCC4O
> <PUBCHEM_OPENEYE_ISO_SMILES>
C1CCN2CC3CC(C2C1)CN4C3CCCC4O
> <PUBCHEM_CACTVS_TPSA>
26.7
> <PUBCHEM_MONOISOTOPIC_WEIGHT>
250.204513457
> <PUBCHEM_TOTAL_CHARGE>
0
> <PUBCHEM_HEAVY_ATOM_COUNT>
18
> <PUBCHEM_ATOM_DEF_STEREO_COUNT>
0
> <PUBCHEM_ATOM_UDEF_STEREO_COUNT>
5
> <PUBCHEM_BOND_DEF_STEREO_COUNT>
0
> <PUBCHEM_BOND_UDEF_STEREO_COUNT>
0
> <PUBCHEM_ISOTOPIC_ATOM_COUNT>
0
> <PUBCHEM_COMPONENT_COUNT>
1
> <PUBCHEM_CACTVS_TAUTO_COUNT>
-1
> <PUBCHEM_COORDINATE_TYPE>
1
5
255
> <PUBCHEM_BONDANNOTATIONS>
13  1  3
4  8  3
5  8  3
6  11  3
7  12  3
$$$$
