523578
  -OEChem-10302200292D
 41 44  0     1  0  0  0  0  0999 V2000
    3.7360   -0.1774    0.0000 N   0  0  3  0  0  0  0  0  0  0  0  0
    7.8349   -0.0363    0.0000 N   0  0  3  0  0  0  0  0  0  0  0  0
    6.0449    1.0950    0.0000 C   0  0  3  0  0  0  0  0  0  0  0  0
    5.7861    0.1290    0.0000 C   0  0  3  0  0  0  0  0  0  0  0  0
    4.0117    0.7838    0.0000 C   0  0  3  0  0  0  0  0  0  0  0  0
    5.3083    2.0776    0.0000 C   0  0  0  0  0  0  0  0  0  0  0  0
    7.0578   -0.6656    0.0000 C   0  0  3  0  0  0  0  0  0  0  0  0
    4.5650   -0.7366    0.0000 C   0  0  0  0  0  0  0  0  0  0  0  0
    7.4765    0.8973    0.0000 C   0  0  0  0  0  0  0  0  0  0  0  0
    3.2997    1.5442    0.0000 C   0  0  0  0  0  0  0  0  0  0  0  0
    2.7293   -0.4450    0.0000 C   0  0  0  0  0  0  0  0  0  0  0  0
    7.2048   -1.6968    0.0000 C   0  0  0  0  0  0  0  0  0  0  0  0
    2.2871    1.3000    0.0000 C   0  0  0  0  0  0  0  0  0  0  0  0
    2.0000    0.2987    0.0000 C   0  0  0  0  0  0  0  0  0  0  0  0
    8.1744   -2.0776    0.0000 C   0  0  0  0  0  0  0  0  0  0  0  0
    8.8130   -0.3945    0.0000 C   0  0  0  0  0  0  0  0  0  0  0  0
    8.9839   -1.4220    0.0000 C   0  0  0  0  0  0  0  0  0  0  0  0
    6.0494    0.4750    0.0000 H   0  0  0  0  0  0  0  0  0  0  0  0
    6.2884    0.4925    0.0000 H   0  0  0  0  0  0  0  0  0  0  0  0
    4.2144    1.3697    0.0000 H   0  0  0  0  0  0  0  0  0  0  0  0
    5.6261    2.6099    0.0000 H   0  0  0  0  0  0  0  0  0  0  0  0
    4.6951    2.1695    0.0000 H   0  0  0  0  0  0  0  0  0  0  0  0
    6.5381   -1.0038    0.0000 H   0  0  0  0  0  0  0  0  0  0  0  0
    4.1592   -1.2053    0.0000 H   0  0  0  0  0  0  0  0  0  0  0  0
    4.9817   -1.1958    0.0000 H   0  0  0  0  0  0  0  0  0  0  0  0
    8.0844    1.0196    0.0000 H   0  0  0  0  0  0  0  0  0  0  0  0
    7.4575    1.5170    0.0000 H   0  0  0  0  0  0  0  0  0  0  0  0
    3.8181    1.8842    0.0000 H   0  0  0  0  0  0  0  0  0  0  0  0
    3.0534    2.1131    0.0000 H   0  0  0  0  0  0  0  0  0  0  0  0
    2.2189   -0.7969    0.0000 H   0  0  0  0  0  0  0  0  0  0  0  0
    2.9888   -1.0081    0.0000 H   0  0  0  0  0  0  0  0  0  0  0  0
    6.5851   -1.6780    0.0000 H   0  0  0  0  0  0  0  0  0  0  0  0
    7.0803   -2.3042    0.0000 H   0  0  0  0  0  0  0  0  0  0  0  0
    2.2470    1.9187    0.0000 H   0  0  0  0  0  0  0  0  0  0  0  0
    1.6707    1.3664    0.0000 H   0  0  0  0  0  0  0  0  0  0  0  0
    1.4420    0.5691    0.0000 H   0  0  0  0  0  0  0  0  0  0  0  0
    1.6382   -0.2048    0.0000 H   0  0  0  0  0  0  0  0  0  0  0  0
    7.8523   -2.6074    0.0000 H   0  0  0  0  0  0  0  0  0  0  0  0
    8.6412   -2.4855    0.0000 H   0  0  0  0  0  0  0  0  0  0  0  0
    9.2903    0.0012    0.0000 H   0  0  0  0  0  0  0  0  0  0  0  0
    9.5635   -1.6420    0.0000 H   0  0  0  0  0  0  0  0  0  0  0  0
  1  5  1  0  0  0  0
  1  8  1  0  0  0  0
  1 11  1  0  0  0  0
  2  7  1  0  0  0  0
  2  9  1  0  0  0  0
  2 16  1  0  0  0  0
  3  5  1  0  0  0  0
  3  6  1  0  0  0  0
  3  9  1  0  0  0  0
  3 18  1  0  0  0  0
  4  6  1  0  0  0  0
  4  7  1  0  0  0  0
  4  8  1  0  0  0  0
  4 19  1  0  0  0  0
  5 10  1  0  0  0  0
  5 20  1  0  0  0  0
  6 21  1  0  0  0  0
  6 22  1  0  0  0  0
  7 12  1  0  0  0  0
  7 23  1  0  0  0  0
  8 24  1  0  0  0  0
  8 25  1  0  0  0  0
  9 26  1  0  0  0  0
  9 27  1  0  0  0  0
 10 13  1  0  0  0  0
 10 28  1  0  0  0  0
 10 29  1  0  0  0  0
 11 14  1  0  0  0  0
 11 30  1  0  0  0  0
 11 31  1  0  0  0  0
 12 15  1  0  0  0  0
 12 32  1  0  0  0  0
 12 33  1  0  0  0  0
 13 14  1  0  0  0  0
 13 34  1  0  0  0  0
 13 35  1  0  0  0  0
 14 36  1  0  0  0  0
 14 37  1  0  0  0  0
 15 17  1  0  0  0  0
 15 38  1  0  0  0  0
 15 39  1  0  0  0  0
 16 17  2  0  0  0  0
 16 40  1  0  0  0  0
 17 41  1  0  0  0  0
M  END
> <PUBCHEM_COMPOUND_CID>
523578
> <PUBCHEM_COMPOUND_CANONICALIZED>
1
> <PUBCHEM_CACTVS_COMPLEXITY>
325
> <PUBCHEM_CACTVS_HBOND_ACCEPTOR>
2
> <PUBCHEM_CACTVS_HBOND_DONOR>
0
> <PUBCHEM_CACTVS_ROTATABLE_BOND>
0
> <PUBCHEM_CACTVS_SUBSKEYS>
AAADceBzAAAAAAAAAAAAAAAAAAAAAAAAAAAsWLEAAAAWAACwAAAAHAAAAAAADSjBAAQAAAMAAACAACBGQAAAAAAgAgAIAAAIAAgAAAIAwQAEAAAAgACAAAEQgMAOAAAAAAAAAAAAAAAAAAAAAAAAAAAAAA==
> <PUBCHEM_IUPAC_OPENEYE_NAME>
7,15-diazatetracyclo[7.7.1.02,7.010,15]heptadec-5-ene
> <PUBCHEM_IUPAC_CAS_NAME>
7,15-diazatetracyclo[7.7.1.02,7.010,15]heptadec-5-ene
> <PUBCHEM_IUPAC_NAME_MARKUP>
7,15-diazatetracyclo[7.7.1.0<SUP>2,7</SUP>.0<SUP>10,15</SUP>]heptadec-5-ene
> <PUBCHEM_IUPAC_NAME>
7,15-diazatetracyclo[7.7.1.02,7.010,15]heptadec-5-ene
> <PUBCHEM_IUPAC_SYSTEMATIC_NAME>
7,15-diazatetracyclo[7.7.1.02,7.010,15]heptadec-5-ene
> <PUBCHEM_IUPAC_TRADITIONAL_NAME>
7,15-diazatetracyclo[7.7.1.02,7.010,15]heptadec-5-ene
> <PUBCHEM_IUPAC_INCHI>
InChI=1S/C15H24N2/c1-3-7-16-11-13-9-12(14(16)5-1)10-17-8-4-2-6-15(13)17/h3,7,12-15H,1-2,4-6,8-11H2
> <PUBCHEM_IUPAC_INCHIKEY>
BWKNRAAXVUYXAH-UHFFFAOYSA-N
> <PUBCHEM_XLOGP3_AA>
2.7
> <PUBCHEM_EXACT_MASS>
232.193948774
> <PUBCHEM_MOLECULAR_FORMULA>
C15H24N2
> <PUBCHEM_MOLECULAR_WEIGHT>
232.36
> <PUBCHEM_OPENEYE_CAN_SMILES>
C1CCN2CC3CC(C2C1)CN4C3CCC=C4
> <PUBCHEM_OPENEYE_ISO_SMILES>
C1CCN2CC3CC(C2C1)CN4C3CCC=C4
> <PUBCHEM_CACTVS_TPSA>
6.5
> <PUBCHEM_MONOISOTOPIC_WEIGHT>
232.193948774
> <PUBCHEM_TOTAL_CHARGE>
0
> <PUBCHEM_HEAVY_ATOM_COUNT>
17
> <PUBCHEM_ATOM_DEF_STEREO_COUNT>
0
> <PUBCHEM_ATOM_UDEF_STEREO_COUNT>
4
> <PUBCHEM_BOND_DEF_STEREO_COUNT>
0
> <PUBCHEM_BOND_UDEF_STEREO_COUNT>
0
> <PUBCHEM_ISOTOPIC_ATOM_COUNT>
0
> <PUBCHEM_COMPONENT_COUNT>
1
> <PUBCHEM_CACTVS_TAUTO_COUNT>
-1
> <PUBCHEM_COORDINATE_TYPE>
1
5
255
> <PUBCHEM_BONDANNOTATIONS>
3  6  3
4  6  3
5  10  3
7  12  3
$$$$
