523523
  -OEChem-10302200292D
 19 19  0     1  0  0  0  0  0999 V2000
    3.0878    0.6739    0.0000 C   0  0  3  0  0  0  0  0  0  0  0  0
    3.8968    0.0861    0.0000 C   0  0  0  0  0  0  0  0  0  0  0  0
    2.2788    0.0861    0.0000 C   0  0  0  0  0  0  0  0  0  0  0  0
    3.5878   -0.8649    0.0000 C   0  0  0  0  0  0  0  0  0  0  0  0
    2.5878   -0.8649    0.0000 C   0  0  0  0  0  0  0  0  0  0  0  0
    3.0878    1.6739    0.0000 C   0  0  0  0  0  0  0  0  0  0  0  0
    2.0000   -1.6739    0.0000 C   0  0  0  0  0  0  0  0  0  0  0  0
    3.6402    0.9554    0.0000 H   0  0  0  0  0  0  0  0  0  0  0  0
    4.4632   -0.1660    0.0000 H   0  0  0  0  0  0  0  0  0  0  0  0
    4.2068    0.6231    0.0000 H   0  0  0  0  0  0  0  0  0  0  0  0
    1.9688    0.6231    0.0000 H   0  0  0  0  0  0  0  0  0  0  0  0
    1.7124   -0.1660    0.0000 H   0  0  0  0  0  0  0  0  0  0  0  0
    3.5230   -1.4815    0.0000 H   0  0  0  0  0  0  0  0  0  0  0  0
    4.1942   -0.9938    0.0000 H   0  0  0  0  0  0  0  0  0  0  0  0
    3.7078    1.6739    0.0000 H   0  0  0  0  0  0  0  0  0  0  0  0
    3.0878    2.2939    0.0000 H   0  0  0  0  0  0  0  0  0  0  0  0
    2.4678    1.6739    0.0000 H   0  0  0  0  0  0  0  0  0  0  0  0
    1.3834   -1.6091    0.0000 H   0  0  0  0  0  0  0  0  0  0  0  0
    2.2522   -2.2403    0.0000 H   0  0  0  0  0  0  0  0  0  0  0  0
  1  2  1  0  0  0  0
  1  3  1  0  0  0  0
  1  6  1  0  0  0  0
  1  8  1  0  0  0  0
  2  4  1  0  0  0  0
  2  9  1  0  0  0  0
  2 10  1  0  0  0  0
  3  5  1  0  0  0  0
  3 11  1  0  0  0  0
  3 12  1  0  0  0  0
  4  5  1  0  0  0  0
  4 13  1  0  0  0  0
  4 14  1  0  0  0  0
  5  7  2  0  0  0  0
  6 15  1  0  0  0  0
  6 16  1  0  0  0  0
  6 17  1  0  0  0  0
  7 18  1  0  0  0  0
  7 19  1  0  0  0  0
M  END
> <PUBCHEM_COMPOUND_CID>
523523
> <PUBCHEM_COMPOUND_CANONICALIZED>
1
> <PUBCHEM_CACTVS_COMPLEXITY>
82
> <PUBCHEM_CACTVS_HBOND_ACCEPTOR>
0
> <PUBCHEM_CACTVS_HBOND_DONOR>
0
> <PUBCHEM_CACTVS_ROTATABLE_BOND>
0
> <PUBCHEM_CACTVS_SUBSKEYS>
AAADccBgAAAAAAAAAAAAAAAAAAAAAYAAAAAAAAAAAAAAAAAAAAAAGAAAAAAADQCAAAACAAAAAACAAgBCAAAAAAAgAAAAAAAAAAgAAAIAAQAAAAAAgAAAAAEAAAAOAAAAAAAAAAAAAAAAAAAAAAAAAAAAAA==
> <PUBCHEM_IUPAC_OPENEYE_NAME>
1-methyl-3-methylene-cyclopentane
> <PUBCHEM_IUPAC_CAS_NAME>
1-methyl-3-methylenecyclopentane
> <PUBCHEM_IUPAC_NAME_MARKUP>
1-methyl-3-methylidenecyclopentane
> <PUBCHEM_IUPAC_NAME>
1-methyl-3-methylidenecyclopentane
> <PUBCHEM_IUPAC_SYSTEMATIC_NAME>
1-methyl-3-methylidene-cyclopentane
> <PUBCHEM_IUPAC_TRADITIONAL_NAME>
1-methyl-3-methylene-cyclopentane
> <PUBCHEM_IUPAC_INCHI>
InChI=1S/C7H12/c1-6-3-4-7(2)5-6/h7H,1,3-5H2,2H3
> <PUBCHEM_IUPAC_INCHIKEY>
BMLMXLRJGCBOOF-UHFFFAOYSA-N
> <PUBCHEM_XLOGP3_AA>
2.3
> <PUBCHEM_EXACT_MASS>
96.093900383
> <PUBCHEM_MOLECULAR_FORMULA>
C7H12
> <PUBCHEM_MOLECULAR_WEIGHT>
96.17
> <PUBCHEM_OPENEYE_CAN_SMILES>
CC1CCC(=C)C1
> <PUBCHEM_OPENEYE_ISO_SMILES>
CC1CCC(=C)C1
> <PUBCHEM_CACTVS_TPSA>
0
> <PUBCHEM_MONOISOTOPIC_WEIGHT>
96.093900383
> <PUBCHEM_TOTAL_CHARGE>
0
> <PUBCHEM_HEAVY_ATOM_COUNT>
7
> <PUBCHEM_ATOM_DEF_STEREO_COUNT>
0
> <PUBCHEM_ATOM_UDEF_STEREO_COUNT>
1
> <PUBCHEM_BOND_DEF_STEREO_COUNT>
0
> <PUBCHEM_BOND_UDEF_STEREO_COUNT>
0
> <PUBCHEM_ISOTOPIC_ATOM_COUNT>
0
> <PUBCHEM_COMPONENT_COUNT>
1
> <PUBCHEM_CACTVS_TAUTO_COUNT>
-1
> <PUBCHEM_COORDINATE_TYPE>
1
5
255
> <PUBCHEM_BONDANNOTATIONS>
1  6  3
$$$$
