523588
  -OEChem-10302200292D
 30 32  0     1  0  0  0  0  0999 V2000
    8.1962    0.3661    0.0000 O   0  0  0  0  0  0  0  0  0  0  0  0
    6.4144    1.3765    0.0000 O   0  0  0  0  0  0  0  0  0  0  0  0
    7.3321   -0.1372    0.0000 C   0  0  3  0  0  0  0  0  0  0  0  0
    6.4260    0.3766    0.0000 C   0  0  3  0  0  0  0  0  0  0  0  0
    7.3321   -1.1789    0.0000 C   0  0  0  0  0  0  0  0  0  0  0  0
    6.4260   -1.6927    0.0000 C   0  0  0  0  0  0  0  0  0  0  0  0
    5.5321   -0.1581    0.0000 C   0  0  0  0  0  0  0  0  0  0  0  0
    5.5321   -1.1581    0.0000 C   0  0  0  0  0  0  0  0  0  0  0  0
    4.6660    0.3419    0.0000 C   0  0  0  0  0  0  0  0  0  0  0  0
    4.6660   -1.6581    0.0000 C   0  0  0  0  0  0  0  0  0  0  0  0
    3.8000   -0.1581    0.0000 C   0  0  0  0  0  0  0  0  0  0  0  0
    3.8000   -1.1581    0.0000 C   0  0  0  0  0  0  0  0  0  0  0  0
    2.9061    0.3766    0.0000 C   0  0  0  0  0  0  0  0  0  0  0  0
    2.9061   -1.6927    0.0000 C   0  0  0  0  0  0  0  0  0  0  0  0
    2.0000   -0.1372    0.0000 C   0  0  0  0  0  0  0  0  0  0  0  0
    2.0000   -1.1789    0.0000 C   0  0  0  0  0  0  0  0  0  0  0  0
    7.3285    0.4827    0.0000 H   0  0  0  0  0  0  0  0  0  0  0  0
    6.9599    0.6918    0.0000 H   0  0  0  0  0  0  0  0  0  0  0  0
    7.5411   -1.7626    0.0000 H   0  0  0  0  0  0  0  0  0  0  0  0
    7.9429   -1.0728    0.0000 H   0  0  0  0  0  0  0  0  0  0  0  0
    6.0214   -2.1625    0.0000 H   0  0  0  0  0  0  0  0  0  0  0  0
    6.8196   -2.1717    0.0000 H   0  0  0  0  0  0  0  0  0  0  0  0
    4.6660    0.9619    0.0000 H   0  0  0  0  0  0  0  0  0  0  0  0
    4.6660   -2.2781    0.0000 H   0  0  0  0  0  0  0  0  0  0  0  0
    8.7343    0.0582    0.0000 H   0  0  0  0  0  0  0  0  0  0  0  0
    6.9478    1.6927    0.0000 H   0  0  0  0  0  0  0  0  0  0  0  0
    2.9132    0.9966    0.0000 H   0  0  0  0  0  0  0  0  0  0  0  0
    2.9132   -2.3127    0.0000 H   0  0  0  0  0  0  0  0  0  0  0  0
    1.4643    0.1748    0.0000 H   0  0  0  0  0  0  0  0  0  0  0  0
    1.4643   -1.4909    0.0000 H   0  0  0  0  0  0  0  0  0  0  0  0
  1  3  1  0  0  0  0
  1 25  1  0  0  0  0
  2  4  1  0  0  0  0
  2 26  1  0  0  0  0
  3  4  1  0  0  0  0
  3  5  1  0  0  0  0
  3 17  1  0  0  0  0
  4  7  1  0  0  0  0
  4 18  1  0  0  0  0
  5  6  1  0  0  0  0
  5 19  1  0  0  0  0
  5 20  1  0  0  0  0
  6  8  1  0  0  0  0
  6 21  1  0  0  0  0
  6 22  1  0  0  0  0
  7  8  1  0  0  0  0
  7  9  2  0  0  0  0
  8 10  2  0  0  0  0
  9 11  1  0  0  0  0
  9 23  1  0  0  0  0
 10 12  1  0  0  0  0
 10 24  1  0  0  0  0
 11 12  1  0  0  0  0
 11 13  2  0  0  0  0
 12 14  2  0  0  0  0
 13 15  1  0  0  0  0
 13 27  1  0  0  0  0
 14 16  1  0  0  0  0
 14 28  1  0  0  0  0
 15 16  2  0  0  0  0
 15 29  1  0  0  0  0
 16 30  1  0  0  0  0
M  END
> <PUBCHEM_COMPOUND_CID>
523588
> <PUBCHEM_COMPOUND_CANONICALIZED>
1
> <PUBCHEM_CACTVS_COMPLEXITY>
253
> <PUBCHEM_CACTVS_HBOND_ACCEPTOR>
2
> <PUBCHEM_CACTVS_HBOND_DONOR>
2
> <PUBCHEM_CACTVS_ROTATABLE_BOND>
0
> <PUBCHEM_CACTVS_SUBSKEYS>
AAADccBwMAAAAAAAAAAAAAAAAAAAAAAAAAAwYMAAAAAAAADBUAAAGgAACAAADBSgmAIwAMAAAgCAAiBCAAACAAAgAAAIiAAACIgJNiKAERCAcAAkwAEJmAeAwPAOwAACAAAQAADAAAYAADCAAAAAAAAAAA==
> <PUBCHEM_IUPAC_OPENEYE_NAME>
1,2,3,4-tetrahydroanthracene-1,2-diol
> <PUBCHEM_IUPAC_CAS_NAME>
1,2,3,4-tetrahydroanthracene-1,2-diol
> <PUBCHEM_IUPAC_NAME_MARKUP>
1,2,3,4-tetrahydroanthracene-1,2-diol
> <PUBCHEM_IUPAC_NAME>
1,2,3,4-tetrahydroanthracene-1,2-diol
> <PUBCHEM_IUPAC_SYSTEMATIC_NAME>
1,2,3,4-tetrahydroanthracene-1,2-diol
> <PUBCHEM_IUPAC_TRADITIONAL_NAME>
1,2,3,4-tetrahydroanthracene-1,2-diol
> <PUBCHEM_IUPAC_INCHI>
InChI=1S/C14H14O2/c15-13-6-5-11-7-9-3-1-2-4-10(9)8-12(11)14(13)16/h1-4,7-8,13-16H,5-6H2
> <PUBCHEM_IUPAC_INCHIKEY>
OCFQOCVMVLZKPR-UHFFFAOYSA-N
> <PUBCHEM_XLOGP3_AA>
2.1
> <PUBCHEM_EXACT_MASS>
214.099379685
> <PUBCHEM_MOLECULAR_FORMULA>
C14H14O2
> <PUBCHEM_MOLECULAR_WEIGHT>
214.26
> <PUBCHEM_OPENEYE_CAN_SMILES>
C1CC2=CC3=CC=CC=C3C=C2C(C1O)O
> <PUBCHEM_OPENEYE_ISO_SMILES>
C1CC2=CC3=CC=CC=C3C=C2C(C1O)O
> <PUBCHEM_CACTVS_TPSA>
40.5
> <PUBCHEM_MONOISOTOPIC_WEIGHT>
214.099379685
> <PUBCHEM_TOTAL_CHARGE>
0
> <PUBCHEM_HEAVY_ATOM_COUNT>
16
> <PUBCHEM_ATOM_DEF_STEREO_COUNT>
0
> <PUBCHEM_ATOM_UDEF_STEREO_COUNT>
2
> <PUBCHEM_BOND_DEF_STEREO_COUNT>
0
> <PUBCHEM_BOND_UDEF_STEREO_COUNT>
0
> <PUBCHEM_ISOTOPIC_ATOM_COUNT>
0
> <PUBCHEM_COMPONENT_COUNT>
1
> <PUBCHEM_CACTVS_TAUTO_COUNT>
-1
> <PUBCHEM_COORDINATE_TYPE>
1
5
255
> <PUBCHEM_BONDANNOTATIONS>
3  1  3
10  12  8
11  12  8
11  13  8
12  14  8
13  15  8
14  16  8
15  16  8
4  2  3
7  8  8
7  9  8
8  10  8
9  11  8
$$$$
