523583
  -OEChem-10302200292D
 41 43  0     1  0  0  0  0  0999 V2000
    9.0641    0.3471    0.0000 Si  0  0  0  0  0  0  0  0  0  0  0  0
    8.1962    0.8438    0.0000 O   0  0  0  0  0  0  0  0  0  0  0  0
    7.3321    0.3404    0.0000 C   0  0  3  0  0  0  0  0  0  0  0  0
    7.3321   -0.7012    0.0000 C   0  0  0  0  0  0  0  0  0  0  0  0
    6.4260    0.8543    0.0000 C   0  0  0  0  0  0  0  0  0  0  0  0
    6.4260   -1.2150    0.0000 C   0  0  0  0  0  0  0  0  0  0  0  0
    5.5321    0.3196    0.0000 C   0  0  0  0  0  0  0  0  0  0  0  0
    5.5321   -0.6804    0.0000 C   0  0  0  0  0  0  0  0  0  0  0  0
    4.6660    0.8196    0.0000 C   0  0  0  0  0  0  0  0  0  0  0  0
    4.6660   -1.1804    0.0000 C   0  0  0  0  0  0  0  0  0  0  0  0
    3.8000    0.3196    0.0000 C   0  0  0  0  0  0  0  0  0  0  0  0
    3.8000   -0.6804    0.0000 C   0  0  0  0  0  0  0  0  0  0  0  0
    9.9320   -0.1496    0.0000 C   0  0  0  0  0  0  0  0  0  0  0  0
    9.5608    1.2150    0.0000 C   0  0  0  0  0  0  0  0  0  0  0  0
    8.5674   -0.5208    0.0000 C   0  0  0  0  0  0  0  0  0  0  0  0
    2.9061    0.8543    0.0000 C   0  0  0  0  0  0  0  0  0  0  0  0
    2.9061   -1.2150    0.0000 C   0  0  0  0  0  0  0  0  0  0  0  0
    2.0000    0.3404    0.0000 C   0  0  0  0  0  0  0  0  0  0  0  0
    2.0000   -0.7012    0.0000 C   0  0  0  0  0  0  0  0  0  0  0  0
    7.3285    0.9604    0.0000 H   0  0  0  0  0  0  0  0  0  0  0  0
    7.5411   -1.2849    0.0000 H   0  0  0  0  0  0  0  0  0  0  0  0
    7.9429   -0.5951    0.0000 H   0  0  0  0  0  0  0  0  0  0  0  0
    6.8196    1.3333    0.0000 H   0  0  0  0  0  0  0  0  0  0  0  0
    6.0214    1.3241    0.0000 H   0  0  0  0  0  0  0  0  0  0  0  0
    6.0214   -1.6848    0.0000 H   0  0  0  0  0  0  0  0  0  0  0  0
    6.8196   -1.6941    0.0000 H   0  0  0  0  0  0  0  0  0  0  0  0
    4.6660    1.4396    0.0000 H   0  0  0  0  0  0  0  0  0  0  0  0
    4.6660   -1.8004    0.0000 H   0  0  0  0  0  0  0  0  0  0  0  0
    9.6241   -0.6877    0.0000 H   0  0  0  0  0  0  0  0  0  0  0  0
   10.4702   -0.4575    0.0000 H   0  0  0  0  0  0  0  0  0  0  0  0
   10.2400    0.3886    0.0000 H   0  0  0  0  0  0  0  0  0  0  0  0
   10.0989    0.9071    0.0000 H   0  0  0  0  0  0  0  0  0  0  0  0
    9.8687    1.7532    0.0000 H   0  0  0  0  0  0  0  0  0  0  0  0
    9.0226    1.5230    0.0000 H   0  0  0  0  0  0  0  0  0  0  0  0
    8.0293   -0.2129    0.0000 H   0  0  0  0  0  0  0  0  0  0  0  0
    8.2595   -1.0590    0.0000 H   0  0  0  0  0  0  0  0  0  0  0  0
    9.1056   -0.8288    0.0000 H   0  0  0  0  0  0  0  0  0  0  0  0
    2.9132    1.4742    0.0000 H   0  0  0  0  0  0  0  0  0  0  0  0
    2.9132   -1.8350    0.0000 H   0  0  0  0  0  0  0  0  0  0  0  0
    1.4643    0.6525    0.0000 H   0  0  0  0  0  0  0  0  0  0  0  0
    1.4643   -1.0133    0.0000 H   0  0  0  0  0  0  0  0  0  0  0  0
  1  2  1  0  0  0  0
  1 13  1  0  0  0  0
  1 14  1  0  0  0  0
  1 15  1  0  0  0  0
  2  3  1  0  0  0  0
  3  4  1  0  0  0  0
  3  5  1  0  0  0  0
  3 20  1  0  0  0  0
  4  6  1  0  0  0  0
  4 21  1  0  0  0  0
  4 22  1  0  0  0  0
  5  7  1  0  0  0  0
  5 23  1  0  0  0  0
  5 24  1  0  0  0  0
  6  8  1  0  0  0  0
  6 25  1  0  0  0  0
  6 26  1  0  0  0  0
  7  8  1  0  0  0  0
  7  9  2  0  0  0  0
  8 10  2  0  0  0  0
  9 11  1  0  0  0  0
  9 27  1  0  0  0  0
 10 12  1  0  0  0  0
 10 28  1  0  0  0  0
 11 12  1  0  0  0  0
 11 16  2  0  0  0  0
 12 17  2  0  0  0  0
 13 29  1  0  0  0  0
 13 30  1  0  0  0  0
 13 31  1  0  0  0  0
 14 32  1  0  0  0  0
 14 33  1  0  0  0  0
 14 34  1  0  0  0  0
 15 35  1  0  0  0  0
 15 36  1  0  0  0  0
 15 37  1  0  0  0  0
 16 18  1  0  0  0  0
 16 38  1  0  0  0  0
 17 19  1  0  0  0  0
 17 39  1  0  0  0  0
 18 19  2  0  0  0  0
 18 40  1  0  0  0  0
 19 41  1  0  0  0  0
M  END
> <PUBCHEM_COMPOUND_CID>
523583
> <PUBCHEM_COMPOUND_CANONICALIZED>
1
> <PUBCHEM_CACTVS_COMPLEXITY>
309
> <PUBCHEM_CACTVS_HBOND_ACCEPTOR>
1
> <PUBCHEM_CACTVS_HBOND_DONOR>
0
> <PUBCHEM_CACTVS_ROTATABLE_BOND>
2
> <PUBCHEM_CACTVS_SUBSKEYS>
AAADceB4IAgAAAAAAAAAAAAAAAAAAAAAAAAwYMAAAAAAAADBUAAAGhAAAEAADBSgmAJyAMAAAAGAAiBCAAACAAAgAAAIiAAAAIgIICKAERCAIAAkwAEIiAeAwPAOwAACAAAQAADAAAYAACAAAAAAAAAAAA==
> <PUBCHEM_IUPAC_OPENEYE_NAME>
trimethyl(1,2,3,4-tetrahydroanthracen-2-yloxy)silane
> <PUBCHEM_IUPAC_CAS_NAME>
trimethyl(1,2,3,4-tetrahydroanthracen-2-yloxy)silane
> <PUBCHEM_IUPAC_NAME_MARKUP>
trimethyl(1,2,3,4-tetrahydroanthracen-2-yloxy)silane
> <PUBCHEM_IUPAC_NAME>
trimethyl(1,2,3,4-tetrahydroanthracen-2-yloxy)silane
> <PUBCHEM_IUPAC_SYSTEMATIC_NAME>
trimethyl(1,2,3,4-tetrahydroanthracen-2-yloxy)silane
> <PUBCHEM_IUPAC_TRADITIONAL_NAME>
trimethyl(1,2,3,4-tetrahydroanthracen-2-yloxy)silane
> <PUBCHEM_IUPAC_INCHI>
InChI=1S/C17H22OSi/c1-19(2,3)18-17-9-8-15-10-13-6-4-5-7-14(13)11-16(15)12-17/h4-7,10-11,17H,8-9,12H2,1-3H3
> <PUBCHEM_IUPAC_INCHIKEY>
HSHOSVHLNFQDPR-UHFFFAOYSA-N
> <PUBCHEM_EXACT_MASS>
270.143991855
> <PUBCHEM_MOLECULAR_FORMULA>
C17H22OSi
> <PUBCHEM_MOLECULAR_WEIGHT>
270.44
> <PUBCHEM_OPENEYE_CAN_SMILES>
C[Si](C)(C)OC1CCC2=CC3=CC=CC=C3C=C2C1
> <PUBCHEM_OPENEYE_ISO_SMILES>
C[Si](C)(C)OC1CCC2=CC3=CC=CC=C3C=C2C1
> <PUBCHEM_CACTVS_TPSA>
9.2
> <PUBCHEM_MONOISOTOPIC_WEIGHT>
270.143991855
> <PUBCHEM_TOTAL_CHARGE>
0
> <PUBCHEM_HEAVY_ATOM_COUNT>
19
> <PUBCHEM_ATOM_DEF_STEREO_COUNT>
0
> <PUBCHEM_ATOM_UDEF_STEREO_COUNT>
1
> <PUBCHEM_BOND_DEF_STEREO_COUNT>
0
> <PUBCHEM_BOND_UDEF_STEREO_COUNT>
0
> <PUBCHEM_ISOTOPIC_ATOM_COUNT>
0
> <PUBCHEM_COMPONENT_COUNT>
1
> <PUBCHEM_CACTVS_TAUTO_COUNT>
-1
> <PUBCHEM_COORDINATE_TYPE>
1
5
255
> <PUBCHEM_BONDANNOTATIONS>
10  12  8
11  12  8
11  16  8
12  17  8
16  18  8
17  19  8
18  19  8
3  2  3
7  8  8
7  9  8
8  10  8
9  11  8
$$$$
