523600
  -OEChem-10302200292D
 31 33  0     1  0  0  0  0  0999 V2000
    5.1660   -1.9492    0.0000 O   0  0  0  0  0  0  0  0  0  0  0  0
    6.3981   -1.0832    0.0000 O   0  0  0  0  0  0  0  0  0  0  0  0
    4.6660   -1.0832    0.0000 C   0  0  3  0  0  0  0  0  0  0  0  0
    5.5321   -0.5831    0.0000 C   0  0  3  0  0  0  0  0  0  0  0  0
    3.8000   -0.5831    0.0000 C   0  0  0  0  0  0  0  0  0  0  0  0
    5.5321    0.4168    0.0000 C   0  0  0  0  0  0  0  0  0  0  0  0
    3.8000    0.4168    0.0000 C   0  0  0  0  0  0  0  0  0  0  0  0
    4.6660    0.9168    0.0000 C   0  0  0  0  0  0  0  0  0  0  0  0
    4.1660   -1.9492    0.0000 C   0  0  0  0  0  0  0  0  0  0  0  0
    2.9061   -1.1178    0.0000 C   0  0  0  0  0  0  0  0  0  0  0  0
    6.4421    0.9237    0.0000 C   0  0  0  0  0  0  0  0  0  0  0  0
    2.9061    0.9515    0.0000 C   0  0  0  0  0  0  0  0  0  0  0  0
    4.6500    1.9584    0.0000 C   0  0  0  0  0  0  0  0  0  0  0  0
    2.0000   -0.6040    0.0000 C   0  0  0  0  0  0  0  0  0  0  0  0
    2.0000    0.4377    0.0000 C   0  0  0  0  0  0  0  0  0  0  0  0
    6.4501    1.9653    0.0000 C   0  0  0  0  0  0  0  0  0  0  0  0
    5.5480    2.4861    0.0000 C   0  0  0  0  0  0  0  0  0  0  0  0
    5.5321   -1.2032    0.0000 H   0  0  0  0  0  0  0  0  0  0  0  0
    3.6291   -1.6392    0.0000 H   0  0  0  0  0  0  0  0  0  0  0  0
    3.8560   -2.4861    0.0000 H   0  0  0  0  0  0  0  0  0  0  0  0
    4.7030   -2.2592    0.0000 H   0  0  0  0  0  0  0  0  0  0  0  0
    2.9132   -1.7378    0.0000 H   0  0  0  0  0  0  0  0  0  0  0  0
    6.9754    0.6075    0.0000 H   0  0  0  0  0  0  0  0  0  0  0  0
    2.9132    1.5715    0.0000 H   0  0  0  0  0  0  0  0  0  0  0  0
    4.1095    2.2621    0.0000 H   0  0  0  0  0  0  0  0  0  0  0  0
    4.8560   -2.4861    0.0000 H   0  0  0  0  0  0  0  0  0  0  0  0
    6.9350   -0.7732    0.0000 H   0  0  0  0  0  0  0  0  0  0  0  0
    1.4643   -0.9160    0.0000 H   0  0  0  0  0  0  0  0  0  0  0  0
    1.4643    0.7497    0.0000 H   0  0  0  0  0  0  0  0  0  0  0  0
    6.9882    2.2732    0.0000 H   0  0  0  0  0  0  0  0  0  0  0  0
    5.5456    3.1061    0.0000 H   0  0  0  0  0  0  0  0  0  0  0  0
  1  3  1  0  0  0  0
  1 26  1  0  0  0  0
  2  4  1  0  0  0  0
  2 27  1  0  0  0  0
  3  4  1  0  0  0  0
  3  5  1  0  0  0  0
  3  9  1  0  0  0  0
  4  6  1  0  0  0  0
  4 18  1  0  0  0  0
  5  7  1  0  0  0  0
  5 10  2  0  0  0  0
  6  8  1  0  0  0  0
  6 11  2  0  0  0  0
  7  8  1  0  0  0  0
  7 12  2  0  0  0  0
  8 13  2  0  0  0  0
  9 19  1  0  0  0  0
  9 20  1  0  0  0  0
  9 21  1  0  0  0  0
 10 14  1  0  0  0  0
 10 22  1  0  0  0  0
 11 16  1  0  0  0  0
 11 23  1  0  0  0  0
 12 15  1  0  0  0  0
 12 24  1  0  0  0  0
 13 17  1  0  0  0  0
 13 25  1  0  0  0  0
 14 15  2  0  0  0  0
 14 28  1  0  0  0  0
 15 29  1  0  0  0  0
 16 17  2  0  0  0  0
 16 30  1  0  0  0  0
 17 31  1  0  0  0  0
M  END
> <PUBCHEM_COMPOUND_CID>
523600
> <PUBCHEM_COMPOUND_CANONICALIZED>
1
> <PUBCHEM_CACTVS_COMPLEXITY>
291
> <PUBCHEM_CACTVS_HBOND_ACCEPTOR>
2
> <PUBCHEM_CACTVS_HBOND_DONOR>
2
> <PUBCHEM_CACTVS_ROTATABLE_BOND>
0
> <PUBCHEM_CACTVS_SUBSKEYS>
AAADccBwMAAAAAAAAAAAAAAAAAAAAAAAAAAwYMAAAAAAAADBQAAAGgAACAAADFSgmAIyAIAAAgCAAiBCAAACAAAgAAAIiAAACIgJNiKAERCAcAAkwAEJmAeAwPAOgAAAAAAQAADAAAYAADCAAAAAAAAAAA==
> <PUBCHEM_IUPAC_OPENEYE_NAME>
10-methyl-9H-phenanthrene-9,10-diol
> <PUBCHEM_IUPAC_CAS_NAME>
10-methyl-9H-phenanthrene-9,10-diol
> <PUBCHEM_IUPAC_NAME_MARKUP>
10-methyl-9<I>H</I>-phenanthrene-9,10-diol
> <PUBCHEM_IUPAC_NAME>
10-methyl-9H-phenanthrene-9,10-diol
> <PUBCHEM_IUPAC_SYSTEMATIC_NAME>
10-methyl-9H-phenanthrene-9,10-diol
> <PUBCHEM_IUPAC_TRADITIONAL_NAME>
10-methyl-9H-phenanthrene-9,10-diol
> <PUBCHEM_IUPAC_INCHI>
InChI=1S/C15H14O2/c1-15(17)13-9-5-4-7-11(13)10-6-2-3-8-12(10)14(15)16/h2-9,14,16-17H,1H3
> <PUBCHEM_IUPAC_INCHIKEY>
ADDCOOKVSJVBSM-UHFFFAOYSA-N
> <PUBCHEM_XLOGP3_AA>
1.8
> <PUBCHEM_EXACT_MASS>
226.099379685
> <PUBCHEM_MOLECULAR_FORMULA>
C15H14O2
> <PUBCHEM_MOLECULAR_WEIGHT>
226.27
> <PUBCHEM_OPENEYE_CAN_SMILES>
CC1(C(C2=CC=CC=C2C3=CC=CC=C31)O)O
> <PUBCHEM_OPENEYE_ISO_SMILES>
CC1(C(C2=CC=CC=C2C3=CC=CC=C31)O)O
> <PUBCHEM_CACTVS_TPSA>
40.5
> <PUBCHEM_MONOISOTOPIC_WEIGHT>
226.099379685
> <PUBCHEM_TOTAL_CHARGE>
0
> <PUBCHEM_HEAVY_ATOM_COUNT>
17
> <PUBCHEM_ATOM_DEF_STEREO_COUNT>
0
> <PUBCHEM_ATOM_UDEF_STEREO_COUNT>
2
> <PUBCHEM_BOND_DEF_STEREO_COUNT>
0
> <PUBCHEM_BOND_UDEF_STEREO_COUNT>
0
> <PUBCHEM_ISOTOPIC_ATOM_COUNT>
0
> <PUBCHEM_COMPONENT_COUNT>
1
> <PUBCHEM_CACTVS_TAUTO_COUNT>
-1
> <PUBCHEM_COORDINATE_TYPE>
1
5
255
> <PUBCHEM_BONDANNOTATIONS>
3  1  3
10  14  8
11  16  8
12  15  8
13  17  8
14  15  8
16  17  8
4  2  3
5  10  8
5  7  8
6  11  8
6  8  8
7  12  8
8  13  8
$$$$
