523634
  -OEChem-10302200292D
 88 91  0     1  0  0  0  0  0999 V2000
    3.7320   -2.9568    0.0000 O   0  0  0  0  0  0  0  0  0  0  0  0
    2.8718   -1.4534    0.0000 O   0  0  0  0  0  0  0  0  0  0  0  0
    9.1251    0.0956    0.0000 C   0  0  3  0  0  0  0  0  0  0  0  0
    9.1251   -0.9044    0.0000 C   0  0  3  0  0  0  0  0  0  0  0  0
   10.0713    0.4003    0.0000 C   0  0  3  0  0  0  0  0  0  0  0  0
    6.4831   -1.4113    0.0000 C   0  0  3  0  0  0  0  0  0  0  0  0
    8.2591   -1.4044    0.0000 C   0  0  0  0  0  0  0  0  0  0  0  0
    6.4750   -2.4529    0.0000 C   0  0  3  0  0  0  0  0  0  0  0  0
    7.3931   -0.9044    0.0000 C   0  0  0  0  0  0  0  0  0  0  0  0
   10.0713   -1.2092    0.0000 C   0  0  0  0  0  0  0  0  0  0  0  0
    8.2591    0.5956    0.0000 C   0  0  0  0  0  0  0  0  0  0  0  0
   10.6550   -0.4044    0.0000 C   0  0  0  0  0  0  0  0  0  0  0  0
    7.3931    0.0956    0.0000 C   0  0  0  0  0  0  0  0  0  0  0  0
    5.5396   -3.0026    0.0000 C   0  0  0  0  0  0  0  0  0  0  0  0
    8.2752   -2.4459    0.0000 C   0  0  0  0  0  0  0  0  0  0  0  0
    7.3771   -2.9737    0.0000 C   0  0  0  0  0  0  0  0  0  0  0  0
   10.3820    1.3508    0.0000 C   0  0  3  0  0  0  0  0  0  0  0  0
    5.5562   -0.8472    0.0000 C   0  0  0  0  0  0  0  0  0  0  0  0
    9.1251    1.0956    0.0000 C   0  0  0  0  0  0  0  0  0  0  0  0
    9.1251   -1.9044    0.0000 C   0  0  0  0  0  0  0  0  0  0  0  0
    4.6000   -2.4601    0.0000 C   0  0  3  0  0  0  0  0  0  0  0  0
    4.6084   -1.3751    0.0000 C   0  0  0  0  0  0  0  0  0  0  0  0
    6.4908   -0.4113    0.0000 C   0  0  0  0  0  0  0  0  0  0  0  0
   11.3605    1.5570    0.0000 C   0  0  0  0  0  0  0  0  0  0  0  0
    5.0430   -3.8705    0.0000 C   0  0  0  0  0  0  0  0  0  0  0  0
    6.0430   -3.8667    0.0000 C   0  0  0  0  0  0  0  0  0  0  0  0
    9.7142    2.0951    0.0000 C   0  0  0  0  0  0  0  0  0  0  0  0
   11.6712    2.5076    0.0000 C   0  0  0  0  0  0  0  0  0  0  0  0
   12.6497    2.7138    0.0000 C   0  0  3  0  0  0  0  0  0  0  0  0
    2.8680   -2.4534    0.0000 C   0  0  0  0  0  0  0  0  0  0  0  0
   12.9603    3.6643    0.0000 C   0  0  0  0  0  0  0  0  0  0  0  0
   13.3175    1.9695    0.0000 C   0  0  0  0  0  0  0  0  0  0  0  0
    2.0000   -2.9501    0.0000 C   0  0  0  0  0  0  0  0  0  0  0  0
   13.9388    3.8705    0.0000 C   0  0  0  0  0  0  0  0  0  0  0  0
   10.6838    0.4965    0.0000 H   0  0  0  0  0  0  0  0  0  0  0  0
    6.4774   -3.0729    0.0000 H   0  0  0  0  0  0  0  0  0  0  0  0
    9.8203   -1.7760    0.0000 H   0  0  0  0  0  0  0  0  0  0  0  0
   10.6087   -1.5184    0.0000 H   0  0  0  0  0  0  0  0  0  0  0  0
    8.6576    1.0705    0.0000 H   0  0  0  0  0  0  0  0  0  0  0  0
    7.8606    1.0705    0.0000 H   0  0  0  0  0  0  0  0  0  0  0  0
   11.1158   -0.8191    0.0000 H   0  0  0  0  0  0  0  0  0  0  0  0
   11.1158    0.0103    0.0000 H   0  0  0  0  0  0  0  0  0  0  0  0
    7.1810    0.6782    0.0000 H   0  0  0  0  0  0  0  0  0  0  0  0
    6.7825   -0.0121    0.0000 H   0  0  0  0  0  0  0  0  0  0  0  0
    8.4932   -3.0263    0.0000 H   0  0  0  0  0  0  0  0  0  0  0  0
    8.8843   -2.3304    0.0000 H   0  0  0  0  0  0  0  0  0  0  0  0
    6.9798   -3.4496    0.0000 H   0  0  0  0  0  0  0  0  0  0  0  0
    7.7781   -3.4466    0.0000 H   0  0  0  0  0  0  0  0  0  0  0  0
   10.5746    1.9402    0.0000 H   0  0  0  0  0  0  0  0  0  0  0  0
    5.9644   -0.3805    0.0000 H   0  0  0  0  0  0  0  0  0  0  0  0
    5.1663   -0.3651    0.0000 H   0  0  0  0  0  0  0  0  0  0  0  0
    9.7451    1.0956    0.0000 H   0  0  0  0  0  0  0  0  0  0  0  0
    9.1251    1.7156    0.0000 H   0  0  0  0  0  0  0  0  0  0  0  0
    8.5051    1.0956    0.0000 H   0  0  0  0  0  0  0  0  0  0  0  0
    8.5051   -1.9044    0.0000 H   0  0  0  0  0  0  0  0  0  0  0  0
    9.1251   -2.5244    0.0000 H   0  0  0  0  0  0  0  0  0  0  0  0
    9.7451   -1.9044    0.0000 H   0  0  0  0  0  0  0  0  0  0  0  0
    4.0648   -2.1470    0.0000 H   0  0  0  0  0  0  0  0  0  0  0  0
    4.4038   -0.7898    0.0000 H   0  0  0  0  0  0  0  0  0  0  0  0
    3.9967   -1.4765    0.0000 H   0  0  0  0  0  0  0  0  0  0  0  0
    7.1108   -0.4161    0.0000 H   0  0  0  0  0  0  0  0  0  0  0  0
    6.4956    0.2087    0.0000 H   0  0  0  0  0  0  0  0  0  0  0  0
    5.8708   -0.4065    0.0000 H   0  0  0  0  0  0  0  0  0  0  0  0
   11.3811    0.9374    0.0000 H   0  0  0  0  0  0  0  0  0  0  0  0
   11.9743    1.4697    0.0000 H   0  0  0  0  0  0  0  0  0  0  0  0
    4.5048   -3.5626    0.0000 H   0  0  0  0  0  0  0  0  0  0  0  0
    4.7350   -4.4087    0.0000 H   0  0  0  0  0  0  0  0  0  0  0  0
    5.5811   -4.1785    0.0000 H   0  0  0  0  0  0  0  0  0  0  0  0
    5.5072   -4.1788    0.0000 H   0  0  0  0  0  0  0  0  0  0  0  0
    6.3550   -4.4024    0.0000 H   0  0  0  0  0  0  0  0  0  0  0  0
    6.5787   -3.5546    0.0000 H   0  0  0  0  0  0  0  0  0  0  0  0
   10.1756    2.5092    0.0000 H   0  0  0  0  0  0  0  0  0  0  0  0
    9.3001    2.5566    0.0000 H   0  0  0  0  0  0  0  0  0  0  0  0
    9.2527    1.6811    0.0000 H   0  0  0  0  0  0  0  0  0  0  0  0
   11.6506    3.1272    0.0000 H   0  0  0  0  0  0  0  0  0  0  0  0
   11.0574    2.5949    0.0000 H   0  0  0  0  0  0  0  0  0  0  0  0
   12.4571    2.1245    0.0000 H   0  0  0  0  0  0  0  0  0  0  0  0
   12.9398    4.2840    0.0000 H   0  0  0  0  0  0  0  0  0  0  0  0
   12.3465    3.7517    0.0000 H   0  0  0  0  0  0  0  0  0  0  0  0
   12.8561    1.5554    0.0000 H   0  0  0  0  0  0  0  0  0  0  0  0
   13.7316    1.5080    0.0000 H   0  0  0  0  0  0  0  0  0  0  0  0
   13.7790    2.3836    0.0000 H   0  0  0  0  0  0  0  0  0  0  0  0
    1.6921   -2.4119    0.0000 H   0  0  0  0  0  0  0  0  0  0  0  0
    1.4619   -3.2580    0.0000 H   0  0  0  0  0  0  0  0  0  0  0  0
    2.3079   -3.4882    0.0000 H   0  0  0  0  0  0  0  0  0  0  0  0
   14.0667    3.2639    0.0000 H   0  0  0  0  0  0  0  0  0  0  0  0
   14.5455    3.9984    0.0000 H   0  0  0  0  0  0  0  0  0  0  0  0
   13.8110    4.4772    0.0000 H   0  0  0  0  0  0  0  0  0  0  0  0
  1 21  1  0  0  0  0
  1 30  1  0  0  0  0
  2 30  2  0  0  0  0
  3  4  1  0  0  0  0
  3  5  1  0  0  0  0
  3 11  1  0  0  0  0
  3 19  1  0  0  0  0
  4  7  1  0  0  0  0
  4 10  1  0  0  0  0
  4 20  1  0  0  0  0
  5 12  1  0  0  0  0
  5 17  1  0  0  0  0
  5 35  1  0  0  0  0
  6  8  1  0  0  0  0
  6  9  1  0  0  0  0
  6 18  1  0  0  0  0
  6 23  1  0  0  0  0
  7  9  2  0  0  0  0
  7 15  1  0  0  0  0
  8 14  1  0  0  0  0
  8 16  1  0  0  0  0
  8 36  1  0  0  0  0
  9 13  1  0  0  0  0
 10 12  1  0  0  0  0
 10 37  1  0  0  0  0
 10 38  1  0  0  0  0
 11 13  1  0  0  0  0
 11 39  1  0  0  0  0
 11 40  1  0  0  0  0
 12 41  1  0  0  0  0
 12 42  1  0  0  0  0
 13 43  1  0  0  0  0
 13 44  1  0  0  0  0
 14 21  1  0  0  0  0
 14 25  1  0  0  0  0
 14 26  1  0  0  0  0
 15 16  1  0  0  0  0
 15 45  1  0  0  0  0
 15 46  1  0  0  0  0
 16 47  1  0  0  0  0
 16 48  1  0  0  0  0
 17 24  1  0  0  0  0
 17 27  1  0  0  0  0
 17 49  1  0  0  0  0
 18 22  1  0  0  0  0
 18 50  1  0  0  0  0
 18 51  1  0  0  0  0
 19 52  1  0  0  0  0
 19 53  1  0  0  0  0
 19 54  1  0  0  0  0
 20 55  1  0  0  0  0
 20 56  1  0  0  0  0
 20 57  1  0  0  0  0
 21 22  1  0  0  0  0
 21 58  1  0  0  0  0
 22 59  1  0  0  0  0
 22 60  1  0  0  0  0
 23 61  1  0  0  0  0
 23 62  1  0  0  0  0
 23 63  1  0  0  0  0
 24 28  1  0  0  0  0
 24 64  1  0  0  0  0
 24 65  1  0  0  0  0
 25 66  1  0  0  0  0
 25 67  1  0  0  0  0
 25 68  1  0  0  0  0
 26 69  1  0  0  0  0
 26 70  1  0  0  0  0
 26 71  1  0  0  0  0
 27 72  1  0  0  0  0
 27 73  1  0  0  0  0
 27 74  1  0  0  0  0
 28 29  1  0  0  0  0
 28 75  1  0  0  0  0
 28 76  1  0  0  0  0
 29 31  1  0  0  0  0
 29 32  1  0  0  0  0
 29 77  1  0  0  0  0
 30 33  1  0  0  0  0
 31 34  1  0  0  0  0
 31 78  1  0  0  0  0
 31 79  1  0  0  0  0
 32 80  1  0  0  0  0
 32 81  1  0  0  0  0
 32 82  1  0  0  0  0
 33 83  1  0  0  0  0
 33 84  1  0  0  0  0
 33 85  1  0  0  0  0
 34 86  1  0  0  0  0
 34 87  1  0  0  0  0
 34 88  1  0  0  0  0
M  END
> <PUBCHEM_COMPOUND_CID>
523634
> <PUBCHEM_COMPOUND_CANONICALIZED>
1
> <PUBCHEM_CACTVS_COMPLEXITY>
823
> <PUBCHEM_CACTVS_HBOND_ACCEPTOR>
2
> <PUBCHEM_CACTVS_HBOND_DONOR>
0
> <PUBCHEM_CACTVS_ROTATABLE_BOND>
7
> <PUBCHEM_CACTVS_SUBSKEYS>
AAADcfB8MAAAAAAAAAAAAAAAAAAAAYAAAAAwQIAAAAAAAEDAAAAAGgAAAAAADxSggAICCAAABACIAgDQCAAAAAAgAAAACAAAAAgAAAIAAAACAAAEgAAIAAOAwPAPgAAAAAAAAABAAAYAADAAAQAACAAAAA==
> <PUBCHEM_IUPAC_OPENEYE_NAME>
[17-(1,4-dimethylhexyl)-4,4,10,13,14-pentamethyl-2,3,5,6,7,11,12,15,16,17-decahydro-1H-cyclopenta[a]phenanthren-3-yl] acetate
> <PUBCHEM_IUPAC_CAS_NAME>
acetic acid [4,4,10,13,14-pentamethyl-17-(5-methylheptan-2-yl)-2,3,5,6,7,11,12,15,16,17-decahydro-1H-cyclopenta[a]phenanthren-3-yl] ester
> <PUBCHEM_IUPAC_NAME_MARKUP>
[4,4,10,13,14-pentamethyl-17-(5-methylheptan-2-yl)-2,3,5,6,7,11,12,15,16,17-decahydro-1<I>H</I>-cyclopenta[a]phenanthren-3-yl] acetate
> <PUBCHEM_IUPAC_NAME>
[4,4,10,13,14-pentamethyl-17-(5-methylheptan-2-yl)-2,3,5,6,7,11,12,15,16,17-decahydro-1H-cyclopenta[a]phenanthren-3-yl] acetate
> <PUBCHEM_IUPAC_SYSTEMATIC_NAME>
[4,4,10,13,14-pentamethyl-17-(5-methylheptan-2-yl)-2,3,5,6,7,11,12,15,16,17-decahydro-1H-cyclopenta[a]phenanthren-3-yl] ethanoate
> <PUBCHEM_IUPAC_TRADITIONAL_NAME>
acetic acid [17-(1,4-dimethylhexyl)-4,4,10,13,14-pentamethyl-2,3,5,6,7,11,12,15,16,17-decahydro-1H-cyclopenta[a]phenanthren-3-yl] ester
> <PUBCHEM_IUPAC_INCHI>
InChI=1S/C32H54O2/c1-10-21(2)11-12-22(3)24-15-19-32(9)26-13-14-27-29(5,6)28(34-23(4)33)17-18-30(27,7)25(26)16-20-31(24,32)8/h21-22,24,27-28H,10-20H2,1-9H3
> <PUBCHEM_IUPAC_INCHIKEY>
GZIUSEKAVIUXEE-UHFFFAOYSA-N
> <PUBCHEM_XLOGP3_AA>
9.9
> <PUBCHEM_EXACT_MASS>
470.412380961
> <PUBCHEM_MOLECULAR_FORMULA>
C32H54O2
> <PUBCHEM_MOLECULAR_WEIGHT>
470.8
> <PUBCHEM_OPENEYE_CAN_SMILES>
CCC(C)CCC(C)C1CCC2(C1(CCC3=C2CCC4C3(CCC(C4(C)C)OC(=O)C)C)C)C
> <PUBCHEM_OPENEYE_ISO_SMILES>
CCC(C)CCC(C)C1CCC2(C1(CCC3=C2CCC4C3(CCC(C4(C)C)OC(=O)C)C)C)C
> <PUBCHEM_CACTVS_TPSA>
26.3
> <PUBCHEM_MONOISOTOPIC_WEIGHT>
470.412380961
> <PUBCHEM_TOTAL_CHARGE>
0
> <PUBCHEM_HEAVY_ATOM_COUNT>
34
> <PUBCHEM_ATOM_DEF_STEREO_COUNT>
0
> <PUBCHEM_ATOM_UDEF_STEREO_COUNT>
8
> <PUBCHEM_BOND_DEF_STEREO_COUNT>
0
> <PUBCHEM_BOND_UDEF_STEREO_COUNT>
0
> <PUBCHEM_ISOTOPIC_ATOM_COUNT>
0
> <PUBCHEM_COMPONENT_COUNT>
1
> <PUBCHEM_CACTVS_TAUTO_COUNT>
-1
> <PUBCHEM_COORDINATE_TYPE>
1
5
255
> <PUBCHEM_BONDANNOTATIONS>
21  1  3
17  27  3
29  32  3
3  19  3
4  20  3
5  12  3
6  23  3
8  16  3
$$$$
