523646
  -OEChem-10302200292D
 82 85  0     1  0  0  0  0  0999 V2000
    3.7320   -3.1598    0.0000 O   0  0  0  0  0  0  0  0  0  0  0  0
    2.8718   -1.6564    0.0000 O   0  0  0  0  0  0  0  0  0  0  0  0
    6.4831   -1.6143    0.0000 C   0  0  3  0  0  0  0  0  0  0  0  0
    7.3931   -1.1074    0.0000 C   0  0  3  0  0  0  0  0  0  0  0  0
    6.4750   -2.6559    0.0000 C   0  0  3  0  0  0  0  0  0  0  0  0
    9.1251   -0.1074    0.0000 C   0  0  3  0  0  0  0  0  0  0  0  0
    8.2591   -1.6074    0.0000 C   0  0  0  0  0  0  0  0  0  0  0  0
    9.1251   -1.1074    0.0000 C   0  0  0  0  0  0  0  0  0  0  0  0
   10.0713    0.1973    0.0000 C   0  0  3  0  0  0  0  0  0  0  0  0
    7.3931   -0.1074    0.0000 C   0  0  0  0  0  0  0  0  0  0  0  0
    8.2591    0.3926    0.0000 C   0  0  0  0  0  0  0  0  0  0  0  0
    5.5562   -1.0502    0.0000 C   0  0  0  0  0  0  0  0  0  0  0  0
    5.5396   -3.2056    0.0000 C   0  0  3  0  0  0  0  0  0  0  0  0
    7.3771   -3.1767    0.0000 C   0  0  0  0  0  0  0  0  0  0  0  0
    8.2752   -2.6489    0.0000 C   0  0  0  0  0  0  0  0  0  0  0  0
   10.0713   -1.4122    0.0000 C   0  0  0  0  0  0  0  0  0  0  0  0
   10.6550   -0.6074    0.0000 C   0  0  0  0  0  0  0  0  0  0  0  0
    4.6000   -2.6631    0.0000 C   0  0  3  0  0  0  0  0  0  0  0  0
    4.6084   -1.5782    0.0000 C   0  0  0  0  0  0  0  0  0  0  0  0
    6.4908   -0.6143    0.0000 C   0  0  0  0  0  0  0  0  0  0  0  0
   10.3820    1.1478    0.0000 C   0  0  3  0  0  0  0  0  0  0  0  0
    9.1251    0.8926    0.0000 C   0  0  0  0  0  0  0  0  0  0  0  0
    5.5435   -4.2056    0.0000 C   0  0  0  0  0  0  0  0  0  0  0  0
   11.3605    1.3540    0.0000 C   0  0  0  0  0  0  0  0  0  0  0  0
    9.7142    1.8921    0.0000 C   0  0  0  0  0  0  0  0  0  0  0  0
   11.6712    2.3046    0.0000 C   0  0  0  0  0  0  0  0  0  0  0  0
    2.8680   -2.6564    0.0000 C   0  0  0  0  0  0  0  0  0  0  0  0
   12.6497    2.5108    0.0000 C   0  0  0  0  0  0  0  0  0  0  0  0
   12.9603    3.4613    0.0000 C   0  0  0  0  0  0  0  0  0  0  0  0
    2.0000   -3.1531    0.0000 C   0  0  0  0  0  0  0  0  0  0  0  0
   13.9388    3.6675    0.0000 C   0  0  0  0  0  0  0  0  0  0  0  0
   12.2925    4.2056    0.0000 C   0  0  0  0  0  0  0  0  0  0  0  0
    7.9300   -0.7974    0.0000 H   0  0  0  0  0  0  0  0  0  0  0  0
    6.4774   -3.2759    0.0000 H   0  0  0  0  0  0  0  0  0  0  0  0
   10.6838    0.2935    0.0000 H   0  0  0  0  0  0  0  0  0  0  0  0
    7.1810    0.4752    0.0000 H   0  0  0  0  0  0  0  0  0  0  0  0
    6.7825   -0.2151    0.0000 H   0  0  0  0  0  0  0  0  0  0  0  0
    8.6576    0.8675    0.0000 H   0  0  0  0  0  0  0  0  0  0  0  0
    7.8606    0.8675    0.0000 H   0  0  0  0  0  0  0  0  0  0  0  0
    5.9644   -0.5835    0.0000 H   0  0  0  0  0  0  0  0  0  0  0  0
    5.1663   -0.5682    0.0000 H   0  0  0  0  0  0  0  0  0  0  0  0
    5.0033   -3.5166    0.0000 H   0  0  0  0  0  0  0  0  0  0  0  0
    6.9798   -3.6527    0.0000 H   0  0  0  0  0  0  0  0  0  0  0  0
    7.7781   -3.6496    0.0000 H   0  0  0  0  0  0  0  0  0  0  0  0
    8.4932   -3.2293    0.0000 H   0  0  0  0  0  0  0  0  0  0  0  0
    8.8843   -2.5334    0.0000 H   0  0  0  0  0  0  0  0  0  0  0  0
    9.8203   -1.9791    0.0000 H   0  0  0  0  0  0  0  0  0  0  0  0
   10.6087   -1.7214    0.0000 H   0  0  0  0  0  0  0  0  0  0  0  0
   11.1158   -1.0222    0.0000 H   0  0  0  0  0  0  0  0  0  0  0  0
   11.1158   -0.1927    0.0000 H   0  0  0  0  0  0  0  0  0  0  0  0
    4.0648   -2.3500    0.0000 H   0  0  0  0  0  0  0  0  0  0  0  0
    4.4038   -0.9929    0.0000 H   0  0  0  0  0  0  0  0  0  0  0  0
    3.9967   -1.6795    0.0000 H   0  0  0  0  0  0  0  0  0  0  0  0
    7.1108   -0.6191    0.0000 H   0  0  0  0  0  0  0  0  0  0  0  0
    6.4956    0.0057    0.0000 H   0  0  0  0  0  0  0  0  0  0  0  0
    5.8708   -0.6095    0.0000 H   0  0  0  0  0  0  0  0  0  0  0  0
   10.5746    1.7371    0.0000 H   0  0  0  0  0  0  0  0  0  0  0  0
    9.7451    0.8926    0.0000 H   0  0  0  0  0  0  0  0  0  0  0  0
    9.1251    1.5126    0.0000 H   0  0  0  0  0  0  0  0  0  0  0  0
    8.5051    0.8926    0.0000 H   0  0  0  0  0  0  0  0  0  0  0  0
    4.9235   -4.2080    0.0000 H   0  0  0  0  0  0  0  0  0  0  0  0
    5.5459   -4.8256    0.0000 H   0  0  0  0  0  0  0  0  0  0  0  0
    6.1635   -4.2032    0.0000 H   0  0  0  0  0  0  0  0  0  0  0  0
   11.3811    0.7344    0.0000 H   0  0  0  0  0  0  0  0  0  0  0  0
   11.9743    1.2667    0.0000 H   0  0  0  0  0  0  0  0  0  0  0  0
   10.1756    2.3062    0.0000 H   0  0  0  0  0  0  0  0  0  0  0  0
    9.3001    2.3536    0.0000 H   0  0  0  0  0  0  0  0  0  0  0  0
    9.2527    1.4781    0.0000 H   0  0  0  0  0  0  0  0  0  0  0  0
   11.6506    2.9242    0.0000 H   0  0  0  0  0  0  0  0  0  0  0  0
   11.0574    2.3919    0.0000 H   0  0  0  0  0  0  0  0  0  0  0  0
   12.6702    1.8911    0.0000 H   0  0  0  0  0  0  0  0  0  0  0  0
   13.2635    2.4234    0.0000 H   0  0  0  0  0  0  0  0  0  0  0  0
   13.1530    4.0506    0.0000 H   0  0  0  0  0  0  0  0  0  0  0  0
    1.6921   -2.6150    0.0000 H   0  0  0  0  0  0  0  0  0  0  0  0
    1.4619   -3.4610    0.0000 H   0  0  0  0  0  0  0  0  0  0  0  0
    2.3079   -3.6912    0.0000 H   0  0  0  0  0  0  0  0  0  0  0  0
   14.0667    3.0608    0.0000 H   0  0  0  0  0  0  0  0  0  0  0  0
   14.5455    3.7954    0.0000 H   0  0  0  0  0  0  0  0  0  0  0  0
   13.8110    4.2742    0.0000 H   0  0  0  0  0  0  0  0  0  0  0  0
   12.7540    4.6197    0.0000 H   0  0  0  0  0  0  0  0  0  0  0  0
   11.8784    4.6671    0.0000 H   0  0  0  0  0  0  0  0  0  0  0  0
   11.8310    3.7915    0.0000 H   0  0  0  0  0  0  0  0  0  0  0  0
  1 18  1  0  0  0  0
  1 27  1  0  0  0  0
  2 27  2  0  0  0  0
  3  4  1  0  0  0  0
  3  5  1  0  0  0  0
  3 12  1  0  0  0  0
  3 20  1  0  0  0  0
  4  7  1  0  0  0  0
  4 10  1  0  0  0  0
  4 33  1  0  0  0  0
  5 13  1  0  0  0  0
  5 14  1  0  0  0  0
  5 34  1  0  0  0  0
  6  8  1  0  0  0  0
  6  9  1  0  0  0  0
  6 11  1  0  0  0  0
  6 22  1  0  0  0  0
  7  8  2  0  0  0  0
  7 15  1  0  0  0  0
  8 16  1  0  0  0  0
  9 17  1  0  0  0  0
  9 21  1  0  0  0  0
  9 35  1  0  0  0  0
 10 11  1  0  0  0  0
 10 36  1  0  0  0  0
 10 37  1  0  0  0  0
 11 38  1  0  0  0  0
 11 39  1  0  0  0  0
 12 19  1  0  0  0  0
 12 40  1  0  0  0  0
 12 41  1  0  0  0  0
 13 18  1  0  0  0  0
 13 23  1  0  0  0  0
 13 42  1  0  0  0  0
 14 15  1  0  0  0  0
 14 43  1  0  0  0  0
 14 44  1  0  0  0  0
 15 45  1  0  0  0  0
 15 46  1  0  0  0  0
 16 17  1  0  0  0  0
 16 47  1  0  0  0  0
 16 48  1  0  0  0  0
 17 49  1  0  0  0  0
 17 50  1  0  0  0  0
 18 19  1  0  0  0  0
 18 51  1  0  0  0  0
 19 52  1  0  0  0  0
 19 53  1  0  0  0  0
 20 54  1  0  0  0  0
 20 55  1  0  0  0  0
 20 56  1  0  0  0  0
 21 24  1  0  0  0  0
 21 25  1  0  0  0  0
 21 57  1  0  0  0  0
 22 58  1  0  0  0  0
 22 59  1  0  0  0  0
 22 60  1  0  0  0  0
 23 61  1  0  0  0  0
 23 62  1  0  0  0  0
 23 63  1  0  0  0  0
 24 26  1  0  0  0  0
 24 64  1  0  0  0  0
 24 65  1  0  0  0  0
 25 66  1  0  0  0  0
 25 67  1  0  0  0  0
 25 68  1  0  0  0  0
 26 28  1  0  0  0  0
 26 69  1  0  0  0  0
 26 70  1  0  0  0  0
 27 30  1  0  0  0  0
 28 29  1  0  0  0  0
 28 71  1  0  0  0  0
 28 72  1  0  0  0  0
 29 31  1  0  0  0  0
 29 32  1  0  0  0  0
 29 73  1  0  0  0  0
 30 74  1  0  0  0  0
 30 75  1  0  0  0  0
 30 76  1  0  0  0  0
 31 77  1  0  0  0  0
 31 78  1  0  0  0  0
 31 79  1  0  0  0  0
 32 80  1  0  0  0  0
 32 81  1  0  0  0  0
 32 82  1  0  0  0  0
M  END
> <PUBCHEM_COMPOUND_CID>
523646
> <PUBCHEM_COMPOUND_CANONICALIZED>
1
> <PUBCHEM_CACTVS_COMPLEXITY>
735
> <PUBCHEM_CACTVS_HBOND_ACCEPTOR>
2
> <PUBCHEM_CACTVS_HBOND_DONOR>
0
> <PUBCHEM_CACTVS_ROTATABLE_BOND>
7
> <PUBCHEM_CACTVS_SUBSKEYS>
AAADcfB4MAAAAAAAAAAAAAAAAAAAAYAAAAAwYIAAAAAAAEDAAAAAGgAAAAAADxSggAICCAAABACIAgDQCAAAAAAgAAAACAAAAAgAAAIAAAACAAAEgAAIAAOAwPAPgAAAAAAAAABAAAYAADAAAAAACAAAAA==
> <PUBCHEM_IUPAC_OPENEYE_NAME>
[17-(1,5-dimethylhexyl)-4,10,13-trimethyl-2,3,4,5,6,7,9,11,12,15,16,17-dodecahydro-1H-cyclopenta[a]phenanthren-3-yl] acetate
> <PUBCHEM_IUPAC_CAS_NAME>
acetic acid [4,10,13-trimethyl-17-(6-methylheptan-2-yl)-2,3,4,5,6,7,9,11,12,15,16,17-dodecahydro-1H-cyclopenta[a]phenanthren-3-yl] ester
> <PUBCHEM_IUPAC_NAME_MARKUP>
[4,10,13-trimethyl-17-(6-methylheptan-2-yl)-2,3,4,5,6,7,9,11,12,15,16,17-dodecahydro-1<I>H</I>-cyclopenta[a]phenanthren-3-yl] acetate
> <PUBCHEM_IUPAC_NAME>
[4,10,13-trimethyl-17-(6-methylheptan-2-yl)-2,3,4,5,6,7,9,11,12,15,16,17-dodecahydro-1H-cyclopenta[a]phenanthren-3-yl] acetate
> <PUBCHEM_IUPAC_SYSTEMATIC_NAME>
[4,10,13-trimethyl-17-(6-methylheptan-2-yl)-2,3,4,5,6,7,9,11,12,15,16,17-dodecahydro-1H-cyclopenta[a]phenanthren-3-yl] ethanoate
> <PUBCHEM_IUPAC_TRADITIONAL_NAME>
acetic acid [17-(1,5-dimethylhexyl)-4,10,13-trimethyl-2,3,4,5,6,7,9,11,12,15,16,17-dodecahydro-1H-cyclopenta[a]phenanthren-3-yl] ester
> <PUBCHEM_IUPAC_INCHI>
InChI=1S/C30H50O2/c1-19(2)9-8-10-20(3)24-13-14-26-23-11-12-25-21(4)28(32-22(5)31)16-18-30(25,7)27(23)15-17-29(24,26)6/h19-21,24-25,27-28H,8-18H2,1-7H3
> <PUBCHEM_IUPAC_INCHIKEY>
NFDUZPFONWXJCK-UHFFFAOYSA-N
> <PUBCHEM_XLOGP3_AA>
9
> <PUBCHEM_EXACT_MASS>
442.381080833
> <PUBCHEM_MOLECULAR_FORMULA>
C30H50O2
> <PUBCHEM_MOLECULAR_WEIGHT>
442.7
> <PUBCHEM_OPENEYE_CAN_SMILES>
CC1C2CCC3=C4CCC(C4(CCC3C2(CCC1OC(=O)C)C)C)C(C)CCCC(C)C
> <PUBCHEM_OPENEYE_ISO_SMILES>
CC1C2CCC3=C4CCC(C4(CCC3C2(CCC1OC(=O)C)C)C)C(C)CCCC(C)C
> <PUBCHEM_CACTVS_TPSA>
26.3
> <PUBCHEM_MONOISOTOPIC_WEIGHT>
442.381080833
> <PUBCHEM_TOTAL_CHARGE>
0
> <PUBCHEM_HEAVY_ATOM_COUNT>
32
> <PUBCHEM_ATOM_DEF_STEREO_COUNT>
0
> <PUBCHEM_ATOM_UDEF_STEREO_COUNT>
8
> <PUBCHEM_BOND_DEF_STEREO_COUNT>
0
> <PUBCHEM_BOND_UDEF_STEREO_COUNT>
0
> <PUBCHEM_ISOTOPIC_ATOM_COUNT>
0
> <PUBCHEM_COMPONENT_COUNT>
1
> <PUBCHEM_CACTVS_TAUTO_COUNT>
-1
> <PUBCHEM_COORDINATE_TYPE>
1
5
255
> <PUBCHEM_BONDANNOTATIONS>
18  1  3
13  23  3
21  25  3
3  20  3
4  10  3
5  14  3
6  22  3
9  17  3
$$$$
