523664
  -OEChem-10302200292D
 88 91  0     1  0  0  0  0  0999 V2000
    3.7320   -3.2258    0.0000 O   0  0  0  0  0  0  0  0  0  0  0  0
    2.8718   -1.7225    0.0000 O   0  0  0  0  0  0  0  0  0  0  0  0
    9.1251   -0.1735    0.0000 C   0  0  3  0  0  0  0  0  0  0  0  0
    9.1251   -1.1735    0.0000 C   0  0  3  0  0  0  0  0  0  0  0  0
    7.3931   -1.1735    0.0000 C   0  0  3  0  0  0  0  0  0  0  0  0
    6.4831   -1.6803    0.0000 C   0  0  3  0  0  0  0  0  0  0  0  0
   10.0713    0.1313    0.0000 C   0  0  3  0  0  0  0  0  0  0  0  0
    8.2591   -1.6735    0.0000 C   0  0  0  0  0  0  0  0  0  0  0  0
    6.4750   -2.7219    0.0000 C   0  0  3  0  0  0  0  0  0  0  0  0
    8.2591    0.3265    0.0000 C   0  0  0  0  0  0  0  0  0  0  0  0
   10.0713   -1.4782    0.0000 C   0  0  0  0  0  0  0  0  0  0  0  0
    7.3931   -0.1735    0.0000 C   0  0  0  0  0  0  0  0  0  0  0  0
   10.6550   -0.6735    0.0000 C   0  0  0  0  0  0  0  0  0  0  0  0
    5.5396   -3.2716    0.0000 C   0  0  0  0  0  0  0  0  0  0  0  0
    5.5562   -1.1162    0.0000 C   0  0  0  0  0  0  0  0  0  0  0  0
    7.3771   -3.2427    0.0000 C   0  0  0  0  0  0  0  0  0  0  0  0
    9.1251    0.8265    0.0000 C   0  0  0  0  0  0  0  0  0  0  0  0
   10.3820    1.0818    0.0000 C   0  0  3  0  0  0  0  0  0  0  0  0
    9.1251   -2.1735    0.0000 C   0  0  0  0  0  0  0  0  0  0  0  0
    8.2752   -2.7150    0.0000 C   0  0  0  0  0  0  0  0  0  0  0  0
    4.6000   -2.7291    0.0000 C   0  0  3  0  0  0  0  0  0  0  0  0
    6.4908   -0.6803    0.0000 C   0  0  0  0  0  0  0  0  0  0  0  0
    4.6084   -1.6442    0.0000 C   0  0  0  0  0  0  0  0  0  0  0  0
    5.0430   -4.1396    0.0000 C   0  0  0  0  0  0  0  0  0  0  0  0
    6.0430   -4.1357    0.0000 C   0  0  0  0  0  0  0  0  0  0  0  0
   11.3605    1.2880    0.0000 C   0  0  0  0  0  0  0  0  0  0  0  0
    9.7142    1.8261    0.0000 C   0  0  0  0  0  0  0  0  0  0  0  0
   11.6712    2.2385    0.0000 C   0  0  0  0  0  0  0  0  0  0  0  0
   12.6497    2.4448    0.0000 C   0  0  0  0  0  0  0  0  0  0  0  0
    2.8680   -2.7224    0.0000 C   0  0  0  0  0  0  0  0  0  0  0  0
   12.9603    3.3953    0.0000 C   0  0  0  0  0  0  0  0  0  0  0  0
    2.0000   -3.2191    0.0000 C   0  0  0  0  0  0  0  0  0  0  0  0
   13.9388    3.6015    0.0000 C   0  0  0  0  0  0  0  0  0  0  0  0
   12.2925    4.1396    0.0000 C   0  0  0  0  0  0  0  0  0  0  0  0
    7.9300   -0.8635    0.0000 H   0  0  0  0  0  0  0  0  0  0  0  0
   10.6838    0.2275    0.0000 H   0  0  0  0  0  0  0  0  0  0  0  0
    6.4774   -3.3419    0.0000 H   0  0  0  0  0  0  0  0  0  0  0  0
    8.6576    0.8015    0.0000 H   0  0  0  0  0  0  0  0  0  0  0  0
    7.8606    0.8015    0.0000 H   0  0  0  0  0  0  0  0  0  0  0  0
    9.8203   -2.0451    0.0000 H   0  0  0  0  0  0  0  0  0  0  0  0
   10.6087   -1.7874    0.0000 H   0  0  0  0  0  0  0  0  0  0  0  0
    7.1810    0.4092    0.0000 H   0  0  0  0  0  0  0  0  0  0  0  0
    6.7825   -0.2811    0.0000 H   0  0  0  0  0  0  0  0  0  0  0  0
   11.1158   -1.0882    0.0000 H   0  0  0  0  0  0  0  0  0  0  0  0
   11.1158   -0.2587    0.0000 H   0  0  0  0  0  0  0  0  0  0  0  0
    5.9644   -0.6496    0.0000 H   0  0  0  0  0  0  0  0  0  0  0  0
    5.1663   -0.6342    0.0000 H   0  0  0  0  0  0  0  0  0  0  0  0
    6.9798   -3.7187    0.0000 H   0  0  0  0  0  0  0  0  0  0  0  0
    7.7781   -3.7156    0.0000 H   0  0  0  0  0  0  0  0  0  0  0  0
    9.7451    0.8265    0.0000 H   0  0  0  0  0  0  0  0  0  0  0  0
    9.1251    1.4465    0.0000 H   0  0  0  0  0  0  0  0  0  0  0  0
    8.5051    0.8265    0.0000 H   0  0  0  0  0  0  0  0  0  0  0  0
   10.5746    1.6711    0.0000 H   0  0  0  0  0  0  0  0  0  0  0  0
    8.5051   -2.1735    0.0000 H   0  0  0  0  0  0  0  0  0  0  0  0
    9.1251   -2.7935    0.0000 H   0  0  0  0  0  0  0  0  0  0  0  0
    9.7451   -2.1735    0.0000 H   0  0  0  0  0  0  0  0  0  0  0  0
    8.8156   -3.0187    0.0000 H   0  0  0  0  0  0  0  0  0  0  0  0
    4.0648   -2.4160    0.0000 H   0  0  0  0  0  0  0  0  0  0  0  0
    7.1108   -0.6851    0.0000 H   0  0  0  0  0  0  0  0  0  0  0  0
    6.4956   -0.0604    0.0000 H   0  0  0  0  0  0  0  0  0  0  0  0
    5.8708   -0.6756    0.0000 H   0  0  0  0  0  0  0  0  0  0  0  0
    4.4038   -1.0589    0.0000 H   0  0  0  0  0  0  0  0  0  0  0  0
    3.9967   -1.7456    0.0000 H   0  0  0  0  0  0  0  0  0  0  0  0
    4.5048   -3.8316    0.0000 H   0  0  0  0  0  0  0  0  0  0  0  0
    4.7350   -4.6777    0.0000 H   0  0  0  0  0  0  0  0  0  0  0  0
    5.5811   -4.4475    0.0000 H   0  0  0  0  0  0  0  0  0  0  0  0
    5.5072   -4.4478    0.0000 H   0  0  0  0  0  0  0  0  0  0  0  0
    6.3550   -4.6715    0.0000 H   0  0  0  0  0  0  0  0  0  0  0  0
    6.5787   -3.8236    0.0000 H   0  0  0  0  0  0  0  0  0  0  0  0
   11.3811    0.6684    0.0000 H   0  0  0  0  0  0  0  0  0  0  0  0
   11.9743    1.2007    0.0000 H   0  0  0  0  0  0  0  0  0  0  0  0
   10.1756    2.2402    0.0000 H   0  0  0  0  0  0  0  0  0  0  0  0
    9.3001    2.2876    0.0000 H   0  0  0  0  0  0  0  0  0  0  0  0
    9.2527    1.4120    0.0000 H   0  0  0  0  0  0  0  0  0  0  0  0
   11.6506    2.8582    0.0000 H   0  0  0  0  0  0  0  0  0  0  0  0
   11.0574    2.3259    0.0000 H   0  0  0  0  0  0  0  0  0  0  0  0
   12.6702    1.8251    0.0000 H   0  0  0  0  0  0  0  0  0  0  0  0
   13.2635    2.3574    0.0000 H   0  0  0  0  0  0  0  0  0  0  0  0
   13.1530    3.9846    0.0000 H   0  0  0  0  0  0  0  0  0  0  0  0
    1.6921   -2.6810    0.0000 H   0  0  0  0  0  0  0  0  0  0  0  0
    1.4619   -3.5270    0.0000 H   0  0  0  0  0  0  0  0  0  0  0  0
    2.3079   -3.7572    0.0000 H   0  0  0  0  0  0  0  0  0  0  0  0
   14.0667    2.9948    0.0000 H   0  0  0  0  0  0  0  0  0  0  0  0
   14.5455    3.7294    0.0000 H   0  0  0  0  0  0  0  0  0  0  0  0
   13.8110    4.2082    0.0000 H   0  0  0  0  0  0  0  0  0  0  0  0
   12.7540    4.5536    0.0000 H   0  0  0  0  0  0  0  0  0  0  0  0
   11.8784    4.6010    0.0000 H   0  0  0  0  0  0  0  0  0  0  0  0
   11.8310    3.7255    0.0000 H   0  0  0  0  0  0  0  0  0  0  0  0
  1 21  1  0  0  0  0
  1 30  1  0  0  0  0
  2 30  2  0  0  0  0
  3  4  1  0  0  0  0
  3  7  1  0  0  0  0
  3 10  1  0  0  0  0
  3 17  1  0  0  0  0
  4  8  1  0  0  0  0
  4 11  1  0  0  0  0
  4 19  1  0  0  0  0
  5  6  1  0  0  0  0
  5  8  1  0  0  0  0
  5 12  1  0  0  0  0
  5 35  1  0  0  0  0
  6  9  1  0  0  0  0
  6 15  1  0  0  0  0
  6 22  1  0  0  0  0
  7 13  1  0  0  0  0
  7 18  1  0  0  0  0
  7 36  1  0  0  0  0
  8 20  2  0  0  0  0
  9 14  1  0  0  0  0
  9 16  1  0  0  0  0
  9 37  1  0  0  0  0
 10 12  1  0  0  0  0
 10 38  1  0  0  0  0
 10 39  1  0  0  0  0
 11 13  1  0  0  0  0
 11 40  1  0  0  0  0
 11 41  1  0  0  0  0
 12 42  1  0  0  0  0
 12 43  1  0  0  0  0
 13 44  1  0  0  0  0
 13 45  1  0  0  0  0
 14 21  1  0  0  0  0
 14 24  1  0  0  0  0
 14 25  1  0  0  0  0
 15 23  1  0  0  0  0
 15 46  1  0  0  0  0
 15 47  1  0  0  0  0
 16 20  1  0  0  0  0
 16 48  1  0  0  0  0
 16 49  1  0  0  0  0
 17 50  1  0  0  0  0
 17 51  1  0  0  0  0
 17 52  1  0  0  0  0
 18 26  1  0  0  0  0
 18 27  1  0  0  0  0
 18 53  1  0  0  0  0
 19 54  1  0  0  0  0
 19 55  1  0  0  0  0
 19 56  1  0  0  0  0
 20 57  1  0  0  0  0
 21 23  1  0  0  0  0
 21 58  1  0  0  0  0
 22 59  1  0  0  0  0
 22 60  1  0  0  0  0
 22 61  1  0  0  0  0
 23 62  1  0  0  0  0
 23 63  1  0  0  0  0
 24 64  1  0  0  0  0
 24 65  1  0  0  0  0
 24 66  1  0  0  0  0
 25 67  1  0  0  0  0
 25 68  1  0  0  0  0
 25 69  1  0  0  0  0
 26 28  1  0  0  0  0
 26 70  1  0  0  0  0
 26 71  1  0  0  0  0
 27 72  1  0  0  0  0
 27 73  1  0  0  0  0
 27 74  1  0  0  0  0
 28 29  1  0  0  0  0
 28 75  1  0  0  0  0
 28 76  1  0  0  0  0
 29 31  1  0  0  0  0
 29 77  1  0  0  0  0
 29 78  1  0  0  0  0
 30 32  1  0  0  0  0
 31 33  1  0  0  0  0
 31 34  1  0  0  0  0
 31 79  1  0  0  0  0
 32 80  1  0  0  0  0
 32 81  1  0  0  0  0
 32 82  1  0  0  0  0
 33 83  1  0  0  0  0
 33 84  1  0  0  0  0
 33 85  1  0  0  0  0
 34 86  1  0  0  0  0
 34 87  1  0  0  0  0
 34 88  1  0  0  0  0
M  END
> <PUBCHEM_COMPOUND_CID>
523664
> <PUBCHEM_COMPOUND_CANONICALIZED>
1
> <PUBCHEM_CACTVS_COMPLEXITY>
808
> <PUBCHEM_CACTVS_HBOND_ACCEPTOR>
2
> <PUBCHEM_CACTVS_HBOND_DONOR>
0
> <PUBCHEM_CACTVS_ROTATABLE_BOND>
7
> <PUBCHEM_CACTVS_SUBSKEYS>
AAADcfB8MAAAAAAAAAAAAAAAAAAAAYAAAAAwYIAAAAAAAGCAAAAAGgAAAAAADxSggAICCAAABACIAiDSCAAAAAAgAAAACAAAAAgAAAIAAQACAAAEgAAIAAOAwPAPgAAAAAAAAADAAAYAADAAAQAACAAAAA==
> <PUBCHEM_IUPAC_OPENEYE_NAME>
[17-(1,5-dimethylhexyl)-4,4,10,13,14-pentamethyl-2,3,5,6,9,11,12,15,16,17-decahydro-1H-cyclopenta[a]phenanthren-3-yl] acetate
> <PUBCHEM_IUPAC_CAS_NAME>
acetic acid [4,4,10,13,14-pentamethyl-17-(6-methylheptan-2-yl)-2,3,5,6,9,11,12,15,16,17-decahydro-1H-cyclopenta[a]phenanthren-3-yl] ester
> <PUBCHEM_IUPAC_NAME_MARKUP>
[4,4,10,13,14-pentamethyl-17-(6-methylheptan-2-yl)-2,3,5,6,9,11,12,15,16,17-decahydro-1<I>H</I>-cyclopenta[a]phenanthren-3-yl] acetate
> <PUBCHEM_IUPAC_NAME>
[4,4,10,13,14-pentamethyl-17-(6-methylheptan-2-yl)-2,3,5,6,9,11,12,15,16,17-decahydro-1H-cyclopenta[a]phenanthren-3-yl] acetate
> <PUBCHEM_IUPAC_SYSTEMATIC_NAME>
[4,4,10,13,14-pentamethyl-17-(6-methylheptan-2-yl)-2,3,5,6,9,11,12,15,16,17-decahydro-1H-cyclopenta[a]phenanthren-3-yl] ethanoate
> <PUBCHEM_IUPAC_TRADITIONAL_NAME>
acetic acid [17-(1,5-dimethylhexyl)-4,4,10,13,14-pentamethyl-2,3,5,6,9,11,12,15,16,17-decahydro-1H-cyclopenta[a]phenanthren-3-yl] ester
> <PUBCHEM_IUPAC_INCHI>
InChI=1S/C32H54O2/c1-21(2)11-10-12-22(3)24-15-19-32(9)26-13-14-27-29(5,6)28(34-23(4)33)17-18-30(27,7)25(26)16-20-31(24,32)8/h13,21-22,24-25,27-28H,10-12,14-20H2,1-9H3
> <PUBCHEM_IUPAC_INCHIKEY>
KKIPVJGDVKRFSF-UHFFFAOYSA-N
> <PUBCHEM_XLOGP3_AA>
10.2
> <PUBCHEM_EXACT_MASS>
470.412380961
> <PUBCHEM_MOLECULAR_FORMULA>
C32H54O2
> <PUBCHEM_MOLECULAR_WEIGHT>
470.8
> <PUBCHEM_OPENEYE_CAN_SMILES>
CC(C)CCCC(C)C1CCC2(C1(CCC3C2=CCC4C3(CCC(C4(C)C)OC(=O)C)C)C)C
> <PUBCHEM_OPENEYE_ISO_SMILES>
CC(C)CCCC(C)C1CCC2(C1(CCC3C2=CCC4C3(CCC(C4(C)C)OC(=O)C)C)C)C
> <PUBCHEM_CACTVS_TPSA>
26.3
> <PUBCHEM_MONOISOTOPIC_WEIGHT>
470.412380961
> <PUBCHEM_TOTAL_CHARGE>
0
> <PUBCHEM_HEAVY_ATOM_COUNT>
34
> <PUBCHEM_ATOM_DEF_STEREO_COUNT>
0
> <PUBCHEM_ATOM_UDEF_STEREO_COUNT>
8
> <PUBCHEM_BOND_DEF_STEREO_COUNT>
0
> <PUBCHEM_BOND_UDEF_STEREO_COUNT>
0
> <PUBCHEM_ISOTOPIC_ATOM_COUNT>
0
> <PUBCHEM_COMPONENT_COUNT>
1
> <PUBCHEM_CACTVS_TAUTO_COUNT>
-1
> <PUBCHEM_COORDINATE_TYPE>
1
5
255
> <PUBCHEM_BONDANNOTATIONS>
21  1  3
18  27  3
3  17  3
4  19  3
5  12  3
6  22  3
7  13  3
9  16  3
$$$$
