523742
  -OEChem-10302200292D
 62 64  0     1  0  0  0  0  0999 V2000
    7.8646   -0.7888    0.0000 Si  0  0  0  0  0  0  0  0  0  0  0  0
    2.8602    1.7557    0.0000 Si  0  0  0  0  0  0  0  0  0  0  0  0
    7.2810    0.0159    0.0000 O   0  0  0  0  0  0  0  0  0  0  0  0
    7.2810   -1.5936    0.0000 O   0  0  0  0  0  0  0  0  0  0  0  0
    3.7204    1.2458    0.0000 O   0  0  0  0  0  0  0  0  0  0  0  0
    8.2714   -1.7024    0.0000 C   0  0  0  0  0  0  0  0  0  0  0  0
    8.6736   -0.2010    0.0000 C   0  0  0  0  0  0  0  0  0  0  0  0
    6.3348   -0.2888    0.0000 C   0  0  3  0  0  0  0  0  0  0  0  0
    6.3348   -1.2888    0.0000 C   0  0  3  0  0  0  0  0  0  0  0  0
    5.4688    0.2112    0.0000 C   0  0  0  0  0  0  0  0  0  0  0  0
    5.4688   -1.7888    0.0000 C   0  0  0  0  0  0  0  0  0  0  0  0
    8.6781   -2.6159    0.0000 C   0  0  0  0  0  0  0  0  0  0  0  0
    7.6835   -2.5114    0.0000 C   0  0  0  0  0  0  0  0  0  0  0  0
    9.1849   -1.2956    0.0000 C   0  0  0  0  0  0  0  0  0  0  0  0
    9.4827    0.3867    0.0000 C   0  0  0  0  0  0  0  0  0  0  0  0
    8.0859    0.6080    0.0000 C   0  0  0  0  0  0  0  0  0  0  0  0
    9.5872   -0.6078    0.0000 C   0  0  0  0  0  0  0  0  0  0  0  0
    4.6028   -0.2888    0.0000 C   0  0  0  0  0  0  0  0  0  0  0  0
    4.6028   -1.2888    0.0000 C   0  0  0  0  0  0  0  0  0  0  0  0
    3.7088    0.2458    0.0000 C   0  0  0  0  0  0  0  0  0  0  0  0
    3.7088   -1.8235    0.0000 C   0  0  0  0  0  0  0  0  0  0  0  0
    2.8027   -0.2680    0.0000 C   0  0  0  0  0  0  0  0  0  0  0  0
    2.8027   -1.3096    0.0000 C   0  0  0  0  0  0  0  0  0  0  0  0
    2.0000    2.2657    0.0000 C   0  0  0  0  0  0  0  0  0  0  0  0
    3.3702    2.6159    0.0000 C   0  0  0  0  0  0  0  0  0  0  0  0
    2.3502    0.8956    0.0000 C   0  0  0  0  0  0  0  0  0  0  0  0
    6.4004    0.3277    0.0000 H   0  0  0  0  0  0  0  0  0  0  0  0
    6.4004   -1.9054    0.0000 H   0  0  0  0  0  0  0  0  0  0  0  0
    5.8673    0.6861    0.0000 H   0  0  0  0  0  0  0  0  0  0  0  0
    5.0702    0.6861    0.0000 H   0  0  0  0  0  0  0  0  0  0  0  0
    5.0702   -2.2638    0.0000 H   0  0  0  0  0  0  0  0  0  0  0  0
    5.8673   -2.2638    0.0000 H   0  0  0  0  0  0  0  0  0  0  0  0
    8.1117   -2.8681    0.0000 H   0  0  0  0  0  0  0  0  0  0  0  0
    8.9303   -3.1823    0.0000 H   0  0  0  0  0  0  0  0  0  0  0  0
    9.2445   -2.3638    0.0000 H   0  0  0  0  0  0  0  0  0  0  0  0
    7.1820   -2.1469    0.0000 H   0  0  0  0  0  0  0  0  0  0  0  0
    7.3191   -3.0129    0.0000 H   0  0  0  0  0  0  0  0  0  0  0  0
    8.1851   -2.8758    0.0000 H   0  0  0  0  0  0  0  0  0  0  0  0
    9.4371   -1.8620    0.0000 H   0  0  0  0  0  0  0  0  0  0  0  0
    9.7513   -1.0435    0.0000 H   0  0  0  0  0  0  0  0  0  0  0  0
    8.9327   -0.7292    0.0000 H   0  0  0  0  0  0  0  0  0  0  0  0
    9.8471   -0.1149    0.0000 H   0  0  0  0  0  0  0  0  0  0  0  0
    9.9842    0.7512    0.0000 H   0  0  0  0  0  0  0  0  0  0  0  0
    9.1182    0.8883    0.0000 H   0  0  0  0  0  0  0  0  0  0  0  0
    8.5874    0.9724    0.0000 H   0  0  0  0  0  0  0  0  0  0  0  0
    7.7214    1.1096    0.0000 H   0  0  0  0  0  0  0  0  0  0  0  0
    7.5843    0.2435    0.0000 H   0  0  0  0  0  0  0  0  0  0  0  0
    9.3350   -1.1742    0.0000 H   0  0  0  0  0  0  0  0  0  0  0  0
   10.1536   -0.8600    0.0000 H   0  0  0  0  0  0  0  0  0  0  0  0
    9.8394   -0.0414    0.0000 H   0  0  0  0  0  0  0  0  0  0  0  0
    3.7160   -2.4434    0.0000 H   0  0  0  0  0  0  0  0  0  0  0  0
    2.2670    0.0440    0.0000 H   0  0  0  0  0  0  0  0  0  0  0  0
    2.2670   -1.6217    0.0000 H   0  0  0  0  0  0  0  0  0  0  0  0
    2.3162    2.7990    0.0000 H   0  0  0  0  0  0  0  0  0  0  0  0
    1.4667    2.5819    0.0000 H   0  0  0  0  0  0  0  0  0  0  0  0
    1.6838    1.7324    0.0000 H   0  0  0  0  0  0  0  0  0  0  0  0
    3.9035    2.2997    0.0000 H   0  0  0  0  0  0  0  0  0  0  0  0
    3.6864    3.1492    0.0000 H   0  0  0  0  0  0  0  0  0  0  0  0
    2.8368    2.9321    0.0000 H   0  0  0  0  0  0  0  0  0  0  0  0
    1.8169    1.2117    0.0000 H   0  0  0  0  0  0  0  0  0  0  0  0
    2.0340    0.3622    0.0000 H   0  0  0  0  0  0  0  0  0  0  0  0
    2.8835    0.5794    0.0000 H   0  0  0  0  0  0  0  0  0  0  0  0
  1  3  1  0  0  0  0
  1  4  1  0  0  0  0
  1  6  1  0  0  0  0
  1  7  1  0  0  0  0
  2  5  1  0  0  0  0
  2 24  1  0  0  0  0
  2 25  1  0  0  0  0
  2 26  1  0  0  0  0
  3  8  1  0  0  0  0
  4  9  1  0  0  0  0
  5 20  1  0  0  0  0
  6 12  1  0  0  0  0
  6 13  1  0  0  0  0
  6 14  1  0  0  0  0
  7 15  1  0  0  0  0
  7 16  1  0  0  0  0
  7 17  1  0  0  0  0
  8  9  1  0  0  0  0
  8 10  1  0  0  0  0
  8 27  1  0  0  0  0
  9 11  1  0  0  0  0
  9 28  1  0  0  0  0
 10 18  1  0  0  0  0
 10 29  1  0  0  0  0
 10 30  1  0  0  0  0
 11 19  1  0  0  0  0
 11 31  1  0  0  0  0
 11 32  1  0  0  0  0
 12 33  1  0  0  0  0
 12 34  1  0  0  0  0
 12 35  1  0  0  0  0
 13 36  1  0  0  0  0
 13 37  1  0  0  0  0
 13 38  1  0  0  0  0
 14 39  1  0  0  0  0
 14 40  1  0  0  0  0
 14 41  1  0  0  0  0
 15 42  1  0  0  0  0
 15 43  1  0  0  0  0
 15 44  1  0  0  0  0
 16 45  1  0  0  0  0
 16 46  1  0  0  0  0
 16 47  1  0  0  0  0
 17 48  1  0  0  0  0
 17 49  1  0  0  0  0
 17 50  1  0  0  0  0
 18 19  2  0  0  0  0
 18 20  1  0  0  0  0
 19 21  1  0  0  0  0
 20 22  2  0  0  0  0
 21 23  2  0  0  0  0
 21 51  1  0  0  0  0
 22 23  1  0  0  0  0
 22 52  1  0  0  0  0
 23 53  1  0  0  0  0
 24 54  1  0  0  0  0
 24 55  1  0  0  0  0
 24 56  1  0  0  0  0
 25 57  1  0  0  0  0
 25 58  1  0  0  0  0
 25 59  1  0  0  0  0
 26 60  1  0  0  0  0
 26 61  1  0  0  0  0
 26 62  1  0  0  0  0
M  END
> <PUBCHEM_COMPOUND_CID>
523742
> <PUBCHEM_COMPOUND_CANONICALIZED>
1
> <PUBCHEM_CACTVS_COMPLEXITY>
501
> <PUBCHEM_CACTVS_HBOND_ACCEPTOR>
3
> <PUBCHEM_CACTVS_HBOND_DONOR>
0
> <PUBCHEM_CACTVS_ROTATABLE_BOND>
4
> <PUBCHEM_CACTVS_SUBSKEYS>
AAADcfB4MAwAAAAAAAAAAAAAAAAAASAAAAAwYAAAAAAAAEjBAAAAGhAAAEAADBSguAJyBoAAAAGAAiBCAAACAAAgIAAIiAAGCIgJJiKAERKAMAAkwBEIiAfA4LQOgAABAAAYAABAAAIAADCAAAAAAAAAAA==
> <PUBCHEM_IUPAC_OPENEYE_NAME>
(2,2-ditert-butyl-3a,4,9,9a-tetrahydrobenzo[f][1,3,2]benzodioxasilol-5-yl)oxy-trimethyl-silane
> <PUBCHEM_IUPAC_CAS_NAME>
(2,2-ditert-butyl-3a,4,9,9a-tetrahydrobenzo[f][1,3,2]benzodioxasilol-5-yl)oxy-trimethylsilane
> <PUBCHEM_IUPAC_NAME_MARKUP>
(2,2-di<I>tert</I>-butyl-3<I>a</I>,4,9,9<I>a</I>-tetrahydrobenzo[f][1,3,2]benzodioxasilol-5-yl)oxy-trimethylsilane
> <PUBCHEM_IUPAC_NAME>
(2,2-ditert-butyl-3a,4,9,9a-tetrahydrobenzo[f][1,3,2]benzodioxasilol-5-yl)oxy-trimethylsilane
> <PUBCHEM_IUPAC_SYSTEMATIC_NAME>
(2,2-ditert-butyl-3a,4,9,9a-tetrahydrobenzo[f][1,3,2]benzodioxasilol-5-yl)oxy-trimethyl-silane
> <PUBCHEM_IUPAC_TRADITIONAL_NAME>
(2,2-ditert-butyl-3a,4,9,9a-tetrahydrobenzo[f][1,3,2]benzodioxasilol-5-yl)oxy-trimethyl-silane
> <PUBCHEM_IUPAC_INCHI>
InChI=1S/C21H36O3Si2/c1-20(2,3)26(21(4,5)6)23-18-13-15-11-10-12-17(22-25(7,8)9)16(15)14-19(18)24-26/h10-12,18-19H,13-14H2,1-9H3
> <PUBCHEM_IUPAC_INCHIKEY>
LKNCQPBOKVDBFA-UHFFFAOYSA-N
> <PUBCHEM_EXACT_MASS>
392.22029807
> <PUBCHEM_MOLECULAR_FORMULA>
C21H36O3Si2
> <PUBCHEM_MOLECULAR_WEIGHT>
392.7
> <PUBCHEM_OPENEYE_CAN_SMILES>
CC(C)(C)[Si]1(OC2CC3=C(CC2O1)C(=CC=C3)O[Si](C)(C)C)C(C)(C)C
> <PUBCHEM_OPENEYE_ISO_SMILES>
CC(C)(C)[Si]1(OC2CC3=C(CC2O1)C(=CC=C3)O[Si](C)(C)C)C(C)(C)C
> <PUBCHEM_CACTVS_TPSA>
27.7
> <PUBCHEM_MONOISOTOPIC_WEIGHT>
392.22029807
> <PUBCHEM_TOTAL_CHARGE>
0
> <PUBCHEM_HEAVY_ATOM_COUNT>
26
> <PUBCHEM_ATOM_DEF_STEREO_COUNT>
0
> <PUBCHEM_ATOM_UDEF_STEREO_COUNT>
2
> <PUBCHEM_BOND_DEF_STEREO_COUNT>
0
> <PUBCHEM_BOND_UDEF_STEREO_COUNT>
0
> <PUBCHEM_ISOTOPIC_ATOM_COUNT>
0
> <PUBCHEM_COMPONENT_COUNT>
1
> <PUBCHEM_CACTVS_TAUTO_COUNT>
-1
> <PUBCHEM_COORDINATE_TYPE>
1
5
255
> <PUBCHEM_BONDANNOTATIONS>
18  19  8
18  20  8
19  21  8
20  22  8
21  23  8
22  23  8
8  10  3
9  11  3
$$$$
