523775
  -OEChem-10302200292D
 72 71  0     1  0  0  0  0  0999 V2000
    4.7904    2.5142    0.0000 Si  0  0  0  0  0  0  0  0  0  0  0  0
    2.8660    0.1634    0.0000 Si  0  0  0  0  0  0  0  0  0  0  0  0
    8.9282    0.6634    0.0000 Si  0  0  0  0  0  0  0  0  0  0  0  0
    7.2512   -2.5142    0.0000 Si  0  0  0  0  0  0  0  0  0  0  0  0
    4.9641    1.5294    0.0000 O   0  0  0  0  0  0  0  0  0  0  0  0
    3.7320    0.6634    0.0000 O   0  0  0  0  0  0  0  0  0  0  0  0
    8.0622    1.1634    0.0000 O   0  0  0  0  0  0  0  0  0  0  0  0
    7.0775   -1.5294    0.0000 O   0  0  0  0  0  0  0  0  0  0  0  0
    4.5981   -0.8366    0.0000 O   0  0  0  0  0  0  0  0  0  0  0  0
    7.1962   -0.3366    0.0000 O   0  0  0  0  0  0  0  0  0  0  0  0
    5.3717   -1.8302    0.0000 O   0  0  0  0  0  0  0  0  0  0  0  0
    5.4641    0.6634    0.0000 C   0  0  3  0  0  0  0  0  0  0  0  0
    6.3301    1.1634    0.0000 C   0  0  3  0  0  0  0  0  0  0  0  0
    5.9641   -0.2026    0.0000 C   0  0  0  0  0  0  0  0  0  0  0  0
    4.5981    0.1634    0.0000 C   0  0  0  0  0  0  0  0  0  0  0  0
    6.9729    1.9294    0.0000 C   0  0  0  0  0  0  0  0  0  0  0  0
    7.1962    0.6634    0.0000 C   0  0  0  0  0  0  0  0  0  0  0  0
    3.8056    2.3406    0.0000 C   0  0  0  0  0  0  0  0  0  0  0  0
    4.6168    3.4990    0.0000 C   0  0  0  0  0  0  0  0  0  0  0  0
    5.7753    2.6879    0.0000 C   0  0  0  0  0  0  0  0  0  0  0  0
    6.1378   -1.1874    0.0000 C   0  0  0  0  0  0  0  0  0  0  0  0
    2.0000   -0.3366    0.0000 C   0  0  0  0  0  0  0  0  0  0  0  0
    2.3660    1.0294    0.0000 C   0  0  0  0  0  0  0  0  0  0  0  0
    3.3660   -0.7026    0.0000 C   0  0  0  0  0  0  0  0  0  0  0  0
    9.7942    0.1634    0.0000 C   0  0  0  0  0  0  0  0  0  0  0  0
    9.4282    1.5294    0.0000 C   0  0  0  0  0  0  0  0  0  0  0  0
    8.4282   -0.2026    0.0000 C   0  0  0  0  0  0  0  0  0  0  0  0
    7.4248   -3.4990    0.0000 C   0  0  0  0  0  0  0  0  0  0  0  0
    8.2359   -2.3406    0.0000 C   0  0  0  0  0  0  0  0  0  0  0  0
    6.2663   -2.6879    0.0000 C   0  0  0  0  0  0  0  0  0  0  0  0
    5.9316    1.6384    0.0000 H   0  0  0  0  0  0  0  0  0  0  0  0
    6.5674   -0.3456    0.0000 H   0  0  0  0  0  0  0  0  0  0  0  0
    5.3815   -0.4147    0.0000 H   0  0  0  0  0  0  0  0  0  0  0  0
    7.4479    1.5309    0.0000 H   0  0  0  0  0  0  0  0  0  0  0  0
    7.3714    2.4044    0.0000 H   0  0  0  0  0  0  0  0  0  0  0  0
    6.4980    2.3280    0.0000 H   0  0  0  0  0  0  0  0  0  0  0  0
    3.6980    2.9512    0.0000 H   0  0  0  0  0  0  0  0  0  0  0  0
    3.1951    2.2329    0.0000 H   0  0  0  0  0  0  0  0  0  0  0  0
    3.9133    1.7300    0.0000 H   0  0  0  0  0  0  0  0  0  0  0  0
    5.2274    3.6067    0.0000 H   0  0  0  0  0  0  0  0  0  0  0  0
    4.5091    4.1096    0.0000 H   0  0  0  0  0  0  0  0  0  0  0  0
    4.0062    3.3914    0.0000 H   0  0  0  0  0  0  0  0  0  0  0  0
    5.8829    2.0773    0.0000 H   0  0  0  0  0  0  0  0  0  0  0  0
    6.3858    2.7955    0.0000 H   0  0  0  0  0  0  0  0  0  0  0  0
    5.6676    3.2985    0.0000 H   0  0  0  0  0  0  0  0  0  0  0  0
    1.6900    0.2003    0.0000 H   0  0  0  0  0  0  0  0  0  0  0  0
    1.4631   -0.6466    0.0000 H   0  0  0  0  0  0  0  0  0  0  0  0
    2.3100   -0.8735    0.0000 H   0  0  0  0  0  0  0  0  0  0  0  0
    2.9030    1.3394    0.0000 H   0  0  0  0  0  0  0  0  0  0  0  0
    2.0560    1.5664    0.0000 H   0  0  0  0  0  0  0  0  0  0  0  0
    1.8291    0.7194    0.0000 H   0  0  0  0  0  0  0  0  0  0  0  0
    2.8291   -1.0126    0.0000 H   0  0  0  0  0  0  0  0  0  0  0  0
    3.6760   -1.2396    0.0000 H   0  0  0  0  0  0  0  0  0  0  0  0
    3.9030   -0.3926    0.0000 H   0  0  0  0  0  0  0  0  0  0  0  0
    9.4842   -0.3735    0.0000 H   0  0  0  0  0  0  0  0  0  0  0  0
   10.3312   -0.1466    0.0000 H   0  0  0  0  0  0  0  0  0  0  0  0
   10.1042    0.7003    0.0000 H   0  0  0  0  0  0  0  0  0  0  0  0
    9.9651    1.2194    0.0000 H   0  0  0  0  0  0  0  0  0  0  0  0
    9.7382    2.0664    0.0000 H   0  0  0  0  0  0  0  0  0  0  0  0
    8.8913    1.8394    0.0000 H   0  0  0  0  0  0  0  0  0  0  0  0
    7.8913    0.1074    0.0000 H   0  0  0  0  0  0  0  0  0  0  0  0
    8.1182   -0.7396    0.0000 H   0  0  0  0  0  0  0  0  0  0  0  0
    8.9651   -0.5126    0.0000 H   0  0  0  0  0  0  0  0  0  0  0  0
    6.8142   -3.6067    0.0000 H   0  0  0  0  0  0  0  0  0  0  0  0
    7.5325   -4.1096    0.0000 H   0  0  0  0  0  0  0  0  0  0  0  0
    8.0354   -3.3914    0.0000 H   0  0  0  0  0  0  0  0  0  0  0  0
    8.3435   -2.9512    0.0000 H   0  0  0  0  0  0  0  0  0  0  0  0
    8.8465   -2.2330    0.0000 H   0  0  0  0  0  0  0  0  0  0  0  0
    8.1282   -1.7300    0.0000 H   0  0  0  0  0  0  0  0  0  0  0  0
    6.1586   -2.0773    0.0000 H   0  0  0  0  0  0  0  0  0  0  0  0
    5.6557   -2.7956    0.0000 H   0  0  0  0  0  0  0  0  0  0  0  0
    6.3740   -3.2985    0.0000 H   0  0  0  0  0  0  0  0  0  0  0  0
  1  5  1  0  0  0  0
  1 18  1  0  0  0  0
  1 19  1  0  0  0  0
  1 20  1  0  0  0  0
  2  6  1  0  0  0  0
  2 22  1  0  0  0  0
  2 23  1  0  0  0  0
  2 24  1  0  0  0  0
  3  7  1  0  0  0  0
  3 25  1  0  0  0  0
  3 26  1  0  0  0  0
  3 27  1  0  0  0  0
  4  8  1  0  0  0  0
  4 28  1  0  0  0  0
  4 29  1  0  0  0  0
  4 30  1  0  0  0  0
  5 12  1  0  0  0  0
  6 15  1  0  0  0  0
  7 17  1  0  0  0  0
  8 21  1  0  0  0  0
  9 15  2  0  0  0  0
 10 17  2  0  0  0  0
 11 21  2  0  0  0  0
 12 13  1  0  0  0  0
 12 14  1  0  0  0  0
 12 15  1  0  0  0  0
 13 16  1  0  0  0  0
 13 17  1  0  0  0  0
 13 31  1  0  0  0  0
 14 21  1  0  0  0  0
 14 32  1  0  0  0  0
 14 33  1  0  0  0  0
 16 34  1  0  0  0  0
 16 35  1  0  0  0  0
 16 36  1  0  0  0  0
 18 37  1  0  0  0  0
 18 38  1  0  0  0  0
 18 39  1  0  0  0  0
 19 40  1  0  0  0  0
 19 41  1  0  0  0  0
 19 42  1  0  0  0  0
 20 43  1  0  0  0  0
 20 44  1  0  0  0  0
 20 45  1  0  0  0  0
 22 46  1  0  0  0  0
 22 47  1  0  0  0  0
 22 48  1  0  0  0  0
 23 49  1  0  0  0  0
 23 50  1  0  0  0  0
 23 51  1  0  0  0  0
 24 52  1  0  0  0  0
 24 53  1  0  0  0  0
 24 54  1  0  0  0  0
 25 55  1  0  0  0  0
 25 56  1  0  0  0  0
 25 57  1  0  0  0  0
 26 58  1  0  0  0  0
 26 59  1  0  0  0  0
 26 60  1  0  0  0  0
 27 61  1  0  0  0  0
 27 62  1  0  0  0  0
 27 63  1  0  0  0  0
 28 64  1  0  0  0  0
 28 65  1  0  0  0  0
 28 66  1  0  0  0  0
 29 67  1  0  0  0  0
 29 68  1  0  0  0  0
 29 69  1  0  0  0  0
 30 70  1  0  0  0  0
 30 71  1  0  0  0  0
 30 72  1  0  0  0  0
M  END
> <PUBCHEM_COMPOUND_CID>
523775
> <PUBCHEM_COMPOUND_CANONICALIZED>
1
> <PUBCHEM_CACTVS_COMPLEXITY>
639
> <PUBCHEM_CACTVS_HBOND_ACCEPTOR>
7
> <PUBCHEM_CACTVS_HBOND_DONOR>
0
> <PUBCHEM_CACTVS_ROTATABLE_BOND>
13
> <PUBCHEM_CACTVS_SUBSKEYS>
AAADcfB4OAwAAAAAAAAAAAAAAAAAAAAAAAAAAAAAAAAAAAAAAAAAGhAAAEAADUSAgABCCAAAAAEIAACQCAIAAAAAAAAAAAFAAAABABYAAAAAAAAFIAAAAADLJgAOgAAAAAAAAAAAAAAAAAAAAAAAAAAAAA==
> <PUBCHEM_IUPAC_OPENEYE_NAME>
tris(trimethylsilyl) 2-trimethylsilyloxybutane-1,2,3-tricarboxylate
> <PUBCHEM_IUPAC_CAS_NAME>
2-trimethylsilyloxybutane-1,2,3-tricarboxylic acid tris(trimethylsilyl) ester
> <PUBCHEM_IUPAC_NAME_MARKUP>
tris(trimethylsilyl) 2-trimethylsilyloxybutane-1,2,3-tricarboxylate
> <PUBCHEM_IUPAC_NAME>
tris(trimethylsilyl) 2-trimethylsilyloxybutane-1,2,3-tricarboxylate
> <PUBCHEM_IUPAC_SYSTEMATIC_NAME>
tris(trimethylsilyl) 2-trimethylsilyloxybutane-1,2,3-tricarboxylate
> <PUBCHEM_IUPAC_TRADITIONAL_NAME>
2-trimethylsilyloxybutane-1,2,3-tricarboxylic acid tris(trimethylsilyl) ester
> <PUBCHEM_IUPAC_INCHI>
InChI=1S/C19H42O7Si4/c1-15(17(21)24-28(5,6)7)19(26-30(11,12)13,18(22)25-29(8,9)10)14-16(20)23-27(2,3)4/h15H,14H2,1-13H3
> <PUBCHEM_IUPAC_INCHIKEY>
HPVCSLKJFDTUAG-UHFFFAOYSA-N
> <PUBCHEM_EXACT_MASS>
494.20075981
> <PUBCHEM_MOLECULAR_FORMULA>
C19H42O7Si4
> <PUBCHEM_MOLECULAR_WEIGHT>
494.9
> <PUBCHEM_OPENEYE_CAN_SMILES>
CC(C(=O)O[Si](C)(C)C)C(CC(=O)O[Si](C)(C)C)(C(=O)O[Si](C)(C)C)O[Si](C)(C)C
> <PUBCHEM_OPENEYE_ISO_SMILES>
CC(C(=O)O[Si](C)(C)C)C(CC(=O)O[Si](C)(C)C)(C(=O)O[Si](C)(C)C)O[Si](C)(C)C
> <PUBCHEM_CACTVS_TPSA>
88.1
> <PUBCHEM_MONOISOTOPIC_WEIGHT>
494.20075981
> <PUBCHEM_TOTAL_CHARGE>
0
> <PUBCHEM_HEAVY_ATOM_COUNT>
30
> <PUBCHEM_ATOM_DEF_STEREO_COUNT>
0
> <PUBCHEM_ATOM_UDEF_STEREO_COUNT>
2
> <PUBCHEM_BOND_DEF_STEREO_COUNT>
0
> <PUBCHEM_BOND_UDEF_STEREO_COUNT>
0
> <PUBCHEM_ISOTOPIC_ATOM_COUNT>
0
> <PUBCHEM_COMPONENT_COUNT>
1
> <PUBCHEM_CACTVS_TAUTO_COUNT>
-1
> <PUBCHEM_COORDINATE_TYPE>
1
5
255
> <PUBCHEM_BONDANNOTATIONS>
12  14  3
13  16  3
$$$$
