523756
  -OEChem-10302200292D
 87 87  0     1  0  0  0  0  0999 V2000
    3.8271   -7.6597    0.0000 Si  0  0  0  0  0  0  0  0  0  0  0  0
    4.6361   -7.0719    0.0000 O   0  0  0  0  0  0  0  0  0  0  0  0
    3.0181   -7.0719    0.0000 O   0  0  0  0  0  0  0  0  0  0  0  0
    4.5081   -4.3983    0.0000 O   0  0  0  0  0  0  0  0  0  0  0  0
    2.9136   -8.0664    0.0000 C   0  0  0  0  0  0  0  0  0  0  0  0
    4.4149   -8.4687    0.0000 C   0  0  0  0  0  0  0  0  0  0  0  0
    4.3271   -6.1208    0.0000 C   0  0  3  0  0  0  0  0  0  0  0  0
    3.3271   -6.1208    0.0000 C   0  0  0  0  0  0  0  0  0  0  0  0
    2.0000   -8.4732    0.0000 C   0  0  0  0  0  0  0  0  0  0  0  0
    2.1045   -7.4786    0.0000 C   0  0  0  0  0  0  0  0  0  0  0  0
    3.3203   -8.9800    0.0000 C   0  0  0  0  0  0  0  0  0  0  0  0
    5.0026   -9.2777    0.0000 C   0  0  0  0  0  0  0  0  0  0  0  0
    5.2239   -7.8809    0.0000 C   0  0  0  0  0  0  0  0  0  0  0  0
    4.0081   -9.3822    0.0000 C   0  0  0  0  0  0  0  0  0  0  0  0
    4.9149   -5.3118    0.0000 C   0  0  0  0  0  0  0  0  0  0  0  0
    5.0959   -3.5892    0.0000 C   0  0  0  0  0  0  0  0  0  0  0  0
    4.6892   -2.6757    0.0000 C   0  0  0  0  0  0  0  0  0  0  0  0
    5.2770   -1.8667    0.0000 C   0  0  0  0  0  0  0  0  0  0  0  0
    4.8702   -0.9531    0.0000 C   0  0  0  0  0  0  0  0  0  0  0  0
    5.4580   -0.1441    0.0000 C   0  0  0  0  0  0  0  0  0  0  0  0
    5.0513    0.7694    0.0000 C   0  0  0  0  0  0  0  0  0  0  0  0
    5.6391    1.5784    0.0000 C   0  0  0  0  0  0  0  0  0  0  0  0
    5.2323    2.4920    0.0000 C   0  0  0  0  0  0  0  0  0  0  0  0
    5.8201    3.3010    0.0000 C   0  0  0  0  0  0  0  0  0  0  0  0
    5.4134    4.2145    0.0000 C   0  0  0  0  0  0  0  0  0  0  0  0
    6.0012    5.0236    0.0000 C   0  0  0  0  0  0  0  0  0  0  0  0
    5.5944    5.9371    0.0000 C   0  0  0  0  0  0  0  0  0  0  0  0
    6.1822    6.7461    0.0000 C   0  0  0  0  0  0  0  0  0  0  0  0
    5.7755    7.6597    0.0000 C   0  0  0  0  0  0  0  0  0  0  0  0
    6.3633    8.4687    0.0000 C   0  0  0  0  0  0  0  0  0  0  0  0
    5.9565    9.3822    0.0000 C   0  0  0  0  0  0  0  0  0  0  0  0
    4.9394   -6.2178    0.0000 H   0  0  0  0  0  0  0  0  0  0  0  0
    3.3919   -5.5042    0.0000 H   0  0  0  0  0  0  0  0  0  0  0  0
    2.7206   -5.9919    0.0000 H   0  0  0  0  0  0  0  0  0  0  0  0
    1.7478   -7.9068    0.0000 H   0  0  0  0  0  0  0  0  0  0  0  0
    1.4336   -8.7253    0.0000 H   0  0  0  0  0  0  0  0  0  0  0  0
    2.2522   -9.0396    0.0000 H   0  0  0  0  0  0  0  0  0  0  0  0
    2.4690   -6.9770    0.0000 H   0  0  0  0  0  0  0  0  0  0  0  0
    1.6029   -7.1141    0.0000 H   0  0  0  0  0  0  0  0  0  0  0  0
    1.7400   -7.9801    0.0000 H   0  0  0  0  0  0  0  0  0  0  0  0
    2.7539   -9.2321    0.0000 H   0  0  0  0  0  0  0  0  0  0  0  0
    3.5724   -9.5464    0.0000 H   0  0  0  0  0  0  0  0  0  0  0  0
    3.8867   -8.7278    0.0000 H   0  0  0  0  0  0  0  0  0  0  0  0
    4.5011   -9.6421    0.0000 H   0  0  0  0  0  0  0  0  0  0  0  0
    5.3671   -9.7793    0.0000 H   0  0  0  0  0  0  0  0  0  0  0  0
    5.5042   -8.9133    0.0000 H   0  0  0  0  0  0  0  0  0  0  0  0
    5.5883   -8.3825    0.0000 H   0  0  0  0  0  0  0  0  0  0  0  0
    5.7255   -7.5165    0.0000 H   0  0  0  0  0  0  0  0  0  0  0  0
    4.8595   -7.3793    0.0000 H   0  0  0  0  0  0  0  0  0  0  0  0
    3.4417   -9.1300    0.0000 H   0  0  0  0  0  0  0  0  0  0  0  0
    3.7559   -9.9486    0.0000 H   0  0  0  0  0  0  0  0  0  0  0  0
    4.5745   -9.6344    0.0000 H   0  0  0  0  0  0  0  0  0  0  0  0
    5.3456   -5.7578    0.0000 H   0  0  0  0  0  0  0  0  0  0  0  0
    5.4289   -4.9651    0.0000 H   0  0  0  0  0  0  0  0  0  0  0  0
    5.5266   -4.0352    0.0000 H   0  0  0  0  0  0  0  0  0  0  0  0
    5.6099   -3.2426    0.0000 H   0  0  0  0  0  0  0  0  0  0  0  0
    4.2585   -2.2297    0.0000 H   0  0  0  0  0  0  0  0  0  0  0  0
    4.1752   -3.0224    0.0000 H   0  0  0  0  0  0  0  0  0  0  0  0
    5.7076   -2.3127    0.0000 H   0  0  0  0  0  0  0  0  0  0  0  0
    5.7910   -1.5200    0.0000 H   0  0  0  0  0  0  0  0  0  0  0  0
    4.4395   -0.5072    0.0000 H   0  0  0  0  0  0  0  0  0  0  0  0
    4.3562   -1.2998    0.0000 H   0  0  0  0  0  0  0  0  0  0  0  0
    5.8887   -0.5901    0.0000 H   0  0  0  0  0  0  0  0  0  0  0  0
    5.9720    0.2026    0.0000 H   0  0  0  0  0  0  0  0  0  0  0  0
    4.6206    1.2154    0.0000 H   0  0  0  0  0  0  0  0  0  0  0  0
    4.5373    0.4227    0.0000 H   0  0  0  0  0  0  0  0  0  0  0  0
    6.0698    1.1324    0.0000 H   0  0  0  0  0  0  0  0  0  0  0  0
    6.1531    1.9251    0.0000 H   0  0  0  0  0  0  0  0  0  0  0  0
    4.8016    2.9380    0.0000 H   0  0  0  0  0  0  0  0  0  0  0  0
    4.7183    2.1453    0.0000 H   0  0  0  0  0  0  0  0  0  0  0  0
    6.2508    2.8550    0.0000 H   0  0  0  0  0  0  0  0  0  0  0  0
    6.3341    3.6477    0.0000 H   0  0  0  0  0  0  0  0  0  0  0  0
    4.9827    4.6605    0.0000 H   0  0  0  0  0  0  0  0  0  0  0  0
    4.8994    3.8678    0.0000 H   0  0  0  0  0  0  0  0  0  0  0  0
    6.4318    4.5776    0.0000 H   0  0  0  0  0  0  0  0  0  0  0  0
    6.5152    5.3703    0.0000 H   0  0  0  0  0  0  0  0  0  0  0  0
    5.1637    6.3831    0.0000 H   0  0  0  0  0  0  0  0  0  0  0  0
    5.0804    5.5904    0.0000 H   0  0  0  0  0  0  0  0  0  0  0  0
    6.6129    6.3001    0.0000 H   0  0  0  0  0  0  0  0  0  0  0  0
    6.6962    7.0928    0.0000 H   0  0  0  0  0  0  0  0  0  0  0  0
    5.3448    8.1057    0.0000 H   0  0  0  0  0  0  0  0  0  0  0  0
    5.2615    7.3130    0.0000 H   0  0  0  0  0  0  0  0  0  0  0  0
    6.7939    8.0227    0.0000 H   0  0  0  0  0  0  0  0  0  0  0  0
    6.8773    8.8154    0.0000 H   0  0  0  0  0  0  0  0  0  0  0  0
    6.5229    9.6344    0.0000 H   0  0  0  0  0  0  0  0  0  0  0  0
    5.7043    9.9486    0.0000 H   0  0  0  0  0  0  0  0  0  0  0  0
    5.3901    9.1300    0.0000 H   0  0  0  0  0  0  0  0  0  0  0  0
  1  2  1  0  0  0  0
  1  3  1  0  0  0  0
  1  5  1  0  0  0  0
  1  6  1  0  0  0  0
  2  7  1  0  0  0  0
  3  8  1  0  0  0  0
  4 15  1  0  0  0  0
  4 16  1  0  0  0  0
  5  9  1  0  0  0  0
  5 10  1  0  0  0  0
  5 11  1  0  0  0  0
  6 12  1  0  0  0  0
  6 13  1  0  0  0  0
  6 14  1  0  0  0  0
  7  8  1  0  0  0  0
  7 15  1  0  0  0  0
  7 32  1  0  0  0  0
  8 33  1  0  0  0  0
  8 34  1  0  0  0  0
  9 35  1  0  0  0  0
  9 36  1  0  0  0  0
  9 37  1  0  0  0  0
 10 38  1  0  0  0  0
 10 39  1  0  0  0  0
 10 40  1  0  0  0  0
 11 41  1  0  0  0  0
 11 42  1  0  0  0  0
 11 43  1  0  0  0  0
 12 44  1  0  0  0  0
 12 45  1  0  0  0  0
 12 46  1  0  0  0  0
 13 47  1  0  0  0  0
 13 48  1  0  0  0  0
 13 49  1  0  0  0  0
 14 50  1  0  0  0  0
 14 51  1  0  0  0  0
 14 52  1  0  0  0  0
 15 53  1  0  0  0  0
 15 54  1  0  0  0  0
 16 17  1  0  0  0  0
 16 55  1  0  0  0  0
 16 56  1  0  0  0  0
 17 18  1  0  0  0  0
 17 57  1  0  0  0  0
 17 58  1  0  0  0  0
 18 19  1  0  0  0  0
 18 59  1  0  0  0  0
 18 60  1  0  0  0  0
 19 20  1  0  0  0  0
 19 61  1  0  0  0  0
 19 62  1  0  0  0  0
 20 21  1  0  0  0  0
 20 63  1  0  0  0  0
 20 64  1  0  0  0  0
 21 22  1  0  0  0  0
 21 65  1  0  0  0  0
 21 66  1  0  0  0  0
 22 23  1  0  0  0  0
 22 67  1  0  0  0  0
 22 68  1  0  0  0  0
 23 24  1  0  0  0  0
 23 69  1  0  0  0  0
 23 70  1  0  0  0  0
 24 25  1  0  0  0  0
 24 71  1  0  0  0  0
 24 72  1  0  0  0  0
 25 26  1  0  0  0  0
 25 73  1  0  0  0  0
 25 74  1  0  0  0  0
 26 27  1  0  0  0  0
 26 75  1  0  0  0  0
 26 76  1  0  0  0  0
 27 28  1  0  0  0  0
 27 77  1  0  0  0  0
 27 78  1  0  0  0  0
 28 29  1  0  0  0  0
 28 79  1  0  0  0  0
 28 80  1  0  0  0  0
 29 30  1  0  0  0  0
 29 81  1  0  0  0  0
 29 82  1  0  0  0  0
 30 31  1  0  0  0  0
 30 83  1  0  0  0  0
 30 84  1  0  0  0  0
 31 85  1  0  0  0  0
 31 86  1  0  0  0  0
 31 87  1  0  0  0  0
M  END
> <PUBCHEM_COMPOUND_CID>
523756
> <PUBCHEM_COMPOUND_CANONICALIZED>
1
> <PUBCHEM_CACTVS_COMPLEXITY>
425
> <PUBCHEM_CACTVS_HBOND_ACCEPTOR>
3
> <PUBCHEM_CACTVS_HBOND_DONOR>
0
> <PUBCHEM_CACTVS_ROTATABLE_BOND>
19
> <PUBCHEM_CACTVS_SUBSKEYS>
AAADcfB4MAgAAAAAAAAAAAAAAAAAASAAAAAAAAAAAAAAAAAAAAAAGhAAAEAADBSgoAICAAAABAEAAAAAAAAAAAAAAAAAAAAAAAABAAIAAAACAAAFAAACAAGAwKAAAAAAAAAAAAAAAAAAAAAAAAAAAAAAAA==
> <PUBCHEM_IUPAC_OPENEYE_NAME>
2,2-ditert-butyl-4-(hexadecoxymethyl)-1,3,2-dioxasilolane
> <PUBCHEM_IUPAC_CAS_NAME>
2,2-ditert-butyl-4-(hexadecoxymethyl)-1,3,2-dioxasilolane
> <PUBCHEM_IUPAC_NAME_MARKUP>
2,2-di<I>tert</I>-butyl-4-(hexadecoxymethyl)-1,3,2-dioxasilolane
> <PUBCHEM_IUPAC_NAME>
2,2-ditert-butyl-4-(hexadecoxymethyl)-1,3,2-dioxasilolane
> <PUBCHEM_IUPAC_SYSTEMATIC_NAME>
2,2-ditert-butyl-4-(hexadecoxymethyl)-1,3,2-dioxasilolane
> <PUBCHEM_IUPAC_TRADITIONAL_NAME>
2,2-ditert-butyl-4-(cetyloxymethyl)-1,3,2-dioxasilolane
> <PUBCHEM_IUPAC_INCHI>
InChI=1S/C27H56O3Si/c1-8-9-10-11-12-13-14-15-16-17-18-19-20-21-22-28-23-25-24-29-31(30-25,26(2,3)4)27(5,6)7/h25H,8-24H2,1-7H3
> <PUBCHEM_IUPAC_INCHIKEY>
AVUGFAGGIFIOHF-UHFFFAOYSA-N
> <PUBCHEM_EXACT_MASS>
456.39987218
> <PUBCHEM_MOLECULAR_FORMULA>
C27H56O3Si
> <PUBCHEM_MOLECULAR_WEIGHT>
456.8
> <PUBCHEM_OPENEYE_CAN_SMILES>
CCCCCCCCCCCCCCCCOCC1CO[Si](O1)(C(C)(C)C)C(C)(C)C
> <PUBCHEM_OPENEYE_ISO_SMILES>
CCCCCCCCCCCCCCCCOCC1CO[Si](O1)(C(C)(C)C)C(C)(C)C
> <PUBCHEM_CACTVS_TPSA>
27.7
> <PUBCHEM_MONOISOTOPIC_WEIGHT>
456.39987218
> <PUBCHEM_TOTAL_CHARGE>
0
> <PUBCHEM_HEAVY_ATOM_COUNT>
31
> <PUBCHEM_ATOM_DEF_STEREO_COUNT>
0
> <PUBCHEM_ATOM_UDEF_STEREO_COUNT>
1
> <PUBCHEM_BOND_DEF_STEREO_COUNT>
0
> <PUBCHEM_BOND_UDEF_STEREO_COUNT>
0
> <PUBCHEM_ISOTOPIC_ATOM_COUNT>
0
> <PUBCHEM_COMPONENT_COUNT>
1
> <PUBCHEM_CACTVS_TAUTO_COUNT>
-1
> <PUBCHEM_COORDINATE_TYPE>
1
5
255
> <PUBCHEM_BONDANNOTATIONS>
7  15  3
$$$$
