523811
  -OEChem-10302200292D
 23 23  0     1  0  0  0  0  0999 V2000
    3.3660    1.5194    0.0000 O   0  0  0  0  0  0  0  0  0  0  0  0
    3.7320   -1.5194    0.0000 O   0  0  0  0  0  0  0  0  0  0  0  0
    2.8660   -0.0194    0.0000 N   0  0  0  0  0  0  0  0  0  0  0  0
    2.0570    0.5684    0.0000 N   0  0  0  0  0  0  0  0  0  0  0  0
    3.6750    0.5684    0.0000 C   0  0  3  0  0  0  0  0  0  0  0  0
    4.2628   -0.2407    0.0000 C   0  0  0  0  0  0  0  0  0  0  0  0
    4.6261    0.8774    0.0000 C   0  0  0  0  0  0  0  0  0  0  0  0
    5.2574   -0.1361    0.0000 C   0  0  0  0  0  0  0  0  0  0  0  0
    2.8660   -1.0194    0.0000 C   0  0  0  0  0  0  0  0  0  0  0  0
    2.3660    1.5194    0.0000 C   0  0  0  0  0  0  0  0  0  0  0  0
    2.0000   -1.5194    0.0000 C   0  0  0  0  0  0  0  0  0  0  0  0
    3.7056   -0.5124    0.0000 H   0  0  0  0  0  0  0  0  0  0  0  0
    4.4337   -0.8366    0.0000 H   0  0  0  0  0  0  0  0  0  0  0  0
    4.8177    0.2877    0.0000 H   0  0  0  0  0  0  0  0  0  0  0  0
    5.2158    1.0690    0.0000 H   0  0  0  0  0  0  0  0  0  0  0  0
    4.4345    1.4670    0.0000 H   0  0  0  0  0  0  0  0  0  0  0  0
    5.3222   -0.7527    0.0000 H   0  0  0  0  0  0  0  0  0  0  0  0
    5.8740   -0.0713    0.0000 H   0  0  0  0  0  0  0  0  0  0  0  0
    5.1925    0.4805    0.0000 H   0  0  0  0  0  0  0  0  0  0  0  0
    2.0016    2.0210    0.0000 H   0  0  0  0  0  0  0  0  0  0  0  0
    1.6900   -0.9825    0.0000 H   0  0  0  0  0  0  0  0  0  0  0  0
    1.4631   -1.8294    0.0000 H   0  0  0  0  0  0  0  0  0  0  0  0
    2.3100   -2.0564    0.0000 H   0  0  0  0  0  0  0  0  0  0  0  0
  1  5  1  0  0  0  0
  1 10  1  0  0  0  0
  2  9  2  0  0  0  0
  3  4  1  0  0  0  0
  3  5  1  0  0  0  0
  3  9  1  0  0  0  0
  4 10  2  0  0  0  0
  5  6  1  0  0  0  0
  5  7  1  0  0  0  0
  6  8  1  0  0  0  0
  6 12  1  0  0  0  0
  6 13  1  0  0  0  0
  7 14  1  0  0  0  0
  7 15  1  0  0  0  0
  7 16  1  0  0  0  0
  8 17  1  0  0  0  0
  8 18  1  0  0  0  0
  8 19  1  0  0  0  0
  9 11  1  0  0  0  0
 10 20  1  0  0  0  0
 11 21  1  0  0  0  0
 11 22  1  0  0  0  0
 11 23  1  0  0  0  0
M  END
> <PUBCHEM_COMPOUND_CID>
523811
> <PUBCHEM_COMPOUND_CANONICALIZED>
1
> <PUBCHEM_CACTVS_COMPLEXITY>
203
> <PUBCHEM_CACTVS_HBOND_ACCEPTOR>
3
> <PUBCHEM_CACTVS_HBOND_DONOR>
0
> <PUBCHEM_CACTVS_ROTATABLE_BOND>
1
> <PUBCHEM_CACTVS_SUBSKEYS>
AAADccBjMAAAAAAAAAAAAAAAAAAAAQAAAAAAAAAAAAAAAAAAAAAAHgAIAAAACAyBgAYCAAIABAAoAAEREAAQAAAAAAASAAAAAAAAAAAAAAAEAAAABACAAAAAAAAAAAAAAAAAAAAAAAAAAAAAAAAAAAAAAA==
> <PUBCHEM_IUPAC_OPENEYE_NAME>
1-(2-ethyl-2-methyl-1,3,4-oxadiazol-3-yl)ethanone
> <PUBCHEM_IUPAC_CAS_NAME>
1-(2-ethyl-2-methyl-1,3,4-oxadiazol-3-yl)ethanone
> <PUBCHEM_IUPAC_NAME_MARKUP>
1-(2-ethyl-2-methyl-1,3,4-oxadiazol-3-yl)ethanone
> <PUBCHEM_IUPAC_NAME>
1-(2-ethyl-2-methyl-1,3,4-oxadiazol-3-yl)ethanone
> <PUBCHEM_IUPAC_SYSTEMATIC_NAME>
1-(2-ethyl-2-methyl-1,3,4-oxadiazol-3-yl)ethanone
> <PUBCHEM_IUPAC_TRADITIONAL_NAME>
1-(2-ethyl-2-methyl-1,3,4-oxadiazol-3-yl)ethanone
> <PUBCHEM_IUPAC_INCHI>
InChI=1S/C7H12N2O2/c1-4-7(3)9(6(2)10)8-5-11-7/h5H,4H2,1-3H3
> <PUBCHEM_IUPAC_INCHIKEY>
ZHCHSWANBCUERS-UHFFFAOYSA-N
> <PUBCHEM_XLOGP3_AA>
0.9
> <PUBCHEM_EXACT_MASS>
156.089877630
> <PUBCHEM_MOLECULAR_FORMULA>
C7H12N2O2
> <PUBCHEM_MOLECULAR_WEIGHT>
156.18
> <PUBCHEM_OPENEYE_CAN_SMILES>
CCC1(N(N=CO1)C(=O)C)C
> <PUBCHEM_OPENEYE_ISO_SMILES>
CCC1(N(N=CO1)C(=O)C)C
> <PUBCHEM_CACTVS_TPSA>
41.9
> <PUBCHEM_MONOISOTOPIC_WEIGHT>
156.089877630
> <PUBCHEM_TOTAL_CHARGE>
0
> <PUBCHEM_HEAVY_ATOM_COUNT>
11
> <PUBCHEM_ATOM_DEF_STEREO_COUNT>
0
> <PUBCHEM_ATOM_UDEF_STEREO_COUNT>
1
> <PUBCHEM_BOND_DEF_STEREO_COUNT>
0
> <PUBCHEM_BOND_UDEF_STEREO_COUNT>
0
> <PUBCHEM_ISOTOPIC_ATOM_COUNT>
0
> <PUBCHEM_COMPONENT_COUNT>
1
> <PUBCHEM_CACTVS_TAUTO_COUNT>
-1
> <PUBCHEM_COORDINATE_TYPE>
1
5
255
> <PUBCHEM_BONDANNOTATIONS>
5  7  3
$$$$
