523810
  -OEChem-10302200292D
 38 38  0     1  0  0  0  0  0999 V2000
    4.5823    1.1581    0.0000 O   0  0  0  0  0  0  0  0  0  0  0  0
    4.9483   -1.8807    0.0000 O   0  0  0  0  0  0  0  0  0  0  0  0
    4.0823   -0.3807    0.0000 N   0  0  0  0  0  0  0  0  0  0  0  0
    3.2733    0.2071    0.0000 N   0  0  0  0  0  0  0  0  0  0  0  0
    4.8913    0.2071    0.0000 C   0  0  3  0  0  0  0  0  0  0  0  0
    5.4791   -0.6019    0.0000 C   0  0  0  0  0  0  0  0  0  0  0  0
    5.8424    0.5161    0.0000 C   0  0  0  0  0  0  0  0  0  0  0  0
    3.5823    1.1581    0.0000 C   0  0  0  0  0  0  0  0  0  0  0  0
    2.9945    1.9672    0.0000 C   0  0  0  0  0  0  0  0  0  0  0  0
    4.0823   -1.3807    0.0000 C   0  0  0  0  0  0  0  0  0  0  0  0
    3.2163   -1.8807    0.0000 C   0  0  0  0  0  0  0  0  0  0  0  0
    6.4736   -0.4974    0.0000 C   0  0  0  0  0  0  0  0  0  0  0  0
    2.0000    1.8626    0.0000 C   0  0  0  0  0  0  0  0  0  0  0  0
    3.4013    2.8807    0.0000 C   0  0  0  0  0  0  0  0  0  0  0  0
    3.2163   -2.8807    0.0000 C   0  0  0  0  0  0  0  0  0  0  0  0
    2.3503   -1.3807    0.0000 C   0  0  0  0  0  0  0  0  0  0  0  0
    4.9219   -0.8737    0.0000 H   0  0  0  0  0  0  0  0  0  0  0  0
    5.6500   -1.1979    0.0000 H   0  0  0  0  0  0  0  0  0  0  0  0
    6.0340   -0.0736    0.0000 H   0  0  0  0  0  0  0  0  0  0  0  0
    6.4320    0.7077    0.0000 H   0  0  0  0  0  0  0  0  0  0  0  0
    5.6508    1.1058    0.0000 H   0  0  0  0  0  0  0  0  0  0  0  0
    2.7424    1.4008    0.0000 H   0  0  0  0  0  0  0  0  0  0  0  0
    2.6794   -2.1907    0.0000 H   0  0  0  0  0  0  0  0  0  0  0  0
    6.5384   -1.1140    0.0000 H   0  0  0  0  0  0  0  0  0  0  0  0
    7.0902   -0.4326    0.0000 H   0  0  0  0  0  0  0  0  0  0  0  0
    6.4088    0.1192    0.0000 H   0  0  0  0  0  0  0  0  0  0  0  0
    1.9352    2.4792    0.0000 H   0  0  0  0  0  0  0  0  0  0  0  0
    1.3834    1.7978    0.0000 H   0  0  0  0  0  0  0  0  0  0  0  0
    2.0648    1.2460    0.0000 H   0  0  0  0  0  0  0  0  0  0  0  0
    3.9677    2.6285    0.0000 H   0  0  0  0  0  0  0  0  0  0  0  0
    3.6534    3.4471    0.0000 H   0  0  0  0  0  0  0  0  0  0  0  0
    2.8349    3.1329    0.0000 H   0  0  0  0  0  0  0  0  0  0  0  0
    2.5963   -2.8807    0.0000 H   0  0  0  0  0  0  0  0  0  0  0  0
    3.2163   -3.5007    0.0000 H   0  0  0  0  0  0  0  0  0  0  0  0
    3.8363   -2.8807    0.0000 H   0  0  0  0  0  0  0  0  0  0  0  0
    2.6603   -0.8438    0.0000 H   0  0  0  0  0  0  0  0  0  0  0  0
    1.8133   -1.0707    0.0000 H   0  0  0  0  0  0  0  0  0  0  0  0
    2.0403   -1.9176    0.0000 H   0  0  0  0  0  0  0  0  0  0  0  0
  1  5  1  0  0  0  0
  1  8  1  0  0  0  0
  2 10  2  0  0  0  0
  3  4  1  0  0  0  0
  3  5  1  0  0  0  0
  3 10  1  0  0  0  0
  4  8  2  0  0  0  0
  5  6  1  0  0  0  0
  5  7  1  0  0  0  0
  6 12  1  0  0  0  0
  6 17  1  0  0  0  0
  6 18  1  0  0  0  0
  7 19  1  0  0  0  0
  7 20  1  0  0  0  0
  7 21  1  0  0  0  0
  8  9  1  0  0  0  0
  9 13  1  0  0  0  0
  9 14  1  0  0  0  0
  9 22  1  0  0  0  0
 10 11  1  0  0  0  0
 11 15  1  0  0  0  0
 11 16  1  0  0  0  0
 11 23  1  0  0  0  0
 12 24  1  0  0  0  0
 12 25  1  0  0  0  0
 12 26  1  0  0  0  0
 13 27  1  0  0  0  0
 13 28  1  0  0  0  0
 13 29  1  0  0  0  0
 14 30  1  0  0  0  0
 14 31  1  0  0  0  0
 14 32  1  0  0  0  0
 15 33  1  0  0  0  0
 15 34  1  0  0  0  0
 15 35  1  0  0  0  0
 16 36  1  0  0  0  0
 16 37  1  0  0  0  0
 16 38  1  0  0  0  0
M  END
> <PUBCHEM_COMPOUND_CID>
523810
> <PUBCHEM_COMPOUND_CANONICALIZED>
1
> <PUBCHEM_CACTVS_COMPLEXITY>
310
> <PUBCHEM_CACTVS_HBOND_ACCEPTOR>
3
> <PUBCHEM_CACTVS_HBOND_DONOR>
0
> <PUBCHEM_CACTVS_ROTATABLE_BOND>
3
> <PUBCHEM_CACTVS_SUBSKEYS>
AAADceBzMAAAAAAAAAAAAAAAAAAAAQAAAAAAAAAAAAAAAAAAAAAAHgAIAAAADQyBgAACAAIABAAoAAEwEAAQAAAAAAASAAEwAAAAAAAAAAAOAAAADACAAAAAAAAAAAAAAAAAAAAAAAAAAAAAAAAAAAAAAA==
> <PUBCHEM_IUPAC_OPENEYE_NAME>
1-(2-ethyl-5-isopropyl-2-methyl-1,3,4-oxadiazol-3-yl)-2-methyl-propan-1-one
> <PUBCHEM_IUPAC_CAS_NAME>
1-(2-ethyl-2-methyl-5-propan-2-yl-1,3,4-oxadiazol-3-yl)-2-methyl-1-propanone
> <PUBCHEM_IUPAC_NAME_MARKUP>
1-(2-ethyl-2-methyl-5-propan-2-yl-1,3,4-oxadiazol-3-yl)-2-methylpropan-1-one
> <PUBCHEM_IUPAC_NAME>
1-(2-ethyl-2-methyl-5-propan-2-yl-1,3,4-oxadiazol-3-yl)-2-methylpropan-1-one
> <PUBCHEM_IUPAC_SYSTEMATIC_NAME>
1-(2-ethyl-2-methyl-5-propan-2-yl-1,3,4-oxadiazol-3-yl)-2-methyl-propan-1-one
> <PUBCHEM_IUPAC_TRADITIONAL_NAME>
1-(2-ethyl-5-isopropyl-2-methyl-1,3,4-oxadiazol-3-yl)-2-methyl-propan-1-one
> <PUBCHEM_IUPAC_INCHI>
InChI=1S/C12H22N2O2/c1-7-12(6)14(11(15)9(4)5)13-10(16-12)8(2)3/h8-9H,7H2,1-6H3
> <PUBCHEM_IUPAC_INCHIKEY>
RFHOEJDUAIQBDY-UHFFFAOYSA-N
> <PUBCHEM_XLOGP3_AA>
3
> <PUBCHEM_EXACT_MASS>
226.168127949
> <PUBCHEM_MOLECULAR_FORMULA>
C12H22N2O2
> <PUBCHEM_MOLECULAR_WEIGHT>
226.32
> <PUBCHEM_OPENEYE_CAN_SMILES>
CCC1(N(N=C(O1)C(C)C)C(=O)C(C)C)C
> <PUBCHEM_OPENEYE_ISO_SMILES>
CCC1(N(N=C(O1)C(C)C)C(=O)C(C)C)C
> <PUBCHEM_CACTVS_TPSA>
41.9
> <PUBCHEM_MONOISOTOPIC_WEIGHT>
226.168127949
> <PUBCHEM_TOTAL_CHARGE>
0
> <PUBCHEM_HEAVY_ATOM_COUNT>
16
> <PUBCHEM_ATOM_DEF_STEREO_COUNT>
0
> <PUBCHEM_ATOM_UDEF_STEREO_COUNT>
1
> <PUBCHEM_BOND_DEF_STEREO_COUNT>
0
> <PUBCHEM_BOND_UDEF_STEREO_COUNT>
0
> <PUBCHEM_ISOTOPIC_ATOM_COUNT>
0
> <PUBCHEM_COMPONENT_COUNT>
1
> <PUBCHEM_CACTVS_TAUTO_COUNT>
-1
> <PUBCHEM_COORDINATE_TYPE>
1
5
255
> <PUBCHEM_BONDANNOTATIONS>
5  7  3
$$$$
