523835
  -OEChem-10302200292D
 57 57  0     1  0  0  0  0  0999 V2000
    5.4641    2.7500    0.0000 Si  0  0  0  0  0  0  0  0  0  0  0  0
    2.8660    3.2500    0.0000 Si  0  0  0  0  0  0  0  0  0  0  0  0
    3.7320   -3.2500    0.0000 Si  0  0  0  0  0  0  0  0  0  0  0  0
    3.7320    2.7500    0.0000 O   0  0  0  0  0  0  0  0  0  0  0  0
    4.5981   -2.7500    0.0000 O   0  0  0  0  0  0  0  0  0  0  0  0
    2.8660    1.2500    0.0000 O   0  0  0  0  0  0  0  0  0  0  0  0
    5.4641    1.7500    0.0000 N   0  0  0  0  0  0  0  0  0  0  0  0
    4.5981    1.2500    0.0000 C   0  0  3  0  0  0  0  0  0  0  0  0
    5.4641    3.7500    0.0000 C   0  0  0  0  0  0  0  0  0  0  0  0
    6.4641    2.7500    0.0000 C   0  0  0  0  0  0  0  0  0  0  0  0
    4.4641    2.7500    0.0000 C   0  0  0  0  0  0  0  0  0  0  0  0
    4.5981    0.2500    0.0000 C   0  0  0  0  0  0  0  0  0  0  0  0
    3.7320    1.7500    0.0000 C   0  0  0  0  0  0  0  0  0  0  0  0
    5.4641   -0.2500    0.0000 C   0  0  0  0  0  0  0  0  0  0  0  0
    3.7320   -0.2500    0.0000 C   0  0  0  0  0  0  0  0  0  0  0  0
    4.5981   -1.7500    0.0000 C   0  0  0  0  0  0  0  0  0  0  0  0
    2.0000    3.7500    0.0000 C   0  0  0  0  0  0  0  0  0  0  0  0
    3.3660    4.1160    0.0000 C   0  0  0  0  0  0  0  0  0  0  0  0
    2.3660    2.3840    0.0000 C   0  0  0  0  0  0  0  0  0  0  0  0
    5.4641   -1.2500    0.0000 C   0  0  0  0  0  0  0  0  0  0  0  0
    3.7320   -1.2500    0.0000 C   0  0  0  0  0  0  0  0  0  0  0  0
    2.8660   -3.7500    0.0000 C   0  0  0  0  0  0  0  0  0  0  0  0
    4.2320   -4.1160    0.0000 C   0  0  0  0  0  0  0  0  0  0  0  0
    3.2320   -2.3840    0.0000 C   0  0  0  0  0  0  0  0  0  0  0  0
    4.5981    1.8700    0.0000 H   0  0  0  0  0  0  0  0  0  0  0  0
    6.0010    1.4400    0.0000 H   0  0  0  0  0  0  0  0  0  0  0  0
    6.0841    3.7500    0.0000 H   0  0  0  0  0  0  0  0  0  0  0  0
    5.4641    4.3700    0.0000 H   0  0  0  0  0  0  0  0  0  0  0  0
    4.8441    3.7500    0.0000 H   0  0  0  0  0  0  0  0  0  0  0  0
    6.4641    2.1300    0.0000 H   0  0  0  0  0  0  0  0  0  0  0  0
    7.0841    2.7500    0.0000 H   0  0  0  0  0  0  0  0  0  0  0  0
    6.4641    3.3700    0.0000 H   0  0  0  0  0  0  0  0  0  0  0  0
    4.4641    3.3700    0.0000 H   0  0  0  0  0  0  0  0  0  0  0  0
    3.8441    2.7500    0.0000 H   0  0  0  0  0  0  0  0  0  0  0  0
    4.4641    2.1300    0.0000 H   0  0  0  0  0  0  0  0  0  0  0  0
    6.0010    0.0600    0.0000 H   0  0  0  0  0  0  0  0  0  0  0  0
    3.1951    0.0600    0.0000 H   0  0  0  0  0  0  0  0  0  0  0  0
    2.3100    4.2869    0.0000 H   0  0  0  0  0  0  0  0  0  0  0  0
    1.4631    4.0600    0.0000 H   0  0  0  0  0  0  0  0  0  0  0  0
    1.6900    3.2131    0.0000 H   0  0  0  0  0  0  0  0  0  0  0  0
    3.9030    3.8060    0.0000 H   0  0  0  0  0  0  0  0  0  0  0  0
    3.6760    4.6530    0.0000 H   0  0  0  0  0  0  0  0  0  0  0  0
    2.8291    4.4260    0.0000 H   0  0  0  0  0  0  0  0  0  0  0  0
    1.8291    2.6940    0.0000 H   0  0  0  0  0  0  0  0  0  0  0  0
    2.0560    1.8470    0.0000 H   0  0  0  0  0  0  0  0  0  0  0  0
    2.9030    2.0740    0.0000 H   0  0  0  0  0  0  0  0  0  0  0  0
    6.0010   -1.5600    0.0000 H   0  0  0  0  0  0  0  0  0  0  0  0
    3.1951   -1.5600    0.0000 H   0  0  0  0  0  0  0  0  0  0  0  0
    2.5560   -3.2131    0.0000 H   0  0  0  0  0  0  0  0  0  0  0  0
    2.3291   -4.0600    0.0000 H   0  0  0  0  0  0  0  0  0  0  0  0
    3.1760   -4.2869    0.0000 H   0  0  0  0  0  0  0  0  0  0  0  0
    3.6951   -4.4260    0.0000 H   0  0  0  0  0  0  0  0  0  0  0  0
    4.5420   -4.6530    0.0000 H   0  0  0  0  0  0  0  0  0  0  0  0
    4.7690   -3.8060    0.0000 H   0  0  0  0  0  0  0  0  0  0  0  0
    3.7690   -2.0740    0.0000 H   0  0  0  0  0  0  0  0  0  0  0  0
    2.9220   -1.8470    0.0000 H   0  0  0  0  0  0  0  0  0  0  0  0
    2.6951   -2.6940    0.0000 H   0  0  0  0  0  0  0  0  0  0  0  0
  1  7  1  0  0  0  0
  1  9  1  0  0  0  0
  1 10  1  0  0  0  0
  1 11  1  0  0  0  0
  2  4  1  0  0  0  0
  2 17  1  0  0  0  0
  2 18  1  0  0  0  0
  2 19  1  0  0  0  0
  3  5  1  0  0  0  0
  3 22  1  0  0  0  0
  3 23  1  0  0  0  0
  3 24  1  0  0  0  0
  4 13  1  0  0  0  0
  5 16  1  0  0  0  0
  6 13  2  0  0  0  0
  7  8  1  0  0  0  0
  7 26  1  0  0  0  0
  8 12  1  0  0  0  0
  8 13  1  0  0  0  0
  8 25  1  0  0  0  0
  9 27  1  0  0  0  0
  9 28  1  0  0  0  0
  9 29  1  0  0  0  0
 10 30  1  0  0  0  0
 10 31  1  0  0  0  0
 10 32  1  0  0  0  0
 11 33  1  0  0  0  0
 11 34  1  0  0  0  0
 11 35  1  0  0  0  0
 12 14  2  0  0  0  0
 12 15  1  0  0  0  0
 14 20  1  0  0  0  0
 14 36  1  0  0  0  0
 15 21  2  0  0  0  0
 15 37  1  0  0  0  0
 16 20  2  0  0  0  0
 16 21  1  0  0  0  0
 17 38  1  0  0  0  0
 17 39  1  0  0  0  0
 17 40  1  0  0  0  0
 18 41  1  0  0  0  0
 18 42  1  0  0  0  0
 18 43  1  0  0  0  0
 19 44  1  0  0  0  0
 19 45  1  0  0  0  0
 19 46  1  0  0  0  0
 20 47  1  0  0  0  0
 21 48  1  0  0  0  0
 22 49  1  0  0  0  0
 22 50  1  0  0  0  0
 22 51  1  0  0  0  0
 23 52  1  0  0  0  0
 23 53  1  0  0  0  0
 23 54  1  0  0  0  0
 24 55  1  0  0  0  0
 24 56  1  0  0  0  0
 24 57  1  0  0  0  0
M  END
> <PUBCHEM_COMPOUND_CID>
523835
> <PUBCHEM_COMPOUND_CANONICALIZED>
1
> <PUBCHEM_CACTVS_COMPLEXITY>
416
> <PUBCHEM_CACTVS_HBOND_ACCEPTOR>
4
> <PUBCHEM_CACTVS_HBOND_DONOR>
1
> <PUBCHEM_CACTVS_ROTATABLE_BOND>
8
> <PUBCHEM_CACTVS_SUBSKEYS>
AAADcfB6MAwAAAAAAAAAAAAAAAAAAAAAAAAwAAAAAAAAAAABAAAAHhARAEAADCzBmARyDoBAAAGIAiDSCACCAAAgIAAIiIGGDIgKJjKAlROAMABkwBEIiAeY2KGOIAAAAAAAAABAAAAAAAAAAAAAAAAAAA==
> <PUBCHEM_IUPAC_OPENEYE_NAME>
trimethylsilyl 2-(trimethylsilylamino)-2-(4-trimethylsilyloxyphenyl)acetate
> <PUBCHEM_IUPAC_CAS_NAME>
2-(trimethylsilylamino)-2-(4-trimethylsilyloxyphenyl)acetic acid trimethylsilyl ester
> <PUBCHEM_IUPAC_NAME_MARKUP>
trimethylsilyl 2-(trimethylsilylamino)-2-(4-trimethylsilyloxyphenyl)acetate
> <PUBCHEM_IUPAC_NAME>
trimethylsilyl 2-(trimethylsilylamino)-2-(4-trimethylsilyloxyphenyl)acetate
> <PUBCHEM_IUPAC_SYSTEMATIC_NAME>
trimethylsilyl 2-(trimethylsilylamino)-2-(4-trimethylsilyloxyphenyl)ethanoate
> <PUBCHEM_IUPAC_TRADITIONAL_NAME>
2-(trimethylsilylamino)-2-(4-trimethylsilyloxyphenyl)acetic acid trimethylsilyl ester
> <PUBCHEM_IUPAC_INCHI>
InChI=1S/C17H33NO3Si3/c1-22(2,3)18-16(17(19)21-24(7,8)9)14-10-12-15(13-11-14)20-23(4,5)6/h10-13,16,18H,1-9H3
> <PUBCHEM_IUPAC_INCHIKEY>
KWSXUMMOBNEDEX-UHFFFAOYSA-N
> <PUBCHEM_EXACT_MASS>
383.17682352
> <PUBCHEM_MOLECULAR_FORMULA>
C17H33NO3Si3
> <PUBCHEM_MOLECULAR_WEIGHT>
383.7
> <PUBCHEM_OPENEYE_CAN_SMILES>
C[Si](C)(C)NC(C1=CC=C(C=C1)O[Si](C)(C)C)C(=O)O[Si](C)(C)C
> <PUBCHEM_OPENEYE_ISO_SMILES>
C[Si](C)(C)NC(C1=CC=C(C=C1)O[Si](C)(C)C)C(=O)O[Si](C)(C)C
> <PUBCHEM_CACTVS_TPSA>
47.6
> <PUBCHEM_MONOISOTOPIC_WEIGHT>
383.17682352
> <PUBCHEM_TOTAL_CHARGE>
0
> <PUBCHEM_HEAVY_ATOM_COUNT>
24
> <PUBCHEM_ATOM_DEF_STEREO_COUNT>
0
> <PUBCHEM_ATOM_UDEF_STEREO_COUNT>
1
> <PUBCHEM_BOND_DEF_STEREO_COUNT>
0
> <PUBCHEM_BOND_UDEF_STEREO_COUNT>
0
> <PUBCHEM_ISOTOPIC_ATOM_COUNT>
0
> <PUBCHEM_COMPONENT_COUNT>
1
> <PUBCHEM_CACTVS_TAUTO_COUNT>
-1
> <PUBCHEM_COORDINATE_TYPE>
1
5
255
> <PUBCHEM_BONDANNOTATIONS>
12  14  8
12  15  8
14  20  8
15  21  8
16  20  8
16  21  8
8  13  3
$$$$
