524025
  -OEChem-10302200292D
 50 53  0     1  0  0  0  0  0999 V2000
    3.9491    2.6822    0.0000 O   0  0  0  0  0  0  0  0  0  0  0  0
    5.5097    3.4337    0.0000 O   0  0  0  0  0  0  0  0  0  0  0  0
    4.8830   -3.4094    0.0000 N   0  0  0  0  0  0  0  0  0  0  0  0
    3.2295   -0.6957    0.0000 N   0  0  0  0  0  0  0  0  0  0  0  0
    4.8830   -1.4094    0.0000 C   0  0  0  0  0  0  0  0  0  0  0  0
    5.7490   -1.9094    0.0000 C   0  0  0  0  0  0  0  0  0  0  0  0
    4.0170   -1.9094    0.0000 C   0  0  0  0  0  0  0  0  0  0  0  0
    4.8830   -0.4094    0.0000 C   0  0  0  0  0  0  0  0  0  0  0  0
    5.7490   -2.9094    0.0000 C   0  0  0  0  0  0  0  0  0  0  0  0
    4.0169   -2.9094    0.0000 C   0  0  0  0  0  0  0  0  0  0  0  0
    5.7840    0.0245    0.0000 C   0  0  0  0  0  0  0  0  0  0  0  0
    4.3830    1.7812    0.0000 C   0  0  3  0  0  0  0  0  0  0  0  0
    3.9820    0.0245    0.0000 C   0  0  0  0  0  0  0  0  0  0  0  0
    5.3830    1.7812    0.0000 C   0  0  0  0  0  0  0  0  0  0  0  0
    6.0065    0.9994    0.0000 C   0  0  0  0  0  0  0  0  0  0  0  0
    3.7595    0.9994    0.0000 C   0  0  0  0  0  0  0  0  0  0  0  0
    4.8830   -4.4094    0.0000 C   0  0  0  0  0  0  0  0  0  0  0  0
    6.5365   -0.6957    0.0000 C   0  0  0  0  0  0  0  0  0  0  0  0
    6.9970    1.3217    0.0000 C   0  0  0  0  0  0  0  0  0  0  0  0
    2.7690    1.3218    0.0000 C   0  0  0  0  0  0  0  0  0  0  0  0
    7.5342   -0.3964    0.0000 C   0  0  0  0  0  0  0  0  0  0  0  0
    7.7660    0.6191    0.0000 C   0  0  0  0  0  0  0  0  0  0  0  0
    2.0000    0.6192    0.0000 C   0  0  0  0  0  0  0  0  0  0  0  0
    2.2318   -0.3963    0.0000 C   0  0  0  0  0  0  0  0  0  0  0  0
    4.5125    3.5084    0.0000 C   0  0  0  0  0  0  0  0  0  0  0  0
    4.0786    4.4094    0.0000 C   0  0  0  0  0  0  0  0  0  0  0  0
    6.3596   -2.0171    0.0000 H   0  0  0  0  0  0  0  0  0  0  0  0
    5.9611   -1.3268    0.0000 H   0  0  0  0  0  0  0  0  0  0  0  0
    3.8049   -1.3268    0.0000 H   0  0  0  0  0  0  0  0  0  0  0  0
    3.4064   -2.0171    0.0000 H   0  0  0  0  0  0  0  0  0  0  0  0
    5.9610   -3.4920    0.0000 H   0  0  0  0  0  0  0  0  0  0  0  0
    6.3596   -2.8018    0.0000 H   0  0  0  0  0  0  0  0  0  0  0  0
    3.4064   -2.8017    0.0000 H   0  0  0  0  0  0  0  0  0  0  0  0
    3.8049   -3.4920    0.0000 H   0  0  0  0  0  0  0  0  0  0  0  0
    4.7129    2.3062    0.0000 H   0  0  0  0  0  0  0  0  0  0  0  0
    5.9416    2.0502    0.0000 H   0  0  0  0  0  0  0  0  0  0  0  0
    5.2450    2.3857    0.0000 H   0  0  0  0  0  0  0  0  0  0  0  0
    4.2630   -4.4094    0.0000 H   0  0  0  0  0  0  0  0  0  0  0  0
    4.8830   -5.0294    0.0000 H   0  0  0  0  0  0  0  0  0  0  0  0
    5.5030   -4.4094    0.0000 H   0  0  0  0  0  0  0  0  0  0  0  0
    6.3916   -1.2985    0.0000 H   0  0  0  0  0  0  0  0  0  0  0  0
    7.1280    1.9277    0.0000 H   0  0  0  0  0  0  0  0  0  0  0  0
    2.6380    1.9278    0.0000 H   0  0  0  0  0  0  0  0  0  0  0  0
    7.9871   -0.8198    0.0000 H   0  0  0  0  0  0  0  0  0  0  0  0
    8.3578    0.8042    0.0000 H   0  0  0  0  0  0  0  0  0  0  0  0
    1.4083    0.8042    0.0000 H   0  0  0  0  0  0  0  0  0  0  0  0
    1.7789   -0.8198    0.0000 H   0  0  0  0  0  0  0  0  0  0  0  0
    4.6372    4.6784    0.0000 H   0  0  0  0  0  0  0  0  0  0  0  0
    3.8096    4.9680    0.0000 H   0  0  0  0  0  0  0  0  0  0  0  0
    3.5200    4.1404    0.0000 H   0  0  0  0  0  0  0  0  0  0  0  0
  1 12  1  0  0  0  0
  1 25  1  0  0  0  0
  2 25  2  0  0  0  0
  3  9  1  0  0  0  0
  3 10  1  0  0  0  0
  3 17  1  0  0  0  0
  4 13  1  0  0  0  0
  4 24  2  0  0  0  0
  5  6  1  0  0  0  0
  5  7  1  0  0  0  0
  5  8  2  0  0  0  0
  6  9  1  0  0  0  0
  6 27  1  0  0  0  0
  6 28  1  0  0  0  0
  7 10  1  0  0  0  0
  7 29  1  0  0  0  0
  7 30  1  0  0  0  0
  8 11  1  0  0  0  0
  8 13  1  0  0  0  0
  9 31  1  0  0  0  0
  9 32  1  0  0  0  0
 10 33  1  0  0  0  0
 10 34  1  0  0  0  0
 11 15  1  0  0  0  0
 11 18  2  0  0  0  0
 12 14  1  0  0  0  0
 12 16  1  0  0  0  0
 12 35  1  0  0  0  0
 13 16  2  0  0  0  0
 14 15  1  0  0  0  0
 14 36  1  0  0  0  0
 14 37  1  0  0  0  0
 15 19  2  0  0  0  0
 16 20  1  0  0  0  0
 17 38  1  0  0  0  0
 17 39  1  0  0  0  0
 17 40  1  0  0  0  0
 18 21  1  0  0  0  0
 18 41  1  0  0  0  0
 19 22  1  0  0  0  0
 19 42  1  0  0  0  0
 20 23  2  0  0  0  0
 20 43  1  0  0  0  0
 21 22  2  0  0  0  0
 21 44  1  0  0  0  0
 22 45  1  0  0  0  0
 23 24  1  0  0  0  0
 23 46  1  0  0  0  0
 24 47  1  0  0  0  0
 25 26  1  0  0  0  0
 26 48  1  0  0  0  0
 26 49  1  0  0  0  0
 26 50  1  0  0  0  0
M  END
> <PUBCHEM_COMPOUND_CID>
524025
> <PUBCHEM_COMPOUND_CANONICALIZED>
1
> <PUBCHEM_CACTVS_COMPLEXITY>
548
> <PUBCHEM_CACTVS_HBOND_ACCEPTOR>
4
> <PUBCHEM_CACTVS_HBOND_DONOR>
0
> <PUBCHEM_CACTVS_ROTATABLE_BOND>
2
> <PUBCHEM_CACTVS_SUBSKEYS>
AAADceB7MAAAAAAAAAAAAAAAAAAAAAAAAAA8WIAABgAAAAABwAAAHgAAAAAADBzhngY+iJMIFACoAzT3TACCgCAxAiAI2CA4bJgIJuLAsZmGMAhmwAHI6AeQ0PIOgAAAAAAQAAAAAAAAACAAAAAAAAAAAA==
> <PUBCHEM_IUPAC_OPENEYE_NAME>
[2-(1-methyl-4-piperidylidene)-4-azatricyclo[9.4.0.03,8]pentadeca-1(15),3(8),4,6,11,13-hexaen-9-yl] acetate
> <PUBCHEM_IUPAC_CAS_NAME>
acetic acid [2-(1-methyl-4-piperidinylidene)-4-azatricyclo[9.4.0.03,8]pentadeca-1(15),3(8),4,6,11,13-hexaen-9-yl] ester
> <PUBCHEM_IUPAC_NAME_MARKUP>
[2-(1-methylpiperidin-4-ylidene)-4-azatricyclo[9.4.0.0<SUP>3,8</SUP>]pentadeca-1(15),3(8),4,6,11,13-hexaen-9-yl] acetate
> <PUBCHEM_IUPAC_NAME>
[2-(1-methylpiperidin-4-ylidene)-4-azatricyclo[9.4.0.03,8]pentadeca-1(15),3(8),4,6,11,13-hexaen-9-yl] acetate
> <PUBCHEM_IUPAC_SYSTEMATIC_NAME>
[2-(1-methylpiperidin-4-ylidene)-4-azatricyclo[9.4.0.03,8]pentadeca-1(15),3(8),4,6,11,13-hexaen-9-yl] ethanoate
> <PUBCHEM_IUPAC_TRADITIONAL_NAME>
acetic acid [2-(1-methyl-4-piperidylidene)-4-azatricyclo[9.4.0.03,8]pentadeca-1(15),3(8),4,6,11,13-hexaen-9-yl] ester
> <PUBCHEM_IUPAC_INCHI>
InChI=1S/C22H24N2O2/c1-15(25)26-20-14-17-6-3-4-7-18(17)21(16-9-12-24(2)13-10-16)22-19(20)8-5-11-23-22/h3-8,11,20H,9-10,12-14H2,1-2H3
> <PUBCHEM_IUPAC_INCHIKEY>
PCNVUASXUGOEPG-UHFFFAOYSA-N
> <PUBCHEM_XLOGP3>
3.1
> <PUBCHEM_EXACT_MASS>
348.183778013
> <PUBCHEM_MOLECULAR_FORMULA>
C22H24N2O2
> <PUBCHEM_MOLECULAR_WEIGHT>
348.4
> <PUBCHEM_OPENEYE_CAN_SMILES>
CC(=O)OC1CC2=CC=CC=C2C(=C3CCN(CC3)C)C4=C1C=CC=N4
> <PUBCHEM_OPENEYE_ISO_SMILES>
CC(=O)OC1CC2=CC=CC=C2C(=C3CCN(CC3)C)C4=C1C=CC=N4
> <PUBCHEM_CACTVS_TPSA>
42.4
> <PUBCHEM_MONOISOTOPIC_WEIGHT>
348.183778013
> <PUBCHEM_TOTAL_CHARGE>
0
> <PUBCHEM_HEAVY_ATOM_COUNT>
26
> <PUBCHEM_ATOM_DEF_STEREO_COUNT>
0
> <PUBCHEM_ATOM_UDEF_STEREO_COUNT>
1
> <PUBCHEM_BOND_DEF_STEREO_COUNT>
0
> <PUBCHEM_BOND_UDEF_STEREO_COUNT>
0
> <PUBCHEM_ISOTOPIC_ATOM_COUNT>
0
> <PUBCHEM_COMPONENT_COUNT>
1
> <PUBCHEM_CACTVS_TAUTO_COUNT>
-1
> <PUBCHEM_COORDINATE_TYPE>
1
5
255
> <PUBCHEM_BONDANNOTATIONS>
12  1  3
11  15  8
11  18  8
13  16  8
15  19  8
16  20  8
18  21  8
19  22  8
20  23  8
21  22  8
23  24  8
4  13  8
4  24  8
$$$$
