524063
  -OEChem-10302200292D
 33 34  0     1  0  0  0  0  0999 V2000
    2.9230    2.8184    0.0000 O   0  0  0  0  0  0  0  0  0  0  0  0
    4.5981    0.7306    0.0000 O   0  0  0  0  0  0  0  0  0  0  0  0
    2.0000    1.2306    0.0000 O   0  0  0  0  0  0  0  0  0  0  0  0
    2.8660   -3.2694    0.0000 N   0  0  0  0  0  0  0  0  0  0  0  0
    3.7320    1.2306    0.0000 C   0  0  3  0  0  0  0  0  0  0  0  0
    2.8660   -0.2694    0.0000 C   0  0  0  0  0  0  0  0  0  0  0  0
    2.8660   -2.2694    0.0000 C   0  0  0  0  0  0  0  0  0  0  0  0
    2.8660    0.7306    0.0000 C   0  0  0  0  0  0  0  0  0  0  0  0
    3.7320    2.2306    0.0000 C   0  0  0  0  0  0  0  0  0  0  0  0
    3.7320   -0.7694    0.0000 C   0  0  0  0  0  0  0  0  0  0  0  0
    2.0000   -0.7694    0.0000 C   0  0  0  0  0  0  0  0  0  0  0  0
    3.7320   -1.7694    0.0000 C   0  0  0  0  0  0  0  0  0  0  0  0
    2.0000   -1.7694    0.0000 C   0  0  0  0  0  0  0  0  0  0  0  0
    4.5411    2.8184    0.0000 C   0  0  0  0  0  0  0  0  0  0  0  0
    2.0000   -3.7694    0.0000 C   0  0  0  0  0  0  0  0  0  0  0  0
    3.7320   -3.7694    0.0000 C   0  0  0  0  0  0  0  0  0  0  0  0
    4.2320    3.7694    0.0000 C   0  0  0  0  0  0  0  0  0  0  0  0
    3.2320    3.7694    0.0000 C   0  0  0  0  0  0  0  0  0  0  0  0
    3.7320    0.6106    0.0000 H   0  0  0  0  0  0  0  0  0  0  0  0
    4.2690   -0.4594    0.0000 H   0  0  0  0  0  0  0  0  0  0  0  0
    1.4631   -0.4594    0.0000 H   0  0  0  0  0  0  0  0  0  0  0  0
    4.2690   -2.0794    0.0000 H   0  0  0  0  0  0  0  0  0  0  0  0
    1.4631   -2.0794    0.0000 H   0  0  0  0  0  0  0  0  0  0  0  0
    5.1307    2.6268    0.0000 H   0  0  0  0  0  0  0  0  0  0  0  0
    1.6900   -3.2325    0.0000 H   0  0  0  0  0  0  0  0  0  0  0  0
    1.4631   -4.0794    0.0000 H   0  0  0  0  0  0  0  0  0  0  0  0
    2.3100   -4.3064    0.0000 H   0  0  0  0  0  0  0  0  0  0  0  0
    3.4220   -4.3064    0.0000 H   0  0  0  0  0  0  0  0  0  0  0  0
    4.2690   -4.0794    0.0000 H   0  0  0  0  0  0  0  0  0  0  0  0
    4.0420   -3.2325    0.0000 H   0  0  0  0  0  0  0  0  0  0  0  0
    4.5965    4.2710    0.0000 H   0  0  0  0  0  0  0  0  0  0  0  0
    5.1350    1.0406    0.0000 H   0  0  0  0  0  0  0  0  0  0  0  0
    2.8676    4.2710    0.0000 H   0  0  0  0  0  0  0  0  0  0  0  0
  1  9  1  0  0  0  0
  1 18  1  0  0  0  0
  2  5  1  0  0  0  0
  2 32  1  0  0  0  0
  3  8  2  0  0  0  0
  4  7  1  0  0  0  0
  4 15  1  0  0  0  0
  4 16  1  0  0  0  0
  5  8  1  0  0  0  0
  5  9  1  0  0  0  0
  5 19  1  0  0  0  0
  6  8  1  0  0  0  0
  6 10  2  0  0  0  0
  6 11  1  0  0  0  0
  7 12  2  0  0  0  0
  7 13  1  0  0  0  0
  9 14  2  0  0  0  0
 10 12  1  0  0  0  0
 10 20  1  0  0  0  0
 11 13  2  0  0  0  0
 11 21  1  0  0  0  0
 12 22  1  0  0  0  0
 13 23  1  0  0  0  0
 14 17  1  0  0  0  0
 14 24  1  0  0  0  0
 15 25  1  0  0  0  0
 15 26  1  0  0  0  0
 15 27  1  0  0  0  0
 16 28  1  0  0  0  0
 16 29  1  0  0  0  0
 16 30  1  0  0  0  0
 17 18  2  0  0  0  0
 17 31  1  0  0  0  0
 18 33  1  0  0  0  0
M  END
> <PUBCHEM_COMPOUND_CID>
524063
> <PUBCHEM_COMPOUND_CANONICALIZED>
1
> <PUBCHEM_CACTVS_COMPLEXITY>
285
> <PUBCHEM_CACTVS_HBOND_ACCEPTOR>
4
> <PUBCHEM_CACTVS_HBOND_DONOR>
1
> <PUBCHEM_CACTVS_ROTATABLE_BOND>
4
> <PUBCHEM_CACTVS_SUBSKEYS>
AAADccByMAAAAAAAAAAAAAAAAAAAASAAAAAwAAAAAAAAAAABwAAAHgAACAAADByhmAYyxIMABkCIAqxSwAKCCAAlIgAIiAFObMgNNjbMtZuGeSjk4BFL+YeY7eTeCAAAAAAAAAAQAAAAAAAAAAAAAAAAAA==
> <PUBCHEM_IUPAC_OPENEYE_NAME>
1-[4-(dimethylamino)phenyl]-2-(2-furyl)-2-hydroxy-ethanone
> <PUBCHEM_IUPAC_CAS_NAME>
1-[4-(dimethylamino)phenyl]-2-(2-furanyl)-2-hydroxyethanone
> <PUBCHEM_IUPAC_NAME_MARKUP>
1-[4-(dimethylamino)phenyl]-2-(furan-2-yl)-2-hydroxyethanone
> <PUBCHEM_IUPAC_NAME>
1-[4-(dimethylamino)phenyl]-2-(furan-2-yl)-2-hydroxyethanone
> <PUBCHEM_IUPAC_SYSTEMATIC_NAME>
1-[4-(dimethylamino)phenyl]-2-(furan-2-yl)-2-oxidanyl-ethanone
> <PUBCHEM_IUPAC_TRADITIONAL_NAME>
1-[4-(dimethylamino)phenyl]-2-(2-furyl)-2-hydroxy-ethanone
> <PUBCHEM_IUPAC_INCHI>
InChI=1S/C14H15NO3/c1-15(2)11-7-5-10(6-8-11)13(16)14(17)12-4-3-9-18-12/h3-9,14,17H,1-2H3
> <PUBCHEM_IUPAC_INCHIKEY>
PBVNGLICPDQGAQ-UHFFFAOYSA-N
> <PUBCHEM_XLOGP3_AA>
1.9
> <PUBCHEM_EXACT_MASS>
245.10519334
> <PUBCHEM_MOLECULAR_FORMULA>
C14H15NO3
> <PUBCHEM_MOLECULAR_WEIGHT>
245.27
> <PUBCHEM_OPENEYE_CAN_SMILES>
CN(C)C1=CC=C(C=C1)C(=O)C(C2=CC=CO2)O
> <PUBCHEM_OPENEYE_ISO_SMILES>
CN(C)C1=CC=C(C=C1)C(=O)C(C2=CC=CO2)O
> <PUBCHEM_CACTVS_TPSA>
53.7
> <PUBCHEM_MONOISOTOPIC_WEIGHT>
245.10519334
> <PUBCHEM_TOTAL_CHARGE>
0
> <PUBCHEM_HEAVY_ATOM_COUNT>
18
> <PUBCHEM_ATOM_DEF_STEREO_COUNT>
0
> <PUBCHEM_ATOM_UDEF_STEREO_COUNT>
1
> <PUBCHEM_BOND_DEF_STEREO_COUNT>
0
> <PUBCHEM_BOND_UDEF_STEREO_COUNT>
0
> <PUBCHEM_ISOTOPIC_ATOM_COUNT>
0
> <PUBCHEM_COMPONENT_COUNT>
1
> <PUBCHEM_CACTVS_TAUTO_COUNT>
-1
> <PUBCHEM_COORDINATE_TYPE>
1
5
255
> <PUBCHEM_BONDANNOTATIONS>
1  18  8
1  9  8
10  12  8
11  13  8
14  17  8
17  18  8
5  2  3
6  10  8
6  11  8
7  12  8
7  13  8
9  14  8
$$$$
