524028
  -OEChem-10302200292D
 63 65  0     1  0  0  0  0  0999 V2000
    2.8680    0.7549    0.0000 O   0  0  0  0  0  0  0  0  0  0  0  0
    2.0000   -0.7967    0.0000 O   0  0  0  0  0  0  0  0  0  0  0  0
    7.2762    3.3000    0.0000 O   0  0  0  0  0  0  0  0  0  0  0  0
    9.0501    2.2759    0.0000 O   0  0  0  0  0  0  0  0  0  0  0  0
    3.7398    2.2516    0.0000 O   0  0  0  0  0  0  0  0  0  0  0  0
    9.9103    0.7726    0.0000 O   0  0  0  0  0  0  0  0  0  0  0  0
    5.5320   -0.7692    0.0000 N   0  0  3  0  0  0  0  0  0  0  0  0
    2.8718   -2.2934    0.0000 N   0  0  0  0  0  0  0  0  0  0  0  0
    5.5320    0.2308    0.0000 C   0  0  3  0  0  0  0  0  0  0  0  0
    3.7320   -0.7900    0.0000 C   0  0  3  0  0  0  0  0  0  0  0  0
    4.6381    0.7654    0.0000 C   0  0  0  0  0  0  0  0  0  0  0  0
    3.7320    0.2516    0.0000 C   0  0  3  0  0  0  0  0  0  0  0  0
    4.6381   -1.3039    0.0000 C   0  0  0  0  0  0  0  0  0  0  0  0
    6.3981   -1.2692    0.0000 C   0  0  0  0  0  0  0  0  0  0  0  0
    6.3981    0.7308    0.0000 C   0  0  0  0  0  0  0  0  0  0  0  0
    7.2641   -0.7692    0.0000 C   0  0  0  0  0  0  0  0  0  0  0  0
    7.2641    0.2308    0.0000 C   0  0  0  0  0  0  0  0  0  0  0  0
    2.8680   -1.2934    0.0000 C   0  0  0  0  0  0  0  0  0  0  0  0
    6.3820    1.7723    0.0000 C   0  0  0  0  0  0  0  0  0  0  0  0
    8.1741    0.7376    0.0000 C   0  0  0  0  0  0  0  0  0  0  0  0
    7.2800    2.3000    0.0000 C   0  0  0  0  0  0  0  0  0  0  0  0
    8.1821    1.7792    0.0000 C   0  0  0  0  0  0  0  0  0  0  0  0
    2.0077   -2.7967    0.0000 C   0  0  0  0  0  0  0  0  0  0  0  0
    3.7398   -2.7900    0.0000 C   0  0  0  0  0  0  0  0  0  0  0  0
    2.8718    1.7549    0.0000 C   0  0  0  0  0  0  0  0  0  0  0  0
    2.0116   -3.7967    0.0000 C   0  0  0  0  0  0  0  0  0  0  0  0
    3.7436   -3.7900    0.0000 C   0  0  0  0  0  0  0  0  0  0  0  0
    2.0077    2.2583    0.0000 C   0  0  0  0  0  0  0  0  0  0  0  0
    6.4082    3.7967    0.0000 C   0  0  0  0  0  0  0  0  0  0  0  0
    9.9142    1.7726    0.0000 C   0  0  0  0  0  0  0  0  0  0  0  0
   10.7821    2.2692    0.0000 C   0  0  0  0  0  0  0  0  0  0  0  0
    5.5368    0.8508    0.0000 H   0  0  0  0  0  0  0  0  0  0  0  0
    3.7356   -1.4100    0.0000 H   0  0  0  0  0  0  0  0  0  0  0  0
    5.0427    1.2352    0.0000 H   0  0  0  0  0  0  0  0  0  0  0  0
    4.2445    1.2445    0.0000 H   0  0  0  0  0  0  0  0  0  0  0  0
    3.7356    0.8716    0.0000 H   0  0  0  0  0  0  0  0  0  0  0  0
    4.2445   -1.7829    0.0000 H   0  0  0  0  0  0  0  0  0  0  0  0
    5.0427   -1.7737    0.0000 H   0  0  0  0  0  0  0  0  0  0  0  0
    5.9995   -1.7442    0.0000 H   0  0  0  0  0  0  0  0  0  0  0  0
    6.7966   -1.7442    0.0000 H   0  0  0  0  0  0  0  0  0  0  0  0
    7.4762   -1.3518    0.0000 H   0  0  0  0  0  0  0  0  0  0  0  0
    7.8747   -0.6616    0.0000 H   0  0  0  0  0  0  0  0  0  0  0  0
    5.8415    2.0761    0.0000 H   0  0  0  0  0  0  0  0  0  0  0  0
    8.7074    0.4214    0.0000 H   0  0  0  0  0  0  0  0  0  0  0  0
    1.7934   -2.2149    0.0000 H   0  0  0  0  0  0  0  0  0  0  0  0
    1.3976   -2.9067    0.0000 H   0  0  0  0  0  0  0  0  0  0  0  0
    4.3507   -2.8953    0.0000 H   0  0  0  0  0  0  0  0  0  0  0  0
    3.9496   -2.2066    0.0000 H   0  0  0  0  0  0  0  0  0  0  0  0
    1.3916   -3.7991    0.0000 H   0  0  0  0  0  0  0  0  0  0  0  0
    2.0140   -4.4167    0.0000 H   0  0  0  0  0  0  0  0  0  0  0  0
    2.6316   -3.7943    0.0000 H   0  0  0  0  0  0  0  0  0  0  0  0
    3.1236   -3.7924    0.0000 H   0  0  0  0  0  0  0  0  0  0  0  0
    3.7460   -4.4100    0.0000 H   0  0  0  0  0  0  0  0  0  0  0  0
    4.3636   -3.7876    0.0000 H   0  0  0  0  0  0  0  0  0  0  0  0
    2.3198    2.7940    0.0000 H   0  0  0  0  0  0  0  0  0  0  0  0
    1.4720    2.5703    0.0000 H   0  0  0  0  0  0  0  0  0  0  0  0
    1.6956    1.7225    0.0000 H   0  0  0  0  0  0  0  0  0  0  0  0
    6.7162    4.3348    0.0000 H   0  0  0  0  0  0  0  0  0  0  0  0
    5.8701    4.1046    0.0000 H   0  0  0  0  0  0  0  0  0  0  0  0
    6.1003    3.2586    0.0000 H   0  0  0  0  0  0  0  0  0  0  0  0
   11.0900    1.7311    0.0000 H   0  0  0  0  0  0  0  0  0  0  0  0
   11.3202    2.5771    0.0000 H   0  0  0  0  0  0  0  0  0  0  0  0
   10.4742    2.8073    0.0000 H   0  0  0  0  0  0  0  0  0  0  0  0
  1 12  1  0  0  0  0
  1 25  1  0  0  0  0
  2 18  2  0  0  0  0
  3 21  1  0  0  0  0
  3 29  1  0  0  0  0
  4 22  1  0  0  0  0
  4 30  1  0  0  0  0
  5 25  2  0  0  0  0
  6 30  2  0  0  0  0
  7  9  1  0  0  0  0
  7 13  1  0  0  0  0
  7 14  1  0  0  0  0
  8 18  1  0  0  0  0
  8 23  1  0  0  0  0
  8 24  1  0  0  0  0
  9 11  1  0  0  0  0
  9 15  1  0  0  0  0
  9 32  1  0  0  0  0
 10 12  1  0  0  0  0
 10 13  1  0  0  0  0
 10 18  1  0  0  0  0
 10 33  1  0  0  0  0
 11 12  1  0  0  0  0
 11 34  1  0  0  0  0
 11 35  1  0  0  0  0
 12 36  1  0  0  0  0
 13 37  1  0  0  0  0
 13 38  1  0  0  0  0
 14 16  1  0  0  0  0
 14 39  1  0  0  0  0
 14 40  1  0  0  0  0
 15 17  1  0  0  0  0
 15 19  2  0  0  0  0
 16 17  1  0  0  0  0
 16 41  1  0  0  0  0
 16 42  1  0  0  0  0
 17 20  2  0  0  0  0
 19 21  1  0  0  0  0
 19 43  1  0  0  0  0
 20 22  1  0  0  0  0
 20 44  1  0  0  0  0
 21 22  2  0  0  0  0
 23 26  1  0  0  0  0
 23 45  1  0  0  0  0
 23 46  1  0  0  0  0
 24 27  1  0  0  0  0
 24 47  1  0  0  0  0
 24 48  1  0  0  0  0
 25 28  1  0  0  0  0
 26 49  1  0  0  0  0
 26 50  1  0  0  0  0
 26 51  1  0  0  0  0
 27 52  1  0  0  0  0
 27 53  1  0  0  0  0
 27 54  1  0  0  0  0
 28 55  1  0  0  0  0
 28 56  1  0  0  0  0
 28 57  1  0  0  0  0
 29 58  1  0  0  0  0
 29 59  1  0  0  0  0
 29 60  1  0  0  0  0
 30 31  1  0  0  0  0
 31 61  1  0  0  0  0
 31 62  1  0  0  0  0
 31 63  1  0  0  0  0
M  END
> <PUBCHEM_COMPOUND_CID>
524028
> <PUBCHEM_COMPOUND_CANONICALIZED>
1
> <PUBCHEM_CACTVS_COMPLEXITY>
667
> <PUBCHEM_CACTVS_HBOND_ACCEPTOR>
7
> <PUBCHEM_CACTVS_HBOND_DONOR>
0
> <PUBCHEM_CACTVS_ROTATABLE_BOND>
8
> <PUBCHEM_CACTVS_SUBSKEYS>
AAADcfB7OAAAAAAAAAAAAAAAAAAAAAAAAAA8WIAAAAAAAACxAAAAHgAAAAAADTzhmAYyDoMABACIAiHSGACCCAAgIAAAiAEOjIgNJj6E8RuGOirm5hGKqAe42fOeoAABAAAQQABAAAIAACCAAAAAAAAAAA==
> <PUBCHEM_IUPAC_OPENEYE_NAME>
[9-acetoxy-3-(diethylcarbamoyl)-10-methoxy-2,3,4,6,7,11b-hexahydro-1H-benzo[a]quinolizin-2-yl] acetate
> <PUBCHEM_IUPAC_CAS_NAME>
acetic acid [9-acetyloxy-3-[diethylamino(oxo)methyl]-10-methoxy-2,3,4,6,7,11b-hexahydro-1H-benzo[a]quinolizin-2-yl] ester
> <PUBCHEM_IUPAC_NAME_MARKUP>
[9-acetyloxy-3-(diethylcarbamoyl)-10-methoxy-2,3,4,6,7,11<I>b</I>-hexahydro-1<I>H</I>-benzo[a]quinolizin-2-yl] acetate
> <PUBCHEM_IUPAC_NAME>
[9-acetyloxy-3-(diethylcarbamoyl)-10-methoxy-2,3,4,6,7,11b-hexahydro-1H-benzo[a]quinolizin-2-yl] acetate
> <PUBCHEM_IUPAC_SYSTEMATIC_NAME>
[9-acetyloxy-3-(diethylcarbamoyl)-10-methoxy-2,3,4,6,7,11b-hexahydro-1H-benzo[a]quinolizin-2-yl] ethanoate
> <PUBCHEM_IUPAC_TRADITIONAL_NAME>
acetic acid [9-acetoxy-3-(diethylcarbamoyl)-10-methoxy-2,3,4,6,7,11b-hexahydro-1H-benzo[a]quinolizin-2-yl] ester
> <PUBCHEM_IUPAC_INCHI>
InChI=1S/C23H32N2O6/c1-6-24(7-2)23(28)18-13-25-9-8-16-10-22(31-15(4)27)21(29-5)11-17(16)19(25)12-20(18)30-14(3)26/h10-11,18-20H,6-9,12-13H2,1-5H3
> <PUBCHEM_IUPAC_INCHIKEY>
WQUOYBGLIUNALZ-UHFFFAOYSA-N
> <PUBCHEM_XLOGP3_AA>
1.8
> <PUBCHEM_EXACT_MASS>
432.22603674
> <PUBCHEM_MOLECULAR_FORMULA>
C23H32N2O6
> <PUBCHEM_MOLECULAR_WEIGHT>
432.5
> <PUBCHEM_OPENEYE_CAN_SMILES>
CCN(CC)C(=O)C1CN2CCC3=CC(=C(C=C3C2CC1OC(=O)C)OC)OC(=O)C
> <PUBCHEM_OPENEYE_ISO_SMILES>
CCN(CC)C(=O)C1CN2CCC3=CC(=C(C=C3C2CC1OC(=O)C)OC)OC(=O)C
> <PUBCHEM_CACTVS_TPSA>
85.4
> <PUBCHEM_MONOISOTOPIC_WEIGHT>
432.22603674
> <PUBCHEM_TOTAL_CHARGE>
0
> <PUBCHEM_HEAVY_ATOM_COUNT>
31
> <PUBCHEM_ATOM_DEF_STEREO_COUNT>
0
> <PUBCHEM_ATOM_UDEF_STEREO_COUNT>
3
> <PUBCHEM_BOND_DEF_STEREO_COUNT>
0
> <PUBCHEM_BOND_UDEF_STEREO_COUNT>
0
> <PUBCHEM_ISOTOPIC_ATOM_COUNT>
0
> <PUBCHEM_COMPONENT_COUNT>
1
> <PUBCHEM_CACTVS_TAUTO_COUNT>
-1
> <PUBCHEM_COORDINATE_TYPE>
1
5
255
> <PUBCHEM_BONDANNOTATIONS>
12  1  3
10  18  3
15  17  8
15  19  8
17  20  8
19  21  8
20  22  8
21  22  8
9  11  3
$$$$
