524005
  -OEChem-10302200292D
 32 32  0     1  0  0  0  0  0999 V2000
    4.7690    2.1830    0.0000 O   0  0  0  0  0  0  0  0  0  0  0  0
    2.5369   -0.6830    0.0000 O   0  0  0  0  0  0  0  0  0  0  0  0
    4.2690   -0.6830    0.0000 C   0  0  3  0  0  0  0  0  0  0  0  0
    4.2690    1.3170    0.0000 C   0  0  3  0  0  0  0  0  0  0  0  0
    3.4030   -0.1830    0.0000 C   0  0  3  0  0  0  0  0  0  0  0  0
    5.1350   -0.1830    0.0000 C   0  0  0  0  0  0  0  0  0  0  0  0
    3.4030    0.8170    0.0000 C   0  0  0  0  0  0  0  0  0  0  0  0
    5.1350    0.8170    0.0000 C   0  0  0  0  0  0  0  0  0  0  0  0
    4.2690   -1.6830    0.0000 C   0  0  0  0  0  0  0  0  0  0  0  0
    3.7690    2.1830    0.0000 C   0  0  0  0  0  0  0  0  0  0  0  0
    5.1350   -2.1830    0.0000 C   0  0  0  0  0  0  0  0  0  0  0  0
    3.4030   -2.1830    0.0000 C   0  0  0  0  0  0  0  0  0  0  0  0
    4.8059   -0.9930    0.0000 H   0  0  0  0  0  0  0  0  0  0  0  0
    3.4030   -0.8030    0.0000 H   0  0  0  0  0  0  0  0  0  0  0  0
    5.3471   -0.7656    0.0000 H   0  0  0  0  0  0  0  0  0  0  0  0
    5.7456   -0.0754    0.0000 H   0  0  0  0  0  0  0  0  0  0  0  0
    3.1909    1.3996    0.0000 H   0  0  0  0  0  0  0  0  0  0  0  0
    2.7924    0.7093    0.0000 H   0  0  0  0  0  0  0  0  0  0  0  0
    5.7456    0.7093    0.0000 H   0  0  0  0  0  0  0  0  0  0  0  0
    5.3471    1.3996    0.0000 H   0  0  0  0  0  0  0  0  0  0  0  0
    4.2690   -2.3030    0.0000 H   0  0  0  0  0  0  0  0  0  0  0  0
    4.3059    2.4930    0.0000 H   0  0  0  0  0  0  0  0  0  0  0  0
    3.4590    2.7200    0.0000 H   0  0  0  0  0  0  0  0  0  0  0  0
    3.2320    1.8730    0.0000 H   0  0  0  0  0  0  0  0  0  0  0  0
    4.8250   -2.7200    0.0000 H   0  0  0  0  0  0  0  0  0  0  0  0
    5.6720   -2.4930    0.0000 H   0  0  0  0  0  0  0  0  0  0  0  0
    5.4450   -1.6461    0.0000 H   0  0  0  0  0  0  0  0  0  0  0  0
    3.0930   -1.6461    0.0000 H   0  0  0  0  0  0  0  0  0  0  0  0
    2.8660   -2.4930    0.0000 H   0  0  0  0  0  0  0  0  0  0  0  0
    3.7130   -2.7200    0.0000 H   0  0  0  0  0  0  0  0  0  0  0  0
    5.3890    2.1830    0.0000 H   0  0  0  0  0  0  0  0  0  0  0  0
    2.0000   -0.3730    0.0000 H   0  0  0  0  0  0  0  0  0  0  0  0
  1  4  1  0  0  0  0
  1 31  1  0  0  0  0
  2  5  1  0  0  0  0
  2 32  1  0  0  0  0
  3  5  1  0  0  0  0
  3  6  1  0  0  0  0
  3  9  1  0  0  0  0
  3 13  1  0  0  0  0
  4  7  1  0  0  0  0
  4  8  1  0  0  0  0
  4 10  1  0  0  0  0
  5  7  1  0  0  0  0
  5 14  1  0  0  0  0
  6  8  1  0  0  0  0
  6 15  1  0  0  0  0
  6 16  1  0  0  0  0
  7 17  1  0  0  0  0
  7 18  1  0  0  0  0
  8 19  1  0  0  0  0
  8 20  1  0  0  0  0
  9 11  1  0  0  0  0
  9 12  1  0  0  0  0
  9 21  1  0  0  0  0
 10 22  1  0  0  0  0
 10 23  1  0  0  0  0
 10 24  1  0  0  0  0
 11 25  1  0  0  0  0
 11 26  1  0  0  0  0
 11 27  1  0  0  0  0
 12 28  1  0  0  0  0
 12 29  1  0  0  0  0
 12 30  1  0  0  0  0
M  END
> <PUBCHEM_COMPOUND_CID>
524005
> <PUBCHEM_COMPOUND_CANONICALIZED>
1
> <PUBCHEM_CACTVS_COMPLEXITY>
156
> <PUBCHEM_CACTVS_HBOND_ACCEPTOR>
2
> <PUBCHEM_CACTVS_HBOND_DONOR>
2
> <PUBCHEM_CACTVS_ROTATABLE_BOND>
1
> <PUBCHEM_CACTVS_SUBSKEYS>
AAADceBwMAAAAAAAAAAAAAAAAAAAAAAAAAAwAAAAAAAAAAAAAAAAGgAACAAADVSggAICAAAAAgAAAAAAAAAAAAAAAAAAAAAAAAAAEAIAAAAAQAAFAAAAAAGA4PQOgAAAAAAAAADAAAIQABAAAAAAAAAAAA==
> <PUBCHEM_IUPAC_OPENEYE_NAME>
4-isopropyl-1-methyl-cyclohexane-1,3-diol
> <PUBCHEM_IUPAC_CAS_NAME>
1-methyl-4-propan-2-ylcyclohexane-1,3-diol
> <PUBCHEM_IUPAC_NAME_MARKUP>
1-methyl-4-propan-2-ylcyclohexane-1,3-diol
> <PUBCHEM_IUPAC_NAME>
1-methyl-4-propan-2-ylcyclohexane-1,3-diol
> <PUBCHEM_IUPAC_SYSTEMATIC_NAME>
1-methyl-4-propan-2-yl-cyclohexane-1,3-diol
> <PUBCHEM_IUPAC_TRADITIONAL_NAME>
4-isopropyl-1-methyl-cyclohexane-1,3-diol
> <PUBCHEM_IUPAC_INCHI>
InChI=1S/C10H20O2/c1-7(2)8-4-5-10(3,12)6-9(8)11/h7-9,11-12H,4-6H2,1-3H3
> <PUBCHEM_IUPAC_INCHIKEY>
IIZCEIWXLSJQFP-UHFFFAOYSA-N
> <PUBCHEM_XLOGP3_AA>
1.6
> <PUBCHEM_EXACT_MASS>
172.146329876
> <PUBCHEM_MOLECULAR_FORMULA>
C10H20O2
> <PUBCHEM_MOLECULAR_WEIGHT>
172.26
> <PUBCHEM_OPENEYE_CAN_SMILES>
CC(C)C1CCC(CC1O)(C)O
> <PUBCHEM_OPENEYE_ISO_SMILES>
CC(C)C1CCC(CC1O)(C)O
> <PUBCHEM_CACTVS_TPSA>
40.5
> <PUBCHEM_MONOISOTOPIC_WEIGHT>
172.146329876
> <PUBCHEM_TOTAL_CHARGE>
0
> <PUBCHEM_HEAVY_ATOM_COUNT>
12
> <PUBCHEM_ATOM_DEF_STEREO_COUNT>
0
> <PUBCHEM_ATOM_UDEF_STEREO_COUNT>
3
> <PUBCHEM_BOND_DEF_STEREO_COUNT>
0
> <PUBCHEM_BOND_UDEF_STEREO_COUNT>
0
> <PUBCHEM_ISOTOPIC_ATOM_COUNT>
0
> <PUBCHEM_COMPONENT_COUNT>
1
> <PUBCHEM_CACTVS_TAUTO_COUNT>
-1
> <PUBCHEM_COORDINATE_TYPE>
1
5
255
> <PUBCHEM_BONDANNOTATIONS>
4  1  3
5  2  3
3  9  3
$$$$
