524070
  -OEChem-10302200292D
 33 35  0     1  0  0  0  0  0999 V2000
    2.9230    2.0684    0.0000 O   0  0  0  0  0  0  0  0  0  0  0  0
    5.5686    1.4751    0.0000 O   0  0  0  0  0  0  0  0  0  0  0  0
    4.5981   -1.0194    0.0000 O   0  0  0  0  0  0  0  0  0  0  0  0
    2.8660   -0.0194    0.0000 N   0  0  0  0  0  0  0  0  0  0  0  0
    3.7320    0.4806    0.0000 C   0  0  3  0  0  0  0  0  0  0  0  0
    3.7320    1.4806    0.0000 C   0  0  0  0  0  0  0  0  0  0  0  0
    4.5981   -0.0194    0.0000 C   0  0  0  0  0  0  0  0  0  0  0  0
    2.8660   -1.0194    0.0000 C   0  0  0  0  0  0  0  0  0  0  0  0
    5.4641    0.4806    0.0000 C   0  0  0  0  0  0  0  0  0  0  0  0
    4.5411    2.0684    0.0000 C   0  0  0  0  0  0  0  0  0  0  0  0
    2.0000   -1.5194    0.0000 C   0  0  0  0  0  0  0  0  0  0  0  0
    3.7320   -1.5194    0.0000 C   0  0  0  0  0  0  0  0  0  0  0  0
    4.2320    3.0194    0.0000 C   0  0  0  0  0  0  0  0  0  0  0  0
    6.3776    0.0738    0.0000 C   0  0  0  0  0  0  0  0  0  0  0  0
    3.2320    3.0194    0.0000 C   0  0  0  0  0  0  0  0  0  0  0  0
    2.0000   -2.5194    0.0000 C   0  0  0  0  0  0  0  0  0  0  0  0
    3.7320   -2.5194    0.0000 C   0  0  0  0  0  0  0  0  0  0  0  0
    7.0468    0.8170    0.0000 C   0  0  0  0  0  0  0  0  0  0  0  0
    2.8660   -3.0194    0.0000 C   0  0  0  0  0  0  0  0  0  0  0  0
    6.5468    1.6830    0.0000 C   0  0  0  0  0  0  0  0  0  0  0  0
    3.7320   -0.1394    0.0000 H   0  0  0  0  0  0  0  0  0  0  0  0
    2.3291    0.2906    0.0000 H   0  0  0  0  0  0  0  0  0  0  0  0
    5.1307    1.8768    0.0000 H   0  0  0  0  0  0  0  0  0  0  0  0
    1.4631   -1.2094    0.0000 H   0  0  0  0  0  0  0  0  0  0  0  0
    4.2690   -1.2094    0.0000 H   0  0  0  0  0  0  0  0  0  0  0  0
    4.5965    3.5210    0.0000 H   0  0  0  0  0  0  0  0  0  0  0  0
    6.5066   -0.5326    0.0000 H   0  0  0  0  0  0  0  0  0  0  0  0
    2.8676    3.5210    0.0000 H   0  0  0  0  0  0  0  0  0  0  0  0
    1.4631   -2.8294    0.0000 H   0  0  0  0  0  0  0  0  0  0  0  0
    4.2690   -2.8294    0.0000 H   0  0  0  0  0  0  0  0  0  0  0  0
    7.6634    0.7522    0.0000 H   0  0  0  0  0  0  0  0  0  0  0  0
    2.8660   -3.6394    0.0000 H   0  0  0  0  0  0  0  0  0  0  0  0
    6.7990    2.2494    0.0000 H   0  0  0  0  0  0  0  0  0  0  0  0
  1  6  1  0  0  0  0
  1 15  1  0  0  0  0
  2  9  1  0  0  0  0
  2 20  1  0  0  0  0
  3  7  2  0  0  0  0
  4  5  1  0  0  0  0
  4  8  1  0  0  0  0
  4 22  1  0  0  0  0
  5  6  1  0  0  0  0
  5  7  1  0  0  0  0
  5 21  1  0  0  0  0
  6 10  2  0  0  0  0
  7  9  1  0  0  0  0
  8 11  2  0  0  0  0
  8 12  1  0  0  0  0
  9 14  2  0  0  0  0
 10 13  1  0  0  0  0
 10 23  1  0  0  0  0
 11 16  1  0  0  0  0
 11 24  1  0  0  0  0
 12 17  2  0  0  0  0
 12 25  1  0  0  0  0
 13 15  2  0  0  0  0
 13 26  1  0  0  0  0
 14 18  1  0  0  0  0
 14 27  1  0  0  0  0
 15 28  1  0  0  0  0
 16 19  2  0  0  0  0
 16 29  1  0  0  0  0
 17 19  1  0  0  0  0
 17 30  1  0  0  0  0
 18 20  2  0  0  0  0
 18 31  1  0  0  0  0
 19 32  1  0  0  0  0
 20 33  1  0  0  0  0
M  END
> <PUBCHEM_COMPOUND_CID>
524070
> <PUBCHEM_COMPOUND_CANONICALIZED>
1
> <PUBCHEM_CACTVS_COMPLEXITY>
328
> <PUBCHEM_CACTVS_HBOND_ACCEPTOR>
4
> <PUBCHEM_CACTVS_HBOND_DONOR>
1
> <PUBCHEM_CACTVS_ROTATABLE_BOND>
5
> <PUBCHEM_CACTVS_SUBSKEYS>
AAADccB6MAAAAAAAAAAAAAAAAAAAASJAAAAwAAAAAAAAAAAB8AAAHgAQAAAACCzhkAYwxILABECIAKxSwAKCCAAlIgAIiIHObMgOJj7Mtb+HOSjm8BHY6Yfb36OwAAAAAAAAAAAAAAAAAAAAAAAAAAAAAA==
> <PUBCHEM_IUPAC_OPENEYE_NAME>
2-anilino-1,2-bis(2-furyl)ethanone
> <PUBCHEM_IUPAC_CAS_NAME>
2-anilino-1,2-bis(2-furanyl)ethanone
> <PUBCHEM_IUPAC_NAME_MARKUP>
2-anilino-1,2-bis(furan-2-yl)ethanone
> <PUBCHEM_IUPAC_NAME>
2-anilino-1,2-bis(furan-2-yl)ethanone
> <PUBCHEM_IUPAC_SYSTEMATIC_NAME>
1,2-bis(furan-2-yl)-2-phenylazanyl-ethanone
> <PUBCHEM_IUPAC_TRADITIONAL_NAME>
2-anilino-1,2-bis(2-furyl)ethanone
> <PUBCHEM_IUPAC_INCHI>
InChI=1S/C16H13NO3/c18-16(14-9-5-11-20-14)15(13-8-4-10-19-13)17-12-6-2-1-3-7-12/h1-11,15,17H
> <PUBCHEM_IUPAC_INCHIKEY>
ZOIWPXRLLGGGKK-UHFFFAOYSA-N
> <PUBCHEM_XLOGP3>
2.9
> <PUBCHEM_EXACT_MASS>
267.08954328
> <PUBCHEM_MOLECULAR_FORMULA>
C16H13NO3
> <PUBCHEM_MOLECULAR_WEIGHT>
267.28
> <PUBCHEM_OPENEYE_CAN_SMILES>
C1=CC=C(C=C1)NC(C2=CC=CO2)C(=O)C3=CC=CO3
> <PUBCHEM_OPENEYE_ISO_SMILES>
C1=CC=C(C=C1)NC(C2=CC=CO2)C(=O)C3=CC=CO3
> <PUBCHEM_CACTVS_TPSA>
55.4
> <PUBCHEM_MONOISOTOPIC_WEIGHT>
267.08954328
> <PUBCHEM_TOTAL_CHARGE>
0
> <PUBCHEM_HEAVY_ATOM_COUNT>
20
> <PUBCHEM_ATOM_DEF_STEREO_COUNT>
0
> <PUBCHEM_ATOM_UDEF_STEREO_COUNT>
1
> <PUBCHEM_BOND_DEF_STEREO_COUNT>
0
> <PUBCHEM_BOND_UDEF_STEREO_COUNT>
0
> <PUBCHEM_ISOTOPIC_ATOM_COUNT>
0
> <PUBCHEM_COMPONENT_COUNT>
1
> <PUBCHEM_CACTVS_TAUTO_COUNT>
-1
> <PUBCHEM_COORDINATE_TYPE>
1
5
255
> <PUBCHEM_BONDANNOTATIONS>
1  15  8
1  6  8
10  13  8
11  16  8
12  17  8
13  15  8
14  18  8
16  19  8
17  19  8
18  20  8
2  20  8
2  9  8
5  7  3
6  10  8
8  11  8
8  12  8
9  14  8
$$$$
