524016
  -OEChem-10302200292D
 30 31  0     1  0  0  0  0  0999 V2000
    4.6660   -0.7073    0.0000 N   0  0  0  0  0  0  0  0  0  0  0  0
    3.8000    0.7927    0.0000 C   0  0  3  0  0  0  0  0  0  0  0  0
    3.8000   -0.2073    0.0000 C   0  0  3  0  0  0  0  0  0  0  0  0
    4.6660    1.2927    0.0000 C   0  0  0  0  0  0  0  0  0  0  0  0
    2.9061    1.3273    0.0000 C   0  0  0  0  0  0  0  0  0  0  0  0
    2.9061   -0.7420    0.0000 C   0  0  0  0  0  0  0  0  0  0  0  0
    5.5321   -0.2073    0.0000 C   0  0  3  0  0  0  0  0  0  0  0  0
    5.5321    0.7927    0.0000 C   0  0  0  0  0  0  0  0  0  0  0  0
    2.0000    0.8135    0.0000 C   0  0  0  0  0  0  0  0  0  0  0  0
    2.0000   -0.2281    0.0000 C   0  0  0  0  0  0  0  0  0  0  0  0
    6.3981   -0.7073    0.0000 C   0  0  0  0  0  0  0  0  0  0  0  0
    3.8048    1.4126    0.0000 H   0  0  0  0  0  0  0  0  0  0  0  0
    3.8048   -0.8273    0.0000 H   0  0  0  0  0  0  0  0  0  0  0  0
    5.0646    1.7676    0.0000 H   0  0  0  0  0  0  0  0  0  0  0  0
    4.2675    1.7676    0.0000 H   0  0  0  0  0  0  0  0  0  0  0  0
    3.3107    1.7971    0.0000 H   0  0  0  0  0  0  0  0  0  0  0  0
    2.5124    1.8064    0.0000 H   0  0  0  0  0  0  0  0  0  0  0  0
    2.5124   -1.2210    0.0000 H   0  0  0  0  0  0  0  0  0  0  0  0
    3.3107   -1.2118    0.0000 H   0  0  0  0  0  0  0  0  0  0  0  0
    5.5321   -0.8273    0.0000 H   0  0  0  0  0  0  0  0  0  0  0  0
    6.1426    0.6850    0.0000 H   0  0  0  0  0  0  0  0  0  0  0  0
    5.7441    1.3753    0.0000 H   0  0  0  0  0  0  0  0  0  0  0  0
    4.6660   -1.3273    0.0000 H   0  0  0  0  0  0  0  0  0  0  0  0
    1.7909    1.3972    0.0000 H   0  0  0  0  0  0  0  0  0  0  0  0
    1.3891    0.7074    0.0000 H   0  0  0  0  0  0  0  0  0  0  0  0
    1.3891   -0.1221    0.0000 H   0  0  0  0  0  0  0  0  0  0  0  0
    1.7909   -0.8118    0.0000 H   0  0  0  0  0  0  0  0  0  0  0  0
    6.0881   -1.2443    0.0000 H   0  0  0  0  0  0  0  0  0  0  0  0
    6.9350   -1.0173    0.0000 H   0  0  0  0  0  0  0  0  0  0  0  0
    6.7081   -0.1704    0.0000 H   0  0  0  0  0  0  0  0  0  0  0  0
  1  3  1  0  0  0  0
  1  7  1  0  0  0  0
  1 23  1  0  0  0  0
  2  3  1  0  0  0  0
  2  4  1  0  0  0  0
  2  5  1  0  0  0  0
  2 12  1  0  0  0  0
  3  6  1  0  0  0  0
  3 13  1  0  0  0  0
  4  8  1  0  0  0  0
  4 14  1  0  0  0  0
  4 15  1  0  0  0  0
  5  9  1  0  0  0  0
  5 16  1  0  0  0  0
  5 17  1  0  0  0  0
  6 10  1  0  0  0  0
  6 18  1  0  0  0  0
  6 19  1  0  0  0  0
  7  8  1  0  0  0  0
  7 11  1  0  0  0  0
  7 20  1  0  0  0  0
  8 21  1  0  0  0  0
  8 22  1  0  0  0  0
  9 10  1  0  0  0  0
  9 24  1  0  0  0  0
  9 25  1  0  0  0  0
 10 26  1  0  0  0  0
 10 27  1  0  0  0  0
 11 28  1  0  0  0  0
 11 29  1  0  0  0  0
 11 30  1  0  0  0  0
M  END
> <PUBCHEM_COMPOUND_CID>
524016
> <PUBCHEM_COMPOUND_CANONICALIZED>
1
> <PUBCHEM_CACTVS_COMPLEXITY>
133
> <PUBCHEM_CACTVS_HBOND_ACCEPTOR>
1
> <PUBCHEM_CACTVS_HBOND_DONOR>
1
> <PUBCHEM_CACTVS_ROTATABLE_BOND>
0
> <PUBCHEM_CACTVS_SUBSKEYS>
AAADceByAAAAAAAAAAAAAAAAAAAAAAAAAAA8QAAAAAAAAACwAAAAHAAQAAAADSjBAAQCAALAAAAAAAAAAAAAAAAAAAAAAIAIAAAAAAIAgAAEAAAAEACAAAEQgIAOAAAAAAAAAAAAAAAAAAQAAAAAAAAAAA==
> <PUBCHEM_IUPAC_OPENEYE_NAME>
2-methyl-1,2,3,4,4a,5,6,7,8,8a-decahydroquinoline
> <PUBCHEM_IUPAC_CAS_NAME>
2-methyl-1,2,3,4,4a,5,6,7,8,8a-decahydroquinoline
> <PUBCHEM_IUPAC_NAME_MARKUP>
2-methyl-1,2,3,4,4<I>a</I>,5,6,7,8,8<I>a</I>-decahydroquinoline
> <PUBCHEM_IUPAC_NAME>
2-methyl-1,2,3,4,4a,5,6,7,8,8a-decahydroquinoline
> <PUBCHEM_IUPAC_SYSTEMATIC_NAME>
2-methyl-1,2,3,4,4a,5,6,7,8,8a-decahydroquinoline
> <PUBCHEM_IUPAC_TRADITIONAL_NAME>
2-methyl-1,2,3,4,4a,5,6,7,8,8a-decahydroquinoline
> <PUBCHEM_IUPAC_INCHI>
InChI=1S/C10H19N/c1-8-6-7-9-4-2-3-5-10(9)11-8/h8-11H,2-7H2,1H3
> <PUBCHEM_IUPAC_INCHIKEY>
FJRLSRUBXMUSOC-UHFFFAOYSA-N
> <PUBCHEM_XLOGP3_AA>
2.4
> <PUBCHEM_EXACT_MASS>
153.151749610
> <PUBCHEM_MOLECULAR_FORMULA>
C10H19N
> <PUBCHEM_MOLECULAR_WEIGHT>
153.26
> <PUBCHEM_OPENEYE_CAN_SMILES>
CC1CCC2CCCCC2N1
> <PUBCHEM_OPENEYE_ISO_SMILES>
CC1CCC2CCCCC2N1
> <PUBCHEM_CACTVS_TPSA>
12
> <PUBCHEM_MONOISOTOPIC_WEIGHT>
153.151749610
> <PUBCHEM_TOTAL_CHARGE>
0
> <PUBCHEM_HEAVY_ATOM_COUNT>
11
> <PUBCHEM_ATOM_DEF_STEREO_COUNT>
0
> <PUBCHEM_ATOM_UDEF_STEREO_COUNT>
3
> <PUBCHEM_BOND_DEF_STEREO_COUNT>
0
> <PUBCHEM_BOND_UDEF_STEREO_COUNT>
0
> <PUBCHEM_ISOTOPIC_ATOM_COUNT>
0
> <PUBCHEM_COMPONENT_COUNT>
1
> <PUBCHEM_CACTVS_TAUTO_COUNT>
-1
> <PUBCHEM_COORDINATE_TYPE>
1
5
255
> <PUBCHEM_BONDANNOTATIONS>
2  5  3
3  6  3
7  11  3
$$$$
