524066
  -OEChem-10302200292D
 39 41  0     1  0  0  0  0  0999 V2000
    2.9230    2.5684    0.0000 O   0  0  0  0  0  0  0  0  0  0  0  0
    4.5981   -0.5194    0.0000 O   0  0  0  0  0  0  0  0  0  0  0  0
    2.8660    0.4806    0.0000 N   0  0  0  0  0  0  0  0  0  0  0  0
    3.7320    0.9806    0.0000 C   0  0  3  0  0  0  0  0  0  0  0  0
    3.7320    1.9806    0.0000 C   0  0  0  0  0  0  0  0  0  0  0  0
    4.5981    0.4806    0.0000 C   0  0  0  0  0  0  0  0  0  0  0  0
    2.8660   -0.5194    0.0000 C   0  0  0  0  0  0  0  0  0  0  0  0
    5.4641    0.9806    0.0000 C   0  0  0  0  0  0  0  0  0  0  0  0
    4.5411    2.5684    0.0000 C   0  0  0  0  0  0  0  0  0  0  0  0
    3.7320   -1.0194    0.0000 C   0  0  0  0  0  0  0  0  0  0  0  0
    2.0000   -1.0194    0.0000 C   0  0  0  0  0  0  0  0  0  0  0  0
    2.8660   -2.5194    0.0000 C   0  0  0  0  0  0  0  0  0  0  0  0
    3.7320   -2.0194    0.0000 C   0  0  0  0  0  0  0  0  0  0  0  0
    2.0000   -2.0194    0.0000 C   0  0  0  0  0  0  0  0  0  0  0  0
    5.4641    1.9806    0.0000 C   0  0  0  0  0  0  0  0  0  0  0  0
    6.3301    0.4806    0.0000 C   0  0  0  0  0  0  0  0  0  0  0  0
    4.2320    3.5194    0.0000 C   0  0  0  0  0  0  0  0  0  0  0  0
    3.2320    3.5194    0.0000 C   0  0  0  0  0  0  0  0  0  0  0  0
    6.3301    2.4806    0.0000 C   0  0  0  0  0  0  0  0  0  0  0  0
    7.1962    0.9806    0.0000 C   0  0  0  0  0  0  0  0  0  0  0  0
    2.8660   -3.5194    0.0000 C   0  0  0  0  0  0  0  0  0  0  0  0
    7.1962    1.9806    0.0000 C   0  0  0  0  0  0  0  0  0  0  0  0
    3.7320    0.3606    0.0000 H   0  0  0  0  0  0  0  0  0  0  0  0
    2.3291    0.7906    0.0000 H   0  0  0  0  0  0  0  0  0  0  0  0
    5.1307    2.3768    0.0000 H   0  0  0  0  0  0  0  0  0  0  0  0
    4.2690   -0.7094    0.0000 H   0  0  0  0  0  0  0  0  0  0  0  0
    1.4631   -0.7094    0.0000 H   0  0  0  0  0  0  0  0  0  0  0  0
    4.2690   -2.3294    0.0000 H   0  0  0  0  0  0  0  0  0  0  0  0
    1.4631   -2.3294    0.0000 H   0  0  0  0  0  0  0  0  0  0  0  0
    4.9272    2.2906    0.0000 H   0  0  0  0  0  0  0  0  0  0  0  0
    6.3301   -0.1394    0.0000 H   0  0  0  0  0  0  0  0  0  0  0  0
    4.5965    4.0210    0.0000 H   0  0  0  0  0  0  0  0  0  0  0  0
    2.8676    4.0210    0.0000 H   0  0  0  0  0  0  0  0  0  0  0  0
    6.3301    3.1006    0.0000 H   0  0  0  0  0  0  0  0  0  0  0  0
    7.7331    0.6706    0.0000 H   0  0  0  0  0  0  0  0  0  0  0  0
    2.2460   -3.5194    0.0000 H   0  0  0  0  0  0  0  0  0  0  0  0
    2.8660   -4.1394    0.0000 H   0  0  0  0  0  0  0  0  0  0  0  0
    3.4860   -3.5194    0.0000 H   0  0  0  0  0  0  0  0  0  0  0  0
    7.7331    2.2906    0.0000 H   0  0  0  0  0  0  0  0  0  0  0  0
  1  5  1  0  0  0  0
  1 18  1  0  0  0  0
  2  6  2  0  0  0  0
  3  4  1  0  0  0  0
  3  7  1  0  0  0  0
  3 24  1  0  0  0  0
  4  5  1  0  0  0  0
  4  6  1  0  0  0  0
  4 23  1  0  0  0  0
  5  9  2  0  0  0  0
  6  8  1  0  0  0  0
  7 10  2  0  0  0  0
  7 11  1  0  0  0  0
  8 15  2  0  0  0  0
  8 16  1  0  0  0  0
  9 17  1  0  0  0  0
  9 25  1  0  0  0  0
 10 13  1  0  0  0  0
 10 26  1  0  0  0  0
 11 14  2  0  0  0  0
 11 27  1  0  0  0  0
 12 13  2  0  0  0  0
 12 14  1  0  0  0  0
 12 21  1  0  0  0  0
 13 28  1  0  0  0  0
 14 29  1  0  0  0  0
 15 19  1  0  0  0  0
 15 30  1  0  0  0  0
 16 20  2  0  0  0  0
 16 31  1  0  0  0  0
 17 18  2  0  0  0  0
 17 32  1  0  0  0  0
 18 33  1  0  0  0  0
 19 22  2  0  0  0  0
 19 34  1  0  0  0  0
 20 22  1  0  0  0  0
 20 35  1  0  0  0  0
 21 36  1  0  0  0  0
 21 37  1  0  0  0  0
 21 38  1  0  0  0  0
 22 39  1  0  0  0  0
M  END
> <PUBCHEM_COMPOUND_CID>
524066
> <PUBCHEM_COMPOUND_CANONICALIZED>
1
> <PUBCHEM_CACTVS_COMPLEXITY>
356
> <PUBCHEM_CACTVS_HBOND_ACCEPTOR>
3
> <PUBCHEM_CACTVS_HBOND_DONOR>
1
> <PUBCHEM_CACTVS_ROTATABLE_BOND>
5
> <PUBCHEM_CACTVS_SUBSKEYS>
AAADceB6MAAAAAAAAAAAAAAAAAAAASAAAAAwYAAAAAAAAAAB0AAAHgAQAAAADCzhmAYyxILABECIAqxSwACCCAAlIgAIiIGObMgOJjbMtbuHOSjk8BHY6YeY2eOeCAAAAAAAAAAQAAAAAAAAAAAAAAAAAA==
> <PUBCHEM_IUPAC_OPENEYE_NAME>
2-(2-furyl)-2-(4-methylanilino)-1-phenyl-ethanone
> <PUBCHEM_IUPAC_CAS_NAME>
2-(2-furanyl)-2-(4-methylanilino)-1-phenylethanone
> <PUBCHEM_IUPAC_NAME_MARKUP>
2-(furan-2-yl)-2-(4-methylanilino)-1-phenylethanone
> <PUBCHEM_IUPAC_NAME>
2-(furan-2-yl)-2-(4-methylanilino)-1-phenylethanone
> <PUBCHEM_IUPAC_SYSTEMATIC_NAME>
2-(furan-2-yl)-2-[(4-methylphenyl)amino]-1-phenyl-ethanone
> <PUBCHEM_IUPAC_TRADITIONAL_NAME>
2-(2-furyl)-1-phenyl-2-(p-toluidino)ethanone
> <PUBCHEM_IUPAC_INCHI>
InChI=1S/C19H17NO2/c1-14-9-11-16(12-10-14)20-18(17-8-5-13-22-17)19(21)15-6-3-2-4-7-15/h2-13,18,20H,1H3
> <PUBCHEM_IUPAC_INCHIKEY>
ARCXFPWIBBPBTC-UHFFFAOYSA-N
> <PUBCHEM_XLOGP3_AA>
4.5
> <PUBCHEM_EXACT_MASS>
291.125928785
> <PUBCHEM_MOLECULAR_FORMULA>
C19H17NO2
> <PUBCHEM_MOLECULAR_WEIGHT>
291.3
> <PUBCHEM_OPENEYE_CAN_SMILES>
CC1=CC=C(C=C1)NC(C2=CC=CO2)C(=O)C3=CC=CC=C3
> <PUBCHEM_OPENEYE_ISO_SMILES>
CC1=CC=C(C=C1)NC(C2=CC=CO2)C(=O)C3=CC=CC=C3
> <PUBCHEM_CACTVS_TPSA>
42.2
> <PUBCHEM_MONOISOTOPIC_WEIGHT>
291.125928785
> <PUBCHEM_TOTAL_CHARGE>
0
> <PUBCHEM_HEAVY_ATOM_COUNT>
22
> <PUBCHEM_ATOM_DEF_STEREO_COUNT>
0
> <PUBCHEM_ATOM_UDEF_STEREO_COUNT>
1
> <PUBCHEM_BOND_DEF_STEREO_COUNT>
0
> <PUBCHEM_BOND_UDEF_STEREO_COUNT>
0
> <PUBCHEM_ISOTOPIC_ATOM_COUNT>
0
> <PUBCHEM_COMPONENT_COUNT>
1
> <PUBCHEM_CACTVS_TAUTO_COUNT>
-1
> <PUBCHEM_COORDINATE_TYPE>
1
5
255
> <PUBCHEM_BONDANNOTATIONS>
1  18  8
1  5  8
10  13  8
11  14  8
12  13  8
12  14  8
15  19  8
16  20  8
17  18  8
19  22  8
20  22  8
4  6  3
5  9  8
7  10  8
7  11  8
8  15  8
8  16  8
9  17  8
$$$$
