524131
  -OEChem-10302200292D
 39 40  0     1  0  0  0  0  0999 V2000
    5.6650    2.0995    0.0000 O   0  0  0  0  0  0  0  0  0  0  0  0
    2.9611   -2.0995    0.0000 O   0  0  0  0  0  0  0  0  0  0  0  0
    5.6648    1.0990    0.0000 C   0  0  3  0  0  0  0  0  0  0  0  0
    4.7988    1.5990    0.0000 C   0  0  3  0  0  0  0  0  0  0  0  0
    3.9327    1.0990    0.0000 C   0  0  0  0  0  0  0  0  0  0  0  0
    5.6648    0.0991    0.0000 C   0  0  0  0  0  0  0  0  0  0  0  0
    2.9327    1.0990    0.0000 C   0  0  0  0  0  0  0  0  0  0  0  0
    6.5308    0.5991    0.0000 C   0  0  0  0  0  0  0  0  0  0  0  0
    5.7896   -0.8492    0.0000 C   0  0  0  0  0  0  0  0  0  0  0  0
    2.0000    1.4596    0.0000 C   0  0  0  0  0  0  0  0  0  0  0  0
    2.8258    2.0933    0.0000 C   0  0  0  0  0  0  0  0  0  0  0  0
    2.2256    0.3919    0.0000 C   0  0  0  0  0  0  0  0  0  0  0  0
    4.9236   -1.3492    0.0000 C   0  0  0  0  0  0  0  0  0  0  0  0
    2.2256   -0.6081    0.0000 C   0  0  0  0  0  0  0  0  0  0  0  0
    4.0576   -0.8492    0.0000 C   0  0  0  0  0  0  0  0  0  0  0  0
    3.0916   -1.1080    0.0000 C   0  0  0  0  0  0  0  0  0  0  0  0
    4.1881    0.1422    0.0000 C   0  0  0  0  0  0  0  0  0  0  0  0
    4.4887    2.1359    0.0000 H   0  0  0  0  0  0  0  0  0  0  0  0
    3.7207    0.5164    0.0000 H   0  0  0  0  0  0  0  0  0  0  0  0
    3.7723    1.6979    0.0000 H   0  0  0  0  0  0  0  0  0  0  0  0
    5.1148    0.3853    0.0000 H   0  0  0  0  0  0  0  0  0  0  0  0
    6.2834    0.1396    0.0000 H   0  0  0  0  0  0  0  0  0  0  0  0
    6.2208    0.0621    0.0000 H   0  0  0  0  0  0  0  0  0  0  0  0
    7.0677    0.2891    0.0000 H   0  0  0  0  0  0  0  0  0  0  0  0
    6.8408    1.1360    0.0000 H   0  0  0  0  0  0  0  0  0  0  0  0
    6.0269   -1.4220    0.0000 H   0  0  0  0  0  0  0  0  0  0  0  0
    6.3885   -0.6888    0.0000 H   0  0  0  0  0  0  0  0  0  0  0  0
    2.2236    2.0379    0.0000 H   0  0  0  0  0  0  0  0  0  0  0  0
    1.4217    1.6832    0.0000 H   0  0  0  0  0  0  0  0  0  0  0  0
    1.7764    0.8814    0.0000 H   0  0  0  0  0  0  0  0  0  0  0  0
    3.4423    2.1596    0.0000 H   0  0  0  0  0  0  0  0  0  0  0  0
    2.7596    2.7098    0.0000 H   0  0  0  0  0  0  0  0  0  0  0  0
    2.2094    2.0270    0.0000 H   0  0  0  0  0  0  0  0  0  0  0  0
    1.6528    0.6292    0.0000 H   0  0  0  0  0  0  0  0  0  0  0  0
    4.9236   -1.9692    0.0000 H   0  0  0  0  0  0  0  0  0  0  0  0
    1.6887   -0.9181    0.0000 H   0  0  0  0  0  0  0  0  0  0  0  0
    4.8028    0.0613    0.0000 H   0  0  0  0  0  0  0  0  0  0  0  0
    4.2690    0.7569    0.0000 H   0  0  0  0  0  0  0  0  0  0  0  0
    3.5734    0.2231    0.0000 H   0  0  0  0  0  0  0  0  0  0  0  0
  1  3  1  0  0  0  0
  1  4  1  0  0  0  0
  2 16  2  0  0  0  0
  3  4  1  0  0  0  0
  3  6  1  0  0  0  0
  3  8  1  0  0  0  0
  4  5  1  0  0  0  0
  4 18  1  0  0  0  0
  5  7  1  0  0  0  0
  5 19  1  0  0  0  0
  5 20  1  0  0  0  0
  6  9  1  0  0  0  0
  6 21  1  0  0  0  0
  6 22  1  0  0  0  0
  7 10  1  0  0  0  0
  7 11  1  0  0  0  0
  7 12  1  0  0  0  0
  8 23  1  0  0  0  0
  8 24  1  0  0  0  0
  8 25  1  0  0  0  0
  9 13  1  0  0  0  0
  9 26  1  0  0  0  0
  9 27  1  0  0  0  0
 10 28  1  0  0  0  0
 10 29  1  0  0  0  0
 10 30  1  0  0  0  0
 11 31  1  0  0  0  0
 11 32  1  0  0  0  0
 11 33  1  0  0  0  0
 12 14  2  3  0  0  0
 12 34  1  0  0  0  0
 13 15  2  3  0  0  0
 13 35  1  0  0  0  0
 14 16  1  0  0  0  0
 14 36  1  0  0  0  0
 15 16  1  0  0  0  0
 15 17  1  0  0  0  0
 17 37  1  0  0  0  0
 17 38  1  0  0  0  0
 17 39  1  0  0  0  0
M  END
> <PUBCHEM_COMPOUND_CID>
524131
> <PUBCHEM_COMPOUND_CANONICALIZED>
1
> <PUBCHEM_CACTVS_COMPLEXITY>
390
> <PUBCHEM_CACTVS_HBOND_ACCEPTOR>
2
> <PUBCHEM_CACTVS_HBOND_DONOR>
0
> <PUBCHEM_CACTVS_ROTATABLE_BOND>
0
> <PUBCHEM_CACTVS_SUBSKEYS>
AAADceBwMAAAAAAAAAAAAAAAEgAAAAAAAAAAAAAAAAAAAAAAAAAAGgAAAAAADlSggAICAAAABACIAqBSAAAAAAAgAAAICAEAAEgAAAIAAQACAAAEgAAIAYOAgMAPAAAAAAAAAAAAAAAAAAAAAAAAAAAAAA==
> <PUBCHEM_IUPAC_OPENEYE_NAME>
1,5,9,9-tetramethyl-12-oxabicyclo[9.1.0]dodeca-4,7-dien-6-one
> <PUBCHEM_IUPAC_CAS_NAME>
1,5,9,9-tetramethyl-12-oxabicyclo[9.1.0]dodeca-4,7-dien-6-one
> <PUBCHEM_IUPAC_NAME_MARKUP>
1,5,9,9-tetramethyl-12-oxabicyclo[9.1.0]dodeca-4,7-dien-6-one
> <PUBCHEM_IUPAC_NAME>
1,5,9,9-tetramethyl-12-oxabicyclo[9.1.0]dodeca-4,7-dien-6-one
> <PUBCHEM_IUPAC_SYSTEMATIC_NAME>
1,5,9,9-tetramethyl-12-oxabicyclo[9.1.0]dodeca-4,7-dien-6-one
> <PUBCHEM_IUPAC_TRADITIONAL_NAME>
1,5,9,9-tetramethyl-12-oxabicyclo[9.1.0]dodeca-4,7-dien-6-one
> <PUBCHEM_IUPAC_INCHI>
InChI=1S/C15H22O2/c1-11-6-5-8-15(4)13(17-15)10-14(2,3)9-7-12(11)16/h6-7,9,13H,5,8,10H2,1-4H3
> <PUBCHEM_IUPAC_INCHIKEY>
UXYYOHOTPOQJPD-UHFFFAOYSA-N
> <PUBCHEM_XLOGP3_AA>
3.3
> <PUBCHEM_EXACT_MASS>
234.161979940
> <PUBCHEM_MOLECULAR_FORMULA>
C15H22O2
> <PUBCHEM_MOLECULAR_WEIGHT>
234.33
> <PUBCHEM_OPENEYE_CAN_SMILES>
CC1=CCCC2(C(O2)CC(C=CC1=O)(C)C)C
> <PUBCHEM_OPENEYE_ISO_SMILES>
CC1=CCCC2(C(O2)CC(C=CC1=O)(C)C)C
> <PUBCHEM_CACTVS_TPSA>
29.6
> <PUBCHEM_MONOISOTOPIC_WEIGHT>
234.161979940
> <PUBCHEM_TOTAL_CHARGE>
0
> <PUBCHEM_HEAVY_ATOM_COUNT>
17
> <PUBCHEM_ATOM_DEF_STEREO_COUNT>
0
> <PUBCHEM_ATOM_UDEF_STEREO_COUNT>
2
> <PUBCHEM_BOND_DEF_STEREO_COUNT>
0
> <PUBCHEM_BOND_UDEF_STEREO_COUNT>
2
> <PUBCHEM_ISOTOPIC_ATOM_COUNT>
0
> <PUBCHEM_COMPONENT_COUNT>
1
> <PUBCHEM_CACTVS_TAUTO_COUNT>
-1
> <PUBCHEM_COORDINATE_TYPE>
1
5
255
> <PUBCHEM_BONDANNOTATIONS>
12  14  1
13  15  1
3  8  3
4  5  3
$$$$
