524149
  -OEChem-10302200292D
 22 23  0     1  0  0  0  0  0999 V2000
    3.3660    2.4330    0.0000 Cl  0  0  0  0  0  0  0  0  0  0  0  0
    5.0981    2.4330    0.0000 Cl  0  0  0  0  0  0  0  0  0  0  0  0
    3.7320    1.0670    0.0000 C   0  0  3  0  0  0  0  0  0  0  0  0
    4.2320    1.9330    0.0000 C   0  0  0  0  0  0  0  0  0  0  0  0
    4.7320    1.0670    0.0000 C   0  0  0  0  0  0  0  0  0  0  0  0
    2.8660    0.5670    0.0000 C   0  0  0  0  0  0  0  0  0  0  0  0
    2.8660   -0.4330    0.0000 C   0  0  0  0  0  0  0  0  0  0  0  0
    2.0000   -0.9330    0.0000 C   0  0  0  0  0  0  0  0  0  0  0  0
    3.7320   -0.9330    0.0000 C   0  0  0  0  0  0  0  0  0  0  0  0
    2.0000   -1.9330    0.0000 C   0  0  0  0  0  0  0  0  0  0  0  0
    3.7320   -1.9330    0.0000 C   0  0  0  0  0  0  0  0  0  0  0  0
    2.8660   -2.4330    0.0000 C   0  0  0  0  0  0  0  0  0  0  0  0
    3.8925    0.4681    0.0000 H   0  0  0  0  0  0  0  0  0  0  0  0
    4.8397    0.4564    0.0000 H   0  0  0  0  0  0  0  0  0  0  0  0
    5.3147    1.2790    0.0000 H   0  0  0  0  0  0  0  0  0  0  0  0
    2.6540    1.1496    0.0000 H   0  0  0  0  0  0  0  0  0  0  0  0
    2.2554    0.4593    0.0000 H   0  0  0  0  0  0  0  0  0  0  0  0
    1.4631   -0.6230    0.0000 H   0  0  0  0  0  0  0  0  0  0  0  0
    4.2690   -0.6230    0.0000 H   0  0  0  0  0  0  0  0  0  0  0  0
    1.4631   -2.2430    0.0000 H   0  0  0  0  0  0  0  0  0  0  0  0
    4.2690   -2.2430    0.0000 H   0  0  0  0  0  0  0  0  0  0  0  0
    2.8660   -3.0530    0.0000 H   0  0  0  0  0  0  0  0  0  0  0  0
  1  4  1  0  0  0  0
  2  4  1  0  0  0  0
  3  4  1  0  0  0  0
  3  5  1  0  0  0  0
  3  6  1  0  0  0  0
  3 13  1  0  0  0  0
  4  5  1  0  0  0  0
  5 14  1  0  0  0  0
  5 15  1  0  0  0  0
  6  7  1  0  0  0  0
  6 16  1  0  0  0  0
  6 17  1  0  0  0  0
  7  8  2  0  0  0  0
  7  9  1  0  0  0  0
  8 10  1  0  0  0  0
  8 18  1  0  0  0  0
  9 11  2  0  0  0  0
  9 19  1  0  0  0  0
 10 12  2  0  0  0  0
 10 20  1  0  0  0  0
 11 12  1  0  0  0  0
 11 21  1  0  0  0  0
 12 22  1  0  0  0  0
M  END
> <PUBCHEM_COMPOUND_CID>
524149
> <PUBCHEM_COMPOUND_CANONICALIZED>
1
> <PUBCHEM_CACTVS_COMPLEXITY>
159
> <PUBCHEM_CACTVS_HBOND_ACCEPTOR>
0
> <PUBCHEM_CACTVS_HBOND_DONOR>
0
> <PUBCHEM_CACTVS_ROTATABLE_BOND>
2
> <PUBCHEM_CACTVS_SUBSKEYS>
AAADccBwAAAGAAAAAAAAAAAAGAAAAAAAAAAwAAAAAAAAAAABAAAAGAIAAAAADQKAGIAwAIAAAACAAiBCAAACAAAgAAAIiAAAAogIICKBERCAIAAggAAIiAcAgMAOAAAAAAAAAAAAAAAAAAAAAAAAAAAAAA==
> <PUBCHEM_IUPAC_OPENEYE_NAME>
(2,2-dichlorocyclopropyl)methylbenzene
> <PUBCHEM_IUPAC_CAS_NAME>
(2,2-dichlorocyclopropyl)methylbenzene
> <PUBCHEM_IUPAC_NAME_MARKUP>
(2,2-dichlorocyclopropyl)methylbenzene
> <PUBCHEM_IUPAC_NAME>
(2,2-dichlorocyclopropyl)methylbenzene
> <PUBCHEM_IUPAC_SYSTEMATIC_NAME>
[2,2-bis(chloranyl)cyclopropyl]methylbenzene
> <PUBCHEM_IUPAC_TRADITIONAL_NAME>
(2,2-dichlorocyclopropyl)methylbenzene
> <PUBCHEM_IUPAC_INCHI>
InChI=1S/C10H10Cl2/c11-10(12)7-9(10)6-8-4-2-1-3-5-8/h1-5,9H,6-7H2
> <PUBCHEM_IUPAC_INCHIKEY>
DGWQDTVVILBZOP-UHFFFAOYSA-N
> <PUBCHEM_XLOGP3_AA>
3.7
> <PUBCHEM_EXACT_MASS>
200.0159557
> <PUBCHEM_MOLECULAR_FORMULA>
C10H10Cl2
> <PUBCHEM_MOLECULAR_WEIGHT>
201.09
> <PUBCHEM_OPENEYE_CAN_SMILES>
C1C(C1(Cl)Cl)CC2=CC=CC=C2
> <PUBCHEM_OPENEYE_ISO_SMILES>
C1C(C1(Cl)Cl)CC2=CC=CC=C2
> <PUBCHEM_CACTVS_TPSA>
0
> <PUBCHEM_MONOISOTOPIC_WEIGHT>
200.0159557
> <PUBCHEM_TOTAL_CHARGE>
0
> <PUBCHEM_HEAVY_ATOM_COUNT>
12
> <PUBCHEM_ATOM_DEF_STEREO_COUNT>
0
> <PUBCHEM_ATOM_UDEF_STEREO_COUNT>
1
> <PUBCHEM_BOND_DEF_STEREO_COUNT>
0
> <PUBCHEM_BOND_UDEF_STEREO_COUNT>
0
> <PUBCHEM_ISOTOPIC_ATOM_COUNT>
0
> <PUBCHEM_COMPONENT_COUNT>
1
> <PUBCHEM_CACTVS_TAUTO_COUNT>
-1
> <PUBCHEM_COORDINATE_TYPE>
1
5
255
> <PUBCHEM_BONDANNOTATIONS>
10  12  8
11  12  8
3  6  3
7  8  8
7  9  8
8  10  8
9  11  8
$$$$
