524144
  -OEChem-10302200292D
 25 26  0     1  0  0  0  0  0999 V2000
    2.0000    0.9330    0.0000 Cl  0  0  0  0  0  0  0  0  0  0  0  0
    2.8660    2.4330    0.0000 Cl  0  0  0  0  0  0  0  0  0  0  0  0
    3.8660    1.4330    0.0000 C   0  0  3  0  0  0  0  0  0  0  0  0
    3.3660    0.5670    0.0000 C   0  0  3  0  0  0  0  0  0  0  0  0
    2.8660    1.4330    0.0000 C   0  0  0  0  0  0  0  0  0  0  0  0
    4.7320    1.9330    0.0000 C   0  0  0  0  0  0  0  0  0  0  0  0
    3.3660   -0.4330    0.0000 C   0  0  0  0  0  0  0  0  0  0  0  0
    5.5981    1.4330    0.0000 C   0  0  0  0  0  0  0  0  0  0  0  0
    2.5000   -0.9330    0.0000 C   0  0  0  0  0  0  0  0  0  0  0  0
    4.2320   -0.9330    0.0000 C   0  0  0  0  0  0  0  0  0  0  0  0
    2.5000   -1.9330    0.0000 C   0  0  0  0  0  0  0  0  0  0  0  0
    4.2320   -1.9330    0.0000 C   0  0  0  0  0  0  0  0  0  0  0  0
    3.3660   -2.4330    0.0000 C   0  0  0  0  0  0  0  0  0  0  0  0
    3.7056    2.0319    0.0000 H   0  0  0  0  0  0  0  0  0  0  0  0
    3.9649    0.4065    0.0000 H   0  0  0  0  0  0  0  0  0  0  0  0
    5.1306    2.4080    0.0000 H   0  0  0  0  0  0  0  0  0  0  0  0
    4.3335    2.4080    0.0000 H   0  0  0  0  0  0  0  0  0  0  0  0
    5.2881    0.8961    0.0000 H   0  0  0  0  0  0  0  0  0  0  0  0
    6.1350    1.1230    0.0000 H   0  0  0  0  0  0  0  0  0  0  0  0
    5.9081    1.9700    0.0000 H   0  0  0  0  0  0  0  0  0  0  0  0
    1.9631   -0.6230    0.0000 H   0  0  0  0  0  0  0  0  0  0  0  0
    4.7690   -0.6230    0.0000 H   0  0  0  0  0  0  0  0  0  0  0  0
    1.9631   -2.2430    0.0000 H   0  0  0  0  0  0  0  0  0  0  0  0
    4.7690   -2.2430    0.0000 H   0  0  0  0  0  0  0  0  0  0  0  0
    3.3660   -3.0530    0.0000 H   0  0  0  0  0  0  0  0  0  0  0  0
  1  5  1  0  0  0  0
  2  5  1  0  0  0  0
  3  4  1  0  0  0  0
  3  5  1  0  0  0  0
  3  6  1  0  0  0  0
  3 14  1  0  0  0  0
  4  5  1  0  0  0  0
  4  7  1  0  0  0  0
  4 15  1  0  0  0  0
  6  8  1  0  0  0  0
  6 16  1  0  0  0  0
  6 17  1  0  0  0  0
  7  9  2  0  0  0  0
  7 10  1  0  0  0  0
  8 18  1  0  0  0  0
  8 19  1  0  0  0  0
  8 20  1  0  0  0  0
  9 11  1  0  0  0  0
  9 21  1  0  0  0  0
 10 12  2  0  0  0  0
 10 22  1  0  0  0  0
 11 13  2  0  0  0  0
 11 23  1  0  0  0  0
 12 13  1  0  0  0  0
 12 24  1  0  0  0  0
 13 25  1  0  0  0  0
M  END
> <PUBCHEM_COMPOUND_CID>
524144
> <PUBCHEM_COMPOUND_CANONICALIZED>
1
> <PUBCHEM_CACTVS_COMPLEXITY>
183
> <PUBCHEM_CACTVS_HBOND_ACCEPTOR>
0
> <PUBCHEM_CACTVS_HBOND_DONOR>
0
> <PUBCHEM_CACTVS_ROTATABLE_BOND>
2
> <PUBCHEM_CACTVS_SUBSKEYS>
AAADccBwAAAGAAAAAAAAAAAAGAAAAAAAAAAwAAAAAAAAAAABAAAAGAIAAAAADQKAGIAyAIAAAACAAiBCAAACAAAgAAAIiAAAAogIICKBERCAIAAggAAIiAcAgMAOgAAAAAAAAAAAAAAAAAAAAAAAAAAAAA==
> <PUBCHEM_IUPAC_OPENEYE_NAME>
(2,2-dichloro-3-ethyl-cyclopropyl)benzene
> <PUBCHEM_IUPAC_CAS_NAME>
(2,2-dichloro-3-ethylcyclopropyl)benzene
> <PUBCHEM_IUPAC_NAME_MARKUP>
(2,2-dichloro-3-ethylcyclopropyl)benzene
> <PUBCHEM_IUPAC_NAME>
(2,2-dichloro-3-ethylcyclopropyl)benzene
> <PUBCHEM_IUPAC_SYSTEMATIC_NAME>
[2,2-bis(chloranyl)-3-ethyl-cyclopropyl]benzene
> <PUBCHEM_IUPAC_TRADITIONAL_NAME>
(2,2-dichloro-3-ethyl-cyclopropyl)benzene
> <PUBCHEM_IUPAC_INCHI>
InChI=1S/C11H12Cl2/c1-2-9-10(11(9,12)13)8-6-4-3-5-7-8/h3-7,9-10H,2H2,1H3
> <PUBCHEM_IUPAC_INCHIKEY>
ZTOCQINNQWUTAA-UHFFFAOYSA-N
> <PUBCHEM_XLOGP3_AA>
4.1
> <PUBCHEM_EXACT_MASS>
214.0316058
> <PUBCHEM_MOLECULAR_FORMULA>
C11H12Cl2
> <PUBCHEM_MOLECULAR_WEIGHT>
215.12
> <PUBCHEM_OPENEYE_CAN_SMILES>
CCC1C(C1(Cl)Cl)C2=CC=CC=C2
> <PUBCHEM_OPENEYE_ISO_SMILES>
CCC1C(C1(Cl)Cl)C2=CC=CC=C2
> <PUBCHEM_CACTVS_TPSA>
0
> <PUBCHEM_MONOISOTOPIC_WEIGHT>
214.0316058
> <PUBCHEM_TOTAL_CHARGE>
0
> <PUBCHEM_HEAVY_ATOM_COUNT>
13
> <PUBCHEM_ATOM_DEF_STEREO_COUNT>
0
> <PUBCHEM_ATOM_UDEF_STEREO_COUNT>
2
> <PUBCHEM_BOND_DEF_STEREO_COUNT>
0
> <PUBCHEM_BOND_UDEF_STEREO_COUNT>
0
> <PUBCHEM_ISOTOPIC_ATOM_COUNT>
0
> <PUBCHEM_COMPONENT_COUNT>
1
> <PUBCHEM_CACTVS_TAUTO_COUNT>
-1
> <PUBCHEM_COORDINATE_TYPE>
1
5
255
> <PUBCHEM_BONDANNOTATIONS>
10  12  8
11  13  8
12  13  8
3  6  3
4  7  3
7  10  8
7  9  8
9  11  8
$$$$
