524194
  -OEChem-10302200292D
 39 41  0     1  0  0  0  0  0999 V2000
    3.6086   -0.8004    0.0000 C   0  0  3  0  0  0  0  0  0  0  0  0
    3.2666    0.1393    0.0000 C   0  0  3  0  0  0  0  0  0  0  0  0
    4.9813   -0.2084    0.0000 C   0  0  3  0  0  0  0  0  0  0  0  0
    5.2401    0.7575    0.0000 C   0  0  3  0  0  0  0  0  0  0  0  0
    4.5035    1.7401    0.0000 C   0  0  0  0  0  0  0  0  0  0  0  0
    2.8237   -1.4104    0.0000 C   0  0  0  0  0  0  0  0  0  0  0  0
    2.2732    0.1020    0.0000 C   0  0  0  0  0  0  0  0  0  0  0  0
    6.2530   -1.0030    0.0000 C   0  0  0  0  0  0  0  0  0  0  0  0
    2.0000   -0.8538    0.0000 C   0  0  0  0  0  0  0  0  0  0  0  0
    3.9506   -1.7401    0.0000 C   0  0  0  0  0  0  0  0  0  0  0  0
    6.6718    0.5598    0.0000 C   0  0  0  0  0  0  0  0  0  0  0  0
    2.9245    1.0790    0.0000 C   0  0  0  0  0  0  0  0  0  0  0  0
    7.0301   -0.3737    0.0000 C   0  0  0  0  0  0  0  0  0  0  0  0
    4.7225   -1.1743    0.0000 C   0  0  0  0  0  0  0  0  0  0  0  0
    7.2164    1.3985    0.0000 C   0  0  0  0  0  0  0  0  0  0  0  0
    5.5548    1.2917    0.0000 H   0  0  0  0  0  0  0  0  0  0  0  0
    4.8213    2.2725    0.0000 H   0  0  0  0  0  0  0  0  0  0  0  0
    3.8904    1.8321    0.0000 H   0  0  0  0  0  0  0  0  0  0  0  0
    2.4244   -1.8848    0.0000 H   0  0  0  0  0  0  0  0  0  0  0  0
    3.2534   -1.8573    0.0000 H   0  0  0  0  0  0  0  0  0  0  0  0
    2.3152    0.7206    0.0000 H   0  0  0  0  0  0  0  0  0  0  0  0
    1.6624    0.2088    0.0000 H   0  0  0  0  0  0  0  0  0  0  0  0
    5.8684   -1.4894    0.0000 H   0  0  0  0  0  0  0  0  0  0  0  0
    6.6939   -1.4389    0.0000 H   0  0  0  0  0  0  0  0  0  0  0  0
    1.4251   -0.6217    0.0000 H   0  0  0  0  0  0  0  0  0  0  0  0
    1.7088   -1.4012    0.0000 H   0  0  0  0  0  0  0  0  0  0  0  0
    3.3680   -1.9522    0.0000 H   0  0  0  0  0  0  0  0  0  0  0  0
    4.1626   -2.3227    0.0000 H   0  0  0  0  0  0  0  0  0  0  0  0
    4.5332   -1.5281    0.0000 H   0  0  0  0  0  0  0  0  0  0  0  0
    3.5072    1.2910    0.0000 H   0  0  0  0  0  0  0  0  0  0  0  0
    2.7125    1.6616    0.0000 H   0  0  0  0  0  0  0  0  0  0  0  0
    2.3419    0.8669    0.0000 H   0  0  0  0  0  0  0  0  0  0  0  0
    7.3678   -0.8937    0.0000 H   0  0  0  0  0  0  0  0  0  0  0  0
    7.5825   -0.0923    0.0000 H   0  0  0  0  0  0  0  0  0  0  0  0
    4.1236   -1.0139    0.0000 H   0  0  0  0  0  0  0  0  0  0  0  0
    4.5620   -1.7732    0.0000 H   0  0  0  0  0  0  0  0  0  0  0  0
    5.3213   -1.3348    0.0000 H   0  0  0  0  0  0  0  0  0  0  0  0
    7.8355    1.3661    0.0000 H   0  0  0  0  0  0  0  0  0  0  0  0
    6.9349    1.9509    0.0000 H   0  0  0  0  0  0  0  0  0  0  0  0
  1  2  1  0  0  0  0
  1  3  1  0  0  0  0
  1  6  1  0  0  0  0
  1 10  1  0  0  0  0
  2  4  1  0  0  0  0
  2  7  1  0  0  0  0
  2 12  1  0  0  0  0
  3  5  1  0  0  0  0
  3  8  1  0  0  0  0
  3 14  1  0  0  0  0
  4  5  1  0  0  0  0
  4 11  1  0  0  0  0
  4 16  1  0  0  0  0
  5 17  1  0  0  0  0
  5 18  1  0  0  0  0
  6  9  1  0  0  0  0
  6 19  1  0  0  0  0
  6 20  1  0  0  0  0
  7  9  1  0  0  0  0
  7 21  1  0  0  0  0
  7 22  1  0  0  0  0
  8 13  1  0  0  0  0
  8 23  1  0  0  0  0
  8 24  1  0  0  0  0
  9 25  1  0  0  0  0
  9 26  1  0  0  0  0
 10 27  1  0  0  0  0
 10 28  1  0  0  0  0
 10 29  1  0  0  0  0
 11 13  1  0  0  0  0
 11 15  2  0  0  0  0
 12 30  1  0  0  0  0
 12 31  1  0  0  0  0
 12 32  1  0  0  0  0
 13 33  1  0  0  0  0
 13 34  1  0  0  0  0
 14 35  1  0  0  0  0
 14 36  1  0  0  0  0
 14 37  1  0  0  0  0
 15 38  1  0  0  0  0
 15 39  1  0  0  0  0
M  END
> <PUBCHEM_COMPOUND_CID>
524194
> <PUBCHEM_COMPOUND_CANONICALIZED>
1
> <PUBCHEM_CACTVS_COMPLEXITY>
329
> <PUBCHEM_CACTVS_HBOND_ACCEPTOR>
0
> <PUBCHEM_CACTVS_HBOND_DONOR>
0
> <PUBCHEM_CACTVS_ROTATABLE_BOND>
0
> <PUBCHEM_CACTVS_SUBSKEYS>
AAADceBwAAAAAAAAAAAAAAAAAAAAAYMAAAAwAAAABgAYAAAAAAAAGAAAAAAADwCAAAACAAAAAACAAgBCAAAAAAAgAAAAAAAAAAgAAAIAAQAAAAAAgAAAAAEAgMAPgAAAAAAAAAAAAAQAAAAAAQAACAAAAA==
> <PUBCHEM_IUPAC_OPENEYE_NAME>
1,2,6-trimethyl-8-methylene-tricyclo[5.3.1.02,6]undecane
> <PUBCHEM_IUPAC_CAS_NAME>
1,2,6-trimethyl-8-methylenetricyclo[5.3.1.02,6]undecane
> <PUBCHEM_IUPAC_NAME_MARKUP>
1,2,6-trimethyl-8-methylidenetricyclo[5.3.1.0<SUP>2,6</SUP>]undecane
> <PUBCHEM_IUPAC_NAME>
1,2,6-trimethyl-8-methylidenetricyclo[5.3.1.02,6]undecane
> <PUBCHEM_IUPAC_SYSTEMATIC_NAME>
1,2,6-trimethyl-8-methylidene-tricyclo[5.3.1.02,6]undecane
> <PUBCHEM_IUPAC_TRADITIONAL_NAME>
1,2,6-trimethyl-8-methylene-tricyclo[5.3.1.02,6]undecane
> <PUBCHEM_IUPAC_INCHI>
InChI=1S/C15H24/c1-11-6-9-13(2)10-12(11)14(3)7-5-8-15(13,14)4/h12H,1,5-10H2,2-4H3
> <PUBCHEM_IUPAC_INCHIKEY>
RTONMYLSQISFQA-UHFFFAOYSA-N
> <PUBCHEM_XLOGP3_AA>
5
> <PUBCHEM_EXACT_MASS>
204.187800766
> <PUBCHEM_MOLECULAR_FORMULA>
C15H24
> <PUBCHEM_MOLECULAR_WEIGHT>
204.35
> <PUBCHEM_OPENEYE_CAN_SMILES>
CC12CCC(=C)C(C1)C3(C2(CCC3)C)C
> <PUBCHEM_OPENEYE_ISO_SMILES>
CC12CCC(=C)C(C1)C3(C2(CCC3)C)C
> <PUBCHEM_CACTVS_TPSA>
0
> <PUBCHEM_MONOISOTOPIC_WEIGHT>
204.187800766
> <PUBCHEM_TOTAL_CHARGE>
0
> <PUBCHEM_HEAVY_ATOM_COUNT>
15
> <PUBCHEM_ATOM_DEF_STEREO_COUNT>
0
> <PUBCHEM_ATOM_UDEF_STEREO_COUNT>
4
> <PUBCHEM_BOND_DEF_STEREO_COUNT>
0
> <PUBCHEM_BOND_UDEF_STEREO_COUNT>
0
> <PUBCHEM_ISOTOPIC_ATOM_COUNT>
0
> <PUBCHEM_COMPONENT_COUNT>
1
> <PUBCHEM_CACTVS_TAUTO_COUNT>
-1
> <PUBCHEM_COORDINATE_TYPE>
1
5
255
> <PUBCHEM_BONDANNOTATIONS>
1  10  3
2  12  3
3  14  3
4  5  3
$$$$
