524109
  -OEChem-10302200292D
 27 26  0     1  0  0  0  0  0999 V2000
    2.8660   -1.0000    0.0000 S   0  0  0  0  0  0  0  0  0  0  0  0
    4.5981    1.0000    0.0000 S   0  0  0  0  0  0  0  0  0  0  0  0
    5.4641   -1.5000    0.0000 O   0  0  0  0  0  0  0  0  0  0  0  0
    3.7320   -0.5000    0.0000 C   0  0  0  0  0  0  0  0  0  0  0  0
    4.5981   -0.0000    0.0000 C   0  0  3  0  0  0  0  0  0  0  0  0
    3.2320    0.3660    0.0000 C   0  0  0  0  0  0  0  0  0  0  0  0
    4.2320   -1.3660    0.0000 C   0  0  0  0  0  0  0  0  0  0  0  0
    5.4641   -0.5000    0.0000 C   0  0  0  0  0  0  0  0  0  0  0  0
    6.3301   -0.0000    0.0000 C   0  0  0  0  0  0  0  0  0  0  0  0
    2.0000   -0.5000    0.0000 C   0  0  0  0  0  0  0  0  0  0  0  0
    5.4641    1.5000    0.0000 C   0  0  0  0  0  0  0  0  0  0  0  0
    5.1350    0.3100    0.0000 H   0  0  0  0  0  0  0  0  0  0  0  0
    3.7690    0.6760    0.0000 H   0  0  0  0  0  0  0  0  0  0  0  0
    2.9220    0.9030    0.0000 H   0  0  0  0  0  0  0  0  0  0  0  0
    2.6951    0.0560    0.0000 H   0  0  0  0  0  0  0  0  0  0  0  0
    3.6951   -1.6760    0.0000 H   0  0  0  0  0  0  0  0  0  0  0  0
    4.5420   -1.9030    0.0000 H   0  0  0  0  0  0  0  0  0  0  0  0
    4.7690   -1.0560    0.0000 H   0  0  0  0  0  0  0  0  0  0  0  0
    6.6401   -0.5369    0.0000 H   0  0  0  0  0  0  0  0  0  0  0  0
    6.8671    0.3100    0.0000 H   0  0  0  0  0  0  0  0  0  0  0  0
    6.0201    0.5369    0.0000 H   0  0  0  0  0  0  0  0  0  0  0  0
    2.3100    0.0369    0.0000 H   0  0  0  0  0  0  0  0  0  0  0  0
    1.4631   -0.1900    0.0000 H   0  0  0  0  0  0  0  0  0  0  0  0
    1.6900   -1.0369    0.0000 H   0  0  0  0  0  0  0  0  0  0  0  0
    5.7741    0.9631    0.0000 H   0  0  0  0  0  0  0  0  0  0  0  0
    6.0010    1.8100    0.0000 H   0  0  0  0  0  0  0  0  0  0  0  0
    5.1541    2.0369    0.0000 H   0  0  0  0  0  0  0  0  0  0  0  0
  1  4  1  0  0  0  0
  1 10  1  0  0  0  0
  2  5  1  0  0  0  0
  2 11  1  0  0  0  0
  3  8  2  0  0  0  0
  4  5  1  0  0  0  0
  4  6  1  0  0  0  0
  4  7  1  0  0  0  0
  5  8  1  0  0  0  0
  5 12  1  0  0  0  0
  6 13  1  0  0  0  0
  6 14  1  0  0  0  0
  6 15  1  0  0  0  0
  7 16  1  0  0  0  0
  7 17  1  0  0  0  0
  7 18  1  0  0  0  0
  8  9  1  0  0  0  0
  9 19  1  0  0  0  0
  9 20  1  0  0  0  0
  9 21  1  0  0  0  0
 10 22  1  0  0  0  0
 10 23  1  0  0  0  0
 10 24  1  0  0  0  0
 11 25  1  0  0  0  0
 11 26  1  0  0  0  0
 11 27  1  0  0  0  0
M  END
> <PUBCHEM_COMPOUND_CID>
524109
> <PUBCHEM_COMPOUND_CANONICALIZED>
1
> <PUBCHEM_CACTVS_COMPLEXITY>
143
> <PUBCHEM_CACTVS_HBOND_ACCEPTOR>
3
> <PUBCHEM_CACTVS_HBOND_DONOR>
0
> <PUBCHEM_CACTVS_ROTATABLE_BOND>
4
> <PUBCHEM_CACTVS_SUBSKEYS>
AAADceBwIABgAAAAAAAAAAAAAAAAAAAAAAAAAAAAAAAAAAAAAAAAGgQAAAAADASEwACCAAAAAAgIAIAQAAAAAAAAABAAAAEAAAAAABIgAAAAAAAAAAAAAAAAAAAMAAAAAAAAAAAAAAAAAAAAAAAAAAAAAA==
> <PUBCHEM_IUPAC_OPENEYE_NAME>
4-methyl-3,4-bis(methylsulfanyl)pentan-2-one
> <PUBCHEM_IUPAC_CAS_NAME>
4-methyl-3,4-bis(methylthio)-2-pentanone
> <PUBCHEM_IUPAC_NAME_MARKUP>
4-methyl-3,4-bis(methylsulfanyl)pentan-2-one
> <PUBCHEM_IUPAC_NAME>
4-methyl-3,4-bis(methylsulfanyl)pentan-2-one
> <PUBCHEM_IUPAC_SYSTEMATIC_NAME>
4-methyl-3,4-bis(methylsulfanyl)pentan-2-one
> <PUBCHEM_IUPAC_TRADITIONAL_NAME>
4-methyl-3,4-bis(methylthio)pentan-2-one
> <PUBCHEM_IUPAC_INCHI>
InChI=1S/C8H16OS2/c1-6(9)7(10-4)8(2,3)11-5/h7H,1-5H3
> <PUBCHEM_IUPAC_INCHIKEY>
PIOYFIYKPPYDJV-UHFFFAOYSA-N
> <PUBCHEM_XLOGP3_AA>
1.9
> <PUBCHEM_EXACT_MASS>
192.06425748
> <PUBCHEM_MOLECULAR_FORMULA>
C8H16OS2
> <PUBCHEM_MOLECULAR_WEIGHT>
192.3
> <PUBCHEM_OPENEYE_CAN_SMILES>
CC(=O)C(C(C)(C)SC)SC
> <PUBCHEM_OPENEYE_ISO_SMILES>
CC(=O)C(C(C)(C)SC)SC
> <PUBCHEM_CACTVS_TPSA>
67.7
> <PUBCHEM_MONOISOTOPIC_WEIGHT>
192.06425748
> <PUBCHEM_TOTAL_CHARGE>
0
> <PUBCHEM_HEAVY_ATOM_COUNT>
11
> <PUBCHEM_ATOM_DEF_STEREO_COUNT>
0
> <PUBCHEM_ATOM_UDEF_STEREO_COUNT>
1
> <PUBCHEM_BOND_DEF_STEREO_COUNT>
0
> <PUBCHEM_BOND_UDEF_STEREO_COUNT>
0
> <PUBCHEM_ISOTOPIC_ATOM_COUNT>
0
> <PUBCHEM_COMPONENT_COUNT>
1
> <PUBCHEM_CACTVS_TAUTO_COUNT>
-1
> <PUBCHEM_COORDINATE_TYPE>
1
5
255
> <PUBCHEM_BONDANNOTATIONS>
5  8  3
$$$$
