524130
  -OEChem-10302200292D
 40 40  0     1  0  0  0  0  0999 V2000
    2.0000    0.8535    0.0000 O   0  0  0  0  0  0  0  0  0  0  0  0
    4.7465   -1.3162    0.0000 C   0  0  0  0  0  0  0  0  0  0  0  0
    5.7060   -1.0344    0.0000 C   0  0  0  0  0  0  0  0  0  0  0  0
    6.5032    0.7112    0.0000 C   0  0  3  0  0  0  0  0  0  0  0  0
    6.3608   -0.2787    0.0000 C   0  0  0  0  0  0  0  0  0  0  0  0
    6.0877    1.6208    0.0000 C   0  0  0  0  0  0  0  0  0  0  0  0
    4.4648   -2.2756    0.0000 C   0  0  0  0  0  0  0  0  0  0  0  0
    5.4702   -2.0062    0.0000 C   0  0  0  0  0  0  0  0  0  0  0  0
    7.4930    0.8535    0.0000 C   0  0  0  0  0  0  0  0  0  0  0  0
    3.7870   -1.0344    0.0000 C   0  0  0  0  0  0  0  0  0  0  0  0
    5.2465    2.1614    0.0000 C   0  0  0  0  0  0  0  0  0  0  0  0
    4.2465    2.1614    0.0000 C   0  0  0  0  0  0  0  0  0  0  0  0
    3.1321   -0.2787    0.0000 C   0  0  0  0  0  0  0  0  0  0  0  0
    3.4052    1.6208    0.0000 C   0  0  0  0  0  0  0  0  0  0  0  0
    2.9898    0.7112    0.0000 C   0  0  0  0  0  0  0  0  0  0  0  0
    2.6495    2.2756    0.0000 C   0  0  0  0  0  0  0  0  0  0  0  0
    5.6765   -1.6537    0.0000 H   0  0  0  0  0  0  0  0  0  0  0  0
    5.3708   -0.5128    0.0000 H   0  0  0  0  0  0  0  0  0  0  0  0
    6.8003    1.2553    0.0000 H   0  0  0  0  0  0  0  0  0  0  0  0
    6.6708   -0.8156    0.0000 H   0  0  0  0  0  0  0  0  0  0  0  0
    5.7969   -0.0211    0.0000 H   0  0  0  0  0  0  0  0  0  0  0  0
    6.7049    1.6797    0.0000 H   0  0  0  0  0  0  0  0  0  0  0  0
    5.6192    1.2148    0.0000 H   0  0  0  0  0  0  0  0  0  0  0  0
    3.8699   -2.1010    0.0000 H   0  0  0  0  0  0  0  0  0  0  0  0
    4.2901   -2.8705    0.0000 H   0  0  0  0  0  0  0  0  0  0  0  0
    5.0596   -2.4503    0.0000 H   0  0  0  0  0  0  0  0  0  0  0  0
    5.0424   -2.4550    0.0000 H   0  0  0  0  0  0  0  0  0  0  0  0
    5.9189   -2.4341    0.0000 H   0  0  0  0  0  0  0  0  0  0  0  0
    5.8981   -1.5575    0.0000 H   0  0  0  0  0  0  0  0  0  0  0  0
    7.5812    0.2398    0.0000 H   0  0  0  0  0  0  0  0  0  0  0  0
    8.1067    0.9417    0.0000 H   0  0  0  0  0  0  0  0  0  0  0  0
    7.4047    1.4672    0.0000 H   0  0  0  0  0  0  0  0  0  0  0  0
    3.4518   -1.5560    0.0000 H   0  0  0  0  0  0  0  0  0  0  0  0
    5.7338    2.5447    0.0000 H   0  0  0  0  0  0  0  0  0  0  0  0
    5.0718    1.5665    0.0000 H   0  0  0  0  0  0  0  0  0  0  0  0
    4.0718    2.7563    0.0000 H   0  0  0  0  0  0  0  0  0  0  0  0
    2.5682   -0.5362    0.0000 H   0  0  0  0  0  0  0  0  0  0  0  0
    3.0555    2.7442    0.0000 H   0  0  0  0  0  0  0  0  0  0  0  0
    2.1809    2.6817    0.0000 H   0  0  0  0  0  0  0  0  0  0  0  0
    2.2435    1.8071    0.0000 H   0  0  0  0  0  0  0  0  0  0  0  0
  1 15  2  0  0  0  0
  2  3  1  0  0  0  0
  2  7  1  0  0  0  0
  2  8  1  0  0  0  0
  2 10  1  0  0  0  0
  3  5  1  0  0  0  0
  3 17  1  0  0  0  0
  3 18  1  0  0  0  0
  4  5  1  0  0  0  0
  4  6  1  0  0  0  0
  4  9  1  0  0  0  0
  4 19  1  0  0  0  0
  5 20  1  0  0  0  0
  5 21  1  0  0  0  0
  6 11  1  0  0  0  0
  6 22  1  0  0  0  0
  6 23  1  0  0  0  0
  7 24  1  0  0  0  0
  7 25  1  0  0  0  0
  7 26  1  0  0  0  0
  8 27  1  0  0  0  0
  8 28  1  0  0  0  0
  8 29  1  0  0  0  0
  9 30  1  0  0  0  0
  9 31  1  0  0  0  0
  9 32  1  0  0  0  0
 10 13  2  3  0  0  0
 10 33  1  0  0  0  0
 11 12  1  0  0  0  0
 11 34  1  0  0  0  0
 11 35  1  0  0  0  0
 12 14  2  3  0  0  0
 12 36  1  0  0  0  0
 13 15  1  0  0  0  0
 13 37  1  0  0  0  0
 14 15  1  0  0  0  0
 14 16  1  0  0  0  0
 16 38  1  0  0  0  0
 16 39  1  0  0  0  0
 16 40  1  0  0  0  0
M  END
> <PUBCHEM_COMPOUND_CID>
524130
> <PUBCHEM_COMPOUND_CANONICALIZED>
1
> <PUBCHEM_CACTVS_COMPLEXITY>
307
> <PUBCHEM_CACTVS_HBOND_ACCEPTOR>
1
> <PUBCHEM_CACTVS_HBOND_DONOR>
0
> <PUBCHEM_CACTVS_ROTATABLE_BOND>
0
> <PUBCHEM_CACTVS_SUBSKEYS>
AAADceBwIAAAAAAAAAAAAAAAAAAAAAAAAAAAAAAAAAAAAAAAAAAAGgAAAAAADwSAgAACAAAAAACIAqBSAAAAAAAgAAAICAEAAEgAAAIAAQAAAAAAgAAIAYMAgMAPAAAAAAAAAAAAAAAAAAAAAAAAAAAAAA==
> <PUBCHEM_IUPAC_OPENEYE_NAME>
2,6,9,9-tetramethylcycloundeca-2,10-dien-1-one
> <PUBCHEM_IUPAC_CAS_NAME>
2,6,9,9-tetramethyl-1-cycloundeca-2,10-dienone
> <PUBCHEM_IUPAC_NAME_MARKUP>
2,6,9,9-tetramethylcycloundeca-2,10-dien-1-one
> <PUBCHEM_IUPAC_NAME>
2,6,9,9-tetramethylcycloundeca-2,10-dien-1-one
> <PUBCHEM_IUPAC_SYSTEMATIC_NAME>
2,6,9,9-tetramethylcycloundeca-2,10-dien-1-one
> <PUBCHEM_IUPAC_TRADITIONAL_NAME>
2,6,9,9-tetramethylcycloundeca-2,10-dien-1-one
> <PUBCHEM_IUPAC_INCHI>
InChI=1S/C15H24O/c1-12-6-5-7-13(2)14(16)9-11-15(3,4)10-8-12/h7,9,11-12H,5-6,8,10H2,1-4H3
> <PUBCHEM_IUPAC_INCHIKEY>
CSYLYPZVYTWHKT-UHFFFAOYSA-N
> <PUBCHEM_XLOGP3_AA>
5.1
> <PUBCHEM_EXACT_MASS>
220.182715385
> <PUBCHEM_MOLECULAR_FORMULA>
C15H24O
> <PUBCHEM_MOLECULAR_WEIGHT>
220.35
> <PUBCHEM_OPENEYE_CAN_SMILES>
CC1CCC=C(C(=O)C=CC(CC1)(C)C)C
> <PUBCHEM_OPENEYE_ISO_SMILES>
CC1CCC=C(C(=O)C=CC(CC1)(C)C)C
> <PUBCHEM_CACTVS_TPSA>
17.1
> <PUBCHEM_MONOISOTOPIC_WEIGHT>
220.182715385
> <PUBCHEM_TOTAL_CHARGE>
0
> <PUBCHEM_HEAVY_ATOM_COUNT>
16
> <PUBCHEM_ATOM_DEF_STEREO_COUNT>
0
> <PUBCHEM_ATOM_UDEF_STEREO_COUNT>
1
> <PUBCHEM_BOND_DEF_STEREO_COUNT>
0
> <PUBCHEM_BOND_UDEF_STEREO_COUNT>
2
> <PUBCHEM_ISOTOPIC_ATOM_COUNT>
0
> <PUBCHEM_COMPONENT_COUNT>
1
> <PUBCHEM_CACTVS_TAUTO_COUNT>
-1
> <PUBCHEM_COORDINATE_TYPE>
1
5
255
> <PUBCHEM_BONDANNOTATIONS>
10  13  1
12  14  1
4  9  3
$$$$
