524204
  -OEChem-10302200292D
 29 29  0     1  0  0  0  0  0999 V2000
    3.7320    0.1340    0.0000 C   0  0  3  0  0  0  0  0  0  0  0  0
    4.5981   -0.3660    0.0000 C   0  0  0  0  0  0  0  0  0  0  0  0
    2.8660   -0.3660    0.0000 C   0  0  0  0  0  0  0  0  0  0  0  0
    4.5981   -1.3660    0.0000 C   0  0  0  0  0  0  0  0  0  0  0  0
    2.8660   -1.3660    0.0000 C   0  0  0  0  0  0  0  0  0  0  0  0
    4.2320    1.0000    0.0000 C   0  0  0  0  0  0  0  0  0  0  0  0
    3.2320    1.0000    0.0000 C   0  0  0  0  0  0  0  0  0  0  0  0
    3.7320   -1.8660    0.0000 C   0  0  0  0  0  0  0  0  0  0  0  0
    2.0000   -1.8660    0.0000 C   0  0  0  0  0  0  0  0  0  0  0  0
    5.2320    1.0000    0.0000 C   0  0  0  0  0  0  0  0  0  0  0  0
    3.7320    1.8660    0.0000 C   0  0  0  0  0  0  0  0  0  0  0  0
    5.2087   -0.4737    0.0000 H   0  0  0  0  0  0  0  0  0  0  0  0
    4.8101    0.2166    0.0000 H   0  0  0  0  0  0  0  0  0  0  0  0
    2.6540    0.2166    0.0000 H   0  0  0  0  0  0  0  0  0  0  0  0
    2.2554   -0.4737    0.0000 H   0  0  0  0  0  0  0  0  0  0  0  0
    4.8101   -1.9486    0.0000 H   0  0  0  0  0  0  0  0  0  0  0  0
    5.2087   -1.2584    0.0000 H   0  0  0  0  0  0  0  0  0  0  0  0
    3.7690    1.3100    0.0000 H   0  0  0  0  0  0  0  0  0  0  0  0
    2.9220    1.5369    0.0000 H   0  0  0  0  0  0  0  0  0  0  0  0
    2.6951    0.6900    0.0000 H   0  0  0  0  0  0  0  0  0  0  0  0
    3.7320   -2.4860    0.0000 H   0  0  0  0  0  0  0  0  0  0  0  0
    1.6900   -1.3291    0.0000 H   0  0  0  0  0  0  0  0  0  0  0  0
    1.4631   -2.1760    0.0000 H   0  0  0  0  0  0  0  0  0  0  0  0
    2.3100   -2.4030    0.0000 H   0  0  0  0  0  0  0  0  0  0  0  0
    5.2320    0.3800    0.0000 H   0  0  0  0  0  0  0  0  0  0  0  0
    5.8520    1.0000    0.0000 H   0  0  0  0  0  0  0  0  0  0  0  0
    5.2320    1.6200    0.0000 H   0  0  0  0  0  0  0  0  0  0  0  0
    4.0420    2.4030    0.0000 H   0  0  0  0  0  0  0  0  0  0  0  0
    3.1120    1.8660    0.0000 H   0  0  0  0  0  0  0  0  0  0  0  0
  1  2  1  0  0  0  0
  1  3  1  0  0  0  0
  1  6  1  0  0  0  0
  1  7  1  0  0  0  0
  2  4  1  0  0  0  0
  2 12  1  0  0  0  0
  2 13  1  0  0  0  0
  3  5  1  0  0  0  0
  3 14  1  0  0  0  0
  3 15  1  0  0  0  0
  4  8  1  0  0  0  0
  4 16  1  0  0  0  0
  4 17  1  0  0  0  0
  5  8  2  0  0  0  0
  5  9  1  0  0  0  0
  6 10  1  0  0  0  0
  6 11  2  0  0  0  0
  7 18  1  0  0  0  0
  7 19  1  0  0  0  0
  7 20  1  0  0  0  0
  8 21  1  0  0  0  0
  9 22  1  0  0  0  0
  9 23  1  0  0  0  0
  9 24  1  0  0  0  0
 10 25  1  0  0  0  0
 10 26  1  0  0  0  0
 10 27  1  0  0  0  0
 11 28  1  0  0  0  0
 11 29  1  0  0  0  0
M  END
> <PUBCHEM_COMPOUND_CID>
524204
> <PUBCHEM_COMPOUND_CANONICALIZED>
1
> <PUBCHEM_CACTVS_COMPLEXITY>
198
> <PUBCHEM_CACTVS_HBOND_ACCEPTOR>
0
> <PUBCHEM_CACTVS_HBOND_DONOR>
0
> <PUBCHEM_CACTVS_ROTATABLE_BOND>
1
> <PUBCHEM_CACTVS_SUBSKEYS>
AAADceBwAAAAAAAAAAAAAAAAAAAAAAAAAAAgAAAAAAAAAAAAAAAAGAAAAAAADgCAAAACAAAAAACAAiBCAAAAAAAgAAAACAAAAAgAAAIAAQAAAAAAgAAIAAMAgAAPAAAAAAAAAAAAAAAAAAAAAAAAAAAAAA==
> <PUBCHEM_IUPAC_OPENEYE_NAME>
5-isopropenyl-1,5-dimethyl-cyclohexene
> <PUBCHEM_IUPAC_CAS_NAME>
1,5-dimethyl-5-(1-methylethenyl)cyclohexene
> <PUBCHEM_IUPAC_NAME_MARKUP>
1,5-dimethyl-5-prop-1-en-2-ylcyclohexene
> <PUBCHEM_IUPAC_NAME>
1,5-dimethyl-5-prop-1-en-2-ylcyclohexene
> <PUBCHEM_IUPAC_SYSTEMATIC_NAME>
1,5-dimethyl-5-prop-1-en-2-yl-cyclohexene
> <PUBCHEM_IUPAC_TRADITIONAL_NAME>
5-isopropenyl-1,5-dimethyl-cyclohexene
> <PUBCHEM_IUPAC_INCHI>
InChI=1S/C11H18/c1-9(2)11(4)7-5-6-10(3)8-11/h6H,1,5,7-8H2,2-4H3
> <PUBCHEM_IUPAC_INCHIKEY>
WBOZYEIIVXDSOE-UHFFFAOYSA-N
> <PUBCHEM_XLOGP3_AA>
3.9
> <PUBCHEM_EXACT_MASS>
150.140850574
> <PUBCHEM_MOLECULAR_FORMULA>
C11H18
> <PUBCHEM_MOLECULAR_WEIGHT>
150.26
> <PUBCHEM_OPENEYE_CAN_SMILES>
CC1=CCCC(C1)(C)C(=C)C
> <PUBCHEM_OPENEYE_ISO_SMILES>
CC1=CCCC(C1)(C)C(=C)C
> <PUBCHEM_CACTVS_TPSA>
0
> <PUBCHEM_MONOISOTOPIC_WEIGHT>
150.140850574
> <PUBCHEM_TOTAL_CHARGE>
0
> <PUBCHEM_HEAVY_ATOM_COUNT>
11
> <PUBCHEM_ATOM_DEF_STEREO_COUNT>
0
> <PUBCHEM_ATOM_UDEF_STEREO_COUNT>
1
> <PUBCHEM_BOND_DEF_STEREO_COUNT>
0
> <PUBCHEM_BOND_UDEF_STEREO_COUNT>
0
> <PUBCHEM_ISOTOPIC_ATOM_COUNT>
0
> <PUBCHEM_COMPONENT_COUNT>
1
> <PUBCHEM_CACTVS_TAUTO_COUNT>
-1
> <PUBCHEM_COORDINATE_TYPE>
1
5
255
> <PUBCHEM_BONDANNOTATIONS>
1  7  3
$$$$
