524250
  -OEChem-10302200292D
 29 30  0     1  0  0  0  0  0999 V2000
    3.5698   -1.2267    0.0000 O   0  0  0  0  0  0  0  0  0  0  0  0
    2.0000   -0.4947    0.0000 O   0  0  0  0  0  0  0  0  0  0  0  0
    5.6239    1.2376    0.0000 C   0  0  3  0  0  0  0  0  0  0  0  0
    5.3651    0.2716    0.0000 C   0  0  3  0  0  0  0  0  0  0  0  0
    4.8873    2.2202    0.0000 C   0  0  0  0  0  0  0  0  0  0  0  0
    7.0228    0.7287    0.0000 C   0  0  3  0  0  0  0  0  0  0  0  0
    3.9924   -0.3204    0.0000 C   0  0  3  0  0  0  0  0  0  0  0  0
    3.6504    0.6193    0.0000 C   0  0  0  0  0  0  0  0  0  0  0  0
    6.7640   -0.2372    0.0000 C   0  0  0  0  0  0  0  0  0  0  0  0
    7.8889    1.2287    0.0000 C   0  0  0  0  0  0  0  0  0  0  0  0
    7.2640   -1.1032    0.0000 C   0  0  0  0  0  0  0  0  0  0  0  0
    2.5736   -1.3139    0.0000 C   0  0  0  0  0  0  0  0  0  0  0  0
    2.1510   -2.2202    0.0000 C   0  0  0  0  0  0  0  0  0  0  0  0
    5.6099    0.6177    0.0000 H   0  0  0  0  0  0  0  0  0  0  0  0
    5.3832   -0.3481    0.0000 H   0  0  0  0  0  0  0  0  0  0  0  0
    5.2051    2.7525    0.0000 H   0  0  0  0  0  0  0  0  0  0  0  0
    4.2742    2.3121    0.0000 H   0  0  0  0  0  0  0  0  0  0  0  0
    7.5147    0.3513    0.0000 H   0  0  0  0  0  0  0  0  0  0  0  0
    4.4244   -0.7651    0.0000 H   0  0  0  0  0  0  0  0  0  0  0  0
    3.4561    1.2081    0.0000 H   0  0  0  0  0  0  0  0  0  0  0  0
    3.0646    0.4161    0.0000 H   0  0  0  0  0  0  0  0  0  0  0  0
    8.1989    0.6918    0.0000 H   0  0  0  0  0  0  0  0  0  0  0  0
    8.4258    1.5387    0.0000 H   0  0  0  0  0  0  0  0  0  0  0  0
    7.5789    1.7657    0.0000 H   0  0  0  0  0  0  0  0  0  0  0  0
    6.9540   -1.6402    0.0000 H   0  0  0  0  0  0  0  0  0  0  0  0
    7.8840   -1.1032    0.0000 H   0  0  0  0  0  0  0  0  0  0  0  0
    1.5890   -1.9581    0.0000 H   0  0  0  0  0  0  0  0  0  0  0  0
    1.8889   -2.7821    0.0000 H   0  0  0  0  0  0  0  0  0  0  0  0
    2.7129   -2.4822    0.0000 H   0  0  0  0  0  0  0  0  0  0  0  0
  1  7  1  0  0  0  0
  1 12  1  0  0  0  0
  2 12  2  0  0  0  0
  3  5  1  0  0  0  0
  3  6  1  0  0  0  0
  3  8  1  0  0  0  0
  3 14  1  0  0  0  0
  4  5  1  0  0  0  0
  4  7  1  0  0  0  0
  4  9  1  0  0  0  0
  4 15  1  0  0  0  0
  5 16  1  0  0  0  0
  5 17  1  0  0  0  0
  6  9  1  0  0  0  0
  6 10  1  0  0  0  0
  6 18  1  0  0  0  0
  7  8  1  0  0  0  0
  7 19  1  0  0  0  0
  8 20  1  0  0  0  0
  8 21  1  0  0  0  0
  9 11  2  0  0  0  0
 10 22  1  0  0  0  0
 10 23  1  0  0  0  0
 10 24  1  0  0  0  0
 11 25  1  0  0  0  0
 11 26  1  0  0  0  0
 12 13  1  0  0  0  0
 13 27  1  0  0  0  0
 13 28  1  0  0  0  0
 13 29  1  0  0  0  0
M  END
> <PUBCHEM_COMPOUND_CID>
524250
> <PUBCHEM_COMPOUND_CANONICALIZED>
1
> <PUBCHEM_CACTVS_COMPLEXITY>
257
> <PUBCHEM_CACTVS_HBOND_ACCEPTOR>
2
> <PUBCHEM_CACTVS_HBOND_DONOR>
0
> <PUBCHEM_CACTVS_ROTATABLE_BOND>
2
> <PUBCHEM_CACTVS_SUBSKEYS>
AAADceBwMAAAAAAAAAAAAAAAAAAAAYMAAAAwAAAAAAAAAAAAAAAAGgAAAAAADRSggAICCAAABACIAgDSCAAAAAAgAAAAAAAAAAgAAAIAAQACAAAEwAAAAAGAwPAOgAAAAAAAAABAAAYAADAAAYAADAAAAA==
> <PUBCHEM_IUPAC_OPENEYE_NAME>
(5-methyl-6-methylene-norbornan-2-yl) acetate
> <PUBCHEM_IUPAC_CAS_NAME>
acetic acid (5-methyl-6-methylene-2-bicyclo[2.2.1]heptanyl) ester
> <PUBCHEM_IUPAC_NAME_MARKUP>
(5-methyl-6-methylidene-2-bicyclo[2.2.1]heptanyl) acetate
> <PUBCHEM_IUPAC_NAME>
(5-methyl-6-methylidene-2-bicyclo[2.2.1]heptanyl) acetate
> <PUBCHEM_IUPAC_SYSTEMATIC_NAME>
(5-methyl-6-methylidene-2-bicyclo[2.2.1]heptanyl) ethanoate
> <PUBCHEM_IUPAC_TRADITIONAL_NAME>
acetic acid (5-methyl-6-methylene-norbornan-2-yl) ester
> <PUBCHEM_IUPAC_INCHI>
InChI=1S/C11H16O2/c1-6-7(2)10-4-9(6)5-11(10)13-8(3)12/h6,9-11H,2,4-5H2,1,3H3
> <PUBCHEM_IUPAC_INCHIKEY>
OWLBHTFZSISYRA-UHFFFAOYSA-N
> <PUBCHEM_XLOGP3_AA>
1.8
> <PUBCHEM_EXACT_MASS>
180.115029749
> <PUBCHEM_MOLECULAR_FORMULA>
C11H16O2
> <PUBCHEM_MOLECULAR_WEIGHT>
180.24
> <PUBCHEM_OPENEYE_CAN_SMILES>
CC1C2CC(C1=C)C(C2)OC(=O)C
> <PUBCHEM_OPENEYE_ISO_SMILES>
CC1C2CC(C1=C)C(C2)OC(=O)C
> <PUBCHEM_CACTVS_TPSA>
26.3
> <PUBCHEM_MONOISOTOPIC_WEIGHT>
180.115029749
> <PUBCHEM_TOTAL_CHARGE>
0
> <PUBCHEM_HEAVY_ATOM_COUNT>
13
> <PUBCHEM_ATOM_DEF_STEREO_COUNT>
0
> <PUBCHEM_ATOM_UDEF_STEREO_COUNT>
4
> <PUBCHEM_BOND_DEF_STEREO_COUNT>
0
> <PUBCHEM_BOND_UDEF_STEREO_COUNT>
0
> <PUBCHEM_ISOTOPIC_ATOM_COUNT>
0
> <PUBCHEM_COMPONENT_COUNT>
1
> <PUBCHEM_CACTVS_TAUTO_COUNT>
-1
> <PUBCHEM_COORDINATE_TYPE>
1
5
255
> <PUBCHEM_BONDANNOTATIONS>
7  1  3
3  5  3
4  5  3
6  10  3
$$$$
