524217
  -OEChem-10302200292D
 20 20  0     1  0  0  0  0  0999 V2000
    3.7601   -1.1739    0.0000 O   0  0  0  0  0  0  0  0  0  0  0  0
    4.5691   -0.5861    0.0000 C   0  0  3  0  0  0  0  0  0  0  0  0
    2.9511   -0.5861    0.0000 C   0  0  3  0  0  0  0  0  0  0  0  0
    4.2601    0.3649    0.0000 C   0  0  0  0  0  0  0  0  0  0  0  0
    3.2601    0.3649    0.0000 C   0  0  0  0  0  0  0  0  0  0  0  0
    5.5202   -0.8952    0.0000 C   0  0  0  0  0  0  0  0  0  0  0  0
    2.0000   -0.8952    0.0000 C   0  0  0  0  0  0  0  0  0  0  0  0
    4.8479    1.1739    0.0000 C   0  0  0  0  0  0  0  0  0  0  0  0
    4.6661   -1.1985    0.0000 H   0  0  0  0  0  0  0  0  0  0  0  0
    2.8541   -1.1985    0.0000 H   0  0  0  0  0  0  0  0  0  0  0  0
    2.8956    0.8665    0.0000 H   0  0  0  0  0  0  0  0  0  0  0  0
    5.3286   -1.4848    0.0000 H   0  0  0  0  0  0  0  0  0  0  0  0
    6.1098   -1.0868    0.0000 H   0  0  0  0  0  0  0  0  0  0  0  0
    5.7117   -0.3055    0.0000 H   0  0  0  0  0  0  0  0  0  0  0  0
    1.8084   -0.3055    0.0000 H   0  0  0  0  0  0  0  0  0  0  0  0
    1.4103   -1.0868    0.0000 H   0  0  0  0  0  0  0  0  0  0  0  0
    2.1916   -1.4848    0.0000 H   0  0  0  0  0  0  0  0  0  0  0  0
    5.3494    0.8095    0.0000 H   0  0  0  0  0  0  0  0  0  0  0  0
    5.2123    1.6755    0.0000 H   0  0  0  0  0  0  0  0  0  0  0  0
    4.3463    1.5384    0.0000 H   0  0  0  0  0  0  0  0  0  0  0  0
  1  2  1  0  0  0  0
  1  3  1  0  0  0  0
  2  4  1  0  0  0  0
  2  6  1  0  0  0  0
  2  9  1  0  0  0  0
  3  5  1  0  0  0  0
  3  7  1  0  0  0  0
  3 10  1  0  0  0  0
  4  5  2  0  0  0  0
  4  8  1  0  0  0  0
  5 11  1  0  0  0  0
  6 12  1  0  0  0  0
  6 13  1  0  0  0  0
  6 14  1  0  0  0  0
  7 15  1  0  0  0  0
  7 16  1  0  0  0  0
  7 17  1  0  0  0  0
  8 18  1  0  0  0  0
  8 19  1  0  0  0  0
  8 20  1  0  0  0  0
M  END
> <PUBCHEM_COMPOUND_CID>
524217
> <PUBCHEM_COMPOUND_CANONICALIZED>
1
> <PUBCHEM_CACTVS_COMPLEXITY>
116
> <PUBCHEM_CACTVS_HBOND_ACCEPTOR>
1
> <PUBCHEM_CACTVS_HBOND_DONOR>
0
> <PUBCHEM_CACTVS_ROTATABLE_BOND>
0
> <PUBCHEM_CACTVS_SUBSKEYS>
AAADccBgIAAAAAAAAAAAAAAAAAAAAQAAAAAAAAAAAAAAAAAAAAAAGgAAAAAADBSggAICAAAABACAAiBCAAAAAAAgAAAACAAAAAgABAAAIQACEAAAAAAIIAIAAAAAAAAAAAAAAAAAAAAAAAAAAAAAAAAAAA==
> <PUBCHEM_IUPAC_OPENEYE_NAME>
2,3,5-trimethyl-2,5-dihydrofuran
> <PUBCHEM_IUPAC_CAS_NAME>
2,3,5-trimethyl-2,5-dihydrofuran
> <PUBCHEM_IUPAC_NAME_MARKUP>
2,3,5-trimethyl-2,5-dihydrofuran
> <PUBCHEM_IUPAC_NAME>
2,3,5-trimethyl-2,5-dihydrofuran
> <PUBCHEM_IUPAC_SYSTEMATIC_NAME>
2,3,5-trimethyl-2,5-dihydrofuran
> <PUBCHEM_IUPAC_TRADITIONAL_NAME>
2,3,5-trimethyl-2,5-dihydrofuran
> <PUBCHEM_IUPAC_INCHI>
InChI=1S/C7H12O/c1-5-4-6(2)8-7(5)3/h4,6-7H,1-3H3
> <PUBCHEM_IUPAC_INCHIKEY>
RTPZOHJDYXVIFB-UHFFFAOYSA-N
> <PUBCHEM_XLOGP3_AA>
1
> <PUBCHEM_EXACT_MASS>
112.088815002
> <PUBCHEM_MOLECULAR_FORMULA>
C7H12O
> <PUBCHEM_MOLECULAR_WEIGHT>
112.17
> <PUBCHEM_OPENEYE_CAN_SMILES>
CC1C=C(C(O1)C)C
> <PUBCHEM_OPENEYE_ISO_SMILES>
CC1C=C(C(O1)C)C
> <PUBCHEM_CACTVS_TPSA>
9.2
> <PUBCHEM_MONOISOTOPIC_WEIGHT>
112.088815002
> <PUBCHEM_TOTAL_CHARGE>
0
> <PUBCHEM_HEAVY_ATOM_COUNT>
8
> <PUBCHEM_ATOM_DEF_STEREO_COUNT>
0
> <PUBCHEM_ATOM_UDEF_STEREO_COUNT>
2
> <PUBCHEM_BOND_DEF_STEREO_COUNT>
0
> <PUBCHEM_BOND_UDEF_STEREO_COUNT>
0
> <PUBCHEM_ISOTOPIC_ATOM_COUNT>
0
> <PUBCHEM_COMPONENT_COUNT>
1
> <PUBCHEM_CACTVS_TAUTO_COUNT>
-1
> <PUBCHEM_COORDINATE_TYPE>
1
5
255
> <PUBCHEM_BONDANNOTATIONS>
2  6  3
3  7  3
$$$$
