524297
  -OEChem-10302200292D
 27 26  0     1  0  0  0  0  0999 V2000
    5.4641   -0.4330    0.0000 P   0  0  3  0  0  0  0  0  0  0  0  0
    4.5981   -0.9330    0.0000 O   0  0  0  0  0  0  0  0  0  0  0  0
    5.9641   -1.2990    0.0000 O   0  0  0  0  0  0  0  0  0  0  0  0
    6.3301    0.0670    0.0000 N   0  0  0  0  0  0  0  0  0  0  0  0
    4.4641    1.2990    0.0000 N   0  0  0  0  0  0  0  0  0  0  0  0
    3.7320   -0.4330    0.0000 C   0  0  3  0  0  0  0  0  0  0  0  0
    2.8660   -0.9330    0.0000 C   0  0  0  0  0  0  0  0  0  0  0  0
    3.7320    0.5670    0.0000 C   0  0  0  0  0  0  0  0  0  0  0  0
    2.0000   -0.4330    0.0000 C   0  0  0  0  0  0  0  0  0  0  0  0
    7.1962   -0.4330    0.0000 C   0  0  0  0  0  0  0  0  0  0  0  0
    6.3301    1.0670    0.0000 C   0  0  0  0  0  0  0  0  0  0  0  0
    4.9641    0.4330    0.0000 C   0  0  0  0  0  0  0  0  0  0  0  0
    3.7320   -1.0530    0.0000 H   0  0  0  0  0  0  0  0  0  0  0  0
    2.4675   -1.4080    0.0000 H   0  0  0  0  0  0  0  0  0  0  0  0
    3.2646   -1.4080    0.0000 H   0  0  0  0  0  0  0  0  0  0  0  0
    4.3520    0.5670    0.0000 H   0  0  0  0  0  0  0  0  0  0  0  0
    3.7320    1.1870    0.0000 H   0  0  0  0  0  0  0  0  0  0  0  0
    3.1120    0.5670    0.0000 H   0  0  0  0  0  0  0  0  0  0  0  0
    2.3100    0.1039    0.0000 H   0  0  0  0  0  0  0  0  0  0  0  0
    1.4631   -0.1230    0.0000 H   0  0  0  0  0  0  0  0  0  0  0  0
    1.6900   -0.9699    0.0000 H   0  0  0  0  0  0  0  0  0  0  0  0
    6.8862   -0.9699    0.0000 H   0  0  0  0  0  0  0  0  0  0  0  0
    7.7331   -0.7430    0.0000 H   0  0  0  0  0  0  0  0  0  0  0  0
    7.5062    0.1039    0.0000 H   0  0  0  0  0  0  0  0  0  0  0  0
    6.9501    1.0670    0.0000 H   0  0  0  0  0  0  0  0  0  0  0  0
    6.3301    1.6870    0.0000 H   0  0  0  0  0  0  0  0  0  0  0  0
    5.7101    1.0670    0.0000 H   0  0  0  0  0  0  0  0  0  0  0  0
  1  2  1  0  0  0  0
  1  3  2  0  0  0  0
  1  4  1  0  0  0  0
  1 12  1  0  0  0  0
  2  6  1  0  0  0  0
  4 10  1  0  0  0  0
  4 11  1  0  0  0  0
  5 12  3  0  0  0  0
  6  7  1  0  0  0  0
  6  8  1  0  0  0  0
  6 13  1  0  0  0  0
  7  9  1  0  0  0  0
  7 14  1  0  0  0  0
  7 15  1  0  0  0  0
  8 16  1  0  0  0  0
  8 17  1  0  0  0  0
  8 18  1  0  0  0  0
  9 19  1  0  0  0  0
  9 20  1  0  0  0  0
  9 21  1  0  0  0  0
 10 22  1  0  0  0  0
 10 23  1  0  0  0  0
 10 24  1  0  0  0  0
 11 25  1  0  0  0  0
 11 26  1  0  0  0  0
 11 27  1  0  0  0  0
M  END
> <PUBCHEM_COMPOUND_CID>
524297
> <PUBCHEM_COMPOUND_CANONICALIZED>
1
> <PUBCHEM_CACTVS_COMPLEXITY>
231
> <PUBCHEM_CACTVS_HBOND_ACCEPTOR>
4
> <PUBCHEM_CACTVS_HBOND_DONOR>
0
> <PUBCHEM_CACTVS_ROTATABLE_BOND>
4
> <PUBCHEM_CACTVS_SUBSKEYS>
AAADccBjMAIAAAAAAAAAAAAAAAAAAAAAAAAAAAAAAAAAAAAAAAAAHggAgCAACBSggAYCAAIAARAQQAAAAIAAAAAAAAAAAAAIAAAAAAAAAAAAAAAAAAAAAAAAAAAAAAAAAAAAAAAAAAAAAAAAAAAAAAAAAA==
> <PUBCHEM_IUPAC_OPENEYE_NAME>
[dimethylamino(sec-butoxy)phosphoryl]formonitrile
> <PUBCHEM_IUPAC_CAS_NAME>
[butan-2-yloxy(dimethylamino)phosphoryl]formonitrile
> <PUBCHEM_IUPAC_NAME_MARKUP>
[butan-2-yloxy(dimethylamino)phosphoryl]formonitrile
> <PUBCHEM_IUPAC_NAME>
[butan-2-yloxy(dimethylamino)phosphoryl]formonitrile
> <PUBCHEM_IUPAC_SYSTEMATIC_NAME>
[butan-2-yloxy(dimethylamino)phosphoryl]methanenitrile
> <PUBCHEM_IUPAC_TRADITIONAL_NAME>
[dimethylamino(sec-butoxy)phosphoryl]formonitrile
> <PUBCHEM_IUPAC_INCHI>
InChI=1S/C7H15N2O2P/c1-5-7(2)11-12(10,6-8)9(3)4/h7H,5H2,1-4H3
> <PUBCHEM_IUPAC_INCHIKEY>
MNNZKDXMTXPOGG-UHFFFAOYSA-N
> <PUBCHEM_XLOGP3_AA>
1
> <PUBCHEM_EXACT_MASS>
190.08711472
> <PUBCHEM_MOLECULAR_FORMULA>
C7H15N2O2P
> <PUBCHEM_MOLECULAR_WEIGHT>
190.18
> <PUBCHEM_OPENEYE_CAN_SMILES>
CCC(C)OP(=O)(C#N)N(C)C
> <PUBCHEM_OPENEYE_ISO_SMILES>
CCC(C)OP(=O)(C#N)N(C)C
> <PUBCHEM_CACTVS_TPSA>
53.3
> <PUBCHEM_MONOISOTOPIC_WEIGHT>
190.08711472
> <PUBCHEM_TOTAL_CHARGE>
0
> <PUBCHEM_HEAVY_ATOM_COUNT>
12
> <PUBCHEM_ATOM_DEF_STEREO_COUNT>
0
> <PUBCHEM_ATOM_UDEF_STEREO_COUNT>
2
> <PUBCHEM_BOND_DEF_STEREO_COUNT>
0
> <PUBCHEM_BOND_UDEF_STEREO_COUNT>
0
> <PUBCHEM_ISOTOPIC_ATOM_COUNT>
0
> <PUBCHEM_COMPONENT_COUNT>
1
> <PUBCHEM_CACTVS_TAUTO_COUNT>
-1
> <PUBCHEM_COORDINATE_TYPE>
1
5
255
> <PUBCHEM_BONDANNOTATIONS>
1  12  3
6  8  3
$$$$
