524285
  -OEChem-10302200292D
 50 52  0     1  0  0  0  0  0999 V2000
    2.3100    0.0000    0.0000 O   0  0  0  0  0  0  0  0  0  0  0  0
    4.8100   -0.8660    0.0000 O   0  0  0  0  0  0  0  0  0  0  0  0
    4.8100    0.8660    0.0000 O   0  0  0  0  0  0  0  0  0  0  0  0
    7.8100   -0.8660    0.0000 N   0  0  0  0  0  0  0  0  0  0  0  0
    3.3100   -1.0000    0.0000 C   0  0  0  0  0  0  0  0  0  0  0  0
    2.4440   -1.5000    0.0000 C   0  0  0  0  0  0  0  0  0  0  0  0
    4.1760   -1.5000    0.0000 C   0  0  0  0  0  0  0  0  0  0  0  0
    3.3100    0.0000    0.0000 C   0  0  3  0  0  0  0  0  0  0  0  0
    2.4440   -2.5000    0.0000 C   0  0  0  0  0  0  0  0  0  0  0  0
    4.1760   -2.5000    0.0000 C   0  0  0  0  0  0  0  0  0  0  0  0
    3.3100   -3.0000    0.0000 C   0  0  0  0  0  0  0  0  0  0  0  0
    3.3100    1.0000    0.0000 C   0  0  0  0  0  0  0  0  0  0  0  0
    4.3100    0.0000    0.0000 C   0  0  0  0  0  0  0  0  0  0  0  0
    5.8100   -0.8660    0.0000 C   0  0  0  0  0  0  0  0  0  0  0  0
    6.3100    0.0000    0.0000 C   0  0  0  0  0  0  0  0  0  0  0  0
    6.3100   -1.7320    0.0000 C   0  0  0  0  0  0  0  0  0  0  0  0
    7.3100    0.0000    0.0000 C   0  0  0  0  0  0  0  0  0  0  0  0
    7.3100   -1.7320    0.0000 C   0  0  0  0  0  0  0  0  0  0  0  0
    4.1760    1.5000    0.0000 C   0  0  0  0  0  0  0  0  0  0  0  0
    2.4440    1.5000    0.0000 C   0  0  0  0  0  0  0  0  0  0  0  0
    4.1760    2.5000    0.0000 C   0  0  0  0  0  0  0  0  0  0  0  0
    2.4440    2.5000    0.0000 C   0  0  0  0  0  0  0  0  0  0  0  0
    3.3100    3.0000    0.0000 C   0  0  0  0  0  0  0  0  0  0  0  0
    3.8469   -0.6900    0.0000 H   0  0  0  0  0  0  0  0  0  0  0  0
    2.2319   -0.9174    0.0000 H   0  0  0  0  0  0  0  0  0  0  0  0
    1.8334   -1.6077    0.0000 H   0  0  0  0  0  0  0  0  0  0  0  0
    4.7866   -1.6077    0.0000 H   0  0  0  0  0  0  0  0  0  0  0  0
    4.3881   -0.9174    0.0000 H   0  0  0  0  0  0  0  0  0  0  0  0
    1.8334   -2.3923    0.0000 H   0  0  0  0  0  0  0  0  0  0  0  0
    2.2319   -3.0826    0.0000 H   0  0  0  0  0  0  0  0  0  0  0  0
    4.3881   -3.0826    0.0000 H   0  0  0  0  0  0  0  0  0  0  0  0
    4.7866   -2.3923    0.0000 H   0  0  0  0  0  0  0  0  0  0  0  0
    2.9115   -3.4750    0.0000 H   0  0  0  0  0  0  0  0  0  0  0  0
    3.7085   -3.4750    0.0000 H   0  0  0  0  0  0  0  0  0  0  0  0
    5.5000   -1.4030    0.0000 H   0  0  0  0  0  0  0  0  0  0  0  0
    6.4177    0.6106    0.0000 H   0  0  0  0  0  0  0  0  0  0  0  0
    5.7274    0.2121    0.0000 H   0  0  0  0  0  0  0  0  0  0  0  0
    5.7274   -1.9441    0.0000 H   0  0  0  0  0  0  0  0  0  0  0  0
    6.4177   -2.3426    0.0000 H   0  0  0  0  0  0  0  0  0  0  0  0
    2.0000    0.5369    0.0000 H   0  0  0  0  0  0  0  0  0  0  0  0
    7.8926    0.2121    0.0000 H   0  0  0  0  0  0  0  0  0  0  0  0
    7.2023    0.6106    0.0000 H   0  0  0  0  0  0  0  0  0  0  0  0
    7.2023   -2.3426    0.0000 H   0  0  0  0  0  0  0  0  0  0  0  0
    7.8926   -1.9441    0.0000 H   0  0  0  0  0  0  0  0  0  0  0  0
    4.7130    1.1900    0.0000 H   0  0  0  0  0  0  0  0  0  0  0  0
    1.9070    1.1900    0.0000 H   0  0  0  0  0  0  0  0  0  0  0  0
    8.4300   -0.8660    0.0000 H   0  0  0  0  0  0  0  0  0  0  0  0
    4.7130    2.8100    0.0000 H   0  0  0  0  0  0  0  0  0  0  0  0
    1.9070    2.8100    0.0000 H   0  0  0  0  0  0  0  0  0  0  0  0
    3.3100    3.6200    0.0000 H   0  0  0  0  0  0  0  0  0  0  0  0
  1  8  1  0  0  0  0
  1 40  1  0  0  0  0
  2 13  1  0  0  0  0
  2 14  1  0  0  0  0
  3 13  2  0  0  0  0
  4 17  1  0  0  0  0
  4 18  1  0  0  0  0
  4 47  1  0  0  0  0
  5  6  1  0  0  0  0
  5  7  1  0  0  0  0
  5  8  1  0  0  0  0
  5 24  1  0  0  0  0
  6  9  1  0  0  0  0
  6 25  1  0  0  0  0
  6 26  1  0  0  0  0
  7 10  1  0  0  0  0
  7 27  1  0  0  0  0
  7 28  1  0  0  0  0
  8 12  1  0  0  0  0
  8 13  1  0  0  0  0
  9 11  1  0  0  0  0
  9 29  1  0  0  0  0
  9 30  1  0  0  0  0
 10 11  1  0  0  0  0
 10 31  1  0  0  0  0
 10 32  1  0  0  0  0
 11 33  1  0  0  0  0
 11 34  1  0  0  0  0
 12 19  2  0  0  0  0
 12 20  1  0  0  0  0
 14 15  1  0  0  0  0
 14 16  1  0  0  0  0
 14 35  1  0  0  0  0
 15 17  1  0  0  0  0
 15 36  1  0  0  0  0
 15 37  1  0  0  0  0
 16 18  1  0  0  0  0
 16 38  1  0  0  0  0
 16 39  1  0  0  0  0
 17 41  1  0  0  0  0
 17 42  1  0  0  0  0
 18 43  1  0  0  0  0
 18 44  1  0  0  0  0
 19 21  1  0  0  0  0
 19 45  1  0  0  0  0
 20 22  2  0  0  0  0
 20 46  1  0  0  0  0
 21 23  2  0  0  0  0
 21 48  1  0  0  0  0
 22 23  1  0  0  0  0
 22 49  1  0  0  0  0
 23 50  1  0  0  0  0
M  END
> <PUBCHEM_COMPOUND_CID>
524285
> <PUBCHEM_COMPOUND_CANONICALIZED>
1
> <PUBCHEM_CACTVS_COMPLEXITY>
382
> <PUBCHEM_CACTVS_HBOND_ACCEPTOR>
4
> <PUBCHEM_CACTVS_HBOND_DONOR>
2
> <PUBCHEM_CACTVS_ROTATABLE_BOND>
5
> <PUBCHEM_CACTVS_SUBSKEYS>
AAADceB6MAAAAAAAAAAAAAAAAAAAAAAAAAA8YIAAAAAAAAABAAAAHgAQCAAADVThmAYwCILABgCIAiDSCAICAAAgAAAIiIFICIgJJjKAlRCGcAAm0AGLmAeYyOCOgAAAAAAAAAAAAAAAAAAAAAAAAAAAAA==
> <PUBCHEM_IUPAC_OPENEYE_NAME>
4-piperidyl 2-cyclohexyl-2-hydroxy-2-phenyl-acetate
> <PUBCHEM_IUPAC_CAS_NAME>
2-cyclohexyl-2-hydroxy-2-phenylacetic acid 4-piperidinyl ester
> <PUBCHEM_IUPAC_NAME_MARKUP>
piperidin-4-yl 2-cyclohexyl-2-hydroxy-2-phenylacetate
> <PUBCHEM_IUPAC_NAME>
piperidin-4-yl 2-cyclohexyl-2-hydroxy-2-phenylacetate
> <PUBCHEM_IUPAC_SYSTEMATIC_NAME>
piperidin-4-yl 2-cyclohexyl-2-oxidanyl-2-phenyl-ethanoate
> <PUBCHEM_IUPAC_TRADITIONAL_NAME>
2-cyclohexyl-2-hydroxy-2-phenyl-acetic acid 4-piperidyl ester
> <PUBCHEM_IUPAC_INCHI>
InChI=1S/C19H27NO3/c21-18(23-17-11-13-20-14-12-17)19(22,15-7-3-1-4-8-15)16-9-5-2-6-10-16/h1,3-4,7-8,16-17,20,22H,2,5-6,9-14H2
> <PUBCHEM_IUPAC_INCHIKEY>
SRYIVCXVRSNTJR-UHFFFAOYSA-N
> <PUBCHEM_XLOGP3_AA>
3.5
> <PUBCHEM_EXACT_MASS>
317.19909372
> <PUBCHEM_MOLECULAR_FORMULA>
C19H27NO3
> <PUBCHEM_MOLECULAR_WEIGHT>
317.4
> <PUBCHEM_OPENEYE_CAN_SMILES>
C1CCC(CC1)C(C2=CC=CC=C2)(C(=O)OC3CCNCC3)O
> <PUBCHEM_OPENEYE_ISO_SMILES>
C1CCC(CC1)C(C2=CC=CC=C2)(C(=O)OC3CCNCC3)O
> <PUBCHEM_CACTVS_TPSA>
58.6
> <PUBCHEM_MONOISOTOPIC_WEIGHT>
317.19909372
> <PUBCHEM_TOTAL_CHARGE>
0
> <PUBCHEM_HEAVY_ATOM_COUNT>
23
> <PUBCHEM_ATOM_DEF_STEREO_COUNT>
0
> <PUBCHEM_ATOM_UDEF_STEREO_COUNT>
1
> <PUBCHEM_BOND_DEF_STEREO_COUNT>
0
> <PUBCHEM_BOND_UDEF_STEREO_COUNT>
0
> <PUBCHEM_ISOTOPIC_ATOM_COUNT>
0
> <PUBCHEM_COMPONENT_COUNT>
1
> <PUBCHEM_CACTVS_TAUTO_COUNT>
-1
> <PUBCHEM_COORDINATE_TYPE>
1
5
255
> <PUBCHEM_BONDANNOTATIONS>
12  19  8
12  20  8
19  21  8
20  22  8
21  23  8
22  23  8
8  13  3
$$$$
