524372
  -OEChem-10302200292D
 23 23  0     1  0  0  0  0  0999 V2000
    4.9902    2.3217    0.0000 Cl  0  0  0  0  0  0  0  0  0  0  0  0
    2.4158   -0.3654    0.0000 Cl  0  0  0  0  0  0  0  0  0  0  0  0
    2.0000   -2.3217    0.0000 Cl  0  0  0  0  0  0  0  0  0  0  0  0
    6.0780   -0.0261    0.0000 O   0  0  0  0  0  0  0  0  0  0  0  0
    4.3179    0.2526    0.0000 O   0  0  0  0  0  0  0  0  0  0  0  0
    5.5780    1.5127    0.0000 C   0  0  3  0  0  0  0  0  0  0  0  0
    5.2690    0.5616    0.0000 C   0  0  3  0  0  0  0  0  0  0  0  0
    6.5780    1.5127    0.0000 C   0  0  0  0  0  0  0  0  0  0  0  0
    6.8870    0.5616    0.0000 C   0  0  0  0  0  0  0  0  0  0  0  0
    4.1100   -0.7255    0.0000 C   0  0  0  0  0  0  0  0  0  0  0  0
    3.1590   -1.0346    0.0000 C   0  0  3  0  0  0  0  0  0  0  0  0
    2.9511   -2.0127    0.0000 C   0  0  0  0  0  0  0  0  0  0  0  0
    5.8595    2.0651    0.0000 H   0  0  0  0  0  0  0  0  0  0  0  0
    4.8306    1.0000    0.0000 H   0  0  0  0  0  0  0  0  0  0  0  0
    7.1845    1.6416    0.0000 H   0  0  0  0  0  0  0  0  0  0  0  0
    6.5132    2.1293    0.0000 H   0  0  0  0  0  0  0  0  0  0  0  0
    7.1970    0.0247    0.0000 H   0  0  0  0  0  0  0  0  0  0  0  0
    7.4534    0.8138    0.0000 H   0  0  0  0  0  0  0  0  0  0  0  0
    4.1963   -1.3395    0.0000 H   0  0  0  0  0  0  0  0  0  0  0  0
    4.7296   -0.7472    0.0000 H   0  0  0  0  0  0  0  0  0  0  0  0
    2.5693   -1.2261    0.0000 H   0  0  0  0  0  0  0  0  0  0  0  0
    3.0373   -2.6267    0.0000 H   0  0  0  0  0  0  0  0  0  0  0  0
    3.5707   -2.0343    0.0000 H   0  0  0  0  0  0  0  0  0  0  0  0
  1  6  1  0  0  0  0
  2 11  1  0  0  0  0
  3 12  1  0  0  0  0
  4  7  1  0  0  0  0
  4  9  1  0  0  0  0
  5  7  1  0  0  0  0
  5 10  1  0  0  0  0
  6  7  1  0  0  0  0
  6  8  1  0  0  0  0
  6 13  1  0  0  0  0
  7 14  1  0  0  0  0
  8  9  1  0  0  0  0
  8 15  1  0  0  0  0
  8 16  1  0  0  0  0
  9 17  1  0  0  0  0
  9 18  1  0  0  0  0
 10 11  1  0  0  0  0
 10 19  1  0  0  0  0
 10 20  1  0  0  0  0
 11 12  1  0  0  0  0
 11 21  1  0  0  0  0
 12 22  1  0  0  0  0
 12 23  1  0  0  0  0
M  END
> <PUBCHEM_COMPOUND_CID>
524372
> <PUBCHEM_COMPOUND_CANONICALIZED>
1
> <PUBCHEM_CACTVS_COMPLEXITY>
134
> <PUBCHEM_CACTVS_HBOND_ACCEPTOR>
2
> <PUBCHEM_CACTVS_HBOND_DONOR>
0
> <PUBCHEM_CACTVS_ROTATABLE_BOND>
4
> <PUBCHEM_CACTVS_SUBSKEYS>
AAADccBgMAAGAAAAAAAAAAAAAAAAASAAAAAAAAAAAAAAAAAAAAAAGgIAAAAACAOwgEMACAAABAAAAAAAAAAAAAAAAAAAAEAAAwAQAAAAAAAiAAAEAAAEAABAAAAAAAAAAAAAAAAAAAAAAAAAAAAAAAAAAA==
> <PUBCHEM_IUPAC_OPENEYE_NAME>
3-chloro-2-(2,3-dichloropropoxy)tetrahydrofuran
> <PUBCHEM_IUPAC_CAS_NAME>
3-chloro-2-(2,3-dichloropropoxy)oxolane
> <PUBCHEM_IUPAC_NAME_MARKUP>
3-chloro-2-(2,3-dichloropropoxy)oxolane
> <PUBCHEM_IUPAC_NAME>
3-chloro-2-(2,3-dichloropropoxy)oxolane
> <PUBCHEM_IUPAC_SYSTEMATIC_NAME>
2-[2,3-bis(chloranyl)propoxy]-3-chloranyl-oxolane
> <PUBCHEM_IUPAC_TRADITIONAL_NAME>
3-chloro-2-(2,3-dichloropropoxy)tetrahydrofuran
> <PUBCHEM_IUPAC_INCHI>
InChI=1S/C7H11Cl3O2/c8-3-5(9)4-12-7-6(10)1-2-11-7/h5-7H,1-4H2
> <PUBCHEM_IUPAC_INCHIKEY>
RPAZWZRIEPLYTD-UHFFFAOYSA-N
> <PUBCHEM_XLOGP3_AA>
2.1
> <PUBCHEM_EXACT_MASS>
231.982463
> <PUBCHEM_MOLECULAR_FORMULA>
C7H11Cl3O2
> <PUBCHEM_MOLECULAR_WEIGHT>
233.5
> <PUBCHEM_OPENEYE_CAN_SMILES>
C1COC(C1Cl)OCC(CCl)Cl
> <PUBCHEM_OPENEYE_ISO_SMILES>
C1COC(C1Cl)OCC(CCl)Cl
> <PUBCHEM_CACTVS_TPSA>
18.5
> <PUBCHEM_MONOISOTOPIC_WEIGHT>
231.982463
> <PUBCHEM_TOTAL_CHARGE>
0
> <PUBCHEM_HEAVY_ATOM_COUNT>
12
> <PUBCHEM_ATOM_DEF_STEREO_COUNT>
0
> <PUBCHEM_ATOM_UDEF_STEREO_COUNT>
3
> <PUBCHEM_BOND_DEF_STEREO_COUNT>
0
> <PUBCHEM_BOND_UDEF_STEREO_COUNT>
0
> <PUBCHEM_ISOTOPIC_ATOM_COUNT>
0
> <PUBCHEM_COMPONENT_COUNT>
1
> <PUBCHEM_CACTVS_TAUTO_COUNT>
-1
> <PUBCHEM_COORDINATE_TYPE>
1
5
255
> <PUBCHEM_BONDANNOTATIONS>
6  1  3
11  2  3
7  5  3
$$$$
