524370
  -OEChem-10302200292D
 23 23  0     1  0  0  0  0  0999 V2000
    4.0392    2.3473    0.0000 Cl  0  0  0  0  0  0  0  0  0  0  0  0
    2.0000   -1.9871    0.0000 Cl  0  0  0  0  0  0  0  0  0  0  0  0
    3.6942   -2.3473    0.0000 Cl  0  0  0  0  0  0  0  0  0  0  0  0
    5.1270   -0.0006    0.0000 O   0  0  0  0  0  0  0  0  0  0  0  0
    3.3669    0.2782    0.0000 O   0  0  0  0  0  0  0  0  0  0  0  0
    4.3179    0.5872    0.0000 C   0  0  3  0  0  0  0  0  0  0  0  0
    4.6270    1.5382    0.0000 C   0  0  3  0  0  0  0  0  0  0  0  0
    5.6270    1.5382    0.0000 C   0  0  0  0  0  0  0  0  0  0  0  0
    5.9360    0.5872    0.0000 C   0  0  0  0  0  0  0  0  0  0  0  0
    3.1590   -0.7000    0.0000 C   0  0  0  0  0  0  0  0  0  0  0  0
    2.2079   -1.0090    0.0000 C   0  0  0  0  0  0  0  0  0  0  0  0
    3.9021   -1.3691    0.0000 C   0  0  0  0  0  0  0  0  0  0  0  0
    3.8795    1.0256    0.0000 H   0  0  0  0  0  0  0  0  0  0  0  0
    4.9084    2.0907    0.0000 H   0  0  0  0  0  0  0  0  0  0  0  0
    6.2334    1.6672    0.0000 H   0  0  0  0  0  0  0  0  0  0  0  0
    5.5622    2.1548    0.0000 H   0  0  0  0  0  0  0  0  0  0  0  0
    6.2460    0.0502    0.0000 H   0  0  0  0  0  0  0  0  0  0  0  0
    6.5024    0.8394    0.0000 H   0  0  0  0  0  0  0  0  0  0  0  0
    2.6982   -0.2851    0.0000 H   0  0  0  0  0  0  0  0  0  0  0  0
    2.1216   -0.3950    0.0000 H   0  0  0  0  0  0  0  0  0  0  0  0
    1.5883   -0.9874    0.0000 H   0  0  0  0  0  0  0  0  0  0  0  0
    4.4770   -1.6014    0.0000 H   0  0  0  0  0  0  0  0  0  0  0  0
    4.2307   -0.8433    0.0000 H   0  0  0  0  0  0  0  0  0  0  0  0
  1  7  1  0  0  0  0
  2 11  1  0  0  0  0
  3 12  1  0  0  0  0
  4  6  1  0  0  0  0
  4  9  1  0  0  0  0
  5  6  1  0  0  0  0
  5 10  1  0  0  0  0
  6  7  1  0  0  0  0
  6 13  1  0  0  0  0
  7  8  1  0  0  0  0
  7 14  1  0  0  0  0
  8  9  1  0  0  0  0
  8 15  1  0  0  0  0
  8 16  1  0  0  0  0
  9 17  1  0  0  0  0
  9 18  1  0  0  0  0
 10 11  1  0  0  0  0
 10 12  1  0  0  0  0
 10 19  1  0  0  0  0
 11 20  1  0  0  0  0
 11 21  1  0  0  0  0
 12 22  1  0  0  0  0
 12 23  1  0  0  0  0
M  END
> <PUBCHEM_COMPOUND_CID>
524370
> <PUBCHEM_COMPOUND_CANONICALIZED>
1
> <PUBCHEM_CACTVS_COMPLEXITY>
130
> <PUBCHEM_CACTVS_HBOND_ACCEPTOR>
2
> <PUBCHEM_CACTVS_HBOND_DONOR>
0
> <PUBCHEM_CACTVS_ROTATABLE_BOND>
4
> <PUBCHEM_CACTVS_SUBSKEYS>
AAADccBgMAAGAAAAAAAAAAAAAAAAASAAAAAAAAAAAAAAAAAAAAAAGgIAAAAACBewgEMACAAABAAAAAAAAAAAAAAAAAAAAAAAAwAQAAAAAAAiAAAEAAAEAABAAAAAAAAAAAAAAAAAAAAAAAAAAAAAAAAAAA==
> <PUBCHEM_IUPAC_OPENEYE_NAME>
3-chloro-2-[2-chloro-1-(chloromethyl)ethoxy]tetrahydrofuran
> <PUBCHEM_IUPAC_CAS_NAME>
3-chloro-2-(1,3-dichloropropan-2-yloxy)oxolane
> <PUBCHEM_IUPAC_NAME_MARKUP>
3-chloro-2-(1,3-dichloropropan-2-yloxy)oxolane
> <PUBCHEM_IUPAC_NAME>
3-chloro-2-(1,3-dichloropropan-2-yloxy)oxolane
> <PUBCHEM_IUPAC_SYSTEMATIC_NAME>
2-[1,3-bis(chloranyl)propan-2-yloxy]-3-chloranyl-oxolane
> <PUBCHEM_IUPAC_TRADITIONAL_NAME>
3-chloro-2-[2-chloro-1-(chloromethyl)ethoxy]tetrahydrofuran
> <PUBCHEM_IUPAC_INCHI>
InChI=1S/C7H11Cl3O2/c8-3-5(4-9)12-7-6(10)1-2-11-7/h5-7H,1-4H2
> <PUBCHEM_IUPAC_INCHIKEY>
QFPRNAFYPZCLKW-UHFFFAOYSA-N
> <PUBCHEM_XLOGP3_AA>
2.1
> <PUBCHEM_EXACT_MASS>
231.982463
> <PUBCHEM_MOLECULAR_FORMULA>
C7H11Cl3O2
> <PUBCHEM_MOLECULAR_WEIGHT>
233.5
> <PUBCHEM_OPENEYE_CAN_SMILES>
C1COC(C1Cl)OC(CCl)CCl
> <PUBCHEM_OPENEYE_ISO_SMILES>
C1COC(C1Cl)OC(CCl)CCl
> <PUBCHEM_CACTVS_TPSA>
18.5
> <PUBCHEM_MONOISOTOPIC_WEIGHT>
231.982463
> <PUBCHEM_TOTAL_CHARGE>
0
> <PUBCHEM_HEAVY_ATOM_COUNT>
12
> <PUBCHEM_ATOM_DEF_STEREO_COUNT>
0
> <PUBCHEM_ATOM_UDEF_STEREO_COUNT>
2
> <PUBCHEM_BOND_DEF_STEREO_COUNT>
0
> <PUBCHEM_BOND_UDEF_STEREO_COUNT>
0
> <PUBCHEM_ISOTOPIC_ATOM_COUNT>
0
> <PUBCHEM_COMPONENT_COUNT>
1
> <PUBCHEM_CACTVS_TAUTO_COUNT>
-1
> <PUBCHEM_COORDINATE_TYPE>
1
5
255
> <PUBCHEM_BONDANNOTATIONS>
7  1  3
6  5  3
$$$$
