524393
  -OEChem-10302200292D
 24 24  0     1  0  0  0  0  0999 V2000
    4.6288    2.3473    0.0000 Cl  0  0  0  0  0  0  0  0  0  0  0  0
    4.2839   -2.3473    0.0000 Cl  0  0  0  0  0  0  0  0  0  0  0  0
    5.7166   -0.0006    0.0000 O   0  0  0  0  0  0  0  0  0  0  0  0
    3.9565    0.2782    0.0000 O   0  0  0  0  0  0  0  0  0  0  0  0
    2.5896   -1.9871    0.0000 O   0  0  0  0  0  0  0  0  0  0  0  0
    4.9076    0.5872    0.0000 C   0  0  3  0  0  0  0  0  0  0  0  0
    5.2166    1.5382    0.0000 C   0  0  3  0  0  0  0  0  0  0  0  0
    6.2166    1.5382    0.0000 C   0  0  0  0  0  0  0  0  0  0  0  0
    6.5256    0.5872    0.0000 C   0  0  0  0  0  0  0  0  0  0  0  0
    3.7486   -0.7000    0.0000 C   0  0  3  0  0  0  0  0  0  0  0  0
    2.7976   -1.0090    0.0000 C   0  0  0  0  0  0  0  0  0  0  0  0
    4.4918   -1.3691    0.0000 C   0  0  0  0  0  0  0  0  0  0  0  0
    4.4692    1.0256    0.0000 H   0  0  0  0  0  0  0  0  0  0  0  0
    5.4981    2.0907    0.0000 H   0  0  0  0  0  0  0  0  0  0  0  0
    6.8231    1.6672    0.0000 H   0  0  0  0  0  0  0  0  0  0  0  0
    6.1518    2.1548    0.0000 H   0  0  0  0  0  0  0  0  0  0  0  0
    6.8356    0.0502    0.0000 H   0  0  0  0  0  0  0  0  0  0  0  0
    7.0920    0.8394    0.0000 H   0  0  0  0  0  0  0  0  0  0  0  0
    3.2879   -0.2851    0.0000 H   0  0  0  0  0  0  0  0  0  0  0  0
    2.7113   -0.3950    0.0000 H   0  0  0  0  0  0  0  0  0  0  0  0
    2.1779   -0.9874    0.0000 H   0  0  0  0  0  0  0  0  0  0  0  0
    5.0666   -1.6014    0.0000 H   0  0  0  0  0  0  0  0  0  0  0  0
    4.8203   -0.8433    0.0000 H   0  0  0  0  0  0  0  0  0  0  0  0
    2.0000   -2.1787    0.0000 H   0  0  0  0  0  0  0  0  0  0  0  0
  1  7  1  0  0  0  0
  2 12  1  0  0  0  0
  3  6  1  0  0  0  0
  3  9  1  0  0  0  0
  4  6  1  0  0  0  0
  4 10  1  0  0  0  0
  5 11  1  0  0  0  0
  5 24  1  0  0  0  0
  6  7  1  0  0  0  0
  6 13  1  0  0  0  0
  7  8  1  0  0  0  0
  7 14  1  0  0  0  0
  8  9  1  0  0  0  0
  8 15  1  0  0  0  0
  8 16  1  0  0  0  0
  9 17  1  0  0  0  0
  9 18  1  0  0  0  0
 10 11  1  0  0  0  0
 10 12  1  0  0  0  0
 10 19  1  0  0  0  0
 11 20  1  0  0  0  0
 11 21  1  0  0  0  0
 12 22  1  0  0  0  0
 12 23  1  0  0  0  0
M  END
> <PUBCHEM_COMPOUND_CID>
524393
> <PUBCHEM_COMPOUND_CANONICALIZED>
1
> <PUBCHEM_CACTVS_COMPLEXITY>
134
> <PUBCHEM_CACTVS_HBOND_ACCEPTOR>
3
> <PUBCHEM_CACTVS_HBOND_DONOR>
1
> <PUBCHEM_CACTVS_ROTATABLE_BOND>
4
> <PUBCHEM_CACTVS_SUBSKEYS>
AAADccBgMAAGAAAAAAAAAAAAAAAAASAAAAAAAAAAAAAAAAAAAAAAGgIACAAACBewgEMACAAABgAAAAAAAAAAAAAAAAAAAAAAAwAREAAAAAAiQAAEAAAHAABAAAAAAAAAAAAAAAAAAAAAAAAAAAAAAAAAAA==
> <PUBCHEM_IUPAC_OPENEYE_NAME>
3-chloro-2-(3-chlorotetrahydrofuran-2-yl)oxy-propan-1-ol
> <PUBCHEM_IUPAC_CAS_NAME>
3-chloro-2-[(3-chloro-2-oxolanyl)oxy]-1-propanol
> <PUBCHEM_IUPAC_NAME_MARKUP>
3-chloro-2-(3-chlorooxolan-2-yl)oxypropan-1-ol
> <PUBCHEM_IUPAC_NAME>
3-chloro-2-(3-chlorooxolan-2-yl)oxypropan-1-ol
> <PUBCHEM_IUPAC_SYSTEMATIC_NAME>
3-chloranyl-2-(3-chloranyloxolan-2-yl)oxy-propan-1-ol
> <PUBCHEM_IUPAC_TRADITIONAL_NAME>
3-chloro-2-(3-chlorotetrahydrofuran-2-yl)oxy-propan-1-ol
> <PUBCHEM_IUPAC_INCHI>
InChI=1S/C7H12Cl2O3/c8-3-5(4-10)12-7-6(9)1-2-11-7/h5-7,10H,1-4H2
> <PUBCHEM_IUPAC_INCHIKEY>
DQKVPOQGQYUGIV-UHFFFAOYSA-N
> <PUBCHEM_XLOGP3_AA>
0.9
> <PUBCHEM_EXACT_MASS>
214.0163496
> <PUBCHEM_MOLECULAR_FORMULA>
C7H12Cl2O3
> <PUBCHEM_MOLECULAR_WEIGHT>
215.07
> <PUBCHEM_OPENEYE_CAN_SMILES>
C1COC(C1Cl)OC(CO)CCl
> <PUBCHEM_OPENEYE_ISO_SMILES>
C1COC(C1Cl)OC(CO)CCl
> <PUBCHEM_CACTVS_TPSA>
38.7
> <PUBCHEM_MONOISOTOPIC_WEIGHT>
214.0163496
> <PUBCHEM_TOTAL_CHARGE>
0
> <PUBCHEM_HEAVY_ATOM_COUNT>
12
> <PUBCHEM_ATOM_DEF_STEREO_COUNT>
0
> <PUBCHEM_ATOM_UDEF_STEREO_COUNT>
3
> <PUBCHEM_BOND_DEF_STEREO_COUNT>
0
> <PUBCHEM_BOND_UDEF_STEREO_COUNT>
0
> <PUBCHEM_ISOTOPIC_ATOM_COUNT>
0
> <PUBCHEM_COMPONENT_COUNT>
1
> <PUBCHEM_CACTVS_TAUTO_COUNT>
-1
> <PUBCHEM_COORDINATE_TYPE>
1
5
255
> <PUBCHEM_BONDANNOTATIONS>
7  1  3
10  11  3
6  4  3
$$$$
