524391
  -OEChem-10302200292D
 21 21  0     1  0  0  0  0  0999 V2000
    2.8090    0.3196    0.0000 O   0  0  0  0  0  0  0  0  0  0  0  0
    4.5691    0.5984    0.0000 O   0  0  0  0  0  0  0  0  0  0  0  0
    5.9360   -1.6669    0.0000 O   0  0  0  0  0  0  0  0  0  0  0  0
    3.3090    1.8585    0.0000 C   0  0  0  0  0  0  0  0  0  0  0  0
    3.6180    0.9074    0.0000 C   0  0  3  0  0  0  0  0  0  0  0  0
    2.3090    1.8585    0.0000 C   0  0  0  0  0  0  0  0  0  0  0  0
    2.0000    0.9074    0.0000 C   0  0  0  0  0  0  0  0  0  0  0  0
    4.7770   -0.3797    0.0000 C   0  0  0  0  0  0  0  0  0  0  0  0
    5.7281   -0.6888    0.0000 C   0  0  0  0  0  0  0  0  0  0  0  0
    3.9155    1.9874    0.0000 H   0  0  0  0  0  0  0  0  0  0  0  0
    3.2442    2.4751    0.0000 H   0  0  0  0  0  0  0  0  0  0  0  0
    4.0564    1.3458    0.0000 H   0  0  0  0  0  0  0  0  0  0  0  0
    2.3738    2.4751    0.0000 H   0  0  0  0  0  0  0  0  0  0  0  0
    1.7026    1.9874    0.0000 H   0  0  0  0  0  0  0  0  0  0  0  0
    1.4336    1.1596    0.0000 H   0  0  0  0  0  0  0  0  0  0  0  0
    1.6900    0.3705    0.0000 H   0  0  0  0  0  0  0  0  0  0  0  0
    4.1574   -0.4014    0.0000 H   0  0  0  0  0  0  0  0  0  0  0  0
    4.6907   -0.9937    0.0000 H   0  0  0  0  0  0  0  0  0  0  0  0
    6.3477   -0.6671    0.0000 H   0  0  0  0  0  0  0  0  0  0  0  0
    5.8144   -0.0748    0.0000 H   0  0  0  0  0  0  0  0  0  0  0  0
    6.5256   -1.8585    0.0000 H   0  0  0  0  0  0  0  0  0  0  0  0
  1  5  1  0  0  0  0
  1  7  1  0  0  0  0
  2  5  1  0  0  0  0
  2  8  1  0  0  0  0
  3  9  1  0  0  0  0
  3 21  1  0  0  0  0
  4  5  1  0  0  0  0
  4  6  1  0  0  0  0
  4 10  1  0  0  0  0
  4 11  1  0  0  0  0
  5 12  1  0  0  0  0
  6  7  1  0  0  0  0
  6 13  1  0  0  0  0
  6 14  1  0  0  0  0
  7 15  1  0  0  0  0
  7 16  1  0  0  0  0
  8  9  1  0  0  0  0
  8 17  1  0  0  0  0
  8 18  1  0  0  0  0
  9 19  1  0  0  0  0
  9 20  1  0  0  0  0
M  END
> <PUBCHEM_COMPOUND_CID>
524391
> <PUBCHEM_COMPOUND_CANONICALIZED>
1
> <PUBCHEM_CACTVS_COMPLEXITY>
74.7
> <PUBCHEM_CACTVS_HBOND_ACCEPTOR>
3
> <PUBCHEM_CACTVS_HBOND_DONOR>
1
> <PUBCHEM_CACTVS_ROTATABLE_BOND>
3
> <PUBCHEM_CACTVS_SUBSKEYS>
AAADccBgMAAAAAAAAAAAAAAAAAAAASAAAAAAAAAAAAAAAAAAAAAAGgAACAAACACwgAMACAAABgAAAAAAAAAAAAAAAAAAAAAAAAAREAAAAAAiAAAEAAAHAABAAAAAAAAAAAAAAAAAAAAAAAAAAAAAAAAAAA==
> <PUBCHEM_IUPAC_OPENEYE_NAME>
2-tetrahydrofuran-2-yloxyethanol
> <PUBCHEM_IUPAC_CAS_NAME>
2-(2-oxolanyloxy)ethanol
> <PUBCHEM_IUPAC_NAME_MARKUP>
2-(oxolan-2-yloxy)ethanol
> <PUBCHEM_IUPAC_NAME>
2-(oxolan-2-yloxy)ethanol
> <PUBCHEM_IUPAC_SYSTEMATIC_NAME>
2-(oxolan-2-yloxy)ethanol
> <PUBCHEM_IUPAC_TRADITIONAL_NAME>
2-(tetrahydrofuryloxy)ethanol
> <PUBCHEM_IUPAC_INCHI>
InChI=1S/C6H12O3/c7-3-5-9-6-2-1-4-8-6/h6-7H,1-5H2
> <PUBCHEM_IUPAC_INCHIKEY>
OJLQUVQAMKEDTB-UHFFFAOYSA-N
> <PUBCHEM_XLOGP3_AA>
-0.1
> <PUBCHEM_EXACT_MASS>
132.078644241
> <PUBCHEM_MOLECULAR_FORMULA>
C6H12O3
> <PUBCHEM_MOLECULAR_WEIGHT>
132.16
> <PUBCHEM_OPENEYE_CAN_SMILES>
C1CC(OC1)OCCO
> <PUBCHEM_OPENEYE_ISO_SMILES>
C1CC(OC1)OCCO
> <PUBCHEM_CACTVS_TPSA>
38.7
> <PUBCHEM_MONOISOTOPIC_WEIGHT>
132.078644241
> <PUBCHEM_TOTAL_CHARGE>
0
> <PUBCHEM_HEAVY_ATOM_COUNT>
9
> <PUBCHEM_ATOM_DEF_STEREO_COUNT>
0
> <PUBCHEM_ATOM_UDEF_STEREO_COUNT>
1
> <PUBCHEM_BOND_DEF_STEREO_COUNT>
0
> <PUBCHEM_BOND_UDEF_STEREO_COUNT>
0
> <PUBCHEM_ISOTOPIC_ATOM_COUNT>
0
> <PUBCHEM_COMPONENT_COUNT>
1
> <PUBCHEM_CACTVS_TAUTO_COUNT>
-1
> <PUBCHEM_COORDINATE_TYPE>
1
5
255
> <PUBCHEM_BONDANNOTATIONS>
5  2  3
$$$$
