524371
  -OEChem-10302200292D
 24 24  0     1  0  0  0  0  0999 V2000
    5.5255    2.2630    0.0000 Cl  0  0  0  0  0  0  0  0  0  0  0  0
    2.0000   -0.7331    0.0000 Cl  0  0  0  0  0  0  0  0  0  0  0  0
    6.6132   -0.0849    0.0000 O   0  0  0  0  0  0  0  0  0  0  0  0
    4.8532    0.1939    0.0000 O   0  0  0  0  0  0  0  0  0  0  0  0
    3.4863   -2.0714    0.0000 O   0  0  0  0  0  0  0  0  0  0  0  0
    6.1132    1.4540    0.0000 C   0  0  3  0  0  0  0  0  0  0  0  0
    5.8042    0.5029    0.0000 C   0  0  3  0  0  0  0  0  0  0  0  0
    7.1132    1.4540    0.0000 C   0  0  0  0  0  0  0  0  0  0  0  0
    7.4223    0.5029    0.0000 C   0  0  0  0  0  0  0  0  0  0  0  0
    4.6453   -0.7842    0.0000 C   0  0  0  0  0  0  0  0  0  0  0  0
    3.6942   -1.0933    0.0000 C   0  0  3  0  0  0  0  0  0  0  0  0
    2.9511   -0.4241    0.0000 C   0  0  0  0  0  0  0  0  0  0  0  0
    6.3947    2.0064    0.0000 H   0  0  0  0  0  0  0  0  0  0  0  0
    5.3658    0.9413    0.0000 H   0  0  0  0  0  0  0  0  0  0  0  0
    7.7197    1.5829    0.0000 H   0  0  0  0  0  0  0  0  0  0  0  0
    7.0484    2.0706    0.0000 H   0  0  0  0  0  0  0  0  0  0  0  0
    7.7323   -0.0340    0.0000 H   0  0  0  0  0  0  0  0  0  0  0  0
    7.9887    0.7551    0.0000 H   0  0  0  0  0  0  0  0  0  0  0  0
    4.7316   -1.3982    0.0000 H   0  0  0  0  0  0  0  0  0  0  0  0
    5.2649   -0.8059    0.0000 H   0  0  0  0  0  0  0  0  0  0  0  0
    3.1046   -1.2848    0.0000 H   0  0  0  0  0  0  0  0  0  0  0  0
    3.4396   -0.0424    0.0000 H   0  0  0  0  0  0  0  0  0  0  0  0
    2.6600    0.1233    0.0000 H   0  0  0  0  0  0  0  0  0  0  0  0
    2.8966   -2.2630    0.0000 H   0  0  0  0  0  0  0  0  0  0  0  0
  1  6  1  0  0  0  0
  2 12  1  0  0  0  0
  3  7  1  0  0  0  0
  3  9  1  0  0  0  0
  4  7  1  0  0  0  0
  4 10  1  0  0  0  0
  5 11  1  0  0  0  0
  5 24  1  0  0  0  0
  6  7  1  0  0  0  0
  6  8  1  0  0  0  0
  6 13  1  0  0  0  0
  7 14  1  0  0  0  0
  8  9  1  0  0  0  0
  8 15  1  0  0  0  0
  8 16  1  0  0  0  0
  9 17  1  0  0  0  0
  9 18  1  0  0  0  0
 10 11  1  0  0  0  0
 10 19  1  0  0  0  0
 10 20  1  0  0  0  0
 11 12  1  0  0  0  0
 11 21  1  0  0  0  0
 12 22  1  0  0  0  0
 12 23  1  0  0  0  0
M  END
> <PUBCHEM_COMPOUND_CID>
524371
> <PUBCHEM_COMPOUND_CANONICALIZED>
1
> <PUBCHEM_CACTVS_COMPLEXITY>
134
> <PUBCHEM_CACTVS_HBOND_ACCEPTOR>
3
> <PUBCHEM_CACTVS_HBOND_DONOR>
1
> <PUBCHEM_CACTVS_ROTATABLE_BOND>
4
> <PUBCHEM_CACTVS_SUBSKEYS>
AAADccBgMAAGAAAAAAAAAAAAAAAAASAAAAAAAAAAAAAAAAAAAAAAGgIACAAACBewgEMACAAABgAAAAAAAAAAAAAAAAAAAAAAAwAREAAAAAAiAAAEAAAHAABAAAAAAAAAAAAAAAAAAAAAAAAAAAAAAAAAAA==
> <PUBCHEM_IUPAC_OPENEYE_NAME>
1-chloro-3-(3-chlorotetrahydrofuran-2-yl)oxy-propan-2-ol
> <PUBCHEM_IUPAC_CAS_NAME>
1-chloro-3-[(3-chloro-2-oxolanyl)oxy]-2-propanol
> <PUBCHEM_IUPAC_NAME_MARKUP>
1-chloro-3-(3-chlorooxolan-2-yl)oxypropan-2-ol
> <PUBCHEM_IUPAC_NAME>
1-chloro-3-(3-chlorooxolan-2-yl)oxypropan-2-ol
> <PUBCHEM_IUPAC_SYSTEMATIC_NAME>
1-chloranyl-3-(3-chloranyloxolan-2-yl)oxy-propan-2-ol
> <PUBCHEM_IUPAC_TRADITIONAL_NAME>
1-chloro-3-(3-chlorotetrahydrofuran-2-yl)oxy-propan-2-ol
> <PUBCHEM_IUPAC_INCHI>
InChI=1S/C7H12Cl2O3/c8-3-5(10)4-12-7-6(9)1-2-11-7/h5-7,10H,1-4H2
> <PUBCHEM_IUPAC_INCHIKEY>
QGSNYZYSMMVJTH-UHFFFAOYSA-N
> <PUBCHEM_XLOGP3_AA>
0.9
> <PUBCHEM_EXACT_MASS>
214.0163496
> <PUBCHEM_MOLECULAR_FORMULA>
C7H12Cl2O3
> <PUBCHEM_MOLECULAR_WEIGHT>
215.07
> <PUBCHEM_OPENEYE_CAN_SMILES>
C1COC(C1Cl)OCC(CCl)O
> <PUBCHEM_OPENEYE_ISO_SMILES>
C1COC(C1Cl)OCC(CCl)O
> <PUBCHEM_CACTVS_TPSA>
38.7
> <PUBCHEM_MONOISOTOPIC_WEIGHT>
214.0163496
> <PUBCHEM_TOTAL_CHARGE>
0
> <PUBCHEM_HEAVY_ATOM_COUNT>
12
> <PUBCHEM_ATOM_DEF_STEREO_COUNT>
0
> <PUBCHEM_ATOM_UDEF_STEREO_COUNT>
3
> <PUBCHEM_BOND_DEF_STEREO_COUNT>
0
> <PUBCHEM_BOND_UDEF_STEREO_COUNT>
0
> <PUBCHEM_ISOTOPIC_ATOM_COUNT>
0
> <PUBCHEM_COMPONENT_COUNT>
1
> <PUBCHEM_CACTVS_TAUTO_COUNT>
-1
> <PUBCHEM_COORDINATE_TYPE>
1
5
255
> <PUBCHEM_BONDANNOTATIONS>
6  1  3
7  4  3
11  5  3
$$$$
