524386
  -OEChem-10302200292D
 20 20  0     1  0  0  0  0  0999 V2000
    3.8313    1.6781    0.0000 Cl  0  0  0  0  0  0  0  0  0  0  0  0
    4.9190   -0.6697    0.0000 O   0  0  0  0  0  0  0  0  0  0  0  0
    3.1590   -0.3910    0.0000 O   0  0  0  0  0  0  0  0  0  0  0  0
    4.4190    0.8691    0.0000 C   0  0  3  0  0  0  0  0  0  0  0  0
    4.1100   -0.0819    0.0000 C   0  0  3  0  0  0  0  0  0  0  0  0
    5.4190    0.8691    0.0000 C   0  0  0  0  0  0  0  0  0  0  0  0
    5.7281   -0.0819    0.0000 C   0  0  0  0  0  0  0  0  0  0  0  0
    2.9511   -1.3691    0.0000 C   0  0  0  0  0  0  0  0  0  0  0  0
    2.0000   -1.6781    0.0000 C   0  0  0  0  0  0  0  0  0  0  0  0
    3.8067    0.7721    0.0000 H   0  0  0  0  0  0  0  0  0  0  0  0
    4.0130   -0.6943    0.0000 H   0  0  0  0  0  0  0  0  0  0  0  0
    6.0255    0.9980    0.0000 H   0  0  0  0  0  0  0  0  0  0  0  0
    5.3542    1.4857    0.0000 H   0  0  0  0  0  0  0  0  0  0  0  0
    6.0381   -0.6189    0.0000 H   0  0  0  0  0  0  0  0  0  0  0  0
    6.2945    0.1702    0.0000 H   0  0  0  0  0  0  0  0  0  0  0  0
    3.0373   -1.9831    0.0000 H   0  0  0  0  0  0  0  0  0  0  0  0
    3.5707   -1.3908    0.0000 H   0  0  0  0  0  0  0  0  0  0  0  0
    1.8084   -1.0885    0.0000 H   0  0  0  0  0  0  0  0  0  0  0  0
    1.4103   -1.8697    0.0000 H   0  0  0  0  0  0  0  0  0  0  0  0
    2.1916   -2.2678    0.0000 H   0  0  0  0  0  0  0  0  0  0  0  0
  1  4  1  0  0  0  0
  2  5  1  0  0  0  0
  2  7  1  0  0  0  0
  3  5  1  0  0  0  0
  3  8  1  0  0  0  0
  4  5  1  0  0  0  0
  4  6  1  0  0  0  0
  4 10  1  0  0  0  0
  5 11  1  0  0  0  0
  6  7  1  0  0  0  0
  6 12  1  0  0  0  0
  6 13  1  0  0  0  0
  7 14  1  0  0  0  0
  7 15  1  0  0  0  0
  8  9  1  0  0  0  0
  8 16  1  0  0  0  0
  8 17  1  0  0  0  0
  9 18  1  0  0  0  0
  9 19  1  0  0  0  0
  9 20  1  0  0  0  0
M  END
> <PUBCHEM_COMPOUND_CID>
524386
> <PUBCHEM_COMPOUND_CANONICALIZED>
1
> <PUBCHEM_CACTVS_COMPLEXITY>
87.1
> <PUBCHEM_CACTVS_HBOND_ACCEPTOR>
2
> <PUBCHEM_CACTVS_HBOND_DONOR>
0
> <PUBCHEM_CACTVS_ROTATABLE_BOND>
2
> <PUBCHEM_CACTVS_SUBSKEYS>
AAADccBgMAAEAAAAAAAAAAAAAAAAASAAAAAAAAAAAAAAAAAAAAAAGgIAAAAACAOwgEMCCAAABAAAAAAAAAAAAAAAAAAAAAAAAwAQAAAAAAAiAAAEAAAEAABAAAAAAAAAAAAAAAAAAAAAAAAAAAAAAAAAAA==
> <PUBCHEM_IUPAC_OPENEYE_NAME>
3-chloro-2-ethoxy-tetrahydrofuran
> <PUBCHEM_IUPAC_CAS_NAME>
3-chloro-2-ethoxyoxolane
> <PUBCHEM_IUPAC_NAME_MARKUP>
3-chloro-2-ethoxyoxolane
> <PUBCHEM_IUPAC_NAME>
3-chloro-2-ethoxyoxolane
> <PUBCHEM_IUPAC_SYSTEMATIC_NAME>
3-chloranyl-2-ethoxy-oxolane
> <PUBCHEM_IUPAC_TRADITIONAL_NAME>
3-chloro-2-ethoxy-tetrahydrofuran
> <PUBCHEM_IUPAC_INCHI>
InChI=1S/C6H11ClO2/c1-2-8-6-5(7)3-4-9-6/h5-6H,2-4H2,1H3
> <PUBCHEM_IUPAC_INCHIKEY>
ULYNPFRGQYMXHQ-UHFFFAOYSA-N
> <PUBCHEM_XLOGP3_AA>
1.2
> <PUBCHEM_EXACT_MASS>
150.0447573
> <PUBCHEM_MOLECULAR_FORMULA>
C6H11ClO2
> <PUBCHEM_MOLECULAR_WEIGHT>
150.60
> <PUBCHEM_OPENEYE_CAN_SMILES>
CCOC1C(CCO1)Cl
> <PUBCHEM_OPENEYE_ISO_SMILES>
CCOC1C(CCO1)Cl
> <PUBCHEM_CACTVS_TPSA>
18.5
> <PUBCHEM_MONOISOTOPIC_WEIGHT>
150.0447573
> <PUBCHEM_TOTAL_CHARGE>
0
> <PUBCHEM_HEAVY_ATOM_COUNT>
9
> <PUBCHEM_ATOM_DEF_STEREO_COUNT>
0
> <PUBCHEM_ATOM_UDEF_STEREO_COUNT>
2
> <PUBCHEM_BOND_DEF_STEREO_COUNT>
0
> <PUBCHEM_BOND_UDEF_STEREO_COUNT>
0
> <PUBCHEM_ISOTOPIC_ATOM_COUNT>
0
> <PUBCHEM_COMPONENT_COUNT>
1
> <PUBCHEM_CACTVS_TAUTO_COUNT>
-1
> <PUBCHEM_COORDINATE_TYPE>
1
5
255
> <PUBCHEM_BONDANNOTATIONS>
4  1  3
5  3  3
$$$$
