524379
  -OEChem-10302200292D
 26 26  0     1  0  0  0  0  0999 V2000
    5.1981    2.8108    0.0000 Cl  0  0  0  0  0  0  0  0  0  0  0  0
    2.0000   -2.8108    0.0000 Cl  0  0  0  0  0  0  0  0  0  0  0  0
    6.2859    0.4629    0.0000 O   0  0  0  0  0  0  0  0  0  0  0  0
    4.5258    0.7417    0.0000 O   0  0  0  0  0  0  0  0  0  0  0  0
    5.7859    2.0018    0.0000 C   0  0  3  0  0  0  0  0  0  0  0  0
    5.4769    1.0507    0.0000 C   0  0  3  0  0  0  0  0  0  0  0  0
    6.7859    2.0018    0.0000 C   0  0  0  0  0  0  0  0  0  0  0  0
    7.0949    1.0507    0.0000 C   0  0  0  0  0  0  0  0  0  0  0  0
    4.3179   -0.2365    0.0000 C   0  0  0  0  0  0  0  0  0  0  0  0
    3.3669   -0.5455    0.0000 C   0  0  0  0  0  0  0  0  0  0  0  0
    3.1590   -1.5236    0.0000 C   0  0  0  0  0  0  0  0  0  0  0  0
    2.2079   -1.8326    0.0000 C   0  0  0  0  0  0  0  0  0  0  0  0
    6.0674    2.5542    0.0000 H   0  0  0  0  0  0  0  0  0  0  0  0
    5.3799    0.4383    0.0000 H   0  0  0  0  0  0  0  0  0  0  0  0
    7.3924    2.1307    0.0000 H   0  0  0  0  0  0  0  0  0  0  0  0
    6.7211    2.6184    0.0000 H   0  0  0  0  0  0  0  0  0  0  0  0
    7.4049    0.5138    0.0000 H   0  0  0  0  0  0  0  0  0  0  0  0
    7.6613    1.3029    0.0000 H   0  0  0  0  0  0  0  0  0  0  0  0
    4.4042   -0.8504    0.0000 H   0  0  0  0  0  0  0  0  0  0  0  0
    4.9376   -0.2581    0.0000 H   0  0  0  0  0  0  0  0  0  0  0  0
    3.2806    0.0685    0.0000 H   0  0  0  0  0  0  0  0  0  0  0  0
    2.7473   -0.5238    0.0000 H   0  0  0  0  0  0  0  0  0  0  0  0
    3.2453   -2.1376    0.0000 H   0  0  0  0  0  0  0  0  0  0  0  0
    3.7786   -1.5453    0.0000 H   0  0  0  0  0  0  0  0  0  0  0  0
    2.1216   -1.2187    0.0000 H   0  0  0  0  0  0  0  0  0  0  0  0
    1.5883   -1.8110    0.0000 H   0  0  0  0  0  0  0  0  0  0  0  0
  1  5  1  0  0  0  0
  2 12  1  0  0  0  0
  3  6  1  0  0  0  0
  3  8  1  0  0  0  0
  4  6  1  0  0  0  0
  4  9  1  0  0  0  0
  5  6  1  0  0  0  0
  5  7  1  0  0  0  0
  5 13  1  0  0  0  0
  6 14  1  0  0  0  0
  7  8  1  0  0  0  0
  7 15  1  0  0  0  0
  7 16  1  0  0  0  0
  8 17  1  0  0  0  0
  8 18  1  0  0  0  0
  9 10  1  0  0  0  0
  9 19  1  0  0  0  0
  9 20  1  0  0  0  0
 10 11  1  0  0  0  0
 10 21  1  0  0  0  0
 10 22  1  0  0  0  0
 11 12  1  0  0  0  0
 11 23  1  0  0  0  0
 11 24  1  0  0  0  0
 12 25  1  0  0  0  0
 12 26  1  0  0  0  0
M  END
> <PUBCHEM_COMPOUND_CID>
524379
> <PUBCHEM_COMPOUND_CANONICALIZED>
1
> <PUBCHEM_CACTVS_COMPLEXITY>
122
> <PUBCHEM_CACTVS_HBOND_ACCEPTOR>
2
> <PUBCHEM_CACTVS_HBOND_DONOR>
0
> <PUBCHEM_CACTVS_ROTATABLE_BOND>
5
> <PUBCHEM_CACTVS_SUBSKEYS>
AAADccBwMAAGAAAAAAAAAAAAAAAAASAAAAAAAAAAAAAAAAAAAAAAGgIAAAAACAOwgEMACAAABAAAAAAAAAAAAAAAAAAAAAAAAwAQAAABAAAiAAAEAAAEAABAAAAAAAAAAAAAAAAAAAAAAAAAAAAAAAAAAA==
> <PUBCHEM_IUPAC_OPENEYE_NAME>
3-chloro-2-(4-chlorobutoxy)tetrahydrofuran
> <PUBCHEM_IUPAC_CAS_NAME>
3-chloro-2-(4-chlorobutoxy)oxolane
> <PUBCHEM_IUPAC_NAME_MARKUP>
3-chloro-2-(4-chlorobutoxy)oxolane
> <PUBCHEM_IUPAC_NAME>
3-chloro-2-(4-chlorobutoxy)oxolane
> <PUBCHEM_IUPAC_SYSTEMATIC_NAME>
3-chloranyl-2-(4-chloranylbutoxy)oxolane
> <PUBCHEM_IUPAC_TRADITIONAL_NAME>
3-chloro-2-(4-chlorobutoxy)tetrahydrofuran
> <PUBCHEM_IUPAC_INCHI>
InChI=1S/C8H14Cl2O2/c9-4-1-2-5-11-8-7(10)3-6-12-8/h7-8H,1-6H2
> <PUBCHEM_IUPAC_INCHIKEY>
LWNIBOOTGWNIBR-UHFFFAOYSA-N
> <PUBCHEM_XLOGP3_AA>
2.2
> <PUBCHEM_EXACT_MASS>
212.0370851
> <PUBCHEM_MOLECULAR_FORMULA>
C8H14Cl2O2
> <PUBCHEM_MOLECULAR_WEIGHT>
213.10
> <PUBCHEM_OPENEYE_CAN_SMILES>
C1COC(C1Cl)OCCCCCl
> <PUBCHEM_OPENEYE_ISO_SMILES>
C1COC(C1Cl)OCCCCCl
> <PUBCHEM_CACTVS_TPSA>
18.5
> <PUBCHEM_MONOISOTOPIC_WEIGHT>
212.0370851
> <PUBCHEM_TOTAL_CHARGE>
0
> <PUBCHEM_HEAVY_ATOM_COUNT>
12
> <PUBCHEM_ATOM_DEF_STEREO_COUNT>
0
> <PUBCHEM_ATOM_UDEF_STEREO_COUNT>
2
> <PUBCHEM_BOND_DEF_STEREO_COUNT>
0
> <PUBCHEM_BOND_UDEF_STEREO_COUNT>
0
> <PUBCHEM_ISOTOPIC_ATOM_COUNT>
0
> <PUBCHEM_COMPONENT_COUNT>
1
> <PUBCHEM_CACTVS_TAUTO_COUNT>
-1
> <PUBCHEM_COORDINATE_TYPE>
1
5
255
> <PUBCHEM_BONDANNOTATIONS>
5  1  3
6  4  3
$$$$
