524384
  -OEChem-10302200292D
 23 23  0     1  0  0  0  0  0999 V2000
    4.6288    2.2630    0.0000 Cl  0  0  0  0  0  0  0  0  0  0  0  0
    4.4918   -1.4534    0.0000 Cl  0  0  0  0  0  0  0  0  0  0  0  0
    5.7166   -0.0849    0.0000 O   0  0  0  0  0  0  0  0  0  0  0  0
    2.5896   -2.0714    0.0000 O   0  0  0  0  0  0  0  0  0  0  0  0
    4.9076    0.5029    0.0000 C   0  0  3  0  0  0  0  0  0  0  0  0
    5.2166    1.4540    0.0000 C   0  0  3  0  0  0  0  0  0  0  0  0
    3.9565    0.1939    0.0000 C   0  0  0  0  0  0  0  0  0  0  0  0
    6.2166    1.4540    0.0000 C   0  0  0  0  0  0  0  0  0  0  0  0
    6.5256    0.5029    0.0000 C   0  0  0  0  0  0  0  0  0  0  0  0
    3.7486   -0.7842    0.0000 C   0  0  3  0  0  0  0  0  0  0  0  0
    2.7976   -1.0933    0.0000 C   0  0  0  0  0  0  0  0  0  0  0  0
    4.8106   -0.1094    0.0000 H   0  0  0  0  0  0  0  0  0  0  0  0
    5.4981    2.0064    0.0000 H   0  0  0  0  0  0  0  0  0  0  0  0
    3.8702    0.8079    0.0000 H   0  0  0  0  0  0  0  0  0  0  0  0
    3.3369    0.2155    0.0000 H   0  0  0  0  0  0  0  0  0  0  0  0
    6.8231    1.5829    0.0000 H   0  0  0  0  0  0  0  0  0  0  0  0
    6.1518    2.0706    0.0000 H   0  0  0  0  0  0  0  0  0  0  0  0
    6.8356   -0.0340    0.0000 H   0  0  0  0  0  0  0  0  0  0  0  0
    7.0920    0.7551    0.0000 H   0  0  0  0  0  0  0  0  0  0  0  0
    4.3383   -0.5927    0.0000 H   0  0  0  0  0  0  0  0  0  0  0  0
    2.7113   -0.4793    0.0000 H   0  0  0  0  0  0  0  0  0  0  0  0
    2.1779   -1.0716    0.0000 H   0  0  0  0  0  0  0  0  0  0  0  0
    2.0000   -2.2630    0.0000 H   0  0  0  0  0  0  0  0  0  0  0  0
  1  6  1  0  0  0  0
  2 10  1  0  0  0  0
  3  5  1  0  0  0  0
  3  9  1  0  0  0  0
  4 11  1  0  0  0  0
  4 23  1  0  0  0  0
  5  6  1  0  0  0  0
  5  7  1  0  0  0  0
  5 12  1  0  0  0  0
  6  8  1  0  0  0  0
  6 13  1  0  0  0  0
  7 10  1  0  0  0  0
  7 14  1  0  0  0  0
  7 15  1  0  0  0  0
  8  9  1  0  0  0  0
  8 16  1  0  0  0  0
  8 17  1  0  0  0  0
  9 18  1  0  0  0  0
  9 19  1  0  0  0  0
 10 11  1  0  0  0  0
 10 20  1  0  0  0  0
 11 21  1  0  0  0  0
 11 22  1  0  0  0  0
M  END
> <PUBCHEM_COMPOUND_CID>
524384
> <PUBCHEM_COMPOUND_CANONICALIZED>
1
> <PUBCHEM_CACTVS_COMPLEXITY>
121
> <PUBCHEM_CACTVS_HBOND_ACCEPTOR>
2
> <PUBCHEM_CACTVS_HBOND_DONOR>
1
> <PUBCHEM_CACTVS_ROTATABLE_BOND>
3
> <PUBCHEM_CACTVS_SUBSKEYS>
AAADccBgMAAGAAAAAAAAAAAAAAAAASAAAAAAAAAAAAAAAAAAAAAAGgIACAAACBeggEIAAAAABgAAAAAAAAAAAAAAAAAAAAAAAwAAEAIBAAACQAAEAAAAAAHAwCAAAAAAAAAAAAAAAAAAAAAAAAAAAAAAAA==
> <PUBCHEM_IUPAC_OPENEYE_NAME>
2-chloro-3-(3-chlorotetrahydrofuran-2-yl)propan-1-ol
> <PUBCHEM_IUPAC_CAS_NAME>
2-chloro-3-(3-chloro-2-oxolanyl)-1-propanol
> <PUBCHEM_IUPAC_NAME_MARKUP>
2-chloro-3-(3-chlorooxolan-2-yl)propan-1-ol
> <PUBCHEM_IUPAC_NAME>
2-chloro-3-(3-chlorooxolan-2-yl)propan-1-ol
> <PUBCHEM_IUPAC_SYSTEMATIC_NAME>
2-chloranyl-3-(3-chloranyloxolan-2-yl)propan-1-ol
> <PUBCHEM_IUPAC_TRADITIONAL_NAME>
2-chloro-3-(3-chlorotetrahydrofuran-2-yl)propan-1-ol
> <PUBCHEM_IUPAC_INCHI>
InChI=1S/C7H12Cl2O2/c8-5(4-10)3-7-6(9)1-2-11-7/h5-7,10H,1-4H2
> <PUBCHEM_IUPAC_INCHIKEY>
GNJRUHPEAZWZFU-UHFFFAOYSA-N
> <PUBCHEM_XLOGP3_AA>
1.3
> <PUBCHEM_EXACT_MASS>
198.0214350
> <PUBCHEM_MOLECULAR_FORMULA>
C7H12Cl2O2
> <PUBCHEM_MOLECULAR_WEIGHT>
199.07
> <PUBCHEM_OPENEYE_CAN_SMILES>
C1COC(C1Cl)CC(CO)Cl
> <PUBCHEM_OPENEYE_ISO_SMILES>
C1COC(C1Cl)CC(CO)Cl
> <PUBCHEM_CACTVS_TPSA>
29.5
> <PUBCHEM_MONOISOTOPIC_WEIGHT>
198.0214350
> <PUBCHEM_TOTAL_CHARGE>
0
> <PUBCHEM_HEAVY_ATOM_COUNT>
11
> <PUBCHEM_ATOM_DEF_STEREO_COUNT>
0
> <PUBCHEM_ATOM_UDEF_STEREO_COUNT>
3
> <PUBCHEM_BOND_DEF_STEREO_COUNT>
0
> <PUBCHEM_BOND_UDEF_STEREO_COUNT>
0
> <PUBCHEM_ISOTOPIC_ATOM_COUNT>
0
> <PUBCHEM_COMPONENT_COUNT>
1
> <PUBCHEM_CACTVS_TAUTO_COUNT>
-1
> <PUBCHEM_COORDINATE_TYPE>
1
5
255
> <PUBCHEM_BONDANNOTATIONS>
6  1  3
10  2  3
5  7  3
$$$$
