524376
  -OEChem-10302200292D
 20 20  0     1  0  0  0  0  0999 V2000
    5.9360   -1.7627    0.0000 Cl  0  0  0  0  0  0  0  0  0  0  0  0
    2.8090    0.2239    0.0000 O   0  0  0  0  0  0  0  0  0  0  0  0
    4.5691    0.5026    0.0000 O   0  0  0  0  0  0  0  0  0  0  0  0
    3.3090    1.7627    0.0000 C   0  0  0  0  0  0  0  0  0  0  0  0
    3.6180    0.8116    0.0000 C   0  0  3  0  0  0  0  0  0  0  0  0
    2.3090    1.7627    0.0000 C   0  0  0  0  0  0  0  0  0  0  0  0
    2.0000    0.8116    0.0000 C   0  0  0  0  0  0  0  0  0  0  0  0
    4.7770   -0.4755    0.0000 C   0  0  0  0  0  0  0  0  0  0  0  0
    5.7281   -0.7845    0.0000 C   0  0  0  0  0  0  0  0  0  0  0  0
    3.9155    1.8916    0.0000 H   0  0  0  0  0  0  0  0  0  0  0  0
    3.2442    2.3793    0.0000 H   0  0  0  0  0  0  0  0  0  0  0  0
    4.0564    1.2500    0.0000 H   0  0  0  0  0  0  0  0  0  0  0  0
    2.3738    2.3793    0.0000 H   0  0  0  0  0  0  0  0  0  0  0  0
    1.7026    1.8916    0.0000 H   0  0  0  0  0  0  0  0  0  0  0  0
    1.4336    1.0638    0.0000 H   0  0  0  0  0  0  0  0  0  0  0  0
    1.6900    0.2747    0.0000 H   0  0  0  0  0  0  0  0  0  0  0  0
    4.1574   -0.4972    0.0000 H   0  0  0  0  0  0  0  0  0  0  0  0
    4.6907   -1.0895    0.0000 H   0  0  0  0  0  0  0  0  0  0  0  0
    6.3477   -0.7629    0.0000 H   0  0  0  0  0  0  0  0  0  0  0  0
    5.8144   -0.1706    0.0000 H   0  0  0  0  0  0  0  0  0  0  0  0
  1  9  1  0  0  0  0
  2  5  1  0  0  0  0
  2  7  1  0  0  0  0
  3  5  1  0  0  0  0
  3  8  1  0  0  0  0
  4  5  1  0  0  0  0
  4  6  1  0  0  0  0
  4 10  1  0  0  0  0
  4 11  1  0  0  0  0
  5 12  1  0  0  0  0
  6  7  1  0  0  0  0
  6 13  1  0  0  0  0
  6 14  1  0  0  0  0
  7 15  1  0  0  0  0
  7 16  1  0  0  0  0
  8  9  1  0  0  0  0
  8 17  1  0  0  0  0
  8 18  1  0  0  0  0
  9 19  1  0  0  0  0
  9 20  1  0  0  0  0
M  END
> <PUBCHEM_COMPOUND_CID>
524376
> <PUBCHEM_COMPOUND_CANONICALIZED>
1
> <PUBCHEM_CACTVS_COMPLEXITY>
77.5
> <PUBCHEM_CACTVS_HBOND_ACCEPTOR>
2
> <PUBCHEM_CACTVS_HBOND_DONOR>
0
> <PUBCHEM_CACTVS_ROTATABLE_BOND>
3
> <PUBCHEM_CACTVS_SUBSKEYS>
AAADccBgMAAEAAAAAAAAAAAAAAAAASAAAAAAAAAAAAAAAAAAAAAAGgIAAAAACAOwgEMACAAABAAAAAAAAAAAAAAAAAAAAAAAAQAQAAAAAAAiAAAEAAAEAABAAAAAAAAAAAAAAAAAAAAAAAAAAAAAAAAAAA==
> <PUBCHEM_IUPAC_OPENEYE_NAME>
2-(2-chloroethoxy)tetrahydrofuran
> <PUBCHEM_IUPAC_CAS_NAME>
2-(2-chloroethoxy)oxolane
> <PUBCHEM_IUPAC_NAME_MARKUP>
2-(2-chloroethoxy)oxolane
> <PUBCHEM_IUPAC_NAME>
2-(2-chloroethoxy)oxolane
> <PUBCHEM_IUPAC_SYSTEMATIC_NAME>
2-(2-chloroethyloxy)oxolane
> <PUBCHEM_IUPAC_TRADITIONAL_NAME>
2-(2-chloroethoxy)tetrahydrofuran
> <PUBCHEM_IUPAC_INCHI>
InChI=1S/C6H11ClO2/c7-3-5-9-6-2-1-4-8-6/h6H,1-5H2
> <PUBCHEM_IUPAC_INCHIKEY>
HWSKZKXGKIACEW-UHFFFAOYSA-N
> <PUBCHEM_XLOGP3_AA>
1.2
> <PUBCHEM_EXACT_MASS>
150.0447573
> <PUBCHEM_MOLECULAR_FORMULA>
C6H11ClO2
> <PUBCHEM_MOLECULAR_WEIGHT>
150.60
> <PUBCHEM_OPENEYE_CAN_SMILES>
C1CC(OC1)OCCCl
> <PUBCHEM_OPENEYE_ISO_SMILES>
C1CC(OC1)OCCCl
> <PUBCHEM_CACTVS_TPSA>
18.5
> <PUBCHEM_MONOISOTOPIC_WEIGHT>
150.0447573
> <PUBCHEM_TOTAL_CHARGE>
0
> <PUBCHEM_HEAVY_ATOM_COUNT>
9
> <PUBCHEM_ATOM_DEF_STEREO_COUNT>
0
> <PUBCHEM_ATOM_UDEF_STEREO_COUNT>
1
> <PUBCHEM_BOND_DEF_STEREO_COUNT>
0
> <PUBCHEM_BOND_UDEF_STEREO_COUNT>
0
> <PUBCHEM_ISOTOPIC_ATOM_COUNT>
0
> <PUBCHEM_COMPONENT_COUNT>
1
> <PUBCHEM_CACTVS_TAUTO_COUNT>
-1
> <PUBCHEM_COORDINATE_TYPE>
1
5
255
> <PUBCHEM_BONDANNOTATIONS>
5  3  3
$$$$
