524388
  -OEChem-10302200292D
 17 17  0     1  0  0  0  0  0999 V2000
    2.8802    1.5236    0.0000 Cl  0  0  0  0  0  0  0  0  0  0  0  0
    3.9680   -0.8242    0.0000 O   0  0  0  0  0  0  0  0  0  0  0  0
    2.2079   -0.5455    0.0000 O   0  0  0  0  0  0  0  0  0  0  0  0
    3.4680    0.7146    0.0000 C   0  0  3  0  0  0  0  0  0  0  0  0
    4.4680    0.7146    0.0000 C   0  0  0  0  0  0  0  0  0  0  0  0
    3.1590   -0.2365    0.0000 C   0  0  3  0  0  0  0  0  0  0  0  0
    4.7770   -0.2365    0.0000 C   0  0  0  0  0  0  0  0  0  0  0  0
    2.0000   -1.5236    0.0000 C   0  0  0  0  0  0  0  0  0  0  0  0
    2.8556    0.6176    0.0000 H   0  0  0  0  0  0  0  0  0  0  0  0
    5.0744    0.8435    0.0000 H   0  0  0  0  0  0  0  0  0  0  0  0
    4.4032    1.3312    0.0000 H   0  0  0  0  0  0  0  0  0  0  0  0
    3.0620   -0.8488    0.0000 H   0  0  0  0  0  0  0  0  0  0  0  0
    5.0870   -0.7734    0.0000 H   0  0  0  0  0  0  0  0  0  0  0  0
    5.3434    0.0157    0.0000 H   0  0  0  0  0  0  0  0  0  0  0  0
    1.3936   -1.3947    0.0000 H   0  0  0  0  0  0  0  0  0  0  0  0
    1.8711   -2.1301    0.0000 H   0  0  0  0  0  0  0  0  0  0  0  0
    2.6064   -1.6525    0.0000 H   0  0  0  0  0  0  0  0  0  0  0  0
  1  4  1  0  0  0  0
  2  6  1  0  0  0  0
  2  7  1  0  0  0  0
  3  6  1  0  0  0  0
  3  8  1  0  0  0  0
  4  5  1  0  0  0  0
  4  6  1  0  0  0  0
  4  9  1  0  0  0  0
  5  7  1  0  0  0  0
  5 10  1  0  0  0  0
  5 11  1  0  0  0  0
  6 12  1  0  0  0  0
  7 13  1  0  0  0  0
  7 14  1  0  0  0  0
  8 15  1  0  0  0  0
  8 16  1  0  0  0  0
  8 17  1  0  0  0  0
M  END
> <PUBCHEM_COMPOUND_CID>
524388
> <PUBCHEM_COMPOUND_CANONICALIZED>
1
> <PUBCHEM_CACTVS_COMPLEXITY>
76.8
> <PUBCHEM_CACTVS_HBOND_ACCEPTOR>
2
> <PUBCHEM_CACTVS_HBOND_DONOR>
0
> <PUBCHEM_CACTVS_ROTATABLE_BOND>
1
> <PUBCHEM_CACTVS_SUBSKEYS>
AAADccBgMAAEAAAAAAAAAAAAAAAAASAAAAAAAAAAAAAAAAAAAAAAGgIAAAAACAOwgEMCCAAABAAAAAAAAAAAAAAAAAAAAAAAAwAQAAAAAAAiAAAEAAAEAABAAAAAAAAAAAAAAAAAAAAAAAAAAAAAAAAAAA==
> <PUBCHEM_IUPAC_OPENEYE_NAME>
3-chloro-2-methoxy-tetrahydrofuran
> <PUBCHEM_IUPAC_CAS_NAME>
3-chloro-2-methoxyoxolane
> <PUBCHEM_IUPAC_NAME_MARKUP>
3-chloro-2-methoxyoxolane
> <PUBCHEM_IUPAC_NAME>
3-chloro-2-methoxyoxolane
> <PUBCHEM_IUPAC_SYSTEMATIC_NAME>
3-chloranyl-2-methoxy-oxolane
> <PUBCHEM_IUPAC_TRADITIONAL_NAME>
3-chloro-2-methoxy-tetrahydrofuran
> <PUBCHEM_IUPAC_INCHI>
InChI=1S/C5H9ClO2/c1-7-5-4(6)2-3-8-5/h4-5H,2-3H2,1H3
> <PUBCHEM_IUPAC_INCHIKEY>
FHZWDWSIYSLGAY-UHFFFAOYSA-N
> <PUBCHEM_XLOGP3_AA>
0.9
> <PUBCHEM_EXACT_MASS>
136.0291072
> <PUBCHEM_MOLECULAR_FORMULA>
C5H9ClO2
> <PUBCHEM_MOLECULAR_WEIGHT>
136.58
> <PUBCHEM_OPENEYE_CAN_SMILES>
COC1C(CCO1)Cl
> <PUBCHEM_OPENEYE_ISO_SMILES>
COC1C(CCO1)Cl
> <PUBCHEM_CACTVS_TPSA>
18.5
> <PUBCHEM_MONOISOTOPIC_WEIGHT>
136.0291072
> <PUBCHEM_TOTAL_CHARGE>
0
> <PUBCHEM_HEAVY_ATOM_COUNT>
8
> <PUBCHEM_ATOM_DEF_STEREO_COUNT>
0
> <PUBCHEM_ATOM_UDEF_STEREO_COUNT>
2
> <PUBCHEM_BOND_DEF_STEREO_COUNT>
0
> <PUBCHEM_BOND_UDEF_STEREO_COUNT>
0
> <PUBCHEM_ISOTOPIC_ATOM_COUNT>
0
> <PUBCHEM_COMPONENT_COUNT>
1
> <PUBCHEM_CACTVS_TAUTO_COUNT>
-1
> <PUBCHEM_COORDINATE_TYPE>
1
5
255
> <PUBCHEM_BONDANNOTATIONS>
4  1  3
6  3  3
$$$$
