524380
  -OEChem-10302200292D
 21 21  0     1  0  0  0  0  0999 V2000
    4.0392    2.1672    0.0000 Cl  0  0  0  0  0  0  0  0  0  0  0  0
    5.1270   -0.1807    0.0000 O   0  0  0  0  0  0  0  0  0  0  0  0
    3.3669    0.0981    0.0000 O   0  0  0  0  0  0  0  0  0  0  0  0
    4.6270    1.3582    0.0000 C   0  0  3  0  0  0  0  0  0  0  0  0
    5.6270    1.3582    0.0000 C   0  0  0  0  0  0  0  0  0  0  0  0
    4.3179    0.4071    0.0000 C   0  0  3  0  0  0  0  0  0  0  0  0
    5.9360    0.4071    0.0000 C   0  0  0  0  0  0  0  0  0  0  0  0
    3.1590   -0.8800    0.0000 C   0  0  0  0  0  0  0  0  0  0  0  0
    2.2079   -1.1890    0.0000 C   0  0  0  0  0  0  0  0  0  0  0  0
    2.0000   -2.1672    0.0000 C   0  0  0  0  0  0  0  0  0  0  0  0
    4.9084    1.9106    0.0000 H   0  0  0  0  0  0  0  0  0  0  0  0
    6.2334    1.4871    0.0000 H   0  0  0  0  0  0  0  0  0  0  0  0
    5.5622    1.9748    0.0000 H   0  0  0  0  0  0  0  0  0  0  0  0
    3.8795    0.8455    0.0000 H   0  0  0  0  0  0  0  0  0  0  0  0
    6.2460   -0.1298    0.0000 H   0  0  0  0  0  0  0  0  0  0  0  0
    6.5024    0.6593    0.0000 H   0  0  0  0  0  0  0  0  0  0  0  0
    3.2453   -1.4940    0.0000 H   0  0  0  0  0  0  0  0  0  0  0  0
    3.7786   -0.9017    0.0000 H   0  0  0  0  0  0  0  0  0  0  0  0
    1.7472   -0.7742    0.0000 H   0  0  0  0  0  0  0  0  0  0  0  0
    1.4103   -2.3588    0.0000 H   0  0  0  0  0  0  0  0  0  0  0  0
    2.4608   -2.5821    0.0000 H   0  0  0  0  0  0  0  0  0  0  0  0
  1  4  1  0  0  0  0
  2  6  1  0  0  0  0
  2  7  1  0  0  0  0
  3  6  1  0  0  0  0
  3  8  1  0  0  0  0
  4  5  1  0  0  0  0
  4  6  1  0  0  0  0
  4 11  1  0  0  0  0
  5  7  1  0  0  0  0
  5 12  1  0  0  0  0
  5 13  1  0  0  0  0
  6 14  1  0  0  0  0
  7 15  1  0  0  0  0
  7 16  1  0  0  0  0
  8  9  1  0  0  0  0
  8 17  1  0  0  0  0
  8 18  1  0  0  0  0
  9 10  2  0  0  0  0
  9 19  1  0  0  0  0
 10 20  1  0  0  0  0
 10 21  1  0  0  0  0
M  END
> <PUBCHEM_COMPOUND_CID>
524380
> <PUBCHEM_COMPOUND_CANONICALIZED>
1
> <PUBCHEM_CACTVS_COMPLEXITY>
116
> <PUBCHEM_CACTVS_HBOND_ACCEPTOR>
2
> <PUBCHEM_CACTVS_HBOND_DONOR>
0
> <PUBCHEM_CACTVS_ROTATABLE_BOND>
3
> <PUBCHEM_CACTVS_SUBSKEYS>
AAADccBgMAAEAAAAAAAAAAAAAAAAASAAAAAAAAAAAAAAAAAAAAAAGgIAAAAACAOwgEMACAAABACAACBCAAAAAAAAAAAIAAAAAwAQBAAAIQAiAAAEAAAEIABAAAAAAAAAAAAAAAAAAAAAAAAAAAAAAAAAAA==
> <PUBCHEM_IUPAC_OPENEYE_NAME>
2-allyloxy-3-chloro-tetrahydrofuran
> <PUBCHEM_IUPAC_CAS_NAME>
3-chloro-2-prop-2-enoxyoxolane
> <PUBCHEM_IUPAC_NAME_MARKUP>
3-chloro-2-prop-2-enoxyoxolane
> <PUBCHEM_IUPAC_NAME>
3-chloro-2-prop-2-enoxyoxolane
> <PUBCHEM_IUPAC_SYSTEMATIC_NAME>
3-chloranyl-2-prop-2-enoxy-oxolane
> <PUBCHEM_IUPAC_TRADITIONAL_NAME>
2-allyloxy-3-chloro-tetrahydrofuran
> <PUBCHEM_IUPAC_INCHI>
InChI=1S/C7H11ClO2/c1-2-4-9-7-6(8)3-5-10-7/h2,6-7H,1,3-5H2
> <PUBCHEM_IUPAC_INCHIKEY>
WGYVHRYKBDASQJ-UHFFFAOYSA-N
> <PUBCHEM_XLOGP3_AA>
1.5
> <PUBCHEM_EXACT_MASS>
162.0447573
> <PUBCHEM_MOLECULAR_FORMULA>
C7H11ClO2
> <PUBCHEM_MOLECULAR_WEIGHT>
162.61
> <PUBCHEM_OPENEYE_CAN_SMILES>
C=CCOC1C(CCO1)Cl
> <PUBCHEM_OPENEYE_ISO_SMILES>
C=CCOC1C(CCO1)Cl
> <PUBCHEM_CACTVS_TPSA>
18.5
> <PUBCHEM_MONOISOTOPIC_WEIGHT>
162.0447573
> <PUBCHEM_TOTAL_CHARGE>
0
> <PUBCHEM_HEAVY_ATOM_COUNT>
10
> <PUBCHEM_ATOM_DEF_STEREO_COUNT>
0
> <PUBCHEM_ATOM_UDEF_STEREO_COUNT>
2
> <PUBCHEM_BOND_DEF_STEREO_COUNT>
0
> <PUBCHEM_BOND_UDEF_STEREO_COUNT>
0
> <PUBCHEM_ISOTOPIC_ATOM_COUNT>
0
> <PUBCHEM_COMPONENT_COUNT>
1
> <PUBCHEM_CACTVS_TAUTO_COUNT>
-1
> <PUBCHEM_COORDINATE_TYPE>
1
5
255
> <PUBCHEM_BONDANNOTATIONS>
4  1  3
6  3  3
$$$$
