524301
  -OEChem-10302200292D
 42 41  0     1  0  0  0  0  0999 V2000
    8.0622   -1.1900    0.0000 O   0  0  0  0  0  0  0  0  0  0  0  0
    8.9282    0.3100    0.0000 C   0  0  3  0  0  0  0  0  0  0  0  0
    8.0622    0.8100    0.0000 C   0  0  0  0  0  0  0  0  0  0  0  0
    7.1962    0.3100    0.0000 C   0  0  0  0  0  0  0  0  0  0  0  0
    6.3301    0.8100    0.0000 C   0  0  0  0  0  0  0  0  0  0  0  0
    8.9282   -0.6900    0.0000 C   0  0  0  0  0  0  0  0  0  0  0  0
    9.7942    0.8100    0.0000 C   0  0  0  0  0  0  0  0  0  0  0  0
    5.4641    0.3100    0.0000 C   0  0  0  0  0  0  0  0  0  0  0  0
    4.5981    0.8100    0.0000 C   0  0  0  0  0  0  0  0  0  0  0  0
    6.3301    1.8100    0.0000 C   0  0  0  0  0  0  0  0  0  0  0  0
   10.6603    0.3100    0.0000 C   0  0  0  0  0  0  0  0  0  0  0  0
    3.7320    0.3100    0.0000 C   0  0  0  0  0  0  0  0  0  0  0  0
    9.7942    1.8100    0.0000 C   0  0  0  0  0  0  0  0  0  0  0  0
    2.8660    0.8100    0.0000 C   0  0  0  0  0  0  0  0  0  0  0  0
    2.0000    0.3100    0.0000 C   0  0  0  0  0  0  0  0  0  0  0  0
    2.8660    1.8100    0.0000 C   0  0  0  0  0  0  0  0  0  0  0  0
    9.4651    0.0000    0.0000 H   0  0  0  0  0  0  0  0  0  0  0  0
    8.4607    1.2850    0.0000 H   0  0  0  0  0  0  0  0  0  0  0  0
    7.6636    1.2850    0.0000 H   0  0  0  0  0  0  0  0  0  0  0  0
    7.1962   -0.3100    0.0000 H   0  0  0  0  0  0  0  0  0  0  0  0
    9.1403   -1.2726    0.0000 H   0  0  0  0  0  0  0  0  0  0  0  0
    9.5388   -0.5823    0.0000 H   0  0  0  0  0  0  0  0  0  0  0  0
    5.0656   -0.1649    0.0000 H   0  0  0  0  0  0  0  0  0  0  0  0
    5.8626   -0.1649    0.0000 H   0  0  0  0  0  0  0  0  0  0  0  0
    4.9966    1.2850    0.0000 H   0  0  0  0  0  0  0  0  0  0  0  0
    4.1996    1.2850    0.0000 H   0  0  0  0  0  0  0  0  0  0  0  0
    6.9501    1.8100    0.0000 H   0  0  0  0  0  0  0  0  0  0  0  0
    6.3301    2.4300    0.0000 H   0  0  0  0  0  0  0  0  0  0  0  0
    5.7101    1.8100    0.0000 H   0  0  0  0  0  0  0  0  0  0  0  0
   10.3503   -0.2269    0.0000 H   0  0  0  0  0  0  0  0  0  0  0  0
   11.1972    0.0000    0.0000 H   0  0  0  0  0  0  0  0  0  0  0  0
   10.9703    0.8469    0.0000 H   0  0  0  0  0  0  0  0  0  0  0  0
    3.7320   -0.3100    0.0000 H   0  0  0  0  0  0  0  0  0  0  0  0
   10.3312    2.1200    0.0000 H   0  0  0  0  0  0  0  0  0  0  0  0
    9.2573    2.1200    0.0000 H   0  0  0  0  0  0  0  0  0  0  0  0
    8.0622   -1.8100    0.0000 H   0  0  0  0  0  0  0  0  0  0  0  0
    1.6900    0.8469    0.0000 H   0  0  0  0  0  0  0  0  0  0  0  0
    1.4631    0.0000    0.0000 H   0  0  0  0  0  0  0  0  0  0  0  0
    2.3100   -0.2269    0.0000 H   0  0  0  0  0  0  0  0  0  0  0  0
    3.4860    1.8100    0.0000 H   0  0  0  0  0  0  0  0  0  0  0  0
    2.8660    2.4300    0.0000 H   0  0  0  0  0  0  0  0  0  0  0  0
    2.2460    1.8100    0.0000 H   0  0  0  0  0  0  0  0  0  0  0  0
  1  6  1  0  0  0  0
  1 36  1  0  0  0  0
  2  3  1  0  0  0  0
  2  6  1  0  0  0  0
  2  7  1  0  0  0  0
  2 17  1  0  0  0  0
  3  4  1  0  0  0  0
  3 18  1  0  0  0  0
  3 19  1  0  0  0  0
  4  5  2  3  0  0  0
  4 20  1  0  0  0  0
  5  8  1  0  0  0  0
  5 10  1  0  0  0  0
  6 21  1  0  0  0  0
  6 22  1  0  0  0  0
  7 11  1  0  0  0  0
  7 13  2  0  0  0  0
  8  9  1  0  0  0  0
  8 23  1  0  0  0  0
  8 24  1  0  0  0  0
  9 12  1  0  0  0  0
  9 25  1  0  0  0  0
  9 26  1  0  0  0  0
 10 27  1  0  0  0  0
 10 28  1  0  0  0  0
 10 29  1  0  0  0  0
 11 30  1  0  0  0  0
 11 31  1  0  0  0  0
 11 32  1  0  0  0  0
 12 14  2  0  0  0  0
 12 33  1  0  0  0  0
 13 34  1  0  0  0  0
 13 35  1  0  0  0  0
 14 15  1  0  0  0  0
 14 16  1  0  0  0  0
 15 37  1  0  0  0  0
 15 38  1  0  0  0  0
 15 39  1  0  0  0  0
 16 40  1  0  0  0  0
 16 41  1  0  0  0  0
 16 42  1  0  0  0  0
M  END
> <PUBCHEM_COMPOUND_CID>
524301
> <PUBCHEM_COMPOUND_CANONICALIZED>
1
> <PUBCHEM_CACTVS_COMPLEXITY>
267
> <PUBCHEM_CACTVS_HBOND_ACCEPTOR>
1
> <PUBCHEM_CACTVS_HBOND_DONOR>
1
> <PUBCHEM_CACTVS_ROTATABLE_BOND>
7
> <PUBCHEM_CACTVS_SUBSKEYS>
AAADceBwIAAAAAAAAAAAAAAAAAAAAAAAAAAAAAAAAAAAAAAAAAAAGgAACAAADQCggAICAAAAAgCAAiBCAAAAAAAgAAAACAAAAAgAEAIAAQAAQAAEwAAIAAIAAAAKAAAAAAAAAAAAAAAAAAAAAAAAAAAAAA==
> <PUBCHEM_IUPAC_OPENEYE_NAME>
2-isopropenyl-5,9-dimethyl-deca-4,8-dien-1-ol
> <PUBCHEM_IUPAC_CAS_NAME>
5,9-dimethyl-2-(1-methylethenyl)-1-deca-4,8-dienol
> <PUBCHEM_IUPAC_NAME_MARKUP>
5,9-dimethyl-2-prop-1-en-2-yldeca-4,8-dien-1-ol
> <PUBCHEM_IUPAC_NAME>
5,9-dimethyl-2-prop-1-en-2-yldeca-4,8-dien-1-ol
> <PUBCHEM_IUPAC_SYSTEMATIC_NAME>
5,9-dimethyl-2-prop-1-en-2-yl-deca-4,8-dien-1-ol
> <PUBCHEM_IUPAC_TRADITIONAL_NAME>
2-isopropenyl-5,9-dimethyl-deca-4,8-dien-1-ol
> <PUBCHEM_IUPAC_INCHI>
InChI=1S/C15H26O/c1-12(2)7-6-8-14(5)9-10-15(11-16)13(3)4/h7,9,15-16H,3,6,8,10-11H2,1-2,4-5H3
> <PUBCHEM_IUPAC_INCHIKEY>
JTSPVWIYQLSMER-UHFFFAOYSA-N
> <PUBCHEM_XLOGP3_AA>
4.9
> <PUBCHEM_EXACT_MASS>
222.198365449
> <PUBCHEM_MOLECULAR_FORMULA>
C15H26O
> <PUBCHEM_MOLECULAR_WEIGHT>
222.37
> <PUBCHEM_OPENEYE_CAN_SMILES>
CC(=CCCC(=CCC(CO)C(=C)C)C)C
> <PUBCHEM_OPENEYE_ISO_SMILES>
CC(=CCCC(=CCC(CO)C(=C)C)C)C
> <PUBCHEM_CACTVS_TPSA>
20.2
> <PUBCHEM_MONOISOTOPIC_WEIGHT>
222.198365449
> <PUBCHEM_TOTAL_CHARGE>
0
> <PUBCHEM_HEAVY_ATOM_COUNT>
16
> <PUBCHEM_ATOM_DEF_STEREO_COUNT>
0
> <PUBCHEM_ATOM_UDEF_STEREO_COUNT>
1
> <PUBCHEM_BOND_DEF_STEREO_COUNT>
0
> <PUBCHEM_BOND_UDEF_STEREO_COUNT>
1
> <PUBCHEM_ISOTOPIC_ATOM_COUNT>
0
> <PUBCHEM_COMPONENT_COUNT>
1
> <PUBCHEM_CACTVS_TAUTO_COUNT>
-1
> <PUBCHEM_COORDINATE_TYPE>
1
5
255
> <PUBCHEM_BONDANNOTATIONS>
2  3  3
4  5  1
$$$$
