524302
  -OEChem-10302200292D
 43 45  0     1  0  0  0  0  0999 V2000
    8.1296    2.8601    0.0000 O   0  0  0  0  0  0  0  0  0  0  0  0
    2.6401   -1.3709    0.0000 C   0  0  0  0  0  0  0  0  0  0  0  0
    2.2516   -2.5641    0.0000 C   0  0  3  0  0  0  0  0  0  0  0  0
    2.8255   -2.1441    0.0000 C   0  0  3  0  0  0  0  0  0  0  0  0
    3.6343   -1.2376    0.0000 C   0  0  3  0  0  0  0  0  0  0  0  0
    4.3359   -1.9814    0.0000 C   0  0  0  0  0  0  0  0  0  0  0  0
    3.6343   -2.9425    0.0000 C   0  0  0  0  0  0  0  0  0  0  0  0
    3.4762   -2.3067    0.0000 C   0  0  0  0  0  0  0  0  0  0  0  0
    2.0000   -0.6027    0.0000 C   0  0  0  0  0  0  0  0  0  0  0  0
    4.0148   -0.3129    0.0000 C   0  0  3  0  0  0  0  0  0  0  0  0
    5.0059   -0.1800    0.0000 C   0  0  0  0  0  0  0  0  0  0  0  0
    3.4041    0.4790    0.0000 C   0  0  0  0  0  0  0  0  0  0  0  0
    5.3864    0.7448    0.0000 C   0  0  0  0  0  0  0  0  0  0  0  0
    6.3775    0.8777    0.0000 C   0  0  0  0  0  0  0  0  0  0  0  0
    6.7580    1.8025    0.0000 C   0  0  0  0  0  0  0  0  0  0  0  0
    7.7491    1.9354    0.0000 C   0  0  0  0  0  0  0  0  0  0  0  0
    6.1474    2.5944    0.0000 C   0  0  0  0  0  0  0  0  0  0  0  0
    1.7058   -2.8583    0.0000 H   0  0  0  0  0  0  0  0  0  0  0  0
    2.9447   -2.7525    0.0000 H   0  0  0  0  0  0  0  0  0  0  0  0
    3.2557   -0.7467    0.0000 H   0  0  0  0  0  0  0  0  0  0  0  0
    4.9546   -1.9424    0.0000 H   0  0  0  0  0  0  0  0  0  0  0  0
    3.3995   -3.5164    0.0000 H   0  0  0  0  0  0  0  0  0  0  0  0
    4.1755   -3.2449    0.0000 H   0  0  0  0  0  0  0  0  0  0  0  0
    3.1436   -2.8299    0.0000 H   0  0  0  0  0  0  0  0  0  0  0  0
    3.4400   -1.6877    0.0000 H   0  0  0  0  0  0  0  0  0  0  0  0
    2.4763   -0.2058    0.0000 H   0  0  0  0  0  0  0  0  0  0  0  0
    1.6031   -0.1263    0.0000 H   0  0  0  0  0  0  0  0  0  0  0  0
    1.5237   -0.9995    0.0000 H   0  0  0  0  0  0  0  0  0  0  0  0
    4.2507    0.2605    0.0000 H   0  0  0  0  0  0  0  0  0  0  0  0
    4.9803   -0.7995    0.0000 H   0  0  0  0  0  0  0  0  0  0  0  0
    5.6115   -0.3127    0.0000 H   0  0  0  0  0  0  0  0  0  0  0  0
    3.8951    0.8576    0.0000 H   0  0  0  0  0  0  0  0  0  0  0  0
    3.0255    0.9700    0.0000 H   0  0  0  0  0  0  0  0  0  0  0  0
    2.9131    0.1004    0.0000 H   0  0  0  0  0  0  0  0  0  0  0  0
    5.4120    1.3643    0.0000 H   0  0  0  0  0  0  0  0  0  0  0  0
    4.7808    0.8776    0.0000 H   0  0  0  0  0  0  0  0  0  0  0  0
    6.7561    0.3867    0.0000 H   0  0  0  0  0  0  0  0  0  0  0  0
    7.7236    1.3159    0.0000 H   0  0  0  0  0  0  0  0  0  0  0  0
    8.3547    1.8026    0.0000 H   0  0  0  0  0  0  0  0  0  0  0  0
    6.6383    2.9730    0.0000 H   0  0  0  0  0  0  0  0  0  0  0  0
    5.7688    3.0854    0.0000 H   0  0  0  0  0  0  0  0  0  0  0  0
    5.6564    2.2158    0.0000 H   0  0  0  0  0  0  0  0  0  0  0  0
    8.7441    2.9425    0.0000 H   0  0  0  0  0  0  0  0  0  0  0  0
  1 16  1  0  0  0  0
  1 43  1  0  0  0  0
  2  3  1  0  0  0  0
  2  4  1  0  0  0  0
  2  5  1  0  0  0  0
  2  9  1  0  0  0  0
  3  4  1  0  0  0  0
  3  7  1  0  0  0  0
  3 18  1  0  0  0  0
  4  8  1  0  0  0  0
  4 19  1  0  0  0  0
  5  6  1  0  0  0  0
  5 10  1  0  0  0  0
  5 20  1  0  0  0  0
  6  7  1  0  0  0  0
  6  8  1  0  0  0  0
  6 21  1  0  0  0  0
  7 22  1  0  0  0  0
  7 23  1  0  0  0  0
  8 24  1  0  0  0  0
  8 25  1  0  0  0  0
  9 26  1  0  0  0  0
  9 27  1  0  0  0  0
  9 28  1  0  0  0  0
 10 11  1  0  0  0  0
 10 12  1  0  0  0  0
 10 29  1  0  0  0  0
 11 13  1  0  0  0  0
 11 30  1  0  0  0  0
 11 31  1  0  0  0  0
 12 32  1  0  0  0  0
 12 33  1  0  0  0  0
 12 34  1  0  0  0  0
 13 14  1  0  0  0  0
 13 35  1  0  0  0  0
 13 36  1  0  0  0  0
 14 15  2  3  0  0  0
 14 37  1  0  0  0  0
 15 16  1  0  0  0  0
 15 17  1  0  0  0  0
 16 38  1  0  0  0  0
 16 39  1  0  0  0  0
 17 40  1  0  0  0  0
 17 41  1  0  0  0  0
 17 42  1  0  0  0  0
M  END
> <PUBCHEM_COMPOUND_CID>
524302
> <PUBCHEM_COMPOUND_CANONICALIZED>
1
> <PUBCHEM_CACTVS_COMPLEXITY>
331
> <PUBCHEM_CACTVS_HBOND_ACCEPTOR>
1
> <PUBCHEM_CACTVS_HBOND_DONOR>
1
> <PUBCHEM_CACTVS_ROTATABLE_BOND>
5
> <PUBCHEM_CACTVS_SUBSKEYS>
AAADceB4IAAAAAAAAAAAAAAAGAAAAYMGAAAAAAAAAAAAAAAAAAAAGgAACAAADwCggAICAAAAAgCAAiBCAAAAAAAgAAAACAAAAAgAFAIAAQAAUAAAgAAIEAMAgMAPgAAAAAAAAACAAAQAACAAAQAACAAAAA==
> <PUBCHEM_IUPAC_OPENEYE_NAME>
2-methyl-6-(2-methyl-3-tricyclo[2.2.1.02,6]heptanyl)hept-2-en-1-ol
> <PUBCHEM_IUPAC_CAS_NAME>
2-methyl-6-(2-methyl-3-tricyclo[2.2.1.02,6]heptanyl)-2-hepten-1-ol
> <PUBCHEM_IUPAC_NAME_MARKUP>
2-methyl-6-(2-methyl-3-tricyclo[2.2.1.0<SUP>2,6</SUP>]heptanyl)hept-2-en-1-ol
> <PUBCHEM_IUPAC_NAME>
2-methyl-6-(2-methyl-3-tricyclo[2.2.1.02,6]heptanyl)hept-2-en-1-ol
> <PUBCHEM_IUPAC_SYSTEMATIC_NAME>
2-methyl-6-(2-methyl-3-tricyclo[2.2.1.02,6]heptanyl)hept-2-en-1-ol
> <PUBCHEM_IUPAC_TRADITIONAL_NAME>
2-methyl-6-(2-methyl-3-tricyclo[2.2.1.02,6]heptanyl)hept-2-en-1-ol
> <PUBCHEM_IUPAC_INCHI>
InChI=1S/C16H26O/c1-10(9-17)5-4-6-11(2)15-12-7-13-14(8-12)16(13,15)3/h5,11-15,17H,4,6-9H2,1-3H3
> <PUBCHEM_IUPAC_INCHIKEY>
UWSUGXFVYBVFDX-UHFFFAOYSA-N
> <PUBCHEM_XLOGP3_AA>
4.4
> <PUBCHEM_EXACT_MASS>
234.198365449
> <PUBCHEM_MOLECULAR_FORMULA>
C16H26O
> <PUBCHEM_MOLECULAR_WEIGHT>
234.38
> <PUBCHEM_OPENEYE_CAN_SMILES>
CC(CCC=C(C)CO)C1C2CC3C1(C3C2)C
> <PUBCHEM_OPENEYE_ISO_SMILES>
CC(CCC=C(C)CO)C1C2CC3C1(C3C2)C
> <PUBCHEM_CACTVS_TPSA>
20.2
> <PUBCHEM_MONOISOTOPIC_WEIGHT>
234.198365449
> <PUBCHEM_TOTAL_CHARGE>
0
> <PUBCHEM_HEAVY_ATOM_COUNT>
17
> <PUBCHEM_ATOM_DEF_STEREO_COUNT>
0
> <PUBCHEM_ATOM_UDEF_STEREO_COUNT>
4
> <PUBCHEM_BOND_DEF_STEREO_COUNT>
0
> <PUBCHEM_BOND_UDEF_STEREO_COUNT>
1
> <PUBCHEM_ISOTOPIC_ATOM_COUNT>
0
> <PUBCHEM_COMPONENT_COUNT>
1
> <PUBCHEM_CACTVS_TAUTO_COUNT>
-1
> <PUBCHEM_COORDINATE_TYPE>
1
5
255
> <PUBCHEM_BONDANNOTATIONS>
10  12  3
14  15  1
3  7  3
4  8  3
5  6  3
$$$$
