524394
  -OEChem-10302200292D
 13 13  0     1  0  0  0  0  0999 V2000
    2.0000    1.1739    0.0000 Cl  0  0  0  0  0  0  0  0  0  0  0  0
    3.0878   -1.1739    0.0000 O   0  0  0  0  0  0  0  0  0  0  0  0
    2.5878    0.3649    0.0000 C   0  0  3  0  0  0  0  0  0  0  0  0
    3.5878    0.3649    0.0000 C   0  0  0  0  0  0  0  0  0  0  0  0
    2.2788   -0.5861    0.0000 C   0  0  0  0  0  0  0  0  0  0  0  0
    3.8968   -0.5861    0.0000 C   0  0  0  0  0  0  0  0  0  0  0  0
    1.7482    0.2319    0.0000 H   0  0  0  0  0  0  0  0  0  0  0  0
    4.1942    0.4938    0.0000 H   0  0  0  0  0  0  0  0  0  0  0  0
    3.5230    0.9815    0.0000 H   0  0  0  0  0  0  0  0  0  0  0  0
    1.7124   -0.3340    0.0000 H   0  0  0  0  0  0  0  0  0  0  0  0
    1.9688   -1.1231    0.0000 H   0  0  0  0  0  0  0  0  0  0  0  0
    4.2068   -1.1231    0.0000 H   0  0  0  0  0  0  0  0  0  0  0  0
    4.4632   -0.3340    0.0000 H   0  0  0  0  0  0  0  0  0  0  0  0
  1  3  1  0  0  0  0
  2  5  1  0  0  0  0
  2  6  1  0  0  0  0
  3  4  1  0  0  0  0
  3  5  1  0  0  0  0
  3  7  1  0  0  0  0
  4  6  1  0  0  0  0
  4  8  1  0  0  0  0
  4  9  1  0  0  0  0
  5 10  1  0  0  0  0
  5 11  1  0  0  0  0
  6 12  1  0  0  0  0
  6 13  1  0  0  0  0
M  END
> <PUBCHEM_COMPOUND_CID>
524394
> <PUBCHEM_COMPOUND_CANONICALIZED>
1
> <PUBCHEM_CACTVS_COMPLEXITY>
46.8
> <PUBCHEM_CACTVS_HBOND_ACCEPTOR>
1
> <PUBCHEM_CACTVS_HBOND_DONOR>
0
> <PUBCHEM_CACTVS_ROTATABLE_BOND>
0
> <PUBCHEM_CACTVS_SUBSKEYS>
AAADcYBgIAAEAAAAAAAAAAAAAAAAASAAAAAAAAAAAAAAAAAAAAAAGgIAAAAACAOggEIAAAAABAAAAAAAAAAAAAAAAAAAAAAAAwAAAAAAAAACAAAEAAAAAAAAAAAAAAAAAAAAAAAAAAAAAAAAAAAAAAAAAA==
> <PUBCHEM_IUPAC_OPENEYE_NAME>
3-chlorotetrahydrofuran
> <PUBCHEM_IUPAC_CAS_NAME>
3-chlorooxolane
> <PUBCHEM_IUPAC_NAME_MARKUP>
3-chlorooxolane
> <PUBCHEM_IUPAC_NAME>
3-chlorooxolane
> <PUBCHEM_IUPAC_SYSTEMATIC_NAME>
3-chloranyloxolane
> <PUBCHEM_IUPAC_TRADITIONAL_NAME>
3-chlorotetrahydrofuran
> <PUBCHEM_IUPAC_INCHI>
InChI=1S/C4H7ClO/c5-4-1-2-6-3-4/h4H,1-3H2
> <PUBCHEM_IUPAC_INCHIKEY>
FPHNWFFKQCPXPI-UHFFFAOYSA-N
> <PUBCHEM_XLOGP3_AA>
0.9
> <PUBCHEM_EXACT_MASS>
106.0185425
> <PUBCHEM_MOLECULAR_FORMULA>
C4H7ClO
> <PUBCHEM_MOLECULAR_WEIGHT>
106.55
> <PUBCHEM_OPENEYE_CAN_SMILES>
C1COCC1Cl
> <PUBCHEM_OPENEYE_ISO_SMILES>
C1COCC1Cl
> <PUBCHEM_CACTVS_TPSA>
9.2
> <PUBCHEM_MONOISOTOPIC_WEIGHT>
106.0185425
> <PUBCHEM_TOTAL_CHARGE>
0
> <PUBCHEM_HEAVY_ATOM_COUNT>
6
> <PUBCHEM_ATOM_DEF_STEREO_COUNT>
0
> <PUBCHEM_ATOM_UDEF_STEREO_COUNT>
1
> <PUBCHEM_BOND_DEF_STEREO_COUNT>
0
> <PUBCHEM_BOND_UDEF_STEREO_COUNT>
0
> <PUBCHEM_ISOTOPIC_ATOM_COUNT>
0
> <PUBCHEM_COMPONENT_COUNT>
1
> <PUBCHEM_CACTVS_TAUTO_COUNT>
1
> <PUBCHEM_COORDINATE_TYPE>
1
5
255
> <PUBCHEM_BONDANNOTATIONS>
3  7  3
$$$$
