524465
  -OEChem-10302200292D
 84 83  0     1  0  0  0  0  0999 V2000
   12.3923    6.7500    0.0000 Si  0  0  0  0  0  0  0  0  0  0  0  0
   11.5263    7.2500    0.0000 O   0  0  0  0  0  0  0  0  0  0  0  0
    8.9282    6.7500    0.0000 O   0  0  0  0  0  0  0  0  0  0  0  0
    9.7942    8.2500    0.0000 O   0  0  0  0  0  0  0  0  0  0  0  0
    7.1962    0.7500    0.0000 C   0  0  0  0  0  0  0  0  0  0  0  0
    8.0622    1.2500    0.0000 C   0  0  0  0  0  0  0  0  0  0  0  0
    7.1962   -0.2500    0.0000 C   0  0  0  0  0  0  0  0  0  0  0  0
    8.0622    2.2500    0.0000 C   0  0  0  0  0  0  0  0  0  0  0  0
    6.3301   -0.7500    0.0000 C   0  0  0  0  0  0  0  0  0  0  0  0
    8.9282    2.7500    0.0000 C   0  0  0  0  0  0  0  0  0  0  0  0
    6.3301   -1.7500    0.0000 C   0  0  0  0  0  0  0  0  0  0  0  0
    8.9282    3.7500    0.0000 C   0  0  0  0  0  0  0  0  0  0  0  0
    5.4641   -2.2500    0.0000 C   0  0  0  0  0  0  0  0  0  0  0  0
    9.7942    4.2500    0.0000 C   0  0  0  0  0  0  0  0  0  0  0  0
    5.4641   -3.2500    0.0000 C   0  0  0  0  0  0  0  0  0  0  0  0
    9.7942    5.2500    0.0000 C   0  0  0  0  0  0  0  0  0  0  0  0
    4.5981   -3.7500    0.0000 C   0  0  0  0  0  0  0  0  0  0  0  0
   10.6603    5.7500    0.0000 C   0  0  0  0  0  0  0  0  0  0  0  0
    4.5981   -4.7500    0.0000 C   0  0  0  0  0  0  0  0  0  0  0  0
    3.7320   -5.2500    0.0000 C   0  0  0  0  0  0  0  0  0  0  0  0
   10.6603    6.7500    0.0000 C   0  0  3  0  0  0  0  0  0  0  0  0
    3.7320   -6.2500    0.0000 C   0  0  0  0  0  0  0  0  0  0  0  0
    2.8660   -6.7500    0.0000 C   0  0  0  0  0  0  0  0  0  0  0  0
    9.7942    7.2500    0.0000 C   0  0  0  0  0  0  0  0  0  0  0  0
    2.8660   -7.7500    0.0000 C   0  0  0  0  0  0  0  0  0  0  0  0
   13.2583    6.2500    0.0000 C   0  0  0  0  0  0  0  0  0  0  0  0
   12.8923    7.6160    0.0000 C   0  0  0  0  0  0  0  0  0  0  0  0
   11.8923    5.8840    0.0000 C   0  0  0  0  0  0  0  0  0  0  0  0
    2.0000   -8.2500    0.0000 C   0  0  0  0  0  0  0  0  0  0  0  0
    8.0622    7.2500    0.0000 C   0  0  0  0  0  0  0  0  0  0  0  0
    6.9841    1.3326    0.0000 H   0  0  0  0  0  0  0  0  0  0  0  0
    6.5856    0.6423    0.0000 H   0  0  0  0  0  0  0  0  0  0  0  0
    8.2742    0.6674    0.0000 H   0  0  0  0  0  0  0  0  0  0  0  0
    8.6728    1.3577    0.0000 H   0  0  0  0  0  0  0  0  0  0  0  0
    7.4082   -0.8326    0.0000 H   0  0  0  0  0  0  0  0  0  0  0  0
    7.8067   -0.1423    0.0000 H   0  0  0  0  0  0  0  0  0  0  0  0
    7.8501    2.8326    0.0000 H   0  0  0  0  0  0  0  0  0  0  0  0
    7.4516    2.1423    0.0000 H   0  0  0  0  0  0  0  0  0  0  0  0
    6.1181   -0.1674    0.0000 H   0  0  0  0  0  0  0  0  0  0  0  0
    5.7196   -0.8577    0.0000 H   0  0  0  0  0  0  0  0  0  0  0  0
    9.1403    2.1674    0.0000 H   0  0  0  0  0  0  0  0  0  0  0  0
    9.5388    2.8577    0.0000 H   0  0  0  0  0  0  0  0  0  0  0  0
    6.5422   -2.3326    0.0000 H   0  0  0  0  0  0  0  0  0  0  0  0
    6.9407   -1.6423    0.0000 H   0  0  0  0  0  0  0  0  0  0  0  0
    8.7162    4.3326    0.0000 H   0  0  0  0  0  0  0  0  0  0  0  0
    8.3176    3.6423    0.0000 H   0  0  0  0  0  0  0  0  0  0  0  0
    5.2520   -1.6674    0.0000 H   0  0  0  0  0  0  0  0  0  0  0  0
    4.8535   -2.3577    0.0000 H   0  0  0  0  0  0  0  0  0  0  0  0
   10.0063    3.6674    0.0000 H   0  0  0  0  0  0  0  0  0  0  0  0
   10.4048    4.3577    0.0000 H   0  0  0  0  0  0  0  0  0  0  0  0
    5.6762   -3.8326    0.0000 H   0  0  0  0  0  0  0  0  0  0  0  0
    6.0747   -3.1423    0.0000 H   0  0  0  0  0  0  0  0  0  0  0  0
    9.5822    5.8326    0.0000 H   0  0  0  0  0  0  0  0  0  0  0  0
    9.1836    5.1423    0.0000 H   0  0  0  0  0  0  0  0  0  0  0  0
    4.3860   -3.1674    0.0000 H   0  0  0  0  0  0  0  0  0  0  0  0
    3.9875   -3.8577    0.0000 H   0  0  0  0  0  0  0  0  0  0  0  0
   10.8723    5.1674    0.0000 H   0  0  0  0  0  0  0  0  0  0  0  0
   11.2708    5.8577    0.0000 H   0  0  0  0  0  0  0  0  0  0  0  0
    4.8101   -5.3326    0.0000 H   0  0  0  0  0  0  0  0  0  0  0  0
    5.2087   -4.6423    0.0000 H   0  0  0  0  0  0  0  0  0  0  0  0
    3.5200   -4.6674    0.0000 H   0  0  0  0  0  0  0  0  0  0  0  0
    3.1215   -5.3577    0.0000 H   0  0  0  0  0  0  0  0  0  0  0  0
   11.1972    6.4400    0.0000 H   0  0  0  0  0  0  0  0  0  0  0  0
    3.9441   -6.8326    0.0000 H   0  0  0  0  0  0  0  0  0  0  0  0
    4.3426   -6.1423    0.0000 H   0  0  0  0  0  0  0  0  0  0  0  0
    2.6540   -6.1674    0.0000 H   0  0  0  0  0  0  0  0  0  0  0  0
    2.2554   -6.8577    0.0000 H   0  0  0  0  0  0  0  0  0  0  0  0
    3.0781   -8.3326    0.0000 H   0  0  0  0  0  0  0  0  0  0  0  0
    3.4766   -7.6423    0.0000 H   0  0  0  0  0  0  0  0  0  0  0  0
   12.9483    5.7131    0.0000 H   0  0  0  0  0  0  0  0  0  0  0  0
   13.7953    5.9400    0.0000 H   0  0  0  0  0  0  0  0  0  0  0  0
   13.5683    6.7869    0.0000 H   0  0  0  0  0  0  0  0  0  0  0  0
   13.4292    7.3060    0.0000 H   0  0  0  0  0  0  0  0  0  0  0  0
   13.2023    8.1530    0.0000 H   0  0  0  0  0  0  0  0  0  0  0  0
   12.3554    7.9260    0.0000 H   0  0  0  0  0  0  0  0  0  0  0  0
   11.3554    6.1940    0.0000 H   0  0  0  0  0  0  0  0  0  0  0  0
   11.5823    5.3470    0.0000 H   0  0  0  0  0  0  0  0  0  0  0  0
   12.4292    5.5740    0.0000 H   0  0  0  0  0  0  0  0  0  0  0  0
    1.6900   -7.7131    0.0000 H   0  0  0  0  0  0  0  0  0  0  0  0
    1.4631   -8.5600    0.0000 H   0  0  0  0  0  0  0  0  0  0  0  0
    2.3100   -8.7869    0.0000 H   0  0  0  0  0  0  0  0  0  0  0  0
    8.3722    7.7869    0.0000 H   0  0  0  0  0  0  0  0  0  0  0  0
    7.5252    7.5600    0.0000 H   0  0  0  0  0  0  0  0  0  0  0  0
    7.7522    6.7131    0.0000 H   0  0  0  0  0  0  0  0  0  0  0  0
  1  2  1  0  0  0  0
  1 26  1  0  0  0  0
  1 27  1  0  0  0  0
  1 28  1  0  0  0  0
  2 21  1  0  0  0  0
  3 24  1  0  0  0  0
  3 30  1  0  0  0  0
  4 24  2  0  0  0  0
  5  6  1  0  0  0  0
  5  7  1  0  0  0  0
  5 31  1  0  0  0  0
  5 32  1  0  0  0  0
  6  8  1  0  0  0  0
  6 33  1  0  0  0  0
  6 34  1  0  0  0  0
  7  9  1  0  0  0  0
  7 35  1  0  0  0  0
  7 36  1  0  0  0  0
  8 10  1  0  0  0  0
  8 37  1  0  0  0  0
  8 38  1  0  0  0  0
  9 11  1  0  0  0  0
  9 39  1  0  0  0  0
  9 40  1  0  0  0  0
 10 12  1  0  0  0  0
 10 41  1  0  0  0  0
 10 42  1  0  0  0  0
 11 13  1  0  0  0  0
 11 43  1  0  0  0  0
 11 44  1  0  0  0  0
 12 14  1  0  0  0  0
 12 45  1  0  0  0  0
 12 46  1  0  0  0  0
 13 15  1  0  0  0  0
 13 47  1  0  0  0  0
 13 48  1  0  0  0  0
 14 16  1  0  0  0  0
 14 49  1  0  0  0  0
 14 50  1  0  0  0  0
 15 17  1  0  0  0  0
 15 51  1  0  0  0  0
 15 52  1  0  0  0  0
 16 18  1  0  0  0  0
 16 53  1  0  0  0  0
 16 54  1  0  0  0  0
 17 19  1  0  0  0  0
 17 55  1  0  0  0  0
 17 56  1  0  0  0  0
 18 21  1  0  0  0  0
 18 57  1  0  0  0  0
 18 58  1  0  0  0  0
 19 20  1  0  0  0  0
 19 59  1  0  0  0  0
 19 60  1  0  0  0  0
 20 22  1  0  0  0  0
 20 61  1  0  0  0  0
 20 62  1  0  0  0  0
 21 24  1  0  0  0  0
 21 63  1  0  0  0  0
 22 23  1  0  0  0  0
 22 64  1  0  0  0  0
 22 65  1  0  0  0  0
 23 25  1  0  0  0  0
 23 66  1  0  0  0  0
 23 67  1  0  0  0  0
 25 29  1  0  0  0  0
 25 68  1  0  0  0  0
 25 69  1  0  0  0  0
 26 70  1  0  0  0  0
 26 71  1  0  0  0  0
 26 72  1  0  0  0  0
 27 73  1  0  0  0  0
 27 74  1  0  0  0  0
 27 75  1  0  0  0  0
 28 76  1  0  0  0  0
 28 77  1  0  0  0  0
 28 78  1  0  0  0  0
 29 79  1  0  0  0  0
 29 80  1  0  0  0  0
 29 81  1  0  0  0  0
 30 82  1  0  0  0  0
 30 83  1  0  0  0  0
 30 84  1  0  0  0  0
M  END
> <PUBCHEM_COMPOUND_CID>
524465
> <PUBCHEM_COMPOUND_CANONICALIZED>
1
> <PUBCHEM_CACTVS_COMPLEXITY>
379
> <PUBCHEM_CACTVS_HBOND_ACCEPTOR>
3
> <PUBCHEM_CACTVS_HBOND_DONOR>
0
> <PUBCHEM_CACTVS_ROTATABLE_BOND>
23
> <PUBCHEM_CACTVS_SUBSKEYS>
AAADcfB4MAgAAAAAAAAAAAAAAAAAAAAAAAAAAAAAAAAAAAAAAAAAGhAAAEAACBSggAJCCAAABAEIAACQCAIAAAAAAAAAAAFAAAABABIAAAAAAAAEAAACAAGIyKCAAAAAAAAAAAAAAAAAAAAAAAAAAAAAAA==
> <PUBCHEM_IUPAC_OPENEYE_NAME>
methyl 2-trimethylsilyloxydocosanoate
> <PUBCHEM_IUPAC_CAS_NAME>
2-trimethylsilyloxydocosanoic acid methyl ester
> <PUBCHEM_IUPAC_NAME_MARKUP>
methyl 2-trimethylsilyloxydocosanoate
> <PUBCHEM_IUPAC_NAME>
methyl 2-trimethylsilyloxydocosanoate
> <PUBCHEM_IUPAC_SYSTEMATIC_NAME>
methyl 2-trimethylsilyloxydocosanoate
> <PUBCHEM_IUPAC_TRADITIONAL_NAME>
2-trimethylsilyloxybehenic acid methyl ester
> <PUBCHEM_IUPAC_INCHI>
InChI=1S/C26H54O3Si/c1-6-7-8-9-10-11-12-13-14-15-16-17-18-19-20-21-22-23-24-25(26(27)28-2)29-30(3,4)5/h25H,6-24H2,1-5H3
> <PUBCHEM_IUPAC_INCHIKEY>
QSSVMTKWPPSPAQ-UHFFFAOYSA-N
> <PUBCHEM_EXACT_MASS>
442.38422211
> <PUBCHEM_MOLECULAR_FORMULA>
C26H54O3Si
> <PUBCHEM_MOLECULAR_WEIGHT>
442.8
> <PUBCHEM_OPENEYE_CAN_SMILES>
CCCCCCCCCCCCCCCCCCCCC(C(=O)OC)O[Si](C)(C)C
> <PUBCHEM_OPENEYE_ISO_SMILES>
CCCCCCCCCCCCCCCCCCCCC(C(=O)OC)O[Si](C)(C)C
> <PUBCHEM_CACTVS_TPSA>
35.5
> <PUBCHEM_MONOISOTOPIC_WEIGHT>
442.38422211
> <PUBCHEM_TOTAL_CHARGE>
0
> <PUBCHEM_HEAVY_ATOM_COUNT>
30
> <PUBCHEM_ATOM_DEF_STEREO_COUNT>
0
> <PUBCHEM_ATOM_UDEF_STEREO_COUNT>
1
> <PUBCHEM_BOND_DEF_STEREO_COUNT>
0
> <PUBCHEM_BOND_UDEF_STEREO_COUNT>
0
> <PUBCHEM_ISOTOPIC_ATOM_COUNT>
0
> <PUBCHEM_COMPONENT_COUNT>
1
> <PUBCHEM_CACTVS_TAUTO_COUNT>
1
> <PUBCHEM_COORDINATE_TYPE>
1
5
255
> <PUBCHEM_BONDANNOTATIONS>
21  18  3
$$$$
