524449
  -OEChem-10302200292D
 27 27  0     1  0  0  0  0  0999 V2000
    2.9010   -0.5000    0.0000 C   0  0  3  0  0  0  0  0  0  0  0  0
    5.0916   -0.0000    0.0000 C   0  0  3  0  0  0  0  0  0  0  0  0
    3.6828   -1.1235    0.0000 C   0  0  0  0  0  0  0  0  0  0  0  0
    4.6577   -0.9010    0.0000 C   0  0  0  0  0  0  0  0  0  0  0  0
    2.9010    0.5000    0.0000 C   0  0  0  0  0  0  0  0  0  0  0  0
    4.6577    0.9010    0.0000 C   0  0  0  0  0  0  0  0  0  0  0  0
    3.6828    1.1235    0.0000 C   0  0  0  0  0  0  0  0  0  0  0  0
    2.0000   -0.9339    0.0000 C   0  0  0  0  0  0  0  0  0  0  0  0
    6.0916   -0.0000    0.0000 C   0  0  0  0  0  0  0  0  0  0  0  0
    2.3760   -0.1701    0.0000 H   0  0  0  0  0  0  0  0  0  0  0  0
    5.4215    0.5250    0.0000 H   0  0  0  0  0  0  0  0  0  0  0  0
    3.1981   -1.5100    0.0000 H   0  0  0  0  0  0  0  0  0  0  0  0
    3.9518   -1.6821    0.0000 H   0  0  0  0  0  0  0  0  0  0  0  0
    4.6577   -1.5210    0.0000 H   0  0  0  0  0  0  0  0  0  0  0  0
    5.2622   -1.0389    0.0000 H   0  0  0  0  0  0  0  0  0  0  0  0
    2.6320    1.0586    0.0000 H   0  0  0  0  0  0  0  0  0  0  0  0
    2.2965    0.3620    0.0000 H   0  0  0  0  0  0  0  0  0  0  0  0
    5.2622    1.0389    0.0000 H   0  0  0  0  0  0  0  0  0  0  0  0
    4.6577    1.5210    0.0000 H   0  0  0  0  0  0  0  0  0  0  0  0
    3.9518    1.6821    0.0000 H   0  0  0  0  0  0  0  0  0  0  0  0
    3.1981    1.5100    0.0000 H   0  0  0  0  0  0  0  0  0  0  0  0
    1.7310   -0.3753    0.0000 H   0  0  0  0  0  0  0  0  0  0  0  0
    1.4414   -1.2029    0.0000 H   0  0  0  0  0  0  0  0  0  0  0  0
    2.2690   -1.4925    0.0000 H   0  0  0  0  0  0  0  0  0  0  0  0
    6.0916   -0.6200    0.0000 H   0  0  0  0  0  0  0  0  0  0  0  0
    6.7116   -0.0000    0.0000 H   0  0  0  0  0  0  0  0  0  0  0  0
    6.0916    0.6200    0.0000 H   0  0  0  0  0  0  0  0  0  0  0  0
  1  3  1  0  0  0  0
  1  5  1  0  0  0  0
  1  8  1  0  0  0  0
  1 10  1  0  0  0  0
  2  4  1  0  0  0  0
  2  6  1  0  0  0  0
  2  9  1  0  0  0  0
  2 11  1  0  0  0  0
  3  4  1  0  0  0  0
  3 12  1  0  0  0  0
  3 13  1  0  0  0  0
  4 14  1  0  0  0  0
  4 15  1  0  0  0  0
  5  7  1  0  0  0  0
  5 16  1  0  0  0  0
  5 17  1  0  0  0  0
  6  7  1  0  0  0  0
  6 18  1  0  0  0  0
  6 19  1  0  0  0  0
  7 20  1  0  0  0  0
  7 21  1  0  0  0  0
  8 22  1  0  0  0  0
  8 23  1  0  0  0  0
  8 24  1  0  0  0  0
  9 25  1  0  0  0  0
  9 26  1  0  0  0  0
  9 27  1  0  0  0  0
M  END
> <PUBCHEM_COMPOUND_CID>
524449
> <PUBCHEM_COMPOUND_CANONICALIZED>
1
> <PUBCHEM_CACTVS_COMPLEXITY>
66.1
> <PUBCHEM_CACTVS_HBOND_ACCEPTOR>
0
> <PUBCHEM_CACTVS_HBOND_DONOR>
0
> <PUBCHEM_CACTVS_ROTATABLE_BOND>
0
> <PUBCHEM_CACTVS_SUBSKEYS>
AAADceBwAAAAAAAAAAAAAAAAAAAAAAAAAAAAAAAABgAAAAAAAAAAGAAAAAAADQCAAAACAAAAAAAAAAAAAAAAAAAAAAAAAAAAAAAAAAIAAAAAAAAAAAAAAAEAgMAOAAAAAAAAAAAAAAAAAAAAAAAAAAAAAA==
> <PUBCHEM_IUPAC_OPENEYE_NAME>
1,4-dimethylcycloheptane
> <PUBCHEM_IUPAC_CAS_NAME>
1,4-dimethylcycloheptane
> <PUBCHEM_IUPAC_NAME_MARKUP>
1,4-dimethylcycloheptane
> <PUBCHEM_IUPAC_NAME>
1,4-dimethylcycloheptane
> <PUBCHEM_IUPAC_SYSTEMATIC_NAME>
1,4-dimethylcycloheptane
> <PUBCHEM_IUPAC_TRADITIONAL_NAME>
1,4-dimethylcycloheptane
> <PUBCHEM_IUPAC_INCHI>
InChI=1S/C9H18/c1-8-4-3-5-9(2)7-6-8/h8-9H,3-7H2,1-2H3
> <PUBCHEM_IUPAC_INCHIKEY>
RTMKECNXERXKNU-UHFFFAOYSA-N
> <PUBCHEM_XLOGP3_AA>
4.3
> <PUBCHEM_EXACT_MASS>
126.140850574
> <PUBCHEM_MOLECULAR_FORMULA>
C9H18
> <PUBCHEM_MOLECULAR_WEIGHT>
126.24
> <PUBCHEM_OPENEYE_CAN_SMILES>
CC1CCCC(CC1)C
> <PUBCHEM_OPENEYE_ISO_SMILES>
CC1CCCC(CC1)C
> <PUBCHEM_CACTVS_TPSA>
0
> <PUBCHEM_MONOISOTOPIC_WEIGHT>
126.140850574
> <PUBCHEM_TOTAL_CHARGE>
0
> <PUBCHEM_HEAVY_ATOM_COUNT>
9
> <PUBCHEM_ATOM_DEF_STEREO_COUNT>
0
> <PUBCHEM_ATOM_UDEF_STEREO_COUNT>
2
> <PUBCHEM_BOND_DEF_STEREO_COUNT>
0
> <PUBCHEM_BOND_UDEF_STEREO_COUNT>
0
> <PUBCHEM_ISOTOPIC_ATOM_COUNT>
0
> <PUBCHEM_COMPONENT_COUNT>
1
> <PUBCHEM_CACTVS_TAUTO_COUNT>
-1
> <PUBCHEM_COORDINATE_TYPE>
1
5
255
> <PUBCHEM_BONDANNOTATIONS>
1  8  3
2  9  3
$$$$
