524463
  -OEChem-10302200292D
 78 77  0     1  0  0  0  0  0999 V2000
   11.5263    6.0000    0.0000 Si  0  0  0  0  0  0  0  0  0  0  0  0
   10.6603    6.5000    0.0000 O   0  0  0  0  0  0  0  0  0  0  0  0
    8.0622    6.0000    0.0000 O   0  0  0  0  0  0  0  0  0  0  0  0
    8.9282    7.5000    0.0000 O   0  0  0  0  0  0  0  0  0  0  0  0
    7.1962    0.5000    0.0000 C   0  0  0  0  0  0  0  0  0  0  0  0
    7.1962    1.5000    0.0000 C   0  0  0  0  0  0  0  0  0  0  0  0
    6.3301    0.0000    0.0000 C   0  0  0  0  0  0  0  0  0  0  0  0
    8.0622    2.0000    0.0000 C   0  0  0  0  0  0  0  0  0  0  0  0
    6.3301   -1.0000    0.0000 C   0  0  0  0  0  0  0  0  0  0  0  0
    8.0622    3.0000    0.0000 C   0  0  0  0  0  0  0  0  0  0  0  0
    5.4641   -1.5000    0.0000 C   0  0  0  0  0  0  0  0  0  0  0  0
    8.9282    3.5000    0.0000 C   0  0  0  0  0  0  0  0  0  0  0  0
    5.4641   -2.5000    0.0000 C   0  0  0  0  0  0  0  0  0  0  0  0
    8.9282    4.5000    0.0000 C   0  0  0  0  0  0  0  0  0  0  0  0
    4.5981   -3.0000    0.0000 C   0  0  0  0  0  0  0  0  0  0  0  0
    9.7942    5.0000    0.0000 C   0  0  0  0  0  0  0  0  0  0  0  0
    4.5981   -4.0000    0.0000 C   0  0  0  0  0  0  0  0  0  0  0  0
    3.7320   -4.5000    0.0000 C   0  0  0  0  0  0  0  0  0  0  0  0
    9.7942    6.0000    0.0000 C   0  0  3  0  0  0  0  0  0  0  0  0
    3.7320   -5.5000    0.0000 C   0  0  0  0  0  0  0  0  0  0  0  0
    2.8660   -6.0000    0.0000 C   0  0  0  0  0  0  0  0  0  0  0  0
    8.9282    6.5000    0.0000 C   0  0  0  0  0  0  0  0  0  0  0  0
    2.8660   -7.0000    0.0000 C   0  0  0  0  0  0  0  0  0  0  0  0
   12.3923    5.5000    0.0000 C   0  0  0  0  0  0  0  0  0  0  0  0
   12.0263    6.8660    0.0000 C   0  0  0  0  0  0  0  0  0  0  0  0
   11.0263    5.1340    0.0000 C   0  0  0  0  0  0  0  0  0  0  0  0
    2.0000   -7.5000    0.0000 C   0  0  0  0  0  0  0  0  0  0  0  0
    7.1962    6.5000    0.0000 C   0  0  0  0  0  0  0  0  0  0  0  0
    7.4082   -0.0826    0.0000 H   0  0  0  0  0  0  0  0  0  0  0  0
    7.8067    0.6077    0.0000 H   0  0  0  0  0  0  0  0  0  0  0  0
    6.9841    2.0826    0.0000 H   0  0  0  0  0  0  0  0  0  0  0  0
    6.5856    1.3923    0.0000 H   0  0  0  0  0  0  0  0  0  0  0  0
    6.1181    0.5826    0.0000 H   0  0  0  0  0  0  0  0  0  0  0  0
    5.7196   -0.1077    0.0000 H   0  0  0  0  0  0  0  0  0  0  0  0
    8.2742    1.4174    0.0000 H   0  0  0  0  0  0  0  0  0  0  0  0
    8.6728    2.1077    0.0000 H   0  0  0  0  0  0  0  0  0  0  0  0
    6.5422   -1.5826    0.0000 H   0  0  0  0  0  0  0  0  0  0  0  0
    6.9407   -0.8923    0.0000 H   0  0  0  0  0  0  0  0  0  0  0  0
    7.8501    3.5826    0.0000 H   0  0  0  0  0  0  0  0  0  0  0  0
    7.4516    2.8923    0.0000 H   0  0  0  0  0  0  0  0  0  0  0  0
    5.2520   -0.9174    0.0000 H   0  0  0  0  0  0  0  0  0  0  0  0
    4.8535   -1.6077    0.0000 H   0  0  0  0  0  0  0  0  0  0  0  0
    9.1403    2.9174    0.0000 H   0  0  0  0  0  0  0  0  0  0  0  0
    9.5388    3.6077    0.0000 H   0  0  0  0  0  0  0  0  0  0  0  0
    5.6762   -3.0826    0.0000 H   0  0  0  0  0  0  0  0  0  0  0  0
    6.0747   -2.3923    0.0000 H   0  0  0  0  0  0  0  0  0  0  0  0
    8.7162    5.0826    0.0000 H   0  0  0  0  0  0  0  0  0  0  0  0
    8.3176    4.3923    0.0000 H   0  0  0  0  0  0  0  0  0  0  0  0
    4.3860   -2.4174    0.0000 H   0  0  0  0  0  0  0  0  0  0  0  0
    3.9875   -3.1077    0.0000 H   0  0  0  0  0  0  0  0  0  0  0  0
   10.0063    4.4174    0.0000 H   0  0  0  0  0  0  0  0  0  0  0  0
   10.4048    5.1077    0.0000 H   0  0  0  0  0  0  0  0  0  0  0  0
    4.8101   -4.5826    0.0000 H   0  0  0  0  0  0  0  0  0  0  0  0
    5.2087   -3.8923    0.0000 H   0  0  0  0  0  0  0  0  0  0  0  0
    3.5200   -3.9174    0.0000 H   0  0  0  0  0  0  0  0  0  0  0  0
    3.1215   -4.6077    0.0000 H   0  0  0  0  0  0  0  0  0  0  0  0
    9.7942    6.6200    0.0000 H   0  0  0  0  0  0  0  0  0  0  0  0
    3.9441   -6.0826    0.0000 H   0  0  0  0  0  0  0  0  0  0  0  0
    4.3426   -5.3923    0.0000 H   0  0  0  0  0  0  0  0  0  0  0  0
    2.6540   -5.4174    0.0000 H   0  0  0  0  0  0  0  0  0  0  0  0
    2.2554   -6.1077    0.0000 H   0  0  0  0  0  0  0  0  0  0  0  0
    3.0781   -7.5826    0.0000 H   0  0  0  0  0  0  0  0  0  0  0  0
    3.4766   -6.8923    0.0000 H   0  0  0  0  0  0  0  0  0  0  0  0
   12.0823    4.9631    0.0000 H   0  0  0  0  0  0  0  0  0  0  0  0
   12.9292    5.1900    0.0000 H   0  0  0  0  0  0  0  0  0  0  0  0
   12.7023    6.0369    0.0000 H   0  0  0  0  0  0  0  0  0  0  0  0
   12.5632    6.5560    0.0000 H   0  0  0  0  0  0  0  0  0  0  0  0
   12.3363    7.4030    0.0000 H   0  0  0  0  0  0  0  0  0  0  0  0
   11.4893    7.1760    0.0000 H   0  0  0  0  0  0  0  0  0  0  0  0
   10.4893    5.4440    0.0000 H   0  0  0  0  0  0  0  0  0  0  0  0
   10.7163    4.5970    0.0000 H   0  0  0  0  0  0  0  0  0  0  0  0
   11.5632    4.8240    0.0000 H   0  0  0  0  0  0  0  0  0  0  0  0
    1.6900   -6.9631    0.0000 H   0  0  0  0  0  0  0  0  0  0  0  0
    1.4631   -7.8100    0.0000 H   0  0  0  0  0  0  0  0  0  0  0  0
    2.3100   -8.0369    0.0000 H   0  0  0  0  0  0  0  0  0  0  0  0
    7.5062    7.0369    0.0000 H   0  0  0  0  0  0  0  0  0  0  0  0
    6.6592    6.8100    0.0000 H   0  0  0  0  0  0  0  0  0  0  0  0
    6.8862    5.9631    0.0000 H   0  0  0  0  0  0  0  0  0  0  0  0
  1  2  1  0  0  0  0
  1 24  1  0  0  0  0
  1 25  1  0  0  0  0
  1 26  1  0  0  0  0
  2 19  1  0  0  0  0
  3 22  1  0  0  0  0
  3 28  1  0  0  0  0
  4 22  2  0  0  0  0
  5  6  1  0  0  0  0
  5  7  1  0  0  0  0
  5 29  1  0  0  0  0
  5 30  1  0  0  0  0
  6  8  1  0  0  0  0
  6 31  1  0  0  0  0
  6 32  1  0  0  0  0
  7  9  1  0  0  0  0
  7 33  1  0  0  0  0
  7 34  1  0  0  0  0
  8 10  1  0  0  0  0
  8 35  1  0  0  0  0
  8 36  1  0  0  0  0
  9 11  1  0  0  0  0
  9 37  1  0  0  0  0
  9 38  1  0  0  0  0
 10 12  1  0  0  0  0
 10 39  1  0  0  0  0
 10 40  1  0  0  0  0
 11 13  1  0  0  0  0
 11 41  1  0  0  0  0
 11 42  1  0  0  0  0
 12 14  1  0  0  0  0
 12 43  1  0  0  0  0
 12 44  1  0  0  0  0
 13 15  1  0  0  0  0
 13 45  1  0  0  0  0
 13 46  1  0  0  0  0
 14 16  1  0  0  0  0
 14 47  1  0  0  0  0
 14 48  1  0  0  0  0
 15 17  1  0  0  0  0
 15 49  1  0  0  0  0
 15 50  1  0  0  0  0
 16 19  1  0  0  0  0
 16 51  1  0  0  0  0
 16 52  1  0  0  0  0
 17 18  1  0  0  0  0
 17 53  1  0  0  0  0
 17 54  1  0  0  0  0
 18 20  1  0  0  0  0
 18 55  1  0  0  0  0
 18 56  1  0  0  0  0
 19 22  1  0  0  0  0
 19 57  1  0  0  0  0
 20 21  1  0  0  0  0
 20 58  1  0  0  0  0
 20 59  1  0  0  0  0
 21 23  1  0  0  0  0
 21 60  1  0  0  0  0
 21 61  1  0  0  0  0
 23 27  1  0  0  0  0
 23 62  1  0  0  0  0
 23 63  1  0  0  0  0
 24 64  1  0  0  0  0
 24 65  1  0  0  0  0
 24 66  1  0  0  0  0
 25 67  1  0  0  0  0
 25 68  1  0  0  0  0
 25 69  1  0  0  0  0
 26 70  1  0  0  0  0
 26 71  1  0  0  0  0
 26 72  1  0  0  0  0
 27 73  1  0  0  0  0
 27 74  1  0  0  0  0
 27 75  1  0  0  0  0
 28 76  1  0  0  0  0
 28 77  1  0  0  0  0
 28 78  1  0  0  0  0
M  END
> <PUBCHEM_COMPOUND_CID>
524463
> <PUBCHEM_COMPOUND_CANONICALIZED>
1
> <PUBCHEM_CACTVS_COMPLEXITY>
352
> <PUBCHEM_CACTVS_HBOND_ACCEPTOR>
3
> <PUBCHEM_CACTVS_HBOND_DONOR>
0
> <PUBCHEM_CACTVS_ROTATABLE_BOND>
21
> <PUBCHEM_CACTVS_SUBSKEYS>
AAADcfB4MAgAAAAAAAAAAAAAAAAAAAAAAAAAAAAAAAAAAAAAAAAAGhAAAEAACBSggAJCCAAABAEIAACQCAIAAAAAAAAAAAFAAAABABIAAAAAAAAEAAACAAGIyKCAAAAAAAAAAAAAAAAAAAAAAAAAAAAAAA==
> <PUBCHEM_IUPAC_OPENEYE_NAME>
methyl 2-trimethylsilyloxyicosanoate
> <PUBCHEM_IUPAC_CAS_NAME>
2-trimethylsilyloxyeicosanoic acid methyl ester
> <PUBCHEM_IUPAC_NAME_MARKUP>
methyl 2-trimethylsilyloxyicosanoate
> <PUBCHEM_IUPAC_NAME>
methyl 2-trimethylsilyloxyicosanoate
> <PUBCHEM_IUPAC_SYSTEMATIC_NAME>
methyl 2-trimethylsilyloxyicosanoate
> <PUBCHEM_IUPAC_TRADITIONAL_NAME>
2-trimethylsilyloxyarachidic acid methyl ester
> <PUBCHEM_IUPAC_INCHI>
InChI=1S/C24H50O3Si/c1-6-7-8-9-10-11-12-13-14-15-16-17-18-19-20-21-22-23(24(25)26-2)27-28(3,4)5/h23H,6-22H2,1-5H3
> <PUBCHEM_IUPAC_INCHIKEY>
AIDIPDFVXORXLT-UHFFFAOYSA-N
> <PUBCHEM_EXACT_MASS>
414.35292199
> <PUBCHEM_MOLECULAR_FORMULA>
C24H50O3Si
> <PUBCHEM_MOLECULAR_WEIGHT>
414.7
> <PUBCHEM_OPENEYE_CAN_SMILES>
CCCCCCCCCCCCCCCCCCC(C(=O)OC)O[Si](C)(C)C
> <PUBCHEM_OPENEYE_ISO_SMILES>
CCCCCCCCCCCCCCCCCCC(C(=O)OC)O[Si](C)(C)C
> <PUBCHEM_CACTVS_TPSA>
35.5
> <PUBCHEM_MONOISOTOPIC_WEIGHT>
414.35292199
> <PUBCHEM_TOTAL_CHARGE>
0
> <PUBCHEM_HEAVY_ATOM_COUNT>
28
> <PUBCHEM_ATOM_DEF_STEREO_COUNT>
0
> <PUBCHEM_ATOM_UDEF_STEREO_COUNT>
1
> <PUBCHEM_BOND_DEF_STEREO_COUNT>
0
> <PUBCHEM_BOND_UDEF_STEREO_COUNT>
0
> <PUBCHEM_ISOTOPIC_ATOM_COUNT>
0
> <PUBCHEM_COMPONENT_COUNT>
1
> <PUBCHEM_CACTVS_TAUTO_COUNT>
-1
> <PUBCHEM_COORDINATE_TYPE>
1
5
255
> <PUBCHEM_BONDANNOTATIONS>
19  16  3
$$$$
