524482
  -OEChem-10302200292D
 77 78  0     1  0  0  0  0  0999 V2000
    6.1602   -3.8569    0.0000 Si  0  0  0  0  0  0  0  0  0  0  0  0
    7.9823   -1.5434    0.0000 Si  0  0  0  0  0  0  0  0  0  0  0  0
    2.8090   -3.6479    0.0000 Si  0  0  0  0  0  0  0  0  0  0  0  0
    4.6131    3.9045    0.0000 Si  0  0  0  0  0  0  0  0  0  0  0  0
    4.6701   -1.1833    0.0000 O   0  0  0  0  0  0  0  0  0  0  0  0
    6.5669   -2.9434    0.0000 O   0  0  0  0  0  0  0  0  0  0  0  0
    7.2392   -0.8743    0.0000 O   0  0  0  0  0  0  0  0  0  0  0  0
    3.3968   -2.8389    0.0000 O   0  0  0  0  0  0  0  0  0  0  0  0
    7.2112    0.4045    0.0000 O   0  0  0  0  0  0  0  0  0  0  0  0
    5.4791    3.4045    0.0000 O   0  0  0  0  0  0  0  0  0  0  0  0
    5.4791    0.4045    0.0000 N   0  0  0  0  0  0  0  0  0  0  0  0
    6.3451    1.9045    0.0000 N   0  0  0  0  0  0  0  0  0  0  0  0
    5.9791   -2.1344    0.0000 C   0  0  3  0  0  0  0  0  0  0  0  0
    6.2881   -1.1833    0.0000 C   0  0  3  0  0  0  0  0  0  0  0  0
    4.9791   -2.1344    0.0000 C   0  0  3  0  0  0  0  0  0  0  0  0
    5.4791   -0.5955    0.0000 C   0  0  3  0  0  0  0  0  0  0  0  0
    4.3913   -2.9434    0.0000 C   0  0  0  0  0  0  0  0  0  0  0  0
    5.7534   -4.7705    0.0000 C   0  0  0  0  0  0  0  0  0  0  0  0
    7.0737   -4.2637    0.0000 C   0  0  0  0  0  0  0  0  0  0  0  0
    5.2466   -3.4502    0.0000 C   0  0  0  0  0  0  0  0  0  0  0  0
    8.7255   -2.2126    0.0000 C   0  0  0  0  0  0  0  0  0  0  0  0
    8.6515   -0.8003    0.0000 C   0  0  0  0  0  0  0  0  0  0  0  0
    7.3132   -2.2866    0.0000 C   0  0  0  0  0  0  0  0  0  0  0  0
    4.6131    0.9045    0.0000 C   0  0  0  0  0  0  0  0  0  0  0  0
    6.3451    0.9045    0.0000 C   0  0  0  0  0  0  0  0  0  0  0  0
    2.2212   -4.4569    0.0000 C   0  0  0  0  0  0  0  0  0  0  0  0
    2.0000   -3.0601    0.0000 C   0  0  0  0  0  0  0  0  0  0  0  0
    3.6180   -4.2357    0.0000 C   0  0  0  0  0  0  0  0  0  0  0  0
    4.6131    1.9045    0.0000 C   0  0  0  0  0  0  0  0  0  0  0  0
    5.4791    2.4045    0.0000 C   0  0  0  0  0  0  0  0  0  0  0  0
    3.7471    4.4045    0.0000 C   0  0  0  0  0  0  0  0  0  0  0  0
    5.1131    4.7705    0.0000 C   0  0  0  0  0  0  0  0  0  0  0  0
    4.1131    3.0384    0.0000 C   0  0  0  0  0  0  0  0  0  0  0  0
    5.6976   -2.6868    0.0000 H   0  0  0  0  0  0  0  0  0  0  0  0
    6.7265   -1.6217    0.0000 H   0  0  0  0  0  0  0  0  0  0  0  0
    4.3667   -2.0374    0.0000 H   0  0  0  0  0  0  0  0  0  0  0  0
    4.9267   -0.3141    0.0000 H   0  0  0  0  0  0  0  0  0  0  0  0
    4.2204   -3.5394    0.0000 H   0  0  0  0  0  0  0  0  0  0  0  0
    4.9486   -3.2152    0.0000 H   0  0  0  0  0  0  0  0  0  0  0  0
    5.1870   -4.5183    0.0000 H   0  0  0  0  0  0  0  0  0  0  0  0
    5.5012   -5.3369    0.0000 H   0  0  0  0  0  0  0  0  0  0  0  0
    6.3198   -5.0227    0.0000 H   0  0  0  0  0  0  0  0  0  0  0  0
    6.8215   -4.8301    0.0000 H   0  0  0  0  0  0  0  0  0  0  0  0
    7.6401   -4.5159    0.0000 H   0  0  0  0  0  0  0  0  0  0  0  0
    7.3259   -3.6973    0.0000 H   0  0  0  0  0  0  0  0  0  0  0  0
    5.4988   -2.8838    0.0000 H   0  0  0  0  0  0  0  0  0  0  0  0
    4.6802   -3.1980    0.0000 H   0  0  0  0  0  0  0  0  0  0  0  0
    4.9944   -4.0166    0.0000 H   0  0  0  0  0  0  0  0  0  0  0  0
    8.3106   -2.6733    0.0000 H   0  0  0  0  0  0  0  0  0  0  0  0
    9.1862   -2.6274    0.0000 H   0  0  0  0  0  0  0  0  0  0  0  0
    9.1403   -1.7518    0.0000 H   0  0  0  0  0  0  0  0  0  0  0  0
    9.1122   -1.2152    0.0000 H   0  0  0  0  0  0  0  0  0  0  0  0
    9.0663   -0.3395    0.0000 H   0  0  0  0  0  0  0  0  0  0  0  0
    8.1907   -0.3854    0.0000 H   0  0  0  0  0  0  0  0  0  0  0  0
    6.8524   -1.8717    0.0000 H   0  0  0  0  0  0  0  0  0  0  0  0
    6.8983   -2.7473    0.0000 H   0  0  0  0  0  0  0  0  0  0  0  0
    7.7740   -2.7014    0.0000 H   0  0  0  0  0  0  0  0  0  0  0  0
    4.0762    0.5945    0.0000 H   0  0  0  0  0  0  0  0  0  0  0  0
    1.7196   -4.0925    0.0000 H   0  0  0  0  0  0  0  0  0  0  0  0
    1.8568   -4.9585    0.0000 H   0  0  0  0  0  0  0  0  0  0  0  0
    2.7228   -4.8213    0.0000 H   0  0  0  0  0  0  0  0  0  0  0  0
    2.3644   -2.5585    0.0000 H   0  0  0  0  0  0  0  0  0  0  0  0
    1.4984   -2.6957    0.0000 H   0  0  0  0  0  0  0  0  0  0  0  0
    1.6356   -3.5617    0.0000 H   0  0  0  0  0  0  0  0  0  0  0  0
    3.2536   -4.7373    0.0000 H   0  0  0  0  0  0  0  0  0  0  0  0
    4.1196   -4.6001    0.0000 H   0  0  0  0  0  0  0  0  0  0  0  0
    3.9825   -3.7341    0.0000 H   0  0  0  0  0  0  0  0  0  0  0  0
    4.0762    2.2145    0.0000 H   0  0  0  0  0  0  0  0  0  0  0  0
    4.0571    4.9414    0.0000 H   0  0  0  0  0  0  0  0  0  0  0  0
    3.2101    4.7145    0.0000 H   0  0  0  0  0  0  0  0  0  0  0  0
    3.4371    3.8675    0.0000 H   0  0  0  0  0  0  0  0  0  0  0  0
    5.6500    4.4605    0.0000 H   0  0  0  0  0  0  0  0  0  0  0  0
    5.4231    5.3074    0.0000 H   0  0  0  0  0  0  0  0  0  0  0  0
    4.5762    5.0805    0.0000 H   0  0  0  0  0  0  0  0  0  0  0  0
    3.5762    3.3484    0.0000 H   0  0  0  0  0  0  0  0  0  0  0  0
    3.8031    2.5015    0.0000 H   0  0  0  0  0  0  0  0  0  0  0  0
    4.6500    2.7284    0.0000 H   0  0  0  0  0  0  0  0  0  0  0  0
  1  6  1  0  0  0  0
  1 18  1  0  0  0  0
  1 19  1  0  0  0  0
  1 20  1  0  0  0  0
  2  7  1  0  0  0  0
  2 21  1  0  0  0  0
  2 22  1  0  0  0  0
  2 23  1  0  0  0  0
  3  8  1  0  0  0  0
  3 26  1  0  0  0  0
  3 27  1  0  0  0  0
  3 28  1  0  0  0  0
  4 10  1  0  0  0  0
  4 31  1  0  0  0  0
  4 32  1  0  0  0  0
  4 33  1  0  0  0  0
  5 15  1  0  0  0  0
  5 16  1  0  0  0  0
  6 13  1  0  0  0  0
  7 14  1  0  0  0  0
  8 17  1  0  0  0  0
  9 25  2  0  0  0  0
 10 30  1  0  0  0  0
 11 16  1  0  0  0  0
 11 24  1  0  0  0  0
 11 25  1  0  0  0  0
 12 25  1  0  0  0  0
 12 30  2  0  0  0  0
 13 14  1  0  0  0  0
 13 15  1  0  0  0  0
 13 34  1  0  0  0  0
 14 16  1  0  0  0  0
 14 35  1  0  0  0  0
 15 17  1  0  0  0  0
 15 36  1  0  0  0  0
 16 37  1  0  0  0  0
 17 38  1  0  0  0  0
 17 39  1  0  0  0  0
 18 40  1  0  0  0  0
 18 41  1  0  0  0  0
 18 42  1  0  0  0  0
 19 43  1  0  0  0  0
 19 44  1  0  0  0  0
 19 45  1  0  0  0  0
 20 46  1  0  0  0  0
 20 47  1  0  0  0  0
 20 48  1  0  0  0  0
 21 49  1  0  0  0  0
 21 50  1  0  0  0  0
 21 51  1  0  0  0  0
 22 52  1  0  0  0  0
 22 53  1  0  0  0  0
 22 54  1  0  0  0  0
 23 55  1  0  0  0  0
 23 56  1  0  0  0  0
 23 57  1  0  0  0  0
 24 29  2  0  0  0  0
 24 58  1  0  0  0  0
 26 59  1  0  0  0  0
 26 60  1  0  0  0  0
 26 61  1  0  0  0  0
 27 62  1  0  0  0  0
 27 63  1  0  0  0  0
 27 64  1  0  0  0  0
 28 65  1  0  0  0  0
 28 66  1  0  0  0  0
 28 67  1  0  0  0  0
 29 30  1  0  0  0  0
 29 68  1  0  0  0  0
 31 69  1  0  0  0  0
 31 70  1  0  0  0  0
 31 71  1  0  0  0  0
 32 72  1  0  0  0  0
 32 73  1  0  0  0  0
 32 74  1  0  0  0  0
 33 75  1  0  0  0  0
 33 76  1  0  0  0  0
 33 77  1  0  0  0  0
M  END
> <PUBCHEM_COMPOUND_CID>
524482
> <PUBCHEM_COMPOUND_CANONICALIZED>
1
> <PUBCHEM_CACTVS_COMPLEXITY>
765
> <PUBCHEM_CACTVS_HBOND_ACCEPTOR>
6
> <PUBCHEM_CACTVS_HBOND_DONOR>
0
> <PUBCHEM_CACTVS_ROTATABLE_BOND>
10
> <PUBCHEM_CACTVS_SUBSKEYS>
AAADcfB7OAwAAAAAAAAAAAAAAAAAASAAAAAgAAAAAAAAAAAAAAAAHhAAAEAACBThgAZDAAMABAGoACBmVAAAAAAAAgAIAAAYABCDBAIAgAAOAAAHBgISAADwMAIAAAAAAAAAAAAAAAAAAAAAAAAAAAAAAA==
> <PUBCHEM_IUPAC_OPENEYE_NAME>
1-[3,4-bis(trimethylsilyloxy)-5-(trimethylsilyloxymethyl)tetrahydrofuran-2-yl]-4-trimethylsilyloxy-pyrimidin-2-one
> <PUBCHEM_IUPAC_CAS_NAME>
1-[3,4-bis(trimethylsilyloxy)-5-(trimethylsilyloxymethyl)-2-oxolanyl]-4-trimethylsilyloxy-2-pyrimidinone
> <PUBCHEM_IUPAC_NAME_MARKUP>
1-[3,4-bis(trimethylsilyloxy)-5-(trimethylsilyloxymethyl)oxolan-2-yl]-4-trimethylsilyloxypyrimidin-2-one
> <PUBCHEM_IUPAC_NAME>
1-[3,4-bis(trimethylsilyloxy)-5-(trimethylsilyloxymethyl)oxolan-2-yl]-4-trimethylsilyloxypyrimidin-2-one
> <PUBCHEM_IUPAC_SYSTEMATIC_NAME>
1-[3,4-bis(trimethylsilyloxy)-5-(trimethylsilyloxymethyl)oxolan-2-yl]-4-trimethylsilyloxy-pyrimidin-2-one
> <PUBCHEM_IUPAC_TRADITIONAL_NAME>
1-[3,4-bis(trimethylsilyloxy)-5-(trimethylsilyloxymethyl)tetrahydrofuran-2-yl]-4-trimethylsilyloxy-pyrimidin-2-one
> <PUBCHEM_IUPAC_INCHI>
InChI=1S/C21H44N2O6Si4/c1-30(2,3)25-15-16-18(28-32(7,8)9)19(29-33(10,11)12)20(26-16)23-14-13-17(22-21(23)24)27-31(4,5)6/h13-14,16,18-20H,15H2,1-12H3
> <PUBCHEM_IUPAC_INCHIKEY>
GQVVRBIFPVSHCQ-UHFFFAOYSA-N
> <PUBCHEM_EXACT_MASS>
532.22764327
> <PUBCHEM_MOLECULAR_FORMULA>
C21H44N2O6Si4
> <PUBCHEM_MOLECULAR_WEIGHT>
532.9
> <PUBCHEM_OPENEYE_CAN_SMILES>
C[Si](C)(C)OCC1C(C(C(O1)N2C=CC(=NC2=O)O[Si](C)(C)C)O[Si](C)(C)C)O[Si](C)(C)C
> <PUBCHEM_OPENEYE_ISO_SMILES>
C[Si](C)(C)OCC1C(C(C(O1)N2C=CC(=NC2=O)O[Si](C)(C)C)O[Si](C)(C)C)O[Si](C)(C)C
> <PUBCHEM_CACTVS_TPSA>
78.8
> <PUBCHEM_MONOISOTOPIC_WEIGHT>
532.22764327
> <PUBCHEM_TOTAL_CHARGE>
0
> <PUBCHEM_HEAVY_ATOM_COUNT>
33
> <PUBCHEM_ATOM_DEF_STEREO_COUNT>
0
> <PUBCHEM_ATOM_UDEF_STEREO_COUNT>
4
> <PUBCHEM_BOND_DEF_STEREO_COUNT>
0
> <PUBCHEM_BOND_UDEF_STEREO_COUNT>
0
> <PUBCHEM_ISOTOPIC_ATOM_COUNT>
0
> <PUBCHEM_COMPONENT_COUNT>
1
> <PUBCHEM_CACTVS_TAUTO_COUNT>
-1
> <PUBCHEM_COORDINATE_TYPE>
1
5
255
> <PUBCHEM_BONDANNOTATIONS>
16  11  3
11  24  8
11  25  8
12  25  8
12  30  8
15  17  3
24  29  8
29  30  8
13  6  3
14  7  3
$$$$
