524480
  -OEChem-10302200292D
 86 85  0     1  0  0  0  0  0999 V2000
    5.0981   -8.1830    0.0000 F   0  0  0  0  0  0  0  0  0  0  0  0
    4.0981   -6.4510    0.0000 F   0  0  0  0  0  0  0  0  0  0  0  0
    3.2320   -6.9510    0.0000 F   0  0  0  0  0  0  0  0  0  0  0  0
    4.2320   -8.6830    0.0000 F   0  0  0  0  0  0  0  0  0  0  0  0
    2.0000   -8.8170    0.0000 F   0  0  0  0  0  0  0  0  0  0  0  0
    2.3660   -7.4510    0.0000 F   0  0  0  0  0  0  0  0  0  0  0  0
    3.3660   -9.1830    0.0000 F   0  0  0  0  0  0  0  0  0  0  0  0
    6.3301   -7.3170    0.0000 O   0  0  0  0  0  0  0  0  0  0  0  0
    8.9282   -6.8170    0.0000 O   0  0  0  0  0  0  0  0  0  0  0  0
    8.0622   -8.3170    0.0000 O   0  0  0  0  0  0  0  0  0  0  0  0
    5.4641   -5.8170    0.0000 O   0  0  0  0  0  0  0  0  0  0  0  0
   10.6603    0.1830    0.0000 C   0  0  0  0  0  0  0  0  0  0  0  0
   11.5263    0.6830    0.0000 C   0  0  0  0  0  0  0  0  0  0  0  0
   10.6603   -0.8170    0.0000 C   0  0  0  0  0  0  0  0  0  0  0  0
   11.5263    1.6830    0.0000 C   0  0  0  0  0  0  0  0  0  0  0  0
    9.7942   -1.3170    0.0000 C   0  0  0  0  0  0  0  0  0  0  0  0
   12.3923    2.1830    0.0000 C   0  0  0  0  0  0  0  0  0  0  0  0
    9.7942   -2.3170    0.0000 C   0  0  0  0  0  0  0  0  0  0  0  0
   12.3923    3.1830    0.0000 C   0  0  0  0  0  0  0  0  0  0  0  0
   13.2583    3.6830    0.0000 C   0  0  0  0  0  0  0  0  0  0  0  0
    8.9282   -2.8170    0.0000 C   0  0  0  0  0  0  0  0  0  0  0  0
   13.2583    4.6830    0.0000 C   0  0  0  0  0  0  0  0  0  0  0  0
    8.9282   -3.8170    0.0000 C   0  0  0  0  0  0  0  0  0  0  0  0
   14.1244    5.1830    0.0000 C   0  0  0  0  0  0  0  0  0  0  0  0
    8.0622   -4.3170    0.0000 C   0  0  0  0  0  0  0  0  0  0  0  0
   14.1244    6.1830    0.0000 C   0  0  0  0  0  0  0  0  0  0  0  0
    8.0622   -5.3170    0.0000 C   0  0  0  0  0  0  0  0  0  0  0  0
   14.9904    6.6830    0.0000 C   0  0  0  0  0  0  0  0  0  0  0  0
    7.1962   -5.8170    0.0000 C   0  0  0  0  0  0  0  0  0  0  0  0
   14.9904    7.6830    0.0000 C   0  0  0  0  0  0  0  0  0  0  0  0
    7.1962   -6.8170    0.0000 C   0  0  3  0  0  0  0  0  0  0  0  0
   15.8564    8.1830    0.0000 C   0  0  0  0  0  0  0  0  0  0  0  0
    8.0622   -7.3170    0.0000 C   0  0  0  0  0  0  0  0  0  0  0  0
   15.8564    9.1830    0.0000 C   0  0  0  0  0  0  0  0  0  0  0  0
    5.4641   -6.8170    0.0000 C   0  0  0  0  0  0  0  0  0  0  0  0
    4.5981   -7.3170    0.0000 C   0  0  0  0  0  0  0  0  0  0  0  0
    3.7320   -7.8170    0.0000 C   0  0  0  0  0  0  0  0  0  0  0  0
    9.7942   -7.3170    0.0000 C   0  0  0  0  0  0  0  0  0  0  0  0
    2.8660   -8.3170    0.0000 C   0  0  0  0  0  0  0  0  0  0  0  0
   10.4482    0.7656    0.0000 H   0  0  0  0  0  0  0  0  0  0  0  0
   10.0497    0.0754    0.0000 H   0  0  0  0  0  0  0  0  0  0  0  0
   11.7383    0.1004    0.0000 H   0  0  0  0  0  0  0  0  0  0  0  0
   12.1369    0.7907    0.0000 H   0  0  0  0  0  0  0  0  0  0  0  0
   10.8723   -1.3996    0.0000 H   0  0  0  0  0  0  0  0  0  0  0  0
   11.2708   -0.7093    0.0000 H   0  0  0  0  0  0  0  0  0  0  0  0
   11.3142    2.2656    0.0000 H   0  0  0  0  0  0  0  0  0  0  0  0
   10.9157    1.5754    0.0000 H   0  0  0  0  0  0  0  0  0  0  0  0
    9.5822   -0.7344    0.0000 H   0  0  0  0  0  0  0  0  0  0  0  0
    9.1836   -1.4246    0.0000 H   0  0  0  0  0  0  0  0  0  0  0  0
   12.6044    1.6004    0.0000 H   0  0  0  0  0  0  0  0  0  0  0  0
   13.0029    2.2907    0.0000 H   0  0  0  0  0  0  0  0  0  0  0  0
   10.0063   -2.8996    0.0000 H   0  0  0  0  0  0  0  0  0  0  0  0
   10.4048   -2.2093    0.0000 H   0  0  0  0  0  0  0  0  0  0  0  0
   12.1803    3.7656    0.0000 H   0  0  0  0  0  0  0  0  0  0  0  0
   11.7817    3.0753    0.0000 H   0  0  0  0  0  0  0  0  0  0  0  0
   13.4704    3.1004    0.0000 H   0  0  0  0  0  0  0  0  0  0  0  0
   13.8689    3.7907    0.0000 H   0  0  0  0  0  0  0  0  0  0  0  0
    8.7162   -2.2344    0.0000 H   0  0  0  0  0  0  0  0  0  0  0  0
    8.3176   -2.9247    0.0000 H   0  0  0  0  0  0  0  0  0  0  0  0
   13.0463    5.2656    0.0000 H   0  0  0  0  0  0  0  0  0  0  0  0
   12.6477    4.5754    0.0000 H   0  0  0  0  0  0  0  0  0  0  0  0
    9.1403   -4.3996    0.0000 H   0  0  0  0  0  0  0  0  0  0  0  0
    9.5388   -3.7093    0.0000 H   0  0  0  0  0  0  0  0  0  0  0  0
   14.3364    4.6004    0.0000 H   0  0  0  0  0  0  0  0  0  0  0  0
   14.7349    5.2907    0.0000 H   0  0  0  0  0  0  0  0  0  0  0  0
    7.8501   -3.7344    0.0000 H   0  0  0  0  0  0  0  0  0  0  0  0
    7.4516   -4.4246    0.0000 H   0  0  0  0  0  0  0  0  0  0  0  0
   13.9123    6.7656    0.0000 H   0  0  0  0  0  0  0  0  0  0  0  0
   13.5138    6.0754    0.0000 H   0  0  0  0  0  0  0  0  0  0  0  0
    8.2742   -5.8996    0.0000 H   0  0  0  0  0  0  0  0  0  0  0  0
    8.6728   -5.2093    0.0000 H   0  0  0  0  0  0  0  0  0  0  0  0
   15.2024    6.1004    0.0000 H   0  0  0  0  0  0  0  0  0  0  0  0
   15.6010    6.7907    0.0000 H   0  0  0  0  0  0  0  0  0  0  0  0
    6.9841   -5.2344    0.0000 H   0  0  0  0  0  0  0  0  0  0  0  0
    6.5856   -5.9246    0.0000 H   0  0  0  0  0  0  0  0  0  0  0  0
   14.7783    8.2656    0.0000 H   0  0  0  0  0  0  0  0  0  0  0  0
   14.3798    7.5754    0.0000 H   0  0  0  0  0  0  0  0  0  0  0  0
    6.6592   -6.5070    0.0000 H   0  0  0  0  0  0  0  0  0  0  0  0
   16.0685    7.6004    0.0000 H   0  0  0  0  0  0  0  0  0  0  0  0
   16.4670    8.2907    0.0000 H   0  0  0  0  0  0  0  0  0  0  0  0
   16.4764    9.1830    0.0000 H   0  0  0  0  0  0  0  0  0  0  0  0
   15.8564    9.8030    0.0000 H   0  0  0  0  0  0  0  0  0  0  0  0
   15.2364    9.1830    0.0000 H   0  0  0  0  0  0  0  0  0  0  0  0
    9.4842   -7.8539    0.0000 H   0  0  0  0  0  0  0  0  0  0  0  0
   10.3312   -7.6270    0.0000 H   0  0  0  0  0  0  0  0  0  0  0  0
   10.1042   -6.7800    0.0000 H   0  0  0  0  0  0  0  0  0  0  0  0
  1 36  1  0  0  0  0
  2 36  1  0  0  0  0
  3 37  1  0  0  0  0
  4 37  1  0  0  0  0
  5 39  1  0  0  0  0
  6 39  1  0  0  0  0
  7 39  1  0  0  0  0
  8 31  1  0  0  0  0
  8 35  1  0  0  0  0
  9 33  1  0  0  0  0
  9 38  1  0  0  0  0
 10 33  2  0  0  0  0
 11 35  2  0  0  0  0
 12 13  1  0  0  0  0
 12 14  1  0  0  0  0
 12 40  1  0  0  0  0
 12 41  1  0  0  0  0
 13 15  1  0  0  0  0
 13 42  1  0  0  0  0
 13 43  1  0  0  0  0
 14 16  1  0  0  0  0
 14 44  1  0  0  0  0
 14 45  1  0  0  0  0
 15 17  1  0  0  0  0
 15 46  1  0  0  0  0
 15 47  1  0  0  0  0
 16 18  1  0  0  0  0
 16 48  1  0  0  0  0
 16 49  1  0  0  0  0
 17 19  1  0  0  0  0
 17 50  1  0  0  0  0
 17 51  1  0  0  0  0
 18 21  1  0  0  0  0
 18 52  1  0  0  0  0
 18 53  1  0  0  0  0
 19 20  1  0  0  0  0
 19 54  1  0  0  0  0
 19 55  1  0  0  0  0
 20 22  1  0  0  0  0
 20 56  1  0  0  0  0
 20 57  1  0  0  0  0
 21 23  1  0  0  0  0
 21 58  1  0  0  0  0
 21 59  1  0  0  0  0
 22 24  1  0  0  0  0
 22 60  1  0  0  0  0
 22 61  1  0  0  0  0
 23 25  1  0  0  0  0
 23 62  1  0  0  0  0
 23 63  1  0  0  0  0
 24 26  1  0  0  0  0
 24 64  1  0  0  0  0
 24 65  1  0  0  0  0
 25 27  1  0  0  0  0
 25 66  1  0  0  0  0
 25 67  1  0  0  0  0
 26 28  1  0  0  0  0
 26 68  1  0  0  0  0
 26 69  1  0  0  0  0
 27 29  1  0  0  0  0
 27 70  1  0  0  0  0
 27 71  1  0  0  0  0
 28 30  1  0  0  0  0
 28 72  1  0  0  0  0
 28 73  1  0  0  0  0
 29 31  1  0  0  0  0
 29 74  1  0  0  0  0
 29 75  1  0  0  0  0
 30 32  1  0  0  0  0
 30 76  1  0  0  0  0
 30 77  1  0  0  0  0
 31 33  1  0  0  0  0
 31 78  1  0  0  0  0
 32 34  1  0  0  0  0
 32 79  1  0  0  0  0
 32 80  1  0  0  0  0
 34 81  1  0  0  0  0
 34 82  1  0  0  0  0
 34 83  1  0  0  0  0
 35 36  1  0  0  0  0
 36 37  1  0  0  0  0
 37 39  1  0  0  0  0
 38 84  1  0  0  0  0
 38 85  1  0  0  0  0
 38 86  1  0  0  0  0
M  END
> <PUBCHEM_COMPOUND_CID>
524480
> <PUBCHEM_COMPOUND_CANONICALIZED>
1
> <PUBCHEM_CACTVS_COMPLEXITY>
654
> <PUBCHEM_CACTVS_HBOND_ACCEPTOR>
11
> <PUBCHEM_CACTVS_HBOND_DONOR>
0
> <PUBCHEM_CACTVS_ROTATABLE_BOND>
26
> <PUBCHEM_CACTVS_SUBSKEYS>
AAADcfB4OcAAAAAAAAAAAAAAAAAAAAAAAAAAAAAAAAAAAAAAAAAAGwAAAAAACBSggBICCAAABAAIAACQCAIAAAAAAAAAAAFAAAABABIAAAQCAAAEAAACAAGIyKCAAAAAAAAAAAAAAAAAAAAAAAAAAAAAAA==
> <PUBCHEM_IUPAC_OPENEYE_NAME>
methyl 2-(2,2,3,3,4,4,4-heptafluorobutanoyloxy)tricosanoate
> <PUBCHEM_IUPAC_CAS_NAME>
2-(2,2,3,3,4,4,4-heptafluoro-1-oxobutoxy)tricosanoic acid methyl ester
> <PUBCHEM_IUPAC_NAME_MARKUP>
methyl 2-(2,2,3,3,4,4,4-heptafluorobutanoyloxy)tricosanoate
> <PUBCHEM_IUPAC_NAME>
methyl 2-(2,2,3,3,4,4,4-heptafluorobutanoyloxy)tricosanoate
> <PUBCHEM_IUPAC_SYSTEMATIC_NAME>
methyl 2-[2,2,3,3,4,4,4-heptakis(fluoranyl)butanoyloxy]tricosanoate
> <PUBCHEM_IUPAC_TRADITIONAL_NAME>
2-(2,2,3,3,4,4,4-heptafluorobutanoyloxy)tricosanoic acid methyl ester
> <PUBCHEM_IUPAC_INCHI>
InChI=1S/C28H47F7O4/c1-3-4-5-6-7-8-9-10-11-12-13-14-15-16-17-18-19-20-21-22-23(24(36)38-2)39-25(37)26(29,30)27(31,32)28(33,34)35/h23H,3-22H2,1-2H3
> <PUBCHEM_IUPAC_INCHIKEY>
GBFVMFJLGCUPOZ-UHFFFAOYSA-N
> <PUBCHEM_XLOGP3_AA>
13.5
> <PUBCHEM_EXACT_MASS>
580.33625711
> <PUBCHEM_MOLECULAR_FORMULA>
C28H47F7O4
> <PUBCHEM_MOLECULAR_WEIGHT>
580.7
> <PUBCHEM_OPENEYE_CAN_SMILES>
CCCCCCCCCCCCCCCCCCCCCC(C(=O)OC)OC(=O)C(C(C(F)(F)F)(F)F)(F)F
> <PUBCHEM_OPENEYE_ISO_SMILES>
CCCCCCCCCCCCCCCCCCCCCC(C(=O)OC)OC(=O)C(C(C(F)(F)F)(F)F)(F)F
> <PUBCHEM_CACTVS_TPSA>
52.6
> <PUBCHEM_MONOISOTOPIC_WEIGHT>
580.33625711
> <PUBCHEM_TOTAL_CHARGE>
0
> <PUBCHEM_HEAVY_ATOM_COUNT>
39
> <PUBCHEM_ATOM_DEF_STEREO_COUNT>
0
> <PUBCHEM_ATOM_UDEF_STEREO_COUNT>
1
> <PUBCHEM_BOND_DEF_STEREO_COUNT>
0
> <PUBCHEM_BOND_UDEF_STEREO_COUNT>
0
> <PUBCHEM_ISOTOPIC_ATOM_COUNT>
0
> <PUBCHEM_COMPONENT_COUNT>
1
> <PUBCHEM_CACTVS_TAUTO_COUNT>
-1
> <PUBCHEM_COORDINATE_TYPE>
1
5
255
> <PUBCHEM_BONDANNOTATIONS>
31  29  3
$$$$
