524464
  -OEChem-10302200292D
 83 82  0     1  0  0  0  0  0999 V2000
    5.0981   -7.6830    0.0000 F   0  0  0  0  0  0  0  0  0  0  0  0
    4.0981   -5.9510    0.0000 F   0  0  0  0  0  0  0  0  0  0  0  0
    3.2320   -6.4510    0.0000 F   0  0  0  0  0  0  0  0  0  0  0  0
    4.2320   -8.1830    0.0000 F   0  0  0  0  0  0  0  0  0  0  0  0
    2.0000   -8.3170    0.0000 F   0  0  0  0  0  0  0  0  0  0  0  0
    2.3660   -6.9510    0.0000 F   0  0  0  0  0  0  0  0  0  0  0  0
    3.3660   -8.6830    0.0000 F   0  0  0  0  0  0  0  0  0  0  0  0
    6.3301   -6.8170    0.0000 O   0  0  0  0  0  0  0  0  0  0  0  0
    8.9282   -6.3170    0.0000 O   0  0  0  0  0  0  0  0  0  0  0  0
    8.0622   -7.8170    0.0000 O   0  0  0  0  0  0  0  0  0  0  0  0
    5.4641   -5.3170    0.0000 O   0  0  0  0  0  0  0  0  0  0  0  0
   10.6603    0.6830    0.0000 C   0  0  0  0  0  0  0  0  0  0  0  0
   10.6603   -0.3170    0.0000 C   0  0  0  0  0  0  0  0  0  0  0  0
   11.5263    1.1830    0.0000 C   0  0  0  0  0  0  0  0  0  0  0  0
    9.7942   -0.8170    0.0000 C   0  0  0  0  0  0  0  0  0  0  0  0
   11.5263    2.1830    0.0000 C   0  0  0  0  0  0  0  0  0  0  0  0
    9.7942   -1.8170    0.0000 C   0  0  0  0  0  0  0  0  0  0  0  0
   12.3923    2.6830    0.0000 C   0  0  0  0  0  0  0  0  0  0  0  0
   12.3923    3.6830    0.0000 C   0  0  0  0  0  0  0  0  0  0  0  0
    8.9282   -2.3170    0.0000 C   0  0  0  0  0  0  0  0  0  0  0  0
   13.2583    4.1830    0.0000 C   0  0  0  0  0  0  0  0  0  0  0  0
    8.9282   -3.3170    0.0000 C   0  0  0  0  0  0  0  0  0  0  0  0
   13.2583    5.1830    0.0000 C   0  0  0  0  0  0  0  0  0  0  0  0
    8.0622   -3.8170    0.0000 C   0  0  0  0  0  0  0  0  0  0  0  0
   14.1244    5.6830    0.0000 C   0  0  0  0  0  0  0  0  0  0  0  0
    8.0622   -4.8170    0.0000 C   0  0  0  0  0  0  0  0  0  0  0  0
   14.1244    6.6830    0.0000 C   0  0  0  0  0  0  0  0  0  0  0  0
    7.1962   -5.3170    0.0000 C   0  0  0  0  0  0  0  0  0  0  0  0
   14.9904    7.1830    0.0000 C   0  0  0  0  0  0  0  0  0  0  0  0
    7.1962   -6.3170    0.0000 C   0  0  3  0  0  0  0  0  0  0  0  0
   14.9904    8.1830    0.0000 C   0  0  0  0  0  0  0  0  0  0  0  0
    8.0622   -6.8170    0.0000 C   0  0  0  0  0  0  0  0  0  0  0  0
   15.8564    8.6830    0.0000 C   0  0  0  0  0  0  0  0  0  0  0  0
    5.4641   -6.3170    0.0000 C   0  0  0  0  0  0  0  0  0  0  0  0
    4.5981   -6.8170    0.0000 C   0  0  0  0  0  0  0  0  0  0  0  0
    3.7320   -7.3170    0.0000 C   0  0  0  0  0  0  0  0  0  0  0  0
    9.7942   -6.8170    0.0000 C   0  0  0  0  0  0  0  0  0  0  0  0
    2.8660   -7.8170    0.0000 C   0  0  0  0  0  0  0  0  0  0  0  0
   10.4482    1.2656    0.0000 H   0  0  0  0  0  0  0  0  0  0  0  0
   10.0497    0.5754    0.0000 H   0  0  0  0  0  0  0  0  0  0  0  0
   10.8723   -0.8996    0.0000 H   0  0  0  0  0  0  0  0  0  0  0  0
   11.2708   -0.2093    0.0000 H   0  0  0  0  0  0  0  0  0  0  0  0
   11.7383    0.6004    0.0000 H   0  0  0  0  0  0  0  0  0  0  0  0
   12.1369    1.2907    0.0000 H   0  0  0  0  0  0  0  0  0  0  0  0
    9.5822   -0.2344    0.0000 H   0  0  0  0  0  0  0  0  0  0  0  0
    9.1836   -0.9246    0.0000 H   0  0  0  0  0  0  0  0  0  0  0  0
   11.3142    2.7656    0.0000 H   0  0  0  0  0  0  0  0  0  0  0  0
   10.9157    2.0753    0.0000 H   0  0  0  0  0  0  0  0  0  0  0  0
   10.0063   -2.3996    0.0000 H   0  0  0  0  0  0  0  0  0  0  0  0
   10.4048   -1.7093    0.0000 H   0  0  0  0  0  0  0  0  0  0  0  0
   12.6044    2.1004    0.0000 H   0  0  0  0  0  0  0  0  0  0  0  0
   13.0029    2.7907    0.0000 H   0  0  0  0  0  0  0  0  0  0  0  0
    8.7162   -1.7344    0.0000 H   0  0  0  0  0  0  0  0  0  0  0  0
    8.3176   -2.4247    0.0000 H   0  0  0  0  0  0  0  0  0  0  0  0
   12.1803    4.2656    0.0000 H   0  0  0  0  0  0  0  0  0  0  0  0
   11.7817    3.5754    0.0000 H   0  0  0  0  0  0  0  0  0  0  0  0
   13.4704    3.6004    0.0000 H   0  0  0  0  0  0  0  0  0  0  0  0
   13.8689    4.2907    0.0000 H   0  0  0  0  0  0  0  0  0  0  0  0
    9.1403   -3.8996    0.0000 H   0  0  0  0  0  0  0  0  0  0  0  0
    9.5388   -3.2093    0.0000 H   0  0  0  0  0  0  0  0  0  0  0  0
   13.0463    5.7656    0.0000 H   0  0  0  0  0  0  0  0  0  0  0  0
   12.6477    5.0754    0.0000 H   0  0  0  0  0  0  0  0  0  0  0  0
    7.8501   -3.2344    0.0000 H   0  0  0  0  0  0  0  0  0  0  0  0
    7.4516   -3.9246    0.0000 H   0  0  0  0  0  0  0  0  0  0  0  0
   14.3364    5.1004    0.0000 H   0  0  0  0  0  0  0  0  0  0  0  0
   14.7349    5.7907    0.0000 H   0  0  0  0  0  0  0  0  0  0  0  0
    8.2742   -5.3996    0.0000 H   0  0  0  0  0  0  0  0  0  0  0  0
    8.6728   -4.7093    0.0000 H   0  0  0  0  0  0  0  0  0  0  0  0
   13.9123    7.2656    0.0000 H   0  0  0  0  0  0  0  0  0  0  0  0
   13.5138    6.5754    0.0000 H   0  0  0  0  0  0  0  0  0  0  0  0
    6.9841   -4.7344    0.0000 H   0  0  0  0  0  0  0  0  0  0  0  0
    6.5856   -5.4246    0.0000 H   0  0  0  0  0  0  0  0  0  0  0  0
   15.2024    6.6004    0.0000 H   0  0  0  0  0  0  0  0  0  0  0  0
   15.6010    7.2907    0.0000 H   0  0  0  0  0  0  0  0  0  0  0  0
    6.6592   -6.0070    0.0000 H   0  0  0  0  0  0  0  0  0  0  0  0
   14.7783    8.7656    0.0000 H   0  0  0  0  0  0  0  0  0  0  0  0
   14.3798    8.0754    0.0000 H   0  0  0  0  0  0  0  0  0  0  0  0
   16.1664    8.1461    0.0000 H   0  0  0  0  0  0  0  0  0  0  0  0
   16.3933    8.9930    0.0000 H   0  0  0  0  0  0  0  0  0  0  0  0
   15.5464    9.2200    0.0000 H   0  0  0  0  0  0  0  0  0  0  0  0
    9.4842   -7.3539    0.0000 H   0  0  0  0  0  0  0  0  0  0  0  0
   10.3312   -7.1270    0.0000 H   0  0  0  0  0  0  0  0  0  0  0  0
   10.1042   -6.2800    0.0000 H   0  0  0  0  0  0  0  0  0  0  0  0
  1 35  1  0  0  0  0
  2 35  1  0  0  0  0
  3 36  1  0  0  0  0
  4 36  1  0  0  0  0
  5 38  1  0  0  0  0
  6 38  1  0  0  0  0
  7 38  1  0  0  0  0
  8 30  1  0  0  0  0
  8 34  1  0  0  0  0
  9 32  1  0  0  0  0
  9 37  1  0  0  0  0
 10 32  2  0  0  0  0
 11 34  2  0  0  0  0
 12 13  1  0  0  0  0
 12 14  1  0  0  0  0
 12 39  1  0  0  0  0
 12 40  1  0  0  0  0
 13 15  1  0  0  0  0
 13 41  1  0  0  0  0
 13 42  1  0  0  0  0
 14 16  1  0  0  0  0
 14 43  1  0  0  0  0
 14 44  1  0  0  0  0
 15 17  1  0  0  0  0
 15 45  1  0  0  0  0
 15 46  1  0  0  0  0
 16 18  1  0  0  0  0
 16 47  1  0  0  0  0
 16 48  1  0  0  0  0
 17 20  1  0  0  0  0
 17 49  1  0  0  0  0
 17 50  1  0  0  0  0
 18 19  1  0  0  0  0
 18 51  1  0  0  0  0
 18 52  1  0  0  0  0
 19 21  1  0  0  0  0
 19 55  1  0  0  0  0
 19 56  1  0  0  0  0
 20 22  1  0  0  0  0
 20 53  1  0  0  0  0
 20 54  1  0  0  0  0
 21 23  1  0  0  0  0
 21 57  1  0  0  0  0
 21 58  1  0  0  0  0
 22 24  1  0  0  0  0
 22 59  1  0  0  0  0
 22 60  1  0  0  0  0
 23 25  1  0  0  0  0
 23 61  1  0  0  0  0
 23 62  1  0  0  0  0
 24 26  1  0  0  0  0
 24 63  1  0  0  0  0
 24 64  1  0  0  0  0
 25 27  1  0  0  0  0
 25 65  1  0  0  0  0
 25 66  1  0  0  0  0
 26 28  1  0  0  0  0
 26 67  1  0  0  0  0
 26 68  1  0  0  0  0
 27 29  1  0  0  0  0
 27 69  1  0  0  0  0
 27 70  1  0  0  0  0
 28 30  1  0  0  0  0
 28 71  1  0  0  0  0
 28 72  1  0  0  0  0
 29 31  1  0  0  0  0
 29 73  1  0  0  0  0
 29 74  1  0  0  0  0
 30 32  1  0  0  0  0
 30 75  1  0  0  0  0
 31 33  1  0  0  0  0
 31 76  1  0  0  0  0
 31 77  1  0  0  0  0
 33 78  1  0  0  0  0
 33 79  1  0  0  0  0
 33 80  1  0  0  0  0
 34 35  1  0  0  0  0
 35 36  1  0  0  0  0
 36 38  1  0  0  0  0
 37 81  1  0  0  0  0
 37 82  1  0  0  0  0
 37 83  1  0  0  0  0
M  END
> <PUBCHEM_COMPOUND_CID>
524464
> <PUBCHEM_COMPOUND_CANONICALIZED>
1
> <PUBCHEM_CACTVS_COMPLEXITY>
639
> <PUBCHEM_CACTVS_HBOND_ACCEPTOR>
11
> <PUBCHEM_CACTVS_HBOND_DONOR>
0
> <PUBCHEM_CACTVS_ROTATABLE_BOND>
25
> <PUBCHEM_CACTVS_SUBSKEYS>
AAADcfB4OcAAAAAAAAAAAAAAAAAAAAAAAAAAAAAAAAAAAAAAAAAAGwAAAAAACBSggBICCAAABAAIAACQCAIAAAAAAAAAAAFAAAABABIAAAQCAAAEAAACAAGIyKCAAAAAAAAAAAAAAAAAAAAAAAAAAAAAAA==
> <PUBCHEM_IUPAC_OPENEYE_NAME>
methyl 2-(2,2,3,3,4,4,4-heptafluorobutanoyloxy)docosanoate
> <PUBCHEM_IUPAC_CAS_NAME>
2-(2,2,3,3,4,4,4-heptafluoro-1-oxobutoxy)docosanoic acid methyl ester
> <PUBCHEM_IUPAC_NAME_MARKUP>
methyl 2-(2,2,3,3,4,4,4-heptafluorobutanoyloxy)docosanoate
> <PUBCHEM_IUPAC_NAME>
methyl 2-(2,2,3,3,4,4,4-heptafluorobutanoyloxy)docosanoate
> <PUBCHEM_IUPAC_SYSTEMATIC_NAME>
methyl 2-[2,2,3,3,4,4,4-heptakis(fluoranyl)butanoyloxy]docosanoate
> <PUBCHEM_IUPAC_TRADITIONAL_NAME>
2-(2,2,3,3,4,4,4-heptafluorobutanoyloxy)behenic acid methyl ester
> <PUBCHEM_IUPAC_INCHI>
InChI=1S/C27H45F7O4/c1-3-4-5-6-7-8-9-10-11-12-13-14-15-16-17-18-19-20-21-22(23(35)37-2)38-24(36)25(28,29)26(30,31)27(32,33)34/h22H,3-21H2,1-2H3
> <PUBCHEM_IUPAC_INCHIKEY>
JBLKXFRSPSLDPU-UHFFFAOYSA-N
> <PUBCHEM_XLOGP3_AA>
13
> <PUBCHEM_EXACT_MASS>
566.32060705
> <PUBCHEM_MOLECULAR_FORMULA>
C27H45F7O4
> <PUBCHEM_MOLECULAR_WEIGHT>
566.6
> <PUBCHEM_OPENEYE_CAN_SMILES>
CCCCCCCCCCCCCCCCCCCCC(C(=O)OC)OC(=O)C(C(C(F)(F)F)(F)F)(F)F
> <PUBCHEM_OPENEYE_ISO_SMILES>
CCCCCCCCCCCCCCCCCCCCC(C(=O)OC)OC(=O)C(C(C(F)(F)F)(F)F)(F)F
> <PUBCHEM_CACTVS_TPSA>
52.6
> <PUBCHEM_MONOISOTOPIC_WEIGHT>
566.32060705
> <PUBCHEM_TOTAL_CHARGE>
0
> <PUBCHEM_HEAVY_ATOM_COUNT>
38
> <PUBCHEM_ATOM_DEF_STEREO_COUNT>
0
> <PUBCHEM_ATOM_UDEF_STEREO_COUNT>
1
> <PUBCHEM_BOND_DEF_STEREO_COUNT>
0
> <PUBCHEM_BOND_UDEF_STEREO_COUNT>
0
> <PUBCHEM_ISOTOPIC_ATOM_COUNT>
0
> <PUBCHEM_COMPONENT_COUNT>
1
> <PUBCHEM_CACTVS_TAUTO_COUNT>
-1
> <PUBCHEM_COORDINATE_TYPE>
1
5
255
> <PUBCHEM_BONDANNOTATIONS>
30  28  3
$$$$
