524534
  -OEChem-10302200292D
 65 68  0     1  0  0  0  0  0999 V2000
    4.1072   -0.9302    0.0000 F   0  0  0  0  0  0  0  0  0  0  0  0
    5.1005   -2.6661    0.0000 F   0  0  0  0  0  0  0  0  0  0  0  0
    3.2392   -1.4269    0.0000 F   0  0  0  0  0  0  0  0  0  0  0  0
    4.2326   -3.1628    0.0000 F   0  0  0  0  0  0  0  0  0  0  0  0
    2.0000   -3.2882    0.0000 F   0  0  0  0  0  0  0  0  0  0  0  0
    2.3713   -1.9236    0.0000 F   0  0  0  0  0  0  0  0  0  0  0  0
    3.3646   -3.6594    0.0000 F   0  0  0  0  0  0  0  0  0  0  0  0
   12.9858    2.5027    0.0000 O   0  0  0  0  0  0  0  0  0  0  0  0
    6.3359   -1.8049    0.0000 O   0  0  0  0  0  0  0  0  0  0  0  0
   14.6322    1.9646    0.0000 O   0  0  0  0  0  0  0  0  0  0  0  0
    5.4756   -0.3015    0.0000 O   0  0  0  0  0  0  0  0  0  0  0  0
   11.7290    0.2475    0.0000 C   0  0  3  0  0  0  0  0  0  0  0  0
   11.7290    1.2475    0.0000 C   0  0  3  0  0  0  0  0  0  0  0  0
   10.8629   -0.2525    0.0000 C   0  0  3  0  0  0  0  0  0  0  0  0
    9.9969    0.2475    0.0000 C   0  0  3  0  0  0  0  0  0  0  0  0
    9.0869   -0.2594    0.0000 C   0  0  3  0  0  0  0  0  0  0  0  0
   10.8629    1.7475    0.0000 C   0  0  0  0  0  0  0  0  0  0  0  0
    9.9969    1.2475    0.0000 C   0  0  0  0  0  0  0  0  0  0  0  0
   12.6752    1.5522    0.0000 C   0  0  3  0  0  0  0  0  0  0  0  0
   12.6752   -0.0573    0.0000 C   0  0  0  0  0  0  0  0  0  0  0  0
   10.8790   -1.2940    0.0000 C   0  0  0  0  0  0  0  0  0  0  0  0
   13.2588    0.7475    0.0000 C   0  0  0  0  0  0  0  0  0  0  0  0
    9.0789   -1.3010    0.0000 C   0  0  0  0  0  0  0  0  0  0  0  0
   11.7290    2.2475    0.0000 C   0  0  0  0  0  0  0  0  0  0  0  0
    9.9810   -1.8218    0.0000 C   0  0  0  0  0  0  0  0  0  0  0  0
    8.1601    0.3047    0.0000 C   0  0  0  0  0  0  0  0  0  0  0  0
    9.0946    0.7406    0.0000 C   0  0  0  0  0  0  0  0  0  0  0  0
    8.1435   -1.8507    0.0000 C   0  0  0  0  0  0  0  0  0  0  0  0
    7.2122   -0.2232    0.0000 C   0  0  0  0  0  0  0  0  0  0  0  0
    7.2038   -1.3082    0.0000 C   0  0  0  0  0  0  0  0  0  0  0  0
   13.9643    2.7089    0.0000 C   0  0  0  0  0  0  0  0  0  0  0  0
   14.2750    3.6594    0.0000 C   0  0  0  0  0  0  0  0  0  0  0  0
    5.4718   -1.3015    0.0000 C   0  0  0  0  0  0  0  0  0  0  0  0
    4.6038   -1.7982    0.0000 C   0  0  0  0  0  0  0  0  0  0  0  0
    3.7359   -2.2948    0.0000 C   0  0  0  0  0  0  0  0  0  0  0  0
    2.8680   -2.7915    0.0000 C   0  0  0  0  0  0  0  0  0  0  0  0
   11.7946   -0.3691    0.0000 H   0  0  0  0  0  0  0  0  0  0  0  0
   11.4022   -0.5584    0.0000 H   0  0  0  0  0  0  0  0  0  0  0  0
   10.5338    0.5575    0.0000 H   0  0  0  0  0  0  0  0  0  0  0  0
   11.2615    2.2224    0.0000 H   0  0  0  0  0  0  0  0  0  0  0  0
   10.4644    2.2224    0.0000 H   0  0  0  0  0  0  0  0  0  0  0  0
    9.7849    1.8301    0.0000 H   0  0  0  0  0  0  0  0  0  0  0  0
    9.3863    1.1398    0.0000 H   0  0  0  0  0  0  0  0  0  0  0  0
   12.2377    1.9916    0.0000 H   0  0  0  0  0  0  0  0  0  0  0  0
   12.4241   -0.6242    0.0000 H   0  0  0  0  0  0  0  0  0  0  0  0
   13.2126   -0.3665    0.0000 H   0  0  0  0  0  0  0  0  0  0  0  0
   11.0970   -1.8744    0.0000 H   0  0  0  0  0  0  0  0  0  0  0  0
   11.4881   -1.1786    0.0000 H   0  0  0  0  0  0  0  0  0  0  0  0
   13.7197    0.3327    0.0000 H   0  0  0  0  0  0  0  0  0  0  0  0
   13.7197    1.1622    0.0000 H   0  0  0  0  0  0  0  0  0  0  0  0
   12.3490    2.2475    0.0000 H   0  0  0  0  0  0  0  0  0  0  0  0
   11.7290    2.8675    0.0000 H   0  0  0  0  0  0  0  0  0  0  0  0
   11.1090    2.2475    0.0000 H   0  0  0  0  0  0  0  0  0  0  0  0
    9.5836   -2.2978    0.0000 H   0  0  0  0  0  0  0  0  0  0  0  0
   10.3819   -2.2947    0.0000 H   0  0  0  0  0  0  0  0  0  0  0  0
    8.5683    0.7714    0.0000 H   0  0  0  0  0  0  0  0  0  0  0  0
    7.7702    0.7867    0.0000 H   0  0  0  0  0  0  0  0  0  0  0  0
    9.7146    0.7358    0.0000 H   0  0  0  0  0  0  0  0  0  0  0  0
    9.0994    1.3606    0.0000 H   0  0  0  0  0  0  0  0  0  0  0  0
    8.4746    0.7454    0.0000 H   0  0  0  0  0  0  0  0  0  0  0  0
    8.1458   -2.4707    0.0000 H   0  0  0  0  0  0  0  0  0  0  0  0
    6.6789    0.0929    0.0000 H   0  0  0  0  0  0  0  0  0  0  0  0
   14.8643    3.4668    0.0000 H   0  0  0  0  0  0  0  0  0  0  0  0
   14.4676    4.2488    0.0000 H   0  0  0  0  0  0  0  0  0  0  0  0
   13.6857    3.8521    0.0000 H   0  0  0  0  0  0  0  0  0  0  0  0
  1 34  1  0  0  0  0
  2 34  1  0  0  0  0
  3 35  1  0  0  0  0
  4 35  1  0  0  0  0
  5 36  1  0  0  0  0
  6 36  1  0  0  0  0
  7 36  1  0  0  0  0
  8 19  1  0  0  0  0
  8 31  1  0  0  0  0
  9 30  1  0  0  0  0
  9 33  1  0  0  0  0
 10 31  2  0  0  0  0
 11 33  2  0  0  0  0
 12 13  1  0  0  0  0
 12 14  1  0  0  0  0
 12 20  1  0  0  0  0
 12 37  1  0  0  0  0
 13 17  1  0  0  0  0
 13 19  1  0  0  0  0
 13 24  1  0  0  0  0
 14 15  1  0  0  0  0
 14 21  1  0  0  0  0
 14 38  1  0  0  0  0
 15 16  1  0  0  0  0
 15 18  1  0  0  0  0
 15 39  1  0  0  0  0
 16 23  1  0  0  0  0
 16 26  1  0  0  0  0
 16 27  1  0  0  0  0
 17 18  1  0  0  0  0
 17 40  1  0  0  0  0
 17 41  1  0  0  0  0
 18 42  1  0  0  0  0
 18 43  1  0  0  0  0
 19 22  1  0  0  0  0
 19 44  1  0  0  0  0
 20 22  1  0  0  0  0
 20 45  1  0  0  0  0
 20 46  1  0  0  0  0
 21 25  1  0  0  0  0
 21 47  1  0  0  0  0
 21 48  1  0  0  0  0
 22 49  1  0  0  0  0
 22 50  1  0  0  0  0
 23 25  1  0  0  0  0
 23 28  2  0  0  0  0
 24 51  1  0  0  0  0
 24 52  1  0  0  0  0
 24 53  1  0  0  0  0
 25 54  1  0  0  0  0
 25 55  1  0  0  0  0
 26 29  1  0  0  0  0
 26 56  1  0  0  0  0
 26 57  1  0  0  0  0
 27 58  1  0  0  0  0
 27 59  1  0  0  0  0
 27 60  1  0  0  0  0
 28 30  1  0  0  0  0
 28 61  1  0  0  0  0
 29 30  2  0  0  0  0
 29 62  1  0  0  0  0
 31 32  1  0  0  0  0
 32 63  1  0  0  0  0
 32 64  1  0  0  0  0
 32 65  1  0  0  0  0
 33 34  1  0  0  0  0
 34 35  1  0  0  0  0
 35 36  1  0  0  0  0
M  END
> <PUBCHEM_COMPOUND_CID>
524534
> <PUBCHEM_COMPOUND_CANONICALIZED>
1
> <PUBCHEM_CACTVS_COMPLEXITY>
1000
> <PUBCHEM_CACTVS_HBOND_ACCEPTOR>
11
> <PUBCHEM_CACTVS_HBOND_DONOR>
0
> <PUBCHEM_CACTVS_ROTATABLE_BOND>
6
> <PUBCHEM_CACTVS_SUBSKEYS>
AAADceB4OcAAAAAAAAAAAAAAAAAAAYAAAAAwYIAAAAAAAGDAAAAAGwAAAAAADxSggBICCAAABACIAiDSCAAACAAgIAAACAEAAAgIBBIAIQACEAAEgAAIoAOAwPAPgAAAAAAAAACAAAQAACAAAIAADAAAAA==
> <PUBCHEM_IUPAC_OPENEYE_NAME>
(17-acetoxy-10,13-dimethyl-6,7,8,9,11,12,14,15,16,17-decahydro-1H-cyclopenta[a]phenanthren-3-yl) 2,2,3,3,4,4,4-heptafluorobutanoate
> <PUBCHEM_IUPAC_CAS_NAME>
2,2,3,3,4,4,4-heptafluorobutanoic acid (17-acetyloxy-10,13-dimethyl-6,7,8,9,11,12,14,15,16,17-decahydro-1H-cyclopenta[a]phenanthren-3-yl) ester
> <PUBCHEM_IUPAC_NAME_MARKUP>
(17-acetyloxy-10,13-dimethyl-6,7,8,9,11,12,14,15,16,17-decahydro-1<I>H</I>-cyclopenta[a]phenanthren-3-yl) 2,2,3,3,4,4,4-heptafluorobutanoate
> <PUBCHEM_IUPAC_NAME>
(17-acetyloxy-10,13-dimethyl-6,7,8,9,11,12,14,15,16,17-decahydro-1H-cyclopenta[a]phenanthren-3-yl) 2,2,3,3,4,4,4-heptafluorobutanoate
> <PUBCHEM_IUPAC_SYSTEMATIC_NAME>
(17-acetyloxy-10,13-dimethyl-6,7,8,9,11,12,14,15,16,17-decahydro-1H-cyclopenta[a]phenanthren-3-yl) 2,2,3,3,4,4,4-heptakis(fluoranyl)butanoate
> <PUBCHEM_IUPAC_TRADITIONAL_NAME>
2,2,3,3,4,4,4-heptafluorobutyric acid (17-acetoxy-10,13-dimethyl-6,7,8,9,11,12,14,15,16,17-decahydro-1H-cyclopenta[a]phenanthren-3-yl) ester
> <PUBCHEM_IUPAC_INCHI>
InChI=1S/C25H29F7O4/c1-13(33)35-19-7-6-17-16-5-4-14-12-15(8-10-21(14,2)18(16)9-11-22(17,19)3)36-20(34)23(26,27)24(28,29)25(30,31)32/h8,12,16-19H,4-7,9-11H2,1-3H3
> <PUBCHEM_IUPAC_INCHIKEY>
NTZWSZQHFGGWDX-UHFFFAOYSA-N
> <PUBCHEM_XLOGP3_AA>
7.1
> <PUBCHEM_EXACT_MASS>
526.19540654
> <PUBCHEM_MOLECULAR_FORMULA>
C25H29F7O4
> <PUBCHEM_MOLECULAR_WEIGHT>
526.5
> <PUBCHEM_OPENEYE_CAN_SMILES>
CC(=O)OC1CCC2C1(CCC3C2CCC4=CC(=CCC34C)OC(=O)C(C(C(F)(F)F)(F)F)(F)F)C
> <PUBCHEM_OPENEYE_ISO_SMILES>
CC(=O)OC1CCC2C1(CCC3C2CCC4=CC(=CCC34C)OC(=O)C(C(C(F)(F)F)(F)F)(F)F)C
> <PUBCHEM_CACTVS_TPSA>
52.6
> <PUBCHEM_MONOISOTOPIC_WEIGHT>
526.19540654
> <PUBCHEM_TOTAL_CHARGE>
0
> <PUBCHEM_HEAVY_ATOM_COUNT>
36
> <PUBCHEM_ATOM_DEF_STEREO_COUNT>
0
> <PUBCHEM_ATOM_UDEF_STEREO_COUNT>
6
> <PUBCHEM_BOND_DEF_STEREO_COUNT>
0
> <PUBCHEM_BOND_UDEF_STEREO_COUNT>
0
> <PUBCHEM_ISOTOPIC_ATOM_COUNT>
0
> <PUBCHEM_COMPONENT_COUNT>
1
> <PUBCHEM_CACTVS_TAUTO_COUNT>
-1
> <PUBCHEM_COORDINATE_TYPE>
1
5
255
> <PUBCHEM_BONDANNOTATIONS>
12  20  3
13  24  3
14  21  3
15  18  3
16  27  3
19  8  3
$$$$
