524560
  -OEChem-10302200292D
 33 34  0     1  0  0  0  0  0999 V2000
    7.7991    1.0241    0.0000 O   0  0  0  0  0  0  0  0  0  0  0  0
    2.5369   -1.0000    0.0000 O   0  0  0  0  0  0  0  0  0  0  0  0
    5.1350    0.5000    0.0000 C   0  0  3  0  0  0  0  0  0  0  0  0
    5.1350   -0.5000    0.0000 C   0  0  3  0  0  0  0  0  0  0  0  0
    6.0290    1.0347    0.0000 C   0  0  0  0  0  0  0  0  0  0  0  0
    6.0290   -1.0347    0.0000 C   0  0  0  0  0  0  0  0  0  0  0  0
    4.2690   -1.0000    0.0000 C   0  0  0  0  0  0  0  0  0  0  0  0
    4.2690    1.0000    0.0000 C   0  0  0  0  0  0  0  0  0  0  0  0
    6.9350    0.5208    0.0000 C   0  0  3  0  0  0  0  0  0  0  0  0
    6.9350   -0.5208    0.0000 C   0  0  0  0  0  0  0  0  0  0  0  0
    3.4030   -0.5000    0.0000 C   0  0  3  0  0  0  0  0  0  0  0  0
    3.4030    0.5000    0.0000 C   0  0  0  0  0  0  0  0  0  0  0  0
    8.6671    0.5275    0.0000 C   0  0  0  0  0  0  0  0  0  0  0  0
    5.1302    1.1200    0.0000 H   0  0  0  0  0  0  0  0  0  0  0  0
    5.1302   -1.1200    0.0000 H   0  0  0  0  0  0  0  0  0  0  0  0
    6.4226    1.5137    0.0000 H   0  0  0  0  0  0  0  0  0  0  0  0
    5.6244    1.5044    0.0000 H   0  0  0  0  0  0  0  0  0  0  0  0
    5.6244   -1.5044    0.0000 H   0  0  0  0  0  0  0  0  0  0  0  0
    6.4226   -1.5137    0.0000 H   0  0  0  0  0  0  0  0  0  0  0  0
    3.8705   -1.4750    0.0000 H   0  0  0  0  0  0  0  0  0  0  0  0
    4.6675   -1.4750    0.0000 H   0  0  0  0  0  0  0  0  0  0  0  0
    4.6675    1.4750    0.0000 H   0  0  0  0  0  0  0  0  0  0  0  0
    3.8705    1.4750    0.0000 H   0  0  0  0  0  0  0  0  0  0  0  0
    7.4726    0.2119    0.0000 H   0  0  0  0  0  0  0  0  0  0  0  0
    7.1441   -1.1045    0.0000 H   0  0  0  0  0  0  0  0  0  0  0  0
    7.5459   -0.4147    0.0000 H   0  0  0  0  0  0  0  0  0  0  0  0
    3.4030   -1.1200    0.0000 H   0  0  0  0  0  0  0  0  0  0  0  0
    3.1909    1.0826    0.0000 H   0  0  0  0  0  0  0  0  0  0  0  0
    2.7924    0.3923    0.0000 H   0  0  0  0  0  0  0  0  0  0  0  0
    2.0000   -0.6900    0.0000 H   0  0  0  0  0  0  0  0  0  0  0  0
    8.3591   -0.0106    0.0000 H   0  0  0  0  0  0  0  0  0  0  0  0
    9.2052    0.2196    0.0000 H   0  0  0  0  0  0  0  0  0  0  0  0
    8.9750    1.0656    0.0000 H   0  0  0  0  0  0  0  0  0  0  0  0
  1  9  1  0  0  0  0
  1 13  1  0  0  0  0
  2 11  1  0  0  0  0
  2 30  1  0  0  0  0
  3  4  1  0  0  0  0
  3  5  1  0  0  0  0
  3  8  1  0  0  0  0
  3 14  1  0  0  0  0
  4  6  1  0  0  0  0
  4  7  1  0  0  0  0
  4 15  1  0  0  0  0
  5  9  1  0  0  0  0
  5 16  1  0  0  0  0
  5 17  1  0  0  0  0
  6 10  1  0  0  0  0
  6 18  1  0  0  0  0
  6 19  1  0  0  0  0
  7 11  1  0  0  0  0
  7 20  1  0  0  0  0
  7 21  1  0  0  0  0
  8 12  1  0  0  0  0
  8 22  1  0  0  0  0
  8 23  1  0  0  0  0
  9 10  1  0  0  0  0
  9 24  1  0  0  0  0
 10 25  1  0  0  0  0
 10 26  1  0  0  0  0
 11 12  1  0  0  0  0
 11 27  1  0  0  0  0
 12 28  1  0  0  0  0
 12 29  1  0  0  0  0
 13 31  1  0  0  0  0
 13 32  1  0  0  0  0
 13 33  1  0  0  0  0
M  END
> <PUBCHEM_COMPOUND_CID>
524560
> <PUBCHEM_COMPOUND_CANONICALIZED>
1
> <PUBCHEM_CACTVS_COMPLEXITY>
170
> <PUBCHEM_CACTVS_HBOND_ACCEPTOR>
2
> <PUBCHEM_CACTVS_HBOND_DONOR>
1
> <PUBCHEM_CACTVS_ROTATABLE_BOND>
1
> <PUBCHEM_CACTVS_SUBSKEYS>
AAADceBwMAAAAAAAAAAAAAAAAAAAAAAAAAAwYAAAAAAAAADAAAAAGgAACAAADRSggAICAAAABgAAAAAAAAAAAAAAAAAAAAAAAAAAEAIAAAAAQAAEAAAAAAGAwLAOgAAAAAAAAABAAAIAACAAAAAAAAAAAA==
> <PUBCHEM_IUPAC_OPENEYE_NAME>
6-methoxydecalin-2-ol
> <PUBCHEM_IUPAC_CAS_NAME>
6-methoxy-1,2,3,4,4a,5,6,7,8,8a-decahydronaphthalen-2-ol
> <PUBCHEM_IUPAC_NAME_MARKUP>
6-methoxy-1,2,3,4,4<I>a</I>,5,6,7,8,8<I>a</I>-decahydronaphthalen-2-ol
> <PUBCHEM_IUPAC_NAME>
6-methoxy-1,2,3,4,4a,5,6,7,8,8a-decahydronaphthalen-2-ol
> <PUBCHEM_IUPAC_SYSTEMATIC_NAME>
6-methoxy-1,2,3,4,4a,5,6,7,8,8a-decahydronaphthalen-2-ol
> <PUBCHEM_IUPAC_TRADITIONAL_NAME>
6-methoxydecalin-2-ol
> <PUBCHEM_IUPAC_INCHI>
InChI=1S/C11H20O2/c1-13-11-5-3-8-6-10(12)4-2-9(8)7-11/h8-12H,2-7H2,1H3
> <PUBCHEM_IUPAC_INCHIKEY>
TUXPVWASPKOLEG-UHFFFAOYSA-N
> <PUBCHEM_XLOGP3_AA>
1.7
> <PUBCHEM_EXACT_MASS>
184.146329876
> <PUBCHEM_MOLECULAR_FORMULA>
C11H20O2
> <PUBCHEM_MOLECULAR_WEIGHT>
184.27
> <PUBCHEM_OPENEYE_CAN_SMILES>
COC1CCC2CC(CCC2C1)O
> <PUBCHEM_OPENEYE_ISO_SMILES>
COC1CCC2CC(CCC2C1)O
> <PUBCHEM_CACTVS_TPSA>
29.5
> <PUBCHEM_MONOISOTOPIC_WEIGHT>
184.146329876
> <PUBCHEM_TOTAL_CHARGE>
0
> <PUBCHEM_HEAVY_ATOM_COUNT>
13
> <PUBCHEM_ATOM_DEF_STEREO_COUNT>
0
> <PUBCHEM_ATOM_UDEF_STEREO_COUNT>
4
> <PUBCHEM_BOND_DEF_STEREO_COUNT>
0
> <PUBCHEM_BOND_UDEF_STEREO_COUNT>
0
> <PUBCHEM_ISOTOPIC_ATOM_COUNT>
0
> <PUBCHEM_COMPONENT_COUNT>
1
> <PUBCHEM_CACTVS_TAUTO_COUNT>
-1
> <PUBCHEM_COORDINATE_TYPE>
1
5
255
> <PUBCHEM_BONDANNOTATIONS>
9  1  3
11  2  3
3  8  3
4  6  3
$$$$
