524515
  -OEChem-10302200292D
 30 31  0     1  0  0  0  0  0999 V2000
    4.6783   -0.3240    0.0000 N   0  0  3  0  0  0  0  0  0  0  0  0
    3.7320    0.9807    0.0000 C   0  0  3  0  0  0  0  0  0  0  0  0
    3.7320   -0.0193    0.0000 C   0  0  3  0  0  0  0  0  0  0  0  0
    4.6783    1.2855    0.0000 C   0  0  0  0  0  0  0  0  0  0  0  0
    2.8660    1.4807    0.0000 C   0  0  0  0  0  0  0  0  0  0  0  0
    2.8660   -0.5193    0.0000 C   0  0  0  0  0  0  0  0  0  0  0  0
    5.2619    0.4807    0.0000 C   0  0  0  0  0  0  0  0  0  0  0  0
    2.0000    0.9807    0.0000 C   0  0  0  0  0  0  0  0  0  0  0  0
    2.0000   -0.0193    0.0000 C   0  0  0  0  0  0  0  0  0  0  0  0
    4.9889   -1.2745    0.0000 C   0  0  0  0  0  0  0  0  0  0  0  0
    5.9674   -1.4807    0.0000 C   0  0  0  0  0  0  0  0  0  0  0  0
    3.7977    1.5972    0.0000 H   0  0  0  0  0  0  0  0  0  0  0  0
    3.7977   -0.6358    0.0000 H   0  0  0  0  0  0  0  0  0  0  0  0
    5.2156    1.5947    0.0000 H   0  0  0  0  0  0  0  0  0  0  0  0
    4.4272    1.8524    0.0000 H   0  0  0  0  0  0  0  0  0  0  0  0
    3.2646    1.9557    0.0000 H   0  0  0  0  0  0  0  0  0  0  0  0
    2.4675    1.9557    0.0000 H   0  0  0  0  0  0  0  0  0  0  0  0
    2.4675   -0.9942    0.0000 H   0  0  0  0  0  0  0  0  0  0  0  0
    3.2646   -0.9942    0.0000 H   0  0  0  0  0  0  0  0  0  0  0  0
    5.7227    0.0660    0.0000 H   0  0  0  0  0  0  0  0  0  0  0  0
    5.7227    0.8955    0.0000 H   0  0  0  0  0  0  0  0  0  0  0  0
    1.7880    1.5634    0.0000 H   0  0  0  0  0  0  0  0  0  0  0  0
    1.3894    0.8731    0.0000 H   0  0  0  0  0  0  0  0  0  0  0  0
    1.3894    0.0884    0.0000 H   0  0  0  0  0  0  0  0  0  0  0  0
    1.7880   -0.6019    0.0000 H   0  0  0  0  0  0  0  0  0  0  0  0
    4.3751   -1.3619    0.0000 H   0  0  0  0  0  0  0  0  0  0  0  0
    4.9684   -1.8942    0.0000 H   0  0  0  0  0  0  0  0  0  0  0  0
    5.8396   -2.0874    0.0000 H   0  0  0  0  0  0  0  0  0  0  0  0
    6.5741   -1.6086    0.0000 H   0  0  0  0  0  0  0  0  0  0  0  0
    6.0953   -0.8741    0.0000 H   0  0  0  0  0  0  0  0  0  0  0  0
  1  3  1  0  0  0  0
  1  7  1  0  0  0  0
  1 10  1  0  0  0  0
  2  3  1  0  0  0  0
  2  4  1  0  0  0  0
  2  5  1  0  0  0  0
  2 12  1  0  0  0  0
  3  6  1  0  0  0  0
  3 13  1  0  0  0  0
  4  7  1  0  0  0  0
  4 14  1  0  0  0  0
  4 15  1  0  0  0  0
  5  8  1  0  0  0  0
  5 16  1  0  0  0  0
  5 17  1  0  0  0  0
  6  9  1  0  0  0  0
  6 18  1  0  0  0  0
  6 19  1  0  0  0  0
  7 20  1  0  0  0  0
  7 21  1  0  0  0  0
  8  9  1  0  0  0  0
  8 22  1  0  0  0  0
  8 23  1  0  0  0  0
  9 24  1  0  0  0  0
  9 25  1  0  0  0  0
 10 11  1  0  0  0  0
 10 26  1  0  0  0  0
 10 27  1  0  0  0  0
 11 28  1  0  0  0  0
 11 29  1  0  0  0  0
 11 30  1  0  0  0  0
M  END
> <PUBCHEM_COMPOUND_CID>
524515
> <PUBCHEM_COMPOUND_CANONICALIZED>
1
> <PUBCHEM_CACTVS_COMPLEXITY>
133
> <PUBCHEM_CACTVS_HBOND_ACCEPTOR>
1
> <PUBCHEM_CACTVS_HBOND_DONOR>
0
> <PUBCHEM_CACTVS_ROTATABLE_BOND>
1
> <PUBCHEM_CACTVS_SUBSKEYS>
AAADceByAAAAAAAAAAAAAAAAAAAAAWAAAAAwAAAAAAAAAFgAAAAAHAAAAAAADSjBAAQCAAMAAAAAAAAAAAAAAAAAAAAAAAAIAAAAAAIAgAAEAAAAAACAAAEQgIAOAAAAAAAAAAAAAAAAAAQAAAAAAAAAAA==
> <PUBCHEM_IUPAC_OPENEYE_NAME>
1-ethyl-2,3,3a,4,5,6,7,7a-octahydroindole
> <PUBCHEM_IUPAC_CAS_NAME>
1-ethyl-2,3,3a,4,5,6,7,7a-octahydroindole
> <PUBCHEM_IUPAC_NAME_MARKUP>
1-ethyl-2,3,3<I>a</I>,4,5,6,7,7<I>a</I>-octahydroindole
> <PUBCHEM_IUPAC_NAME>
1-ethyl-2,3,3a,4,5,6,7,7a-octahydroindole
> <PUBCHEM_IUPAC_SYSTEMATIC_NAME>
1-ethyl-2,3,3a,4,5,6,7,7a-octahydroindole
> <PUBCHEM_IUPAC_TRADITIONAL_NAME>
1-ethyl-2,3,3a,4,5,6,7,7a-octahydroindole
> <PUBCHEM_IUPAC_INCHI>
InChI=1S/C10H19N/c1-2-11-8-7-9-5-3-4-6-10(9)11/h9-10H,2-8H2,1H3
> <PUBCHEM_IUPAC_INCHIKEY>
GSXWVOZWKACRTO-UHFFFAOYSA-N
> <PUBCHEM_XLOGP3_AA>
2.5
> <PUBCHEM_EXACT_MASS>
153.151749610
> <PUBCHEM_MOLECULAR_FORMULA>
C10H19N
> <PUBCHEM_MOLECULAR_WEIGHT>
153.26
> <PUBCHEM_OPENEYE_CAN_SMILES>
CCN1CCC2C1CCCC2
> <PUBCHEM_OPENEYE_ISO_SMILES>
CCN1CCC2C1CCCC2
> <PUBCHEM_CACTVS_TPSA>
3.2
> <PUBCHEM_MONOISOTOPIC_WEIGHT>
153.151749610
> <PUBCHEM_TOTAL_CHARGE>
0
> <PUBCHEM_HEAVY_ATOM_COUNT>
11
> <PUBCHEM_ATOM_DEF_STEREO_COUNT>
0
> <PUBCHEM_ATOM_UDEF_STEREO_COUNT>
2
> <PUBCHEM_BOND_DEF_STEREO_COUNT>
0
> <PUBCHEM_BOND_UDEF_STEREO_COUNT>
0
> <PUBCHEM_ISOTOPIC_ATOM_COUNT>
0
> <PUBCHEM_COMPONENT_COUNT>
1
> <PUBCHEM_CACTVS_TAUTO_COUNT>
-1
> <PUBCHEM_COORDINATE_TYPE>
1
5
255
> <PUBCHEM_BONDANNOTATIONS>
2  5  3
3  6  3
$$$$
