524557
  -OEChem-10302200292D
 30 31  0     1  0  0  0  0  0999 V2000
    8.1282   -1.2568    0.0000 O   0  0  0  0  0  0  0  0  0  0  0  0
    2.0000    1.2673    0.0000 N   0  0  0  0  0  0  0  0  0  0  0  0
    5.4641   -0.7327    0.0000 C   0  0  3  0  0  0  0  0  0  0  0  0
    5.4641    0.2673    0.0000 C   0  0  3  0  0  0  0  0  0  0  0  0
    6.3580   -1.2673    0.0000 C   0  0  0  0  0  0  0  0  0  0  0  0
    4.5981    0.7673    0.0000 C   0  0  0  0  0  0  0  0  0  0  0  0
    6.3580    0.8020    0.0000 C   0  0  0  0  0  0  0  0  0  0  0  0
    4.5981   -1.2327    0.0000 C   0  0  0  0  0  0  0  0  0  0  0  0
    7.2641   -0.7535    0.0000 C   0  0  3  0  0  0  0  0  0  0  0  0
    3.7320    0.2673    0.0000 C   0  0  3  0  0  0  0  0  0  0  0  0
    7.2641    0.2881    0.0000 C   0  0  0  0  0  0  0  0  0  0  0  0
    3.7320   -0.7327    0.0000 C   0  0  0  0  0  0  0  0  0  0  0  0
    2.8660    0.7673    0.0000 C   0  0  0  0  0  0  0  0  0  0  0  0
    5.4593   -1.3526    0.0000 H   0  0  0  0  0  0  0  0  0  0  0  0
    5.4593    0.8873    0.0000 H   0  0  0  0  0  0  0  0  0  0  0  0
    5.9534   -1.7371    0.0000 H   0  0  0  0  0  0  0  0  0  0  0  0
    6.7517   -1.7464    0.0000 H   0  0  0  0  0  0  0  0  0  0  0  0
    4.9966    1.2423    0.0000 H   0  0  0  0  0  0  0  0  0  0  0  0
    4.1996    1.2423    0.0000 H   0  0  0  0  0  0  0  0  0  0  0  0
    6.7517    1.2810    0.0000 H   0  0  0  0  0  0  0  0  0  0  0  0
    5.9534    1.2718    0.0000 H   0  0  0  0  0  0  0  0  0  0  0  0
    4.1996   -1.7076    0.0000 H   0  0  0  0  0  0  0  0  0  0  0  0
    4.9966   -1.7076    0.0000 H   0  0  0  0  0  0  0  0  0  0  0  0
    7.2605   -1.3735    0.0000 H   0  0  0  0  0  0  0  0  0  0  0  0
    3.7320    0.8873    0.0000 H   0  0  0  0  0  0  0  0  0  0  0  0
    7.8750    0.1821    0.0000 H   0  0  0  0  0  0  0  0  0  0  0  0
    7.4732    0.8718    0.0000 H   0  0  0  0  0  0  0  0  0  0  0  0
    3.1215   -0.6250    0.0000 H   0  0  0  0  0  0  0  0  0  0  0  0
    3.5200   -1.3153    0.0000 H   0  0  0  0  0  0  0  0  0  0  0  0
    8.6663   -0.9489    0.0000 H   0  0  0  0  0  0  0  0  0  0  0  0
  1  9  1  0  0  0  0
  1 30  1  0  0  0  0
  2 13  3  0  0  0  0
  3  4  1  0  0  0  0
  3  5  1  0  0  0  0
  3  8  1  0  0  0  0
  3 14  1  0  0  0  0
  4  6  1  0  0  0  0
  4  7  1  0  0  0  0
  4 15  1  0  0  0  0
  5  9  1  0  0  0  0
  5 16  1  0  0  0  0
  5 17  1  0  0  0  0
  6 10  1  0  0  0  0
  6 18  1  0  0  0  0
  6 19  1  0  0  0  0
  7 11  1  0  0  0  0
  7 20  1  0  0  0  0
  7 21  1  0  0  0  0
  8 12  1  0  0  0  0
  8 22  1  0  0  0  0
  8 23  1  0  0  0  0
  9 11  1  0  0  0  0
  9 24  1  0  0  0  0
 10 12  1  0  0  0  0
 10 13  1  0  0  0  0
 10 25  1  0  0  0  0
 11 26  1  0  0  0  0
 11 27  1  0  0  0  0
 12 28  1  0  0  0  0
 12 29  1  0  0  0  0
M  END
> <PUBCHEM_COMPOUND_CID>
524557
> <PUBCHEM_COMPOUND_CANONICALIZED>
1
> <PUBCHEM_CACTVS_COMPLEXITY>
230
> <PUBCHEM_CACTVS_HBOND_ACCEPTOR>
2
> <PUBCHEM_CACTVS_HBOND_DONOR>
1
> <PUBCHEM_CACTVS_ROTATABLE_BOND>
0
> <PUBCHEM_CACTVS_SUBSKEYS>
AAADceByIAAAAAAAAAAAAAAAAAAAAAAAAAAwYAAAAAAAAADAAAAAHgAACAAADRShgAIAAAAAAgAQBAAAAAAAAAAAAAAAAAAAAAAAkAIAAAAAQAAEAAAAAAmAwPAOgAAAAAAAAADAAAYAACAAAAAAAAAAAA==
> <PUBCHEM_IUPAC_OPENEYE_NAME>
6-hydroxydecalin-2-carbonitrile
> <PUBCHEM_IUPAC_CAS_NAME>
6-hydroxy-1,2,3,4,4a,5,6,7,8,8a-decahydronaphthalene-2-carbonitrile
> <PUBCHEM_IUPAC_NAME_MARKUP>
6-hydroxy-1,2,3,4,4<I>a</I>,5,6,7,8,8<I>a</I>-decahydronaphthalene-2-carbonitrile
> <PUBCHEM_IUPAC_NAME>
6-hydroxy-1,2,3,4,4a,5,6,7,8,8a-decahydronaphthalene-2-carbonitrile
> <PUBCHEM_IUPAC_SYSTEMATIC_NAME>
6-oxidanyl-1,2,3,4,4a,5,6,7,8,8a-decahydronaphthalene-2-carbonitrile
> <PUBCHEM_IUPAC_TRADITIONAL_NAME>
6-hydroxydecalin-2-carbonitrile
> <PUBCHEM_IUPAC_INCHI>
InChI=1S/C11H17NO/c12-7-8-1-2-10-6-11(13)4-3-9(10)5-8/h8-11,13H,1-6H2
> <PUBCHEM_IUPAC_INCHIKEY>
NVYYORRRKLMLII-UHFFFAOYSA-N
> <PUBCHEM_XLOGP3_AA>
1.7
> <PUBCHEM_EXACT_MASS>
179.131014166
> <PUBCHEM_MOLECULAR_FORMULA>
C11H17NO
> <PUBCHEM_MOLECULAR_WEIGHT>
179.26
> <PUBCHEM_OPENEYE_CAN_SMILES>
C1CC2CC(CCC2CC1C#N)O
> <PUBCHEM_OPENEYE_ISO_SMILES>
C1CC2CC(CCC2CC1C#N)O
> <PUBCHEM_CACTVS_TPSA>
44
> <PUBCHEM_MONOISOTOPIC_WEIGHT>
179.131014166
> <PUBCHEM_TOTAL_CHARGE>
0
> <PUBCHEM_HEAVY_ATOM_COUNT>
13
> <PUBCHEM_ATOM_DEF_STEREO_COUNT>
0
> <PUBCHEM_ATOM_UDEF_STEREO_COUNT>
4
> <PUBCHEM_BOND_DEF_STEREO_COUNT>
0
> <PUBCHEM_BOND_UDEF_STEREO_COUNT>
0
> <PUBCHEM_ISOTOPIC_ATOM_COUNT>
0
> <PUBCHEM_COMPONENT_COUNT>
1
> <PUBCHEM_CACTVS_TAUTO_COUNT>
-1
> <PUBCHEM_COORDINATE_TYPE>
1
5
255
> <PUBCHEM_BONDANNOTATIONS>
9  1  3
10  13  3
3  8  3
4  7  3
$$$$
