524584
  -OEChem-10302200292D
 36 37  0     1  0  0  0  0  0999 V2000
    4.1906    0.0000    0.0000 C   0  0  3  0  0  0  0  0  0  0  0  0
    5.1906    0.0000    0.0000 C   0  0  3  0  0  0  0  0  0  0  0  0
    3.7568   -0.9010    0.0000 C   0  0  0  0  0  0  0  0  0  0  0  0
    5.6245   -0.9010    0.0000 C   0  0  0  0  0  0  0  0  0  0  0  0
    3.7568    0.9010    0.0000 C   0  0  0  0  0  0  0  0  0  0  0  0
    5.6245    0.9010    0.0000 C   0  0  0  0  0  0  0  0  0  0  0  0
    2.7818   -1.1235    0.0000 C   0  0  0  0  0  0  0  0  0  0  0  0
    6.5994   -1.1235    0.0000 C   0  0  0  0  0  0  0  0  0  0  0  0
    2.0000   -0.5000    0.0000 C   0  0  0  0  0  0  0  0  0  0  0  0
    7.3813   -0.5000    0.0000 C   0  0  0  0  0  0  0  0  0  0  0  0
    2.7818    1.1235    0.0000 C   0  0  0  0  0  0  0  0  0  0  0  0
    6.5994    1.1235    0.0000 C   0  0  0  0  0  0  0  0  0  0  0  0
    2.0000    0.5000    0.0000 C   0  0  0  0  0  0  0  0  0  0  0  0
    7.3813    0.5000    0.0000 C   0  0  0  0  0  0  0  0  0  0  0  0
    4.5205    0.5250    0.0000 H   0  0  0  0  0  0  0  0  0  0  0  0
    5.8106    0.0000    0.0000 H   0  0  0  0  0  0  0  0  0  0  0  0
    3.7568   -1.5210    0.0000 H   0  0  0  0  0  0  0  0  0  0  0  0
    4.3612   -1.0389    0.0000 H   0  0  0  0  0  0  0  0  0  0  0  0
    5.0201   -1.0389    0.0000 H   0  0  0  0  0  0  0  0  0  0  0  0
    5.6245   -1.5210    0.0000 H   0  0  0  0  0  0  0  0  0  0  0  0
    4.3612    1.0389    0.0000 H   0  0  0  0  0  0  0  0  0  0  0  0
    3.7568    1.5210    0.0000 H   0  0  0  0  0  0  0  0  0  0  0  0
    5.6245    1.5210    0.0000 H   0  0  0  0  0  0  0  0  0  0  0  0
    5.0201    1.0389    0.0000 H   0  0  0  0  0  0  0  0  0  0  0  0
    2.2971   -1.5100    0.0000 H   0  0  0  0  0  0  0  0  0  0  0  0
    3.0508   -1.6821    0.0000 H   0  0  0  0  0  0  0  0  0  0  0  0
    6.3304   -1.6821    0.0000 H   0  0  0  0  0  0  0  0  0  0  0  0
    7.0842   -1.5100    0.0000 H   0  0  0  0  0  0  0  0  0  0  0  0
    1.3955   -0.3620    0.0000 H   0  0  0  0  0  0  0  0  0  0  0  0
    1.7310   -1.0586    0.0000 H   0  0  0  0  0  0  0  0  0  0  0  0
    7.6503   -1.0586    0.0000 H   0  0  0  0  0  0  0  0  0  0  0  0
    7.9857   -0.3620    0.0000 H   0  0  0  0  0  0  0  0  0  0  0  0
    2.6439    1.7280    0.0000 H   0  0  0  0  0  0  0  0  0  0  0  0
    6.7374    1.7280    0.0000 H   0  0  0  0  0  0  0  0  0  0  0  0
    1.4414    0.7690    0.0000 H   0  0  0  0  0  0  0  0  0  0  0  0
    7.9399    0.7690    0.0000 H   0  0  0  0  0  0  0  0  0  0  0  0
  1  2  1  0  0  0  0
  1  3  1  0  0  0  0
  1  5  1  0  0  0  0
  1 15  1  0  0  0  0
  2  4  1  0  0  0  0
  2  6  1  0  0  0  0
  2 16  1  0  0  0  0
  3  7  1  0  0  0  0
  3 17  1  0  0  0  0
  3 18  1  0  0  0  0
  4  8  1  0  0  0  0
  4 19  1  0  0  0  0
  4 20  1  0  0  0  0
  5 11  1  0  0  0  0
  5 21  1  0  0  0  0
  5 22  1  0  0  0  0
  6 12  1  0  0  0  0
  6 23  1  0  0  0  0
  6 24  1  0  0  0  0
  7  9  1  0  0  0  0
  7 25  1  0  0  0  0
  7 26  1  0  0  0  0
  8 10  1  0  0  0  0
  8 27  1  0  0  0  0
  8 28  1  0  0  0  0
  9 13  1  0  0  0  0
  9 29  1  0  0  0  0
  9 30  1  0  0  0  0
 10 14  1  0  0  0  0
 10 31  1  0  0  0  0
 10 32  1  0  0  0  0
 11 13  2  0  0  0  0
 11 33  1  0  0  0  0
 12 14  2  0  0  0  0
 12 34  1  0  0  0  0
 13 35  1  0  0  0  0
 14 36  1  0  0  0  0
M  END
> <PUBCHEM_COMPOUND_CID>
524584
> <PUBCHEM_COMPOUND_CANONICALIZED>
1
> <PUBCHEM_CACTVS_COMPLEXITY>
188
> <PUBCHEM_CACTVS_HBOND_ACCEPTOR>
0
> <PUBCHEM_CACTVS_HBOND_DONOR>
0
> <PUBCHEM_CACTVS_ROTATABLE_BOND>
1
> <PUBCHEM_CACTVS_SUBSKEYS>
AAADceBwAAAAAAAAAAAAAAAAAAAAAAAAAAAAAAAABAgAAAAAAAAAGAAAAAAADQCAAAAAAAAAAACAACBCAAAAAAAgAAAICAAAAAgAAAIAAQAAAAAAgAAIAAMAgMAOgAAAAAAAAAAAAAAAAAAAAAAAAAAAAA==
> <PUBCHEM_IUPAC_OPENEYE_NAME>
4-cyclohept-3-en-1-ylcycloheptene
> <PUBCHEM_IUPAC_CAS_NAME>
4-(1-cyclohept-3-enyl)cycloheptene
> <PUBCHEM_IUPAC_NAME_MARKUP>
4-cyclohept-3-en-1-ylcycloheptene
> <PUBCHEM_IUPAC_NAME>
4-cyclohept-3-en-1-ylcycloheptene
> <PUBCHEM_IUPAC_SYSTEMATIC_NAME>
4-cyclohept-3-en-1-ylcycloheptene
> <PUBCHEM_IUPAC_TRADITIONAL_NAME>
4-cyclohept-3-en-1-ylcycloheptene
> <PUBCHEM_IUPAC_INCHI>
InChI=1S/C14H22/c1-2-6-10-13(9-5-1)14-11-7-3-4-8-12-14/h1,3,5,7,13-14H,2,4,6,8-12H2
> <PUBCHEM_IUPAC_INCHIKEY>
KMYUSDGASPTLGY-UHFFFAOYSA-N
> <PUBCHEM_XLOGP3_AA>
5.2
> <PUBCHEM_EXACT_MASS>
190.172150702
> <PUBCHEM_MOLECULAR_FORMULA>
C14H22
> <PUBCHEM_MOLECULAR_WEIGHT>
190.32
> <PUBCHEM_OPENEYE_CAN_SMILES>
C1CC=CCC(C1)C2CCCC=CC2
> <PUBCHEM_OPENEYE_ISO_SMILES>
C1CC=CCC(C1)C2CCCC=CC2
> <PUBCHEM_CACTVS_TPSA>
0
> <PUBCHEM_MONOISOTOPIC_WEIGHT>
190.172150702
> <PUBCHEM_TOTAL_CHARGE>
0
> <PUBCHEM_HEAVY_ATOM_COUNT>
14
> <PUBCHEM_ATOM_DEF_STEREO_COUNT>
0
> <PUBCHEM_ATOM_UDEF_STEREO_COUNT>
2
> <PUBCHEM_BOND_DEF_STEREO_COUNT>
0
> <PUBCHEM_BOND_UDEF_STEREO_COUNT>
0
> <PUBCHEM_ISOTOPIC_ATOM_COUNT>
0
> <PUBCHEM_COMPONENT_COUNT>
1
> <PUBCHEM_CACTVS_TAUTO_COUNT>
-1
> <PUBCHEM_COORDINATE_TYPE>
1
5
255
> <PUBCHEM_BONDANNOTATIONS>
1  3  3
2  4  3
$$$$
