524571
  -OEChem-10302200292D
 29 30  0     1  0  0  0  0  0999 V2000
    2.8660    0.7306    0.0000 C   0  0  0  0  0  0  0  0  0  0  0  0
    2.8660   -0.2694    0.0000 C   0  0  3  0  0  0  0  0  0  0  0  0
    3.6750    1.3184    0.0000 C   0  0  0  0  0  0  0  0  0  0  0  0
    2.0570    1.3184    0.0000 C   0  0  0  0  0  0  0  0  0  0  0  0
    3.3660    2.2694    0.0000 C   0  0  0  0  0  0  0  0  0  0  0  0
    2.3660    2.2694    0.0000 C   0  0  0  0  0  0  0  0  0  0  0  0
    2.0000   -0.7694    0.0000 C   0  0  0  0  0  0  0  0  0  0  0  0
    3.7320   -0.7694    0.0000 C   0  0  0  0  0  0  0  0  0  0  0  0
    2.0000   -1.7694    0.0000 C   0  0  0  0  0  0  0  0  0  0  0  0
    3.7320   -1.7694    0.0000 C   0  0  0  0  0  0  0  0  0  0  0  0
    2.8660   -2.2694    0.0000 C   0  0  0  0  0  0  0  0  0  0  0  0
    3.4184    0.4491    0.0000 H   0  0  0  0  0  0  0  0  0  0  0  0
    2.3291    0.0406    0.0000 H   0  0  0  0  0  0  0  0  0  0  0  0
    3.9850    0.7814    0.0000 H   0  0  0  0  0  0  0  0  0  0  0  0
    4.2414    1.5705    0.0000 H   0  0  0  0  0  0  0  0  0  0  0  0
    1.4906    1.5705    0.0000 H   0  0  0  0  0  0  0  0  0  0  0  0
    1.7470    0.7814    0.0000 H   0  0  0  0  0  0  0  0  0  0  0  0
    3.9725    2.3983    0.0000 H   0  0  0  0  0  0  0  0  0  0  0  0
    3.3012    2.8860    0.0000 H   0  0  0  0  0  0  0  0  0  0  0  0
    2.4308    2.8860    0.0000 H   0  0  0  0  0  0  0  0  0  0  0  0
    1.7596    2.3983    0.0000 H   0  0  0  0  0  0  0  0  0  0  0  0
    1.7880   -0.1868    0.0000 H   0  0  0  0  0  0  0  0  0  0  0  0
    1.3894   -0.8771    0.0000 H   0  0  0  0  0  0  0  0  0  0  0  0
    4.3426   -0.8771    0.0000 H   0  0  0  0  0  0  0  0  0  0  0  0
    3.9441   -0.1868    0.0000 H   0  0  0  0  0  0  0  0  0  0  0  0
    1.3894   -1.6618    0.0000 H   0  0  0  0  0  0  0  0  0  0  0  0
    1.7880   -2.3520    0.0000 H   0  0  0  0  0  0  0  0  0  0  0  0
    4.2690   -2.0794    0.0000 H   0  0  0  0  0  0  0  0  0  0  0  0
    2.8660   -2.8894    0.0000 H   0  0  0  0  0  0  0  0  0  0  0  0
  1  2  1  0  0  0  0
  1  3  1  0  0  0  0
  1  4  1  0  0  0  0
  1 12  1  0  0  0  0
  2  7  1  0  0  0  0
  2  8  1  0  0  0  0
  2 13  1  0  0  0  0
  3  5  1  0  0  0  0
  3 14  1  0  0  0  0
  3 15  1  0  0  0  0
  4  6  1  0  0  0  0
  4 16  1  0  0  0  0
  4 17  1  0  0  0  0
  5  6  1  0  0  0  0
  5 18  1  0  0  0  0
  5 19  1  0  0  0  0
  6 20  1  0  0  0  0
  6 21  1  0  0  0  0
  7  9  1  0  0  0  0
  7 22  1  0  0  0  0
  7 23  1  0  0  0  0
  8 10  1  0  0  0  0
  8 24  1  0  0  0  0
  8 25  1  0  0  0  0
  9 11  1  0  0  0  0
  9 26  1  0  0  0  0
  9 27  1  0  0  0  0
 10 11  2  0  0  0  0
 10 28  1  0  0  0  0
 11 29  1  0  0  0  0
M  END
> <PUBCHEM_COMPOUND_CID>
524571
> <PUBCHEM_COMPOUND_CANONICALIZED>
1
> <PUBCHEM_CACTVS_COMPLEXITY>
140
> <PUBCHEM_CACTVS_HBOND_ACCEPTOR>
0
> <PUBCHEM_CACTVS_HBOND_DONOR>
0
> <PUBCHEM_CACTVS_ROTATABLE_BOND>
1
> <PUBCHEM_CACTVS_SUBSKEYS>
AAADceBwAAAAAAAAAAAAAAAAAAAAAYAAAAAgAAAAAAAAAAAAAAAAGAAAAAAADQCAAAAAAAAAAACAACBCAAAAAAAgAAAICAAAAAgAAAIAAQAAAAAAgAAIAAMAgMAOgAAAAAAAAAAAAAAAAAAAAAAAAAAAAA==
> <PUBCHEM_IUPAC_OPENEYE_NAME>
4-cyclopentylcyclohexene
> <PUBCHEM_IUPAC_CAS_NAME>
4-cyclopentylcyclohexene
> <PUBCHEM_IUPAC_NAME_MARKUP>
4-cyclopentylcyclohexene
> <PUBCHEM_IUPAC_NAME>
4-cyclopentylcyclohexene
> <PUBCHEM_IUPAC_SYSTEMATIC_NAME>
4-cyclopentylcyclohexene
> <PUBCHEM_IUPAC_TRADITIONAL_NAME>
4-cyclopentylcyclohexene
> <PUBCHEM_IUPAC_INCHI>
InChI=1S/C11H18/c1-2-6-10(7-3-1)11-8-4-5-9-11/h1-2,10-11H,3-9H2
> <PUBCHEM_IUPAC_INCHIKEY>
FCVDDRKYHZIJSH-UHFFFAOYSA-N
> <PUBCHEM_XLOGP3_AA>
4.4
> <PUBCHEM_EXACT_MASS>
150.140850574
> <PUBCHEM_MOLECULAR_FORMULA>
C11H18
> <PUBCHEM_MOLECULAR_WEIGHT>
150.26
> <PUBCHEM_OPENEYE_CAN_SMILES>
C1CCC(C1)C2CCC=CC2
> <PUBCHEM_OPENEYE_ISO_SMILES>
C1CCC(C1)C2CCC=CC2
> <PUBCHEM_CACTVS_TPSA>
0
> <PUBCHEM_MONOISOTOPIC_WEIGHT>
150.140850574
> <PUBCHEM_TOTAL_CHARGE>
0
> <PUBCHEM_HEAVY_ATOM_COUNT>
11
> <PUBCHEM_ATOM_DEF_STEREO_COUNT>
0
> <PUBCHEM_ATOM_UDEF_STEREO_COUNT>
1
> <PUBCHEM_BOND_DEF_STEREO_COUNT>
0
> <PUBCHEM_BOND_UDEF_STEREO_COUNT>
0
> <PUBCHEM_ISOTOPIC_ATOM_COUNT>
0
> <PUBCHEM_COMPONENT_COUNT>
1
> <PUBCHEM_CACTVS_TAUTO_COUNT>
-1
> <PUBCHEM_COORDINATE_TYPE>
1
5
255
> <PUBCHEM_BONDANNOTATIONS>
2  1  3
$$$$
