524636
  -OEChem-10302200292D
 36 36  0     1  0  0  0  0  0999 V2000
    4.3660   -0.6160    0.0000 C   0  0  3  0  0  0  0  0  0  0  0  0
    3.5000   -1.1160    0.0000 C   0  0  3  0  0  0  0  0  0  0  0  0
    3.5000   -0.1160    0.0000 C   0  0  0  0  0  0  0  0  0  0  0  0
    5.3660   -0.6160    0.0000 C   0  0  0  0  0  0  0  0  0  0  0  0
    3.0000   -1.9820    0.0000 C   0  0  0  0  0  0  0  0  0  0  0  0
    5.8660    0.2500    0.0000 C   0  0  0  0  0  0  0  0  0  0  0  0
    2.0000   -1.9820    0.0000 C   0  0  0  0  0  0  0  0  0  0  0  0
    6.8660    0.2500    0.0000 C   0  0  0  0  0  0  0  0  0  0  0  0
    7.3660    1.1160    0.0000 C   0  0  0  0  0  0  0  0  0  0  0  0
    8.3660    1.1160    0.0000 C   0  0  0  0  0  0  0  0  0  0  0  0
    8.8660    1.9820    0.0000 C   0  0  0  0  0  0  0  0  0  0  0  0
    9.8660    1.9820    0.0000 C   0  0  0  0  0  0  0  0  0  0  0  0
    4.5860    0.2050    0.0000 H   0  0  0  0  0  0  0  0  0  0  0  0
    4.1010   -1.7171    0.0000 H   0  0  0  0  0  0  0  0  0  0  0  0
    3.7120    0.4666    0.0000 H   0  0  0  0  0  0  0  0  0  0  0  0
    2.8894   -0.0084    0.0000 H   0  0  0  0  0  0  0  0  0  0  0  0
    5.2584   -1.2266    0.0000 H   0  0  0  0  0  0  0  0  0  0  0  0
    5.9486   -0.8281    0.0000 H   0  0  0  0  0  0  0  0  0  0  0  0
    2.8923   -2.5926    0.0000 H   0  0  0  0  0  0  0  0  0  0  0  0
    3.5826   -2.1941    0.0000 H   0  0  0  0  0  0  0  0  0  0  0  0
    5.9737    0.8606    0.0000 H   0  0  0  0  0  0  0  0  0  0  0  0
    5.2834    0.4621    0.0000 H   0  0  0  0  0  0  0  0  0  0  0  0
    2.0000   -1.3620    0.0000 H   0  0  0  0  0  0  0  0  0  0  0  0
    1.3800   -1.9820    0.0000 H   0  0  0  0  0  0  0  0  0  0  0  0
    2.0000   -2.6021    0.0000 H   0  0  0  0  0  0  0  0  0  0  0  0
    6.7584   -0.3606    0.0000 H   0  0  0  0  0  0  0  0  0  0  0  0
    7.4486    0.0379    0.0000 H   0  0  0  0  0  0  0  0  0  0  0  0
    7.4737    1.7266    0.0000 H   0  0  0  0  0  0  0  0  0  0  0  0
    6.7834    1.3281    0.0000 H   0  0  0  0  0  0  0  0  0  0  0  0
    8.2584    0.5054    0.0000 H   0  0  0  0  0  0  0  0  0  0  0  0
    8.9486    0.9040    0.0000 H   0  0  0  0  0  0  0  0  0  0  0  0
    8.9737    2.5926    0.0000 H   0  0  0  0  0  0  0  0  0  0  0  0
    8.2834    2.1941    0.0000 H   0  0  0  0  0  0  0  0  0  0  0  0
    9.8660    1.3620    0.0000 H   0  0  0  0  0  0  0  0  0  0  0  0
   10.4860    1.9820    0.0000 H   0  0  0  0  0  0  0  0  0  0  0  0
    9.8660    2.6021    0.0000 H   0  0  0  0  0  0  0  0  0  0  0  0
  1  2  1  0  0  0  0
  1  3  1  0  0  0  0
  1  4  1  0  0  0  0
  1 13  1  0  0  0  0
  2  3  1  0  0  0  0
  2  5  1  0  0  0  0
  2 14  1  0  0  0  0
  3 15  1  0  0  0  0
  3 16  1  0  0  0  0
  4  6  1  0  0  0  0
  4 17  1  0  0  0  0
  4 18  1  0  0  0  0
  5  7  1  0  0  0  0
  5 19  1  0  0  0  0
  5 20  1  0  0  0  0
  6  8  1  0  0  0  0
  6 21  1  0  0  0  0
  6 22  1  0  0  0  0
  7 23  1  0  0  0  0
  7 24  1  0  0  0  0
  7 25  1  0  0  0  0
  8  9  1  0  0  0  0
  8 26  1  0  0  0  0
  8 27  1  0  0  0  0
  9 10  1  0  0  0  0
  9 28  1  0  0  0  0
  9 29  1  0  0  0  0
 10 11  1  0  0  0  0
 10 30  1  0  0  0  0
 10 31  1  0  0  0  0
 11 12  1  0  0  0  0
 11 32  1  0  0  0  0
 11 33  1  0  0  0  0
 12 34  1  0  0  0  0
 12 35  1  0  0  0  0
 12 36  1  0  0  0  0
M  END
> <PUBCHEM_COMPOUND_CID>
524636
> <PUBCHEM_COMPOUND_CANONICALIZED>
1
> <PUBCHEM_CACTVS_COMPLEXITY>
107
> <PUBCHEM_CACTVS_HBOND_ACCEPTOR>
0
> <PUBCHEM_CACTVS_HBOND_DONOR>
0
> <PUBCHEM_CACTVS_ROTATABLE_BOND>
7
> <PUBCHEM_CACTVS_SUBSKEYS>
AAADceBwAAAAAAAAAAAAAAAAGAAAAAAAAAAAAAAAAAAAAAAAAAAAGAAAAAAADQCAAAACAAAAAAAAAAAAAAAAAAAAAAAAAAAAAAAAAAIAAAAAAAAAAAAAAAEAgMAOAAAAAAAAAAAAAAAAAAAAAAAAAAAAAA==
> <PUBCHEM_IUPAC_OPENEYE_NAME>
1-ethyl-2-heptyl-cyclopropane
> <PUBCHEM_IUPAC_CAS_NAME>
1-ethyl-2-heptylcyclopropane
> <PUBCHEM_IUPAC_NAME_MARKUP>
1-ethyl-2-heptylcyclopropane
> <PUBCHEM_IUPAC_NAME>
1-ethyl-2-heptylcyclopropane
> <PUBCHEM_IUPAC_SYSTEMATIC_NAME>
1-ethyl-2-heptyl-cyclopropane
> <PUBCHEM_IUPAC_TRADITIONAL_NAME>
1-ethyl-2-heptyl-cyclopropane
> <PUBCHEM_IUPAC_INCHI>
InChI=1S/C12H24/c1-3-5-6-7-8-9-12-10-11(12)4-2/h11-12H,3-10H2,1-2H3
> <PUBCHEM_IUPAC_INCHIKEY>
FHUVNRUQAXFLJB-UHFFFAOYSA-N
> <PUBCHEM_XLOGP3_AA>
5.9
> <PUBCHEM_EXACT_MASS>
168.187800766
> <PUBCHEM_MOLECULAR_FORMULA>
C12H24
> <PUBCHEM_MOLECULAR_WEIGHT>
168.32
> <PUBCHEM_OPENEYE_CAN_SMILES>
CCCCCCCC1CC1CC
> <PUBCHEM_OPENEYE_ISO_SMILES>
CCCCCCCC1CC1CC
> <PUBCHEM_CACTVS_TPSA>
0
> <PUBCHEM_MONOISOTOPIC_WEIGHT>
168.187800766
> <PUBCHEM_TOTAL_CHARGE>
0
> <PUBCHEM_HEAVY_ATOM_COUNT>
12
> <PUBCHEM_ATOM_DEF_STEREO_COUNT>
0
> <PUBCHEM_ATOM_UDEF_STEREO_COUNT>
2
> <PUBCHEM_BOND_DEF_STEREO_COUNT>
0
> <PUBCHEM_BOND_UDEF_STEREO_COUNT>
0
> <PUBCHEM_ISOTOPIC_ATOM_COUNT>
0
> <PUBCHEM_COMPONENT_COUNT>
1
> <PUBCHEM_CACTVS_TAUTO_COUNT>
1
> <PUBCHEM_COORDINATE_TYPE>
1
5
255
> <PUBCHEM_BONDANNOTATIONS>
1  13  3
2  14  3
$$$$
