524646
  -OEChem-10302200292D
 19 19  0     1  0  0  0  0  0999 V2000
    2.5000   -0.2500    0.0000 C   0  0  3  0  0  0  0  0  0  0  0  0
    3.3660    0.2500    0.0000 C   0  0  3  0  0  0  0  0  0  0  0  0
    2.5000    0.7500    0.0000 C   0  0  0  0  0  0  0  0  0  0  0  0
    2.0000   -1.1160    0.0000 C   0  0  0  0  0  0  0  0  0  0  0  0
    4.3660    0.2500    0.0000 C   0  0  0  0  0  0  0  0  0  0  0  0
    4.8660    1.1160    0.0000 C   0  0  0  0  0  0  0  0  0  0  0  0
    5.8660    1.1160    0.0000 C   0  0  0  0  0  0  0  0  0  0  0  0
    1.9011   -0.0895    0.0000 H   0  0  0  0  0  0  0  0  0  0  0  0
    3.5265   -0.3489    0.0000 H   0  0  0  0  0  0  0  0  0  0  0  0
    2.7120    1.3326    0.0000 H   0  0  0  0  0  0  0  0  0  0  0  0
    1.8894    0.8577    0.0000 H   0  0  0  0  0  0  0  0  0  0  0  0
    1.4631   -0.8060    0.0000 H   0  0  0  0  0  0  0  0  0  0  0  0
    1.6900   -1.6530    0.0000 H   0  0  0  0  0  0  0  0  0  0  0  0
    2.5369   -1.4260    0.0000 H   0  0  0  0  0  0  0  0  0  0  0  0
    4.6760   -0.2869    0.0000 H   0  0  0  0  0  0  0  0  0  0  0  0
    4.5560    1.6530    0.0000 H   0  0  0  0  0  0  0  0  0  0  0  0
    5.8660    0.4960    0.0000 H   0  0  0  0  0  0  0  0  0  0  0  0
    6.4860    1.1160    0.0000 H   0  0  0  0  0  0  0  0  0  0  0  0
    5.8660    1.7360    0.0000 H   0  0  0  0  0  0  0  0  0  0  0  0
  1  2  1  0  0  0  0
  1  3  1  0  0  0  0
  1  4  1  0  0  0  0
  1  8  1  0  0  0  0
  2  3  1  0  0  0  0
  2  5  1  0  0  0  0
  2  9  1  0  0  0  0
  3 10  1  0  0  0  0
  3 11  1  0  0  0  0
  4 12  1  0  0  0  0
  4 13  1  0  0  0  0
  4 14  1  0  0  0  0
  5  6  2  3  0  0  0
  5 15  1  0  0  0  0
  6  7  1  0  0  0  0
  6 16  1  0  0  0  0
  7 17  1  0  0  0  0
  7 18  1  0  0  0  0
  7 19  1  0  0  0  0
M  END
> <PUBCHEM_COMPOUND_CID>
524646
> <PUBCHEM_COMPOUND_CANONICALIZED>
1
> <PUBCHEM_CACTVS_COMPLEXITY>
82
> <PUBCHEM_CACTVS_HBOND_ACCEPTOR>
0
> <PUBCHEM_CACTVS_HBOND_DONOR>
0
> <PUBCHEM_CACTVS_ROTATABLE_BOND>
1
> <PUBCHEM_CACTVS_SUBSKEYS>
AAADccBgAAAAAAAAAAAAAAAAGAAAAAAAAAAAAAAAAAAAAAAAAAAAGAAAAAAADQCAAAACAAAAAACAACBCAAAAAAAgAAAICAAAAAgAAAIAAQAAAAAAgAAIAAIAAAAIAAAAAAAAAAAAAAAAAAAAAAAAAAAAAA==
> <PUBCHEM_IUPAC_OPENEYE_NAME>
1-methyl-2-prop-1-enyl-cyclopropane
> <PUBCHEM_IUPAC_CAS_NAME>
1-methyl-2-prop-1-enylcyclopropane
> <PUBCHEM_IUPAC_NAME_MARKUP>
1-methyl-2-prop-1-enylcyclopropane
> <PUBCHEM_IUPAC_NAME>
1-methyl-2-prop-1-enylcyclopropane
> <PUBCHEM_IUPAC_SYSTEMATIC_NAME>
1-methyl-2-prop-1-enyl-cyclopropane
> <PUBCHEM_IUPAC_TRADITIONAL_NAME>
1-methyl-2-prop-1-enyl-cyclopropane
> <PUBCHEM_IUPAC_INCHI>
InChI=1S/C7H12/c1-3-4-7-5-6(7)2/h3-4,6-7H,5H2,1-2H3
> <PUBCHEM_IUPAC_INCHIKEY>
LNAVSCYUHFMDNS-UHFFFAOYSA-N
> <PUBCHEM_XLOGP3_AA>
2.5
> <PUBCHEM_EXACT_MASS>
96.093900383
> <PUBCHEM_MOLECULAR_FORMULA>
C7H12
> <PUBCHEM_MOLECULAR_WEIGHT>
96.17
> <PUBCHEM_OPENEYE_CAN_SMILES>
CC=CC1CC1C
> <PUBCHEM_OPENEYE_ISO_SMILES>
CC=CC1CC1C
> <PUBCHEM_CACTVS_TPSA>
0
> <PUBCHEM_MONOISOTOPIC_WEIGHT>
96.093900383
> <PUBCHEM_TOTAL_CHARGE>
0
> <PUBCHEM_HEAVY_ATOM_COUNT>
7
> <PUBCHEM_ATOM_DEF_STEREO_COUNT>
0
> <PUBCHEM_ATOM_UDEF_STEREO_COUNT>
2
> <PUBCHEM_BOND_DEF_STEREO_COUNT>
0
> <PUBCHEM_BOND_UDEF_STEREO_COUNT>
1
> <PUBCHEM_ISOTOPIC_ATOM_COUNT>
0
> <PUBCHEM_COMPONENT_COUNT>
1
> <PUBCHEM_CACTVS_TAUTO_COUNT>
-1
> <PUBCHEM_COORDINATE_TYPE>
1
5
255
> <PUBCHEM_BONDANNOTATIONS>
1  4  3
2  5  3
5  6  1
$$$$
