524683
  -OEChem-10302200292D
 28 29  0     1  0  0  0  0  0999 V2000
    3.3660   -0.6830    0.0000 C   0  0  3  0  0  0  0  0  0  0  0  0
    2.5000   -1.1830    0.0000 C   0  0  3  0  0  0  0  0  0  0  0  0
    2.5000   -0.1830    0.0000 C   0  0  0  0  0  0  0  0  0  0  0  0
    4.3660   -0.6830    0.0000 C   0  0  0  0  0  0  0  0  0  0  0  0
    6.3660    1.0490    0.0000 C   0  0  0  0  0  0  0  0  0  0  0  0
    4.8660    0.1830    0.0000 C   0  0  0  0  0  0  0  0  0  0  0  0
    6.3660    2.0490    0.0000 C   0  0  0  0  0  0  0  0  0  0  0  0
    7.2320    1.5490    0.0000 C   0  0  0  0  0  0  0  0  0  0  0  0
    5.8660    0.1830    0.0000 C   0  0  0  0  0  0  0  0  0  0  0  0
    2.0000   -2.0490    0.0000 C   0  0  0  0  0  0  0  0  0  0  0  0
    3.5265   -1.2819    0.0000 H   0  0  0  0  0  0  0  0  0  0  0  0
    1.9011   -1.0225    0.0000 H   0  0  0  0  0  0  0  0  0  0  0  0
    2.7120    0.3996    0.0000 H   0  0  0  0  0  0  0  0  0  0  0  0
    1.8894   -0.0754    0.0000 H   0  0  0  0  0  0  0  0  0  0  0  0
    4.2584   -1.2936    0.0000 H   0  0  0  0  0  0  0  0  0  0  0  0
    4.9486   -0.8951    0.0000 H   0  0  0  0  0  0  0  0  0  0  0  0
    6.8044    0.6106    0.0000 H   0  0  0  0  0  0  0  0  0  0  0  0
    6.5781    2.6316    0.0000 H   0  0  0  0  0  0  0  0  0  0  0  0
    5.7554    2.1567    0.0000 H   0  0  0  0  0  0  0  0  0  0  0  0
    7.6306    1.0741    0.0000 H   0  0  0  0  0  0  0  0  0  0  0  0
    7.6306    2.0240    0.0000 H   0  0  0  0  0  0  0  0  0  0  0  0
    4.9737    0.7936    0.0000 H   0  0  0  0  0  0  0  0  0  0  0  0
    4.2834    0.3951    0.0000 H   0  0  0  0  0  0  0  0  0  0  0  0
    5.7584   -0.4276    0.0000 H   0  0  0  0  0  0  0  0  0  0  0  0
    6.4486   -0.0290    0.0000 H   0  0  0  0  0  0  0  0  0  0  0  0
    1.4631   -1.7390    0.0000 H   0  0  0  0  0  0  0  0  0  0  0  0
    1.6900   -2.5860    0.0000 H   0  0  0  0  0  0  0  0  0  0  0  0
    2.5369   -2.3590    0.0000 H   0  0  0  0  0  0  0  0  0  0  0  0
  1  2  1  0  0  0  0
  1  3  1  0  0  0  0
  1  4  1  0  0  0  0
  1 11  1  0  0  0  0
  2  3  1  0  0  0  0
  2 10  1  0  0  0  0
  2 12  1  0  0  0  0
  3 13  1  0  0  0  0
  3 14  1  0  0  0  0
  4  6  1  0  0  0  0
  4 15  1  0  0  0  0
  4 16  1  0  0  0  0
  5  7  1  0  0  0  0
  5  8  1  0  0  0  0
  5  9  1  0  0  0  0
  5 17  1  0  0  0  0
  6  9  1  0  0  0  0
  6 22  1  0  0  0  0
  6 23  1  0  0  0  0
  7  8  1  0  0  0  0
  7 18  1  0  0  0  0
  7 19  1  0  0  0  0
  8 20  1  0  0  0  0
  8 21  1  0  0  0  0
  9 24  1  0  0  0  0
  9 25  1  0  0  0  0
 10 26  1  0  0  0  0
 10 27  1  0  0  0  0
 10 28  1  0  0  0  0
M  END
> <PUBCHEM_COMPOUND_CID>
524683
> <PUBCHEM_COMPOUND_CANONICALIZED>
1
> <PUBCHEM_CACTVS_COMPLEXITY>
113
> <PUBCHEM_CACTVS_HBOND_ACCEPTOR>
0
> <PUBCHEM_CACTVS_HBOND_DONOR>
0
> <PUBCHEM_CACTVS_ROTATABLE_BOND>
4
> <PUBCHEM_CACTVS_SUBSKEYS>
AAADceBwAAAAAAAAAAAAAAAAGDAAAAAAAAAAAAAAAAAAAAAAAAAAGAAAAAAADQCAAAACAAAAAAAAAAAAAAAAAAAAAAAAAAAAAAAAAAIAAAAAAAAAAAAAAAEAgMAOAAAAAAAAAAAAAAAAAAAAAAAAAAAAAA==
> <PUBCHEM_IUPAC_OPENEYE_NAME>
1-(3-cyclopropylpropyl)-2-methyl-cyclopropane
> <PUBCHEM_IUPAC_CAS_NAME>
1-(3-cyclopropylpropyl)-2-methylcyclopropane
> <PUBCHEM_IUPAC_NAME_MARKUP>
1-(3-cyclopropylpropyl)-2-methylcyclopropane
> <PUBCHEM_IUPAC_NAME>
1-(3-cyclopropylpropyl)-2-methylcyclopropane
> <PUBCHEM_IUPAC_SYSTEMATIC_NAME>
1-(3-cyclopropylpropyl)-2-methyl-cyclopropane
> <PUBCHEM_IUPAC_TRADITIONAL_NAME>
1-(3-cyclopropylpropyl)-2-methyl-cyclopropane
> <PUBCHEM_IUPAC_INCHI>
InChI=1S/C10H18/c1-8-7-10(8)4-2-3-9-5-6-9/h8-10H,2-7H2,1H3
> <PUBCHEM_IUPAC_INCHIKEY>
GBESKWVEEIKQFO-UHFFFAOYSA-N
> <PUBCHEM_XLOGP3_AA>
4.3
> <PUBCHEM_EXACT_MASS>
138.140850574
> <PUBCHEM_MOLECULAR_FORMULA>
C10H18
> <PUBCHEM_MOLECULAR_WEIGHT>
138.25
> <PUBCHEM_OPENEYE_CAN_SMILES>
CC1CC1CCCC2CC2
> <PUBCHEM_OPENEYE_ISO_SMILES>
CC1CC1CCCC2CC2
> <PUBCHEM_CACTVS_TPSA>
0
> <PUBCHEM_MONOISOTOPIC_WEIGHT>
138.140850574
> <PUBCHEM_TOTAL_CHARGE>
0
> <PUBCHEM_HEAVY_ATOM_COUNT>
10
> <PUBCHEM_ATOM_DEF_STEREO_COUNT>
0
> <PUBCHEM_ATOM_UDEF_STEREO_COUNT>
2
> <PUBCHEM_BOND_DEF_STEREO_COUNT>
0
> <PUBCHEM_BOND_UDEF_STEREO_COUNT>
0
> <PUBCHEM_ISOTOPIC_ATOM_COUNT>
0
> <PUBCHEM_COMPONENT_COUNT>
1
> <PUBCHEM_CACTVS_TAUTO_COUNT>
-1
> <PUBCHEM_COORDINATE_TYPE>
1
5
255
> <PUBCHEM_BONDANNOTATIONS>
1  4  3
2  10  3
$$$$
