524629
  -OEChem-10302200292D
 21 21  0     1  0  0  0  0  0999 V2000
    3.3660    0.2500    0.0000 C   0  0  3  0  0  0  0  0  0  0  0  0
    2.5000   -0.2500    0.0000 C   0  0  3  0  0  0  0  0  0  0  0  0
    2.5000    0.7500    0.0000 C   0  0  0  0  0  0  0  0  0  0  0  0
    3.8660   -0.6160    0.0000 C   0  0  0  0  0  0  0  0  0  0  0  0
    3.8660    1.1160    0.0000 C   0  0  0  0  0  0  0  0  0  0  0  0
    2.0000   -1.1160    0.0000 C   0  0  0  0  0  0  0  0  0  0  0  0
    4.8660   -0.6160    0.0000 C   0  0  0  0  0  0  0  0  0  0  0  0
    1.9011   -0.0895    0.0000 H   0  0  0  0  0  0  0  0  0  0  0  0
    2.7120    1.3326    0.0000 H   0  0  0  0  0  0  0  0  0  0  0  0
    1.8894    0.8577    0.0000 H   0  0  0  0  0  0  0  0  0  0  0  0
    3.2834   -0.8281    0.0000 H   0  0  0  0  0  0  0  0  0  0  0  0
    3.9737   -1.2266    0.0000 H   0  0  0  0  0  0  0  0  0  0  0  0
    4.4030    0.8060    0.0000 H   0  0  0  0  0  0  0  0  0  0  0  0
    4.1760    1.6530    0.0000 H   0  0  0  0  0  0  0  0  0  0  0  0
    3.3291    1.4260    0.0000 H   0  0  0  0  0  0  0  0  0  0  0  0
    1.4631   -0.8060    0.0000 H   0  0  0  0  0  0  0  0  0  0  0  0
    1.6900   -1.6530    0.0000 H   0  0  0  0  0  0  0  0  0  0  0  0
    2.5369   -1.4260    0.0000 H   0  0  0  0  0  0  0  0  0  0  0  0
    4.8660   -1.2360    0.0000 H   0  0  0  0  0  0  0  0  0  0  0  0
    5.4860   -0.6160    0.0000 H   0  0  0  0  0  0  0  0  0  0  0  0
    4.8660    0.0040    0.0000 H   0  0  0  0  0  0  0  0  0  0  0  0
  1  2  1  0  0  0  0
  1  3  1  0  0  0  0
  1  4  1  0  0  0  0
  1  5  1  0  0  0  0
  2  3  1  0  0  0  0
  2  6  1  0  0  0  0
  2  8  1  0  0  0  0
  3  9  1  0  0  0  0
  3 10  1  0  0  0  0
  4  7  1  0  0  0  0
  4 11  1  0  0  0  0
  4 12  1  0  0  0  0
  5 13  1  0  0  0  0
  5 14  1  0  0  0  0
  5 15  1  0  0  0  0
  6 16  1  0  0  0  0
  6 17  1  0  0  0  0
  6 18  1  0  0  0  0
  7 19  1  0  0  0  0
  7 20  1  0  0  0  0
  7 21  1  0  0  0  0
M  END
> <PUBCHEM_COMPOUND_CID>
524629
> <PUBCHEM_COMPOUND_CANONICALIZED>
1
> <PUBCHEM_CACTVS_COMPLEXITY>
76.1
> <PUBCHEM_CACTVS_HBOND_ACCEPTOR>
0
> <PUBCHEM_CACTVS_HBOND_DONOR>
0
> <PUBCHEM_CACTVS_ROTATABLE_BOND>
1
> <PUBCHEM_CACTVS_SUBSKEYS>
AAADccBgAAAAAAAAAAAAAAAAGAAAAAAAAAAAAAAAAAAAAAAAAAAAGAAAAAAADwCAAAACAAAAAAAAAAAAAAAAAAAAAAAAAAAAAAAAAAIAAAAAAAAAAAAAAAEAAAAPgAAAAAAAAAAAAAAAAAAAAAAAAAAAAA==
> <PUBCHEM_IUPAC_OPENEYE_NAME>
1-ethyl-1,2-dimethyl-cyclopropane
> <PUBCHEM_IUPAC_CAS_NAME>
1-ethyl-1,2-dimethylcyclopropane
> <PUBCHEM_IUPAC_NAME_MARKUP>
1-ethyl-1,2-dimethylcyclopropane
> <PUBCHEM_IUPAC_NAME>
1-ethyl-1,2-dimethylcyclopropane
> <PUBCHEM_IUPAC_SYSTEMATIC_NAME>
1-ethyl-1,2-dimethyl-cyclopropane
> <PUBCHEM_IUPAC_TRADITIONAL_NAME>
1-ethyl-1,2-dimethyl-cyclopropane
> <PUBCHEM_IUPAC_INCHI>
InChI=1S/C7H14/c1-4-7(3)5-6(7)2/h6H,4-5H2,1-3H3
> <PUBCHEM_IUPAC_INCHIKEY>
WXMIMRAMKPIMFS-UHFFFAOYSA-N
> <PUBCHEM_XLOGP3_AA>
3.1
> <PUBCHEM_EXACT_MASS>
98.109550447
> <PUBCHEM_MOLECULAR_FORMULA>
C7H14
> <PUBCHEM_MOLECULAR_WEIGHT>
98.19
> <PUBCHEM_OPENEYE_CAN_SMILES>
CCC1(CC1C)C
> <PUBCHEM_OPENEYE_ISO_SMILES>
CCC1(CC1C)C
> <PUBCHEM_CACTVS_TPSA>
0
> <PUBCHEM_MONOISOTOPIC_WEIGHT>
98.109550447
> <PUBCHEM_TOTAL_CHARGE>
0
> <PUBCHEM_HEAVY_ATOM_COUNT>
7
> <PUBCHEM_ATOM_DEF_STEREO_COUNT>
0
> <PUBCHEM_ATOM_UDEF_STEREO_COUNT>
2
> <PUBCHEM_BOND_DEF_STEREO_COUNT>
0
> <PUBCHEM_BOND_UDEF_STEREO_COUNT>
0
> <PUBCHEM_ISOTOPIC_ATOM_COUNT>
0
> <PUBCHEM_COMPONENT_COUNT>
1
> <PUBCHEM_CACTVS_TAUTO_COUNT>
-1
> <PUBCHEM_COORDINATE_TYPE>
1
5
255
> <PUBCHEM_BONDANNOTATIONS>
1  5  3
2  6  3
$$$$
