524610
  -OEChem-10302200292D
 30 30  0     1  0  0  0  0  0999 V2000
    3.3660   -0.1830    0.0000 C   0  0  3  0  0  0  0  0  0  0  0  0
    2.5000   -0.6830    0.0000 C   0  0  3  0  0  0  0  0  0  0  0  0
    2.5000    0.3170    0.0000 C   0  0  0  0  0  0  0  0  0  0  0  0
    4.3660   -0.1830    0.0000 C   0  0  0  0  0  0  0  0  0  0  0  0
    4.8660    0.6830    0.0000 C   0  0  3  0  0  0  0  0  0  0  0  0
    2.0000   -1.5490    0.0000 C   0  0  0  0  0  0  0  0  0  0  0  0
    5.8660    0.6830    0.0000 C   0  0  0  0  0  0  0  0  0  0  0  0
    4.3660    1.5490    0.0000 C   0  0  0  0  0  0  0  0  0  0  0  0
    6.3660    1.5490    0.0000 C   0  0  0  0  0  0  0  0  0  0  0  0
    7.3660    1.5490    0.0000 C   0  0  0  0  0  0  0  0  0  0  0  0
    3.5265   -0.7819    0.0000 H   0  0  0  0  0  0  0  0  0  0  0  0
    2.9384   -1.1214    0.0000 H   0  0  0  0  0  0  0  0  0  0  0  0
    2.7120    0.8996    0.0000 H   0  0  0  0  0  0  0  0  0  0  0  0
    1.8894    0.4246    0.0000 H   0  0  0  0  0  0  0  0  0  0  0  0
    4.2584   -0.7936    0.0000 H   0  0  0  0  0  0  0  0  0  0  0  0
    4.9486   -0.3951    0.0000 H   0  0  0  0  0  0  0  0  0  0  0  0
    5.1760    1.2200    0.0000 H   0  0  0  0  0  0  0  0  0  0  0  0
    1.4631   -1.2390    0.0000 H   0  0  0  0  0  0  0  0  0  0  0  0
    1.6900   -2.0860    0.0000 H   0  0  0  0  0  0  0  0  0  0  0  0
    2.5369   -1.8590    0.0000 H   0  0  0  0  0  0  0  0  0  0  0  0
    5.7584    0.0724    0.0000 H   0  0  0  0  0  0  0  0  0  0  0  0
    6.4486    0.4710    0.0000 H   0  0  0  0  0  0  0  0  0  0  0  0
    4.9030    1.8590    0.0000 H   0  0  0  0  0  0  0  0  0  0  0  0
    4.0560    2.0860    0.0000 H   0  0  0  0  0  0  0  0  0  0  0  0
    3.8291    1.2390    0.0000 H   0  0  0  0  0  0  0  0  0  0  0  0
    6.4737    2.1596    0.0000 H   0  0  0  0  0  0  0  0  0  0  0  0
    5.7834    1.7611    0.0000 H   0  0  0  0  0  0  0  0  0  0  0  0
    7.3660    0.9290    0.0000 H   0  0  0  0  0  0  0  0  0  0  0  0
    7.9860    1.5490    0.0000 H   0  0  0  0  0  0  0  0  0  0  0  0
    7.3660    2.1690    0.0000 H   0  0  0  0  0  0  0  0  0  0  0  0
  1  2  1  0  0  0  0
  1  3  1  0  0  0  0
  1  4  1  0  0  0  0
  1 11  1  0  0  0  0
  2  3  1  0  0  0  0
  2  6  1  0  0  0  0
  2 12  1  0  0  0  0
  3 13  1  0  0  0  0
  3 14  1  0  0  0  0
  4  5  1  0  0  0  0
  4 15  1  0  0  0  0
  4 16  1  0  0  0  0
  5  7  1  0  0  0  0
  5  8  1  0  0  0  0
  5 17  1  0  0  0  0
  6 18  1  0  0  0  0
  6 19  1  0  0  0  0
  6 20  1  0  0  0  0
  7  9  1  0  0  0  0
  7 21  1  0  0  0  0
  7 22  1  0  0  0  0
  8 23  1  0  0  0  0
  8 24  1  0  0  0  0
  8 25  1  0  0  0  0
  9 10  1  0  0  0  0
  9 26  1  0  0  0  0
  9 27  1  0  0  0  0
 10 28  1  0  0  0  0
 10 29  1  0  0  0  0
 10 30  1  0  0  0  0
M  END
> <PUBCHEM_COMPOUND_CID>
524610
> <PUBCHEM_COMPOUND_CANONICALIZED>
1
> <PUBCHEM_CACTVS_COMPLEXITY>
96.2
> <PUBCHEM_CACTVS_HBOND_ACCEPTOR>
0
> <PUBCHEM_CACTVS_HBOND_DONOR>
0
> <PUBCHEM_CACTVS_ROTATABLE_BOND>
4
> <PUBCHEM_CACTVS_SUBSKEYS>
AAADceBwAAAAAAAAAAAAAAAAGAAAAAAAAAAAAAAAAAAAAAAAAAAAGAAAAAAADQCAAAACAAAAAAAAAAAAAAAAAAAAAAAAAAAAAAAAAAIAAAAAAAAAAAAAAAEAgMAOAAAAAAAAAAAAAAAAAAAAAAAAAAAAAA==
> <PUBCHEM_IUPAC_OPENEYE_NAME>
1-methyl-2-(2-methylpentyl)cyclopropane
> <PUBCHEM_IUPAC_CAS_NAME>
1-methyl-2-(2-methylpentyl)cyclopropane
> <PUBCHEM_IUPAC_NAME_MARKUP>
1-methyl-2-(2-methylpentyl)cyclopropane
> <PUBCHEM_IUPAC_NAME>
1-methyl-2-(2-methylpentyl)cyclopropane
> <PUBCHEM_IUPAC_SYSTEMATIC_NAME>
1-methyl-2-(2-methylpentyl)cyclopropane
> <PUBCHEM_IUPAC_TRADITIONAL_NAME>
1-methyl-2-(2-methylpentyl)cyclopropane
> <PUBCHEM_IUPAC_INCHI>
InChI=1S/C10H20/c1-4-5-8(2)6-10-7-9(10)3/h8-10H,4-7H2,1-3H3
> <PUBCHEM_IUPAC_INCHIKEY>
HZFINUMNBBEFCF-UHFFFAOYSA-N
> <PUBCHEM_XLOGP3_AA>
4.5
> <PUBCHEM_EXACT_MASS>
140.156500638
> <PUBCHEM_MOLECULAR_FORMULA>
C10H20
> <PUBCHEM_MOLECULAR_WEIGHT>
140.27
> <PUBCHEM_OPENEYE_CAN_SMILES>
CCCC(C)CC1CC1C
> <PUBCHEM_OPENEYE_ISO_SMILES>
CCCC(C)CC1CC1C
> <PUBCHEM_CACTVS_TPSA>
0
> <PUBCHEM_MONOISOTOPIC_WEIGHT>
140.156500638
> <PUBCHEM_TOTAL_CHARGE>
0
> <PUBCHEM_HEAVY_ATOM_COUNT>
10
> <PUBCHEM_ATOM_DEF_STEREO_COUNT>
0
> <PUBCHEM_ATOM_UDEF_STEREO_COUNT>
3
> <PUBCHEM_BOND_DEF_STEREO_COUNT>
0
> <PUBCHEM_BOND_UDEF_STEREO_COUNT>
0
> <PUBCHEM_ISOTOPIC_ATOM_COUNT>
0
> <PUBCHEM_COMPONENT_COUNT>
1
> <PUBCHEM_CACTVS_TAUTO_COUNT>
-1
> <PUBCHEM_COORDINATE_TYPE>
1
5
255
> <PUBCHEM_BONDANNOTATIONS>
1  4  3
2  6  3
5  8  3
$$$$
