524690
  -OEChem-10302200292D
 34 35  0     1  0  0  0  0  0999 V2000
    6.3660    0.6160    0.0000 C   0  0  3  0  0  0  0  0  0  0  0  0
    5.5000    0.1160    0.0000 C   0  0  3  0  0  0  0  0  0  0  0  0
    5.5000    1.1160    0.0000 C   0  0  0  0  0  0  0  0  0  0  0  0
    7.3660    0.6160    0.0000 C   0  0  0  0  0  0  0  0  0  0  0  0
    7.8660    1.4820    0.0000 C   0  0  0  0  0  0  0  0  0  0  0  0
    7.8660    2.4820    0.0000 C   0  0  0  0  0  0  0  0  0  0  0  0
    8.7320    1.9820    0.0000 C   0  0  0  0  0  0  0  0  0  0  0  0
    5.0000   -0.7500    0.0000 C   0  0  0  0  0  0  0  0  0  0  0  0
    4.0000   -0.7500    0.0000 C   0  0  0  0  0  0  0  0  0  0  0  0
    3.5000   -1.6160    0.0000 C   0  0  0  0  0  0  0  0  0  0  0  0
    2.5000   -1.6160    0.0000 C   0  0  0  0  0  0  0  0  0  0  0  0
    2.0000   -2.4820    0.0000 C   0  0  0  0  0  0  0  0  0  0  0  0
    6.5265    0.0172    0.0000 H   0  0  0  0  0  0  0  0  0  0  0  0
    4.9011    0.2765    0.0000 H   0  0  0  0  0  0  0  0  0  0  0  0
    5.7120    1.6986    0.0000 H   0  0  0  0  0  0  0  0  0  0  0  0
    4.8894    1.2237    0.0000 H   0  0  0  0  0  0  0  0  0  0  0  0
    7.2584    0.0054    0.0000 H   0  0  0  0  0  0  0  0  0  0  0  0
    7.9486    0.4040    0.0000 H   0  0  0  0  0  0  0  0  0  0  0  0
    7.2672    1.6425    0.0000 H   0  0  0  0  0  0  0  0  0  0  0  0
    8.0781    3.0647    0.0000 H   0  0  0  0  0  0  0  0  0  0  0  0
    7.2554    2.5897    0.0000 H   0  0  0  0  0  0  0  0  0  0  0  0
    9.1306    1.5071    0.0000 H   0  0  0  0  0  0  0  0  0  0  0  0
    9.1306    2.4570    0.0000 H   0  0  0  0  0  0  0  0  0  0  0  0
    4.8923   -1.3606    0.0000 H   0  0  0  0  0  0  0  0  0  0  0  0
    5.5826   -0.9621    0.0000 H   0  0  0  0  0  0  0  0  0  0  0  0
    4.1077   -0.1394    0.0000 H   0  0  0  0  0  0  0  0  0  0  0  0
    3.4174   -0.5379    0.0000 H   0  0  0  0  0  0  0  0  0  0  0  0
    3.3923   -2.2266    0.0000 H   0  0  0  0  0  0  0  0  0  0  0  0
    4.0826   -1.8281    0.0000 H   0  0  0  0  0  0  0  0  0  0  0  0
    2.6077   -1.0054    0.0000 H   0  0  0  0  0  0  0  0  0  0  0  0
    1.9174   -1.4040    0.0000 H   0  0  0  0  0  0  0  0  0  0  0  0
    1.4631   -2.1720    0.0000 H   0  0  0  0  0  0  0  0  0  0  0  0
    1.6900   -3.0190    0.0000 H   0  0  0  0  0  0  0  0  0  0  0  0
    2.5369   -2.7920    0.0000 H   0  0  0  0  0  0  0  0  0  0  0  0
  1  2  1  0  0  0  0
  1  3  1  0  0  0  0
  1  4  1  0  0  0  0
  1 13  1  0  0  0  0
  2  3  1  0  0  0  0
  2  8  1  0  0  0  0
  2 14  1  0  0  0  0
  3 15  1  0  0  0  0
  3 16  1  0  0  0  0
  4  5  1  0  0  0  0
  4 17  1  0  0  0  0
  4 18  1  0  0  0  0
  5  6  1  0  0  0  0
  5  7  1  0  0  0  0
  5 19  1  0  0  0  0
  6  7  1  0  0  0  0
  6 20  1  0  0  0  0
  6 21  1  0  0  0  0
  7 22  1  0  0  0  0
  7 23  1  0  0  0  0
  8  9  1  0  0  0  0
  8 24  1  0  0  0  0
  8 25  1  0  0  0  0
  9 10  1  0  0  0  0
  9 26  1  0  0  0  0
  9 27  1  0  0  0  0
 10 11  1  0  0  0  0
 10 28  1  0  0  0  0
 10 29  1  0  0  0  0
 11 12  1  0  0  0  0
 11 30  1  0  0  0  0
 11 31  1  0  0  0  0
 12 32  1  0  0  0  0
 12 33  1  0  0  0  0
 12 34  1  0  0  0  0
M  END
> <PUBCHEM_COMPOUND_CID>
524690
> <PUBCHEM_COMPOUND_CANONICALIZED>
1
> <PUBCHEM_CACTVS_COMPLEXITY>
135
> <PUBCHEM_CACTVS_HBOND_ACCEPTOR>
0
> <PUBCHEM_CACTVS_HBOND_DONOR>
0
> <PUBCHEM_CACTVS_ROTATABLE_BOND>
6
> <PUBCHEM_CACTVS_SUBSKEYS>
AAADceBwAAAAAAAAAAAAAAAAGDAAAAAAAAAAAAAAAAAAAAAAAAAAGAAAAAAADQCAAAACAAAAAAAAAAAAAAAAAAAAAAAAAAAAAAAAAAIAAAAAAAAAAAAAAAEAgMAOAAAAAAAAAAAAAAAAAAAAAAAAAAAAAA==
> <PUBCHEM_IUPAC_OPENEYE_NAME>
1-(cyclopropylmethyl)-2-pentyl-cyclopropane
> <PUBCHEM_IUPAC_CAS_NAME>
1-(cyclopropylmethyl)-2-pentylcyclopropane
> <PUBCHEM_IUPAC_NAME_MARKUP>
1-(cyclopropylmethyl)-2-pentylcyclopropane
> <PUBCHEM_IUPAC_NAME>
1-(cyclopropylmethyl)-2-pentylcyclopropane
> <PUBCHEM_IUPAC_SYSTEMATIC_NAME>
1-(cyclopropylmethyl)-2-pentyl-cyclopropane
> <PUBCHEM_IUPAC_TRADITIONAL_NAME>
1-amyl-2-(cyclopropylmethyl)cyclopropane
> <PUBCHEM_IUPAC_INCHI>
InChI=1S/C12H22/c1-2-3-4-5-11-9-12(11)8-10-6-7-10/h10-12H,2-9H2,1H3
> <PUBCHEM_IUPAC_INCHIKEY>
GPKLFCSLPFSMLG-UHFFFAOYSA-N
> <PUBCHEM_XLOGP3_AA>
5.4
> <PUBCHEM_EXACT_MASS>
166.172150702
> <PUBCHEM_MOLECULAR_FORMULA>
C12H22
> <PUBCHEM_MOLECULAR_WEIGHT>
166.30
> <PUBCHEM_OPENEYE_CAN_SMILES>
CCCCCC1CC1CC2CC2
> <PUBCHEM_OPENEYE_ISO_SMILES>
CCCCCC1CC1CC2CC2
> <PUBCHEM_CACTVS_TPSA>
0
> <PUBCHEM_MONOISOTOPIC_WEIGHT>
166.172150702
> <PUBCHEM_TOTAL_CHARGE>
0
> <PUBCHEM_HEAVY_ATOM_COUNT>
12
> <PUBCHEM_ATOM_DEF_STEREO_COUNT>
0
> <PUBCHEM_ATOM_UDEF_STEREO_COUNT>
2
> <PUBCHEM_BOND_DEF_STEREO_COUNT>
0
> <PUBCHEM_BOND_UDEF_STEREO_COUNT>
0
> <PUBCHEM_ISOTOPIC_ATOM_COUNT>
0
> <PUBCHEM_COMPONENT_COUNT>
1
> <PUBCHEM_CACTVS_TAUTO_COUNT>
-1
> <PUBCHEM_COORDINATE_TYPE>
1
5
255
> <PUBCHEM_BONDANNOTATIONS>
1  4  3
2  8  3
$$$$
