524676
  -OEChem-10302200292D
 28 29  0     1  0  0  0  0  0999 V2000
    5.8660    0.8660    0.0000 C   0  0  3  0  0  0  0  0  0  0  0  0
    6.8660    0.8660    0.0000 C   0  0  0  0  0  0  0  0  0  0  0  0
    5.0000    0.3660    0.0000 C   0  0  3  0  0  0  0  0  0  0  0  0
    5.0000    1.3660    0.0000 C   0  0  0  0  0  0  0  0  0  0  0  0
    7.7320    1.3660    0.0000 C   0  0  0  0  0  0  0  0  0  0  0  0
    7.7320    0.3660    0.0000 C   0  0  0  0  0  0  0  0  0  0  0  0
    4.5000   -0.5000    0.0000 C   0  0  0  0  0  0  0  0  0  0  0  0
    3.5000   -0.5000    0.0000 C   0  0  0  0  0  0  0  0  0  0  0  0
    3.0000   -1.3660    0.0000 C   0  0  0  0  0  0  0  0  0  0  0  0
    2.0000   -1.3660    0.0000 C   0  0  0  0  0  0  0  0  0  0  0  0
    6.0265    1.4649    0.0000 H   0  0  0  0  0  0  0  0  0  0  0  0
    6.7056    0.2672    0.0000 H   0  0  0  0  0  0  0  0  0  0  0  0
    4.4011    0.5265    0.0000 H   0  0  0  0  0  0  0  0  0  0  0  0
    5.2120    1.9486    0.0000 H   0  0  0  0  0  0  0  0  0  0  0  0
    4.3894    1.4737    0.0000 H   0  0  0  0  0  0  0  0  0  0  0  0
    8.3426    1.4737    0.0000 H   0  0  0  0  0  0  0  0  0  0  0  0
    7.5200    1.9486    0.0000 H   0  0  0  0  0  0  0  0  0  0  0  0
    7.5200   -0.2166    0.0000 H   0  0  0  0  0  0  0  0  0  0  0  0
    8.3426    0.2584    0.0000 H   0  0  0  0  0  0  0  0  0  0  0  0
    4.3923   -1.1106    0.0000 H   0  0  0  0  0  0  0  0  0  0  0  0
    5.0826   -0.7121    0.0000 H   0  0  0  0  0  0  0  0  0  0  0  0
    3.6077    0.1106    0.0000 H   0  0  0  0  0  0  0  0  0  0  0  0
    2.9174   -0.2879    0.0000 H   0  0  0  0  0  0  0  0  0  0  0  0
    2.8923   -1.9766    0.0000 H   0  0  0  0  0  0  0  0  0  0  0  0
    3.5826   -1.5781    0.0000 H   0  0  0  0  0  0  0  0  0  0  0  0
    2.0000   -0.7460    0.0000 H   0  0  0  0  0  0  0  0  0  0  0  0
    1.3800   -1.3660    0.0000 H   0  0  0  0  0  0  0  0  0  0  0  0
    2.0000   -1.9860    0.0000 H   0  0  0  0  0  0  0  0  0  0  0  0
  1  2  1  0  0  0  0
  1  3  1  0  0  0  0
  1  4  1  0  0  0  0
  1 11  1  0  0  0  0
  2  5  1  0  0  0  0
  2  6  1  0  0  0  0
  2 12  1  0  0  0  0
  3  4  1  0  0  0  0
  3  7  1  0  0  0  0
  3 13  1  0  0  0  0
  4 14  1  0  0  0  0
  4 15  1  0  0  0  0
  5  6  1  0  0  0  0
  5 16  1  0  0  0  0
  5 17  1  0  0  0  0
  6 18  1  0  0  0  0
  6 19  1  0  0  0  0
  7  8  1  0  0  0  0
  7 20  1  0  0  0  0
  7 21  1  0  0  0  0
  8  9  1  0  0  0  0
  8 22  1  0  0  0  0
  8 23  1  0  0  0  0
  9 10  1  0  0  0  0
  9 24  1  0  0  0  0
  9 25  1  0  0  0  0
 10 26  1  0  0  0  0
 10 27  1  0  0  0  0
 10 28  1  0  0  0  0
M  END
> <PUBCHEM_COMPOUND_CID>
524676
> <PUBCHEM_COMPOUND_CANONICALIZED>
1
> <PUBCHEM_CACTVS_COMPLEXITY>
113
> <PUBCHEM_CACTVS_HBOND_ACCEPTOR>
0
> <PUBCHEM_CACTVS_HBOND_DONOR>
0
> <PUBCHEM_CACTVS_ROTATABLE_BOND>
4
> <PUBCHEM_CACTVS_SUBSKEYS>
AAADceBwAAAAAAAAAAAAAAAAGDAAAAAAAAAAAAAAAAAAAAAAAAAAGAAAAAAADQCAAAACAAAAAAAAAAAAAAAAAAAAAAAAAAAAAAAAAAIAAAAAAAAAAAAAAAEAgMAOgAAAAAAAAAAAAAAAAAAAAAAAAAAAAA==
> <PUBCHEM_IUPAC_OPENEYE_NAME>
1-butyl-2-cyclopropyl-cyclopropane
> <PUBCHEM_IUPAC_CAS_NAME>
1-butyl-2-cyclopropylcyclopropane
> <PUBCHEM_IUPAC_NAME_MARKUP>
1-butyl-2-cyclopropylcyclopropane
> <PUBCHEM_IUPAC_NAME>
1-butyl-2-cyclopropylcyclopropane
> <PUBCHEM_IUPAC_SYSTEMATIC_NAME>
1-butyl-2-cyclopropyl-cyclopropane
> <PUBCHEM_IUPAC_TRADITIONAL_NAME>
1-butyl-2-cyclopropyl-cyclopropane
> <PUBCHEM_IUPAC_INCHI>
InChI=1S/C10H18/c1-2-3-4-9-7-10(9)8-5-6-8/h8-10H,2-7H2,1H3
> <PUBCHEM_IUPAC_INCHIKEY>
DBRZLJLLVUQXKI-UHFFFAOYSA-N
> <PUBCHEM_XLOGP3_AA>
4.3
> <PUBCHEM_EXACT_MASS>
138.140850574
> <PUBCHEM_MOLECULAR_FORMULA>
C10H18
> <PUBCHEM_MOLECULAR_WEIGHT>
138.25
> <PUBCHEM_OPENEYE_CAN_SMILES>
CCCCC1CC1C2CC2
> <PUBCHEM_OPENEYE_ISO_SMILES>
CCCCC1CC1C2CC2
> <PUBCHEM_CACTVS_TPSA>
0
> <PUBCHEM_MONOISOTOPIC_WEIGHT>
138.140850574
> <PUBCHEM_TOTAL_CHARGE>
0
> <PUBCHEM_HEAVY_ATOM_COUNT>
10
> <PUBCHEM_ATOM_DEF_STEREO_COUNT>
0
> <PUBCHEM_ATOM_UDEF_STEREO_COUNT>
2
> <PUBCHEM_BOND_DEF_STEREO_COUNT>
0
> <PUBCHEM_BOND_UDEF_STEREO_COUNT>
0
> <PUBCHEM_ISOTOPIC_ATOM_COUNT>
0
> <PUBCHEM_COMPONENT_COUNT>
1
> <PUBCHEM_CACTVS_TAUTO_COUNT>
-1
> <PUBCHEM_COORDINATE_TYPE>
1
5
255
> <PUBCHEM_BONDANNOTATIONS>
1  2  3
3  7  3
$$$$
