524621
  -OEChem-10302200292D
 27 27  0     1  0  0  0  0  0999 V2000
    3.8660    0.4330    0.0000 C   0  0  3  0  0  0  0  0  0  0  0  0
    3.0000   -0.0670    0.0000 C   0  0  0  0  0  0  0  0  0  0  0  0
    3.0000    0.9330    0.0000 C   0  0  0  0  0  0  0  0  0  0  0  0
    4.3660   -0.4330    0.0000 C   0  0  0  0  0  0  0  0  0  0  0  0
    4.3660    1.2990    0.0000 C   0  0  0  0  0  0  0  0  0  0  0  0
    2.0000   -0.0670    0.0000 C   0  0  0  0  0  0  0  0  0  0  0  0
    3.5000   -0.9330    0.0000 C   0  0  0  0  0  0  0  0  0  0  0  0
    5.3660   -0.4330    0.0000 C   0  0  0  0  0  0  0  0  0  0  0  0
    5.8660   -1.2990    0.0000 C   0  0  0  0  0  0  0  0  0  0  0  0
    3.2120    1.5156    0.0000 H   0  0  0  0  0  0  0  0  0  0  0  0
    2.3894    1.0407    0.0000 H   0  0  0  0  0  0  0  0  0  0  0  0
    3.7834   -0.6451    0.0000 H   0  0  0  0  0  0  0  0  0  0  0  0
    4.4737   -1.0436    0.0000 H   0  0  0  0  0  0  0  0  0  0  0  0
    4.9030    0.9890    0.0000 H   0  0  0  0  0  0  0  0  0  0  0  0
    4.6760    1.8360    0.0000 H   0  0  0  0  0  0  0  0  0  0  0  0
    3.8291    1.6090    0.0000 H   0  0  0  0  0  0  0  0  0  0  0  0
    2.0000    0.5530    0.0000 H   0  0  0  0  0  0  0  0  0  0  0  0
    1.3800   -0.0670    0.0000 H   0  0  0  0  0  0  0  0  0  0  0  0
    2.0000   -0.6870    0.0000 H   0  0  0  0  0  0  0  0  0  0  0  0
    2.9631   -1.2430    0.0000 H   0  0  0  0  0  0  0  0  0  0  0  0
    3.8100   -1.4700    0.0000 H   0  0  0  0  0  0  0  0  0  0  0  0
    4.0369   -0.6230    0.0000 H   0  0  0  0  0  0  0  0  0  0  0  0
    5.9486   -0.2210    0.0000 H   0  0  0  0  0  0  0  0  0  0  0  0
    5.2584    0.1776    0.0000 H   0  0  0  0  0  0  0  0  0  0  0  0
    5.3291   -1.6090    0.0000 H   0  0  0  0  0  0  0  0  0  0  0  0
    6.1760   -1.8360    0.0000 H   0  0  0  0  0  0  0  0  0  0  0  0
    6.4030   -0.9890    0.0000 H   0  0  0  0  0  0  0  0  0  0  0  0
  1  2  1  0  0  0  0
  1  3  1  0  0  0  0
  1  4  1  0  0  0  0
  1  5  1  0  0  0  0
  2  3  1  0  0  0  0
  2  6  1  0  0  0  0
  2  7  1  0  0  0  0
  3 10  1  0  0  0  0
  3 11  1  0  0  0  0
  4  8  1  0  0  0  0
  4 12  1  0  0  0  0
  4 13  1  0  0  0  0
  5 14  1  0  0  0  0
  5 15  1  0  0  0  0
  5 16  1  0  0  0  0
  6 17  1  0  0  0  0
  6 18  1  0  0  0  0
  6 19  1  0  0  0  0
  7 20  1  0  0  0  0
  7 21  1  0  0  0  0
  7 22  1  0  0  0  0
  8  9  1  0  0  0  0
  8 23  1  0  0  0  0
  8 24  1  0  0  0  0
  9 25  1  0  0  0  0
  9 26  1  0  0  0  0
  9 27  1  0  0  0  0
M  END
> <PUBCHEM_COMPOUND_CID>
524621
> <PUBCHEM_COMPOUND_CANONICALIZED>
1
> <PUBCHEM_CACTVS_COMPLEXITY>
113
> <PUBCHEM_CACTVS_HBOND_ACCEPTOR>
0
> <PUBCHEM_CACTVS_HBOND_DONOR>
0
> <PUBCHEM_CACTVS_ROTATABLE_BOND>
2
> <PUBCHEM_CACTVS_SUBSKEYS>
AAADceBwAAAAAAAAAAAAAAAAGAAAAAAAAAAAAAAAAAAAAAAAAAAAGAAAAAAADgCAAAACAAAAAAAAAAAAAAAAAAAAAAAAAAAAAAAAAAIAAAAAAAAAAAAAAAEAgEAPgAAAAAAAAAAAAAAAAAAAAAAAAAAAAA==
> <PUBCHEM_IUPAC_OPENEYE_NAME>
1,1,2-trimethyl-2-propyl-cyclopropane
> <PUBCHEM_IUPAC_CAS_NAME>
1,1,2-trimethyl-2-propylcyclopropane
> <PUBCHEM_IUPAC_NAME_MARKUP>
1,1,2-trimethyl-2-propylcyclopropane
> <PUBCHEM_IUPAC_NAME>
1,1,2-trimethyl-2-propylcyclopropane
> <PUBCHEM_IUPAC_SYSTEMATIC_NAME>
1,1,2-trimethyl-2-propyl-cyclopropane
> <PUBCHEM_IUPAC_TRADITIONAL_NAME>
1,1,2-trimethyl-2-propyl-cyclopropane
> <PUBCHEM_IUPAC_INCHI>
InChI=1S/C9H18/c1-5-6-9(4)7-8(9,2)3/h5-7H2,1-4H3
> <PUBCHEM_IUPAC_INCHIKEY>
OONRHRYPMIFDCP-UHFFFAOYSA-N
> <PUBCHEM_XLOGP3_AA>
4
> <PUBCHEM_EXACT_MASS>
126.140850574
> <PUBCHEM_MOLECULAR_FORMULA>
C9H18
> <PUBCHEM_MOLECULAR_WEIGHT>
126.24
> <PUBCHEM_OPENEYE_CAN_SMILES>
CCCC1(CC1(C)C)C
> <PUBCHEM_OPENEYE_ISO_SMILES>
CCCC1(CC1(C)C)C
> <PUBCHEM_CACTVS_TPSA>
0
> <PUBCHEM_MONOISOTOPIC_WEIGHT>
126.140850574
> <PUBCHEM_TOTAL_CHARGE>
0
> <PUBCHEM_HEAVY_ATOM_COUNT>
9
> <PUBCHEM_ATOM_DEF_STEREO_COUNT>
0
> <PUBCHEM_ATOM_UDEF_STEREO_COUNT>
1
> <PUBCHEM_BOND_DEF_STEREO_COUNT>
0
> <PUBCHEM_BOND_UDEF_STEREO_COUNT>
0
> <PUBCHEM_ISOTOPIC_ATOM_COUNT>
0
> <PUBCHEM_COMPONENT_COUNT>
1
> <PUBCHEM_CACTVS_TAUTO_COUNT>
-1
> <PUBCHEM_COORDINATE_TYPE>
1
5
255
> <PUBCHEM_BONDANNOTATIONS>
1  5  3
$$$$
