524795
  -OEChem-10302200292D
 28 29  0     1  0  0  0  0  0999 V2000
    3.3136   -0.8400    0.0000 C   0  0  3  0  0  0  0  0  0  0  0  0
    2.3897   -0.4573    0.0000 C   0  0  3  0  0  0  0  0  0  0  0  0
    2.9315   -1.7731    0.0000 C   0  0  0  0  0  0  0  0  0  0  0  0
    2.0000   -1.3873    0.0000 C   0  0  0  0  0  0  0  0  0  0  0  0
    4.2374   -0.4573    0.0000 C   0  0  0  0  0  0  0  0  0  0  0  0
    2.0070    0.4666    0.0000 C   0  0  0  0  0  0  0  0  0  0  0  0
    4.6201    0.4666    0.0000 C   0  0  0  0  0  0  0  0  0  0  0  0
    2.3897    1.3904    0.0000 C   0  0  0  0  0  0  0  0  0  0  0  0
    4.2374    1.3904    0.0000 C   0  0  0  0  0  0  0  0  0  0  0  0
    3.3136    1.7731    0.0000 C   0  0  0  0  0  0  0  0  0  0  0  0
    3.7529   -1.2775    0.0000 H   0  0  0  0  0  0  0  0  0  0  0  0
    1.7697   -0.4560    0.0000 H   0  0  0  0  0  0  0  0  0  0  0  0
    2.6951   -2.3462    0.0000 H   0  0  0  0  0  0  0  0  0  0  0  0
    3.5050   -2.0088    0.0000 H   0  0  0  0  0  0  0  0  0  0  0  0
    1.4278   -1.1484    0.0000 H   0  0  0  0  0  0  0  0  0  0  0  0
    1.7620   -1.9598    0.0000 H   0  0  0  0  0  0  0  0  0  0  0  0
    4.3184   -1.0720    0.0000 H   0  0  0  0  0  0  0  0  0  0  0  0
    4.8521   -0.5382    0.0000 H   0  0  0  0  0  0  0  0  0  0  0  0
    1.5151    0.8440    0.0000 H   0  0  0  0  0  0  0  0  0  0  0  0
    1.5151    0.0891    0.0000 H   0  0  0  0  0  0  0  0  0  0  0  0
    5.1120    0.0891    0.0000 H   0  0  0  0  0  0  0  0  0  0  0  0
    5.1120    0.8440    0.0000 H   0  0  0  0  0  0  0  0  0  0  0  0
    2.3088    2.0051    0.0000 H   0  0  0  0  0  0  0  0  0  0  0  0
    1.7750    1.4714    0.0000 H   0  0  0  0  0  0  0  0  0  0  0  0
    4.8521    1.4714    0.0000 H   0  0  0  0  0  0  0  0  0  0  0  0
    4.3184    2.0051    0.0000 H   0  0  0  0  0  0  0  0  0  0  0  0
    3.6910    2.2650    0.0000 H   0  0  0  0  0  0  0  0  0  0  0  0
    2.9361    2.2650    0.0000 H   0  0  0  0  0  0  0  0  0  0  0  0
  1  2  1  0  0  0  0
  1  3  1  0  0  0  0
  1  5  1  0  0  0  0
  1 11  1  0  0  0  0
  2  4  1  0  0  0  0
  2  6  1  0  0  0  0
  2 12  1  0  0  0  0
  3  4  1  0  0  0  0
  3 13  1  0  0  0  0
  3 14  1  0  0  0  0
  4 15  1  0  0  0  0
  4 16  1  0  0  0  0
  5  7  1  0  0  0  0
  5 17  1  0  0  0  0
  5 18  1  0  0  0  0
  6  8  1  0  0  0  0
  6 19  1  0  0  0  0
  6 20  1  0  0  0  0
  7  9  1  0  0  0  0
  7 21  1  0  0  0  0
  7 22  1  0  0  0  0
  8 10  1  0  0  0  0
  8 23  1  0  0  0  0
  8 24  1  0  0  0  0
  9 10  1  0  0  0  0
  9 25  1  0  0  0  0
  9 26  1  0  0  0  0
 10 27  1  0  0  0  0
 10 28  1  0  0  0  0
M  END
> <PUBCHEM_COMPOUND_CID>
524795
> <PUBCHEM_COMPOUND_CANONICALIZED>
1
> <PUBCHEM_CACTVS_COMPLEXITY>
92.6
> <PUBCHEM_CACTVS_HBOND_ACCEPTOR>
0
> <PUBCHEM_CACTVS_HBOND_DONOR>
0
> <PUBCHEM_CACTVS_ROTATABLE_BOND>
0
> <PUBCHEM_CACTVS_SUBSKEYS>
AAADceBwAAAAAAAAAAAAAAAAAABgAAAAAAAAAAAAAAAYAADAAAAAGAAAAAAADQCAAAAAAAAAAAAAAAAAAAAAAAAAAAAAAAAAAAAAAAIAAAAAAAAAAAAAAAEAgMAOgAAAAAAAAAAAAAAAAAAAAAAAAAAAAA==
> <PUBCHEM_IUPAC_OPENEYE_NAME>
bicyclo[6.2.0]decane
> <PUBCHEM_IUPAC_CAS_NAME>
bicyclo[6.2.0]decane
> <PUBCHEM_IUPAC_NAME_MARKUP>
bicyclo[6.2.0]decane
> <PUBCHEM_IUPAC_NAME>
bicyclo[6.2.0]decane
> <PUBCHEM_IUPAC_SYSTEMATIC_NAME>
bicyclo[6.2.0]decane
> <PUBCHEM_IUPAC_TRADITIONAL_NAME>
bicyclo[6.2.0]decane
> <PUBCHEM_IUPAC_INCHI>
InChI=1S/C10H18/c1-2-4-6-10-8-7-9(10)5-3-1/h9-10H,1-8H2
> <PUBCHEM_IUPAC_INCHIKEY>
AJXGJOWBNBJKNY-UHFFFAOYSA-N
> <PUBCHEM_XLOGP3_AA>
4.6
> <PUBCHEM_EXACT_MASS>
138.140850574
> <PUBCHEM_MOLECULAR_FORMULA>
C10H18
> <PUBCHEM_MOLECULAR_WEIGHT>
138.25
> <PUBCHEM_OPENEYE_CAN_SMILES>
C1CCCC2CCC2CC1
> <PUBCHEM_OPENEYE_ISO_SMILES>
C1CCCC2CCC2CC1
> <PUBCHEM_CACTVS_TPSA>
0
> <PUBCHEM_MONOISOTOPIC_WEIGHT>
138.140850574
> <PUBCHEM_TOTAL_CHARGE>
0
> <PUBCHEM_HEAVY_ATOM_COUNT>
10
> <PUBCHEM_ATOM_DEF_STEREO_COUNT>
0
> <PUBCHEM_ATOM_UDEF_STEREO_COUNT>
2
> <PUBCHEM_BOND_DEF_STEREO_COUNT>
0
> <PUBCHEM_BOND_UDEF_STEREO_COUNT>
0
> <PUBCHEM_ISOTOPIC_ATOM_COUNT>
0
> <PUBCHEM_COMPONENT_COUNT>
1
> <PUBCHEM_CACTVS_TAUTO_COUNT>
-1
> <PUBCHEM_COORDINATE_TYPE>
1
5
255
> <PUBCHEM_BONDANNOTATIONS>
1  5  3
2  6  3
$$$$
