524793
  -OEChem-10302200292D
 31 32  0     1  0  0  0  0  0999 V2000
    4.1906    0.5000    0.0000 C   0  0  3  0  0  0  0  0  0  0  0  0
    4.1906   -0.5000    0.0000 C   0  0  3  0  0  0  0  0  0  0  0  0
    5.0846    1.0347    0.0000 C   0  0  0  0  0  0  0  0  0  0  0  0
    5.0846   -1.0347    0.0000 C   0  0  0  0  0  0  0  0  0  0  0  0
    3.4088    1.1235    0.0000 C   0  0  0  0  0  0  0  0  0  0  0  0
    3.4088   -1.1235    0.0000 C   0  0  0  0  0  0  0  0  0  0  0  0
    5.9906    0.5208    0.0000 C   0  0  0  0  0  0  0  0  0  0  0  0
    5.9906   -0.5208    0.0000 C   0  0  0  0  0  0  0  0  0  0  0  0
    2.4339    0.9010    0.0000 C   0  0  0  0  0  0  0  0  0  0  0  0
    2.4339   -0.9010    0.0000 C   0  0  0  0  0  0  0  0  0  0  0  0
    2.0000   -0.0000    0.0000 C   0  0  0  0  0  0  0  0  0  0  0  0
    4.2322    1.1186    0.0000 H   0  0  0  0  0  0  0  0  0  0  0  0
    4.2322   -1.1186    0.0000 H   0  0  0  0  0  0  0  0  0  0  0  0
    5.4782    1.5137    0.0000 H   0  0  0  0  0  0  0  0  0  0  0  0
    4.6800    1.5044    0.0000 H   0  0  0  0  0  0  0  0  0  0  0  0
    4.6800   -1.5044    0.0000 H   0  0  0  0  0  0  0  0  0  0  0  0
    5.4782   -1.5137    0.0000 H   0  0  0  0  0  0  0  0  0  0  0  0
    3.8936    1.5100    0.0000 H   0  0  0  0  0  0  0  0  0  0  0  0
    3.1398    1.6821    0.0000 H   0  0  0  0  0  0  0  0  0  0  0  0
    3.1398   -1.6821    0.0000 H   0  0  0  0  0  0  0  0  0  0  0  0
    3.8936   -1.5100    0.0000 H   0  0  0  0  0  0  0  0  0  0  0  0
    6.6015    0.4147    0.0000 H   0  0  0  0  0  0  0  0  0  0  0  0
    6.1997    1.1045    0.0000 H   0  0  0  0  0  0  0  0  0  0  0  0
    6.1997   -1.1045    0.0000 H   0  0  0  0  0  0  0  0  0  0  0  0
    6.6015   -0.4147    0.0000 H   0  0  0  0  0  0  0  0  0  0  0  0
    2.4339    1.5210    0.0000 H   0  0  0  0  0  0  0  0  0  0  0  0
    1.8294    1.0389    0.0000 H   0  0  0  0  0  0  0  0  0  0  0  0
    1.8294   -1.0389    0.0000 H   0  0  0  0  0  0  0  0  0  0  0  0
    2.4339   -1.5210    0.0000 H   0  0  0  0  0  0  0  0  0  0  0  0
    1.5153    0.3866    0.0000 H   0  0  0  0  0  0  0  0  0  0  0  0
    1.5153   -0.3866    0.0000 H   0  0  0  0  0  0  0  0  0  0  0  0
  1  2  1  0  0  0  0
  1  3  1  0  0  0  0
  1  5  1  0  0  0  0
  1 12  1  0  0  0  0
  2  4  1  0  0  0  0
  2  6  1  0  0  0  0
  2 13  1  0  0  0  0
  3  7  1  0  0  0  0
  3 14  1  0  0  0  0
  3 15  1  0  0  0  0
  4  8  1  0  0  0  0
  4 16  1  0  0  0  0
  4 17  1  0  0  0  0
  5  9  1  0  0  0  0
  5 18  1  0  0  0  0
  5 19  1  0  0  0  0
  6 10  1  0  0  0  0
  6 20  1  0  0  0  0
  6 21  1  0  0  0  0
  7  8  1  0  0  0  0
  7 22  1  0  0  0  0
  7 23  1  0  0  0  0
  8 24  1  0  0  0  0
  8 25  1  0  0  0  0
  9 11  1  0  0  0  0
  9 26  1  0  0  0  0
  9 27  1  0  0  0  0
 10 11  1  0  0  0  0
 10 28  1  0  0  0  0
 10 29  1  0  0  0  0
 11 30  1  0  0  0  0
 11 31  1  0  0  0  0
M  END
> <PUBCHEM_COMPOUND_CID>
524793
> <PUBCHEM_COMPOUND_CANONICALIZED>
1
> <PUBCHEM_CACTVS_COMPLEXITY>
103
> <PUBCHEM_CACTVS_HBOND_ACCEPTOR>
0
> <PUBCHEM_CACTVS_HBOND_DONOR>
0
> <PUBCHEM_CACTVS_ROTATABLE_BOND>
0
> <PUBCHEM_CACTVS_SUBSKEYS>
AAADceBwAAAAAAAAAAAAAAAAAAAAAAAAAAAwAAAABgAAAAAAAAAAGAAAAAAADQCAAAAAAAAAAAAAAAAAAAAAAAAAAAAAAAAAAAAAAAIAAAAAAAAAAAAAAAEAgMAOgAAAAAAAAAAAAAAAACAAAAAAAAAAAA==
> <PUBCHEM_IUPAC_OPENEYE_NAME>
2,3,4,4a,5,6,7,8,9,9a-decahydro-1H-benzo[7]annulene
> <PUBCHEM_IUPAC_CAS_NAME>
2,3,4,4a,5,6,7,8,9,9a-decahydro-1H-benzo[7]annulene
> <PUBCHEM_IUPAC_NAME_MARKUP>
2,3,4,4<I>a</I>,5,6,7,8,9,9<I>a</I>-decahydro-1<I>H</I>-benzo[7]annulene
> <PUBCHEM_IUPAC_NAME>
2,3,4,4a,5,6,7,8,9,9a-decahydro-1H-benzo[7]annulene
> <PUBCHEM_IUPAC_SYSTEMATIC_NAME>
2,3,4,4a,5,6,7,8,9,9a-decahydro-1H-benzo[7]annulene
> <PUBCHEM_IUPAC_TRADITIONAL_NAME>
2,3,4,4a,5,6,7,8,9,9a-decahydro-1H-benzocycloheptene
> <PUBCHEM_IUPAC_INCHI>
InChI=1S/C11H20/c1-2-6-10-8-4-5-9-11(10)7-3-1/h10-11H,1-9H2
> <PUBCHEM_IUPAC_INCHIKEY>
GBCQLGDTLMHVHU-UHFFFAOYSA-N
> <PUBCHEM_XLOGP3_AA>
5.2
> <PUBCHEM_EXACT_MASS>
152.156500638
> <PUBCHEM_MOLECULAR_FORMULA>
C11H20
> <PUBCHEM_MOLECULAR_WEIGHT>
152.28
> <PUBCHEM_OPENEYE_CAN_SMILES>
C1CCC2CCCCC2CC1
> <PUBCHEM_OPENEYE_ISO_SMILES>
C1CCC2CCCCC2CC1
> <PUBCHEM_CACTVS_TPSA>
0
> <PUBCHEM_MONOISOTOPIC_WEIGHT>
152.156500638
> <PUBCHEM_TOTAL_CHARGE>
0
> <PUBCHEM_HEAVY_ATOM_COUNT>
11
> <PUBCHEM_ATOM_DEF_STEREO_COUNT>
0
> <PUBCHEM_ATOM_UDEF_STEREO_COUNT>
2
> <PUBCHEM_BOND_DEF_STEREO_COUNT>
0
> <PUBCHEM_BOND_UDEF_STEREO_COUNT>
0
> <PUBCHEM_ISOTOPIC_ATOM_COUNT>
0
> <PUBCHEM_COMPONENT_COUNT>
1
> <PUBCHEM_CACTVS_TAUTO_COUNT>
-1
> <PUBCHEM_COORDINATE_TYPE>
1
5
255
> <PUBCHEM_BONDANNOTATIONS>
1  5  3
2  6  3
$$$$
