524788
  -OEChem-10302200292D
 35 36  0     1  0  0  0  0  0999 V2000
    7.1962    1.0000    0.0000 Cl  0  0  0  0  0  0  0  0  0  0  0  0
    7.1962    5.0000    0.0000 Cl  0  0  0  0  0  0  0  0  0  0  0  0
    8.9282    4.0000    0.0000 Cl  0  0  0  0  0  0  0  0  0  0  0  0
    2.0000   -2.0000    0.0000 F   0  0  0  0  0  0  0  0  0  0  0  0
    5.4641   -2.0000    0.0000 F   0  0  0  0  0  0  0  0  0  0  0  0
    5.4641   -4.0000    0.0000 F   0  0  0  0  0  0  0  0  0  0  0  0
    2.0000   -4.0000    0.0000 F   0  0  0  0  0  0  0  0  0  0  0  0
    3.7320   -5.0000    0.0000 F   0  0  0  0  0  0  0  0  0  0  0  0
    5.4641    2.0000    0.0000 O   0  0  0  0  0  0  0  0  0  0  0  0
    4.5981   -0.5000    0.0000 O   0  0  0  0  0  0  0  0  0  0  0  0
    3.7320    1.0000    0.0000 O   0  0  0  0  0  0  0  0  0  0  0  0
    5.4641    1.0000    0.0000 C   0  0  3  0  0  0  0  0  0  0  0  0
    3.7320   -2.0000    0.0000 C   0  0  0  0  0  0  0  0  0  0  0  0
    3.7320   -1.0000    0.0000 C   0  0  0  0  0  0  0  0  0  0  0  0
    4.5981    0.5000    0.0000 C   0  0  0  0  0  0  0  0  0  0  0  0
    6.3301    0.5000    0.0000 C   0  0  0  0  0  0  0  0  0  0  0  0
    6.3301    2.5000    0.0000 C   0  0  0  0  0  0  0  0  0  0  0  0
    2.8660   -2.5000    0.0000 C   0  0  0  0  0  0  0  0  0  0  0  0
    4.5981   -2.5000    0.0000 C   0  0  0  0  0  0  0  0  0  0  0  0
    4.5981   -3.5000    0.0000 C   0  0  0  0  0  0  0  0  0  0  0  0
    2.8660   -3.5000    0.0000 C   0  0  0  0  0  0  0  0  0  0  0  0
    7.1962    2.0000    0.0000 C   0  0  0  0  0  0  0  0  0  0  0  0
    6.3301    3.5000    0.0000 C   0  0  0  0  0  0  0  0  0  0  0  0
    3.7320   -4.0000    0.0000 C   0  0  0  0  0  0  0  0  0  0  0  0
    7.1962    4.0000    0.0000 C   0  0  0  0  0  0  0  0  0  0  0  0
    8.0622    2.5000    0.0000 C   0  0  0  0  0  0  0  0  0  0  0  0
    8.0622    3.5000    0.0000 C   0  0  0  0  0  0  0  0  0  0  0  0
    6.0010    1.3100    0.0000 H   0  0  0  0  0  0  0  0  0  0  0  0
    3.5200   -0.4174    0.0000 H   0  0  0  0  0  0  0  0  0  0  0  0
    3.1215   -1.1077    0.0000 H   0  0  0  0  0  0  0  0  0  0  0  0
    6.0201   -0.0369    0.0000 H   0  0  0  0  0  0  0  0  0  0  0  0
    6.8671    0.1900    0.0000 H   0  0  0  0  0  0  0  0  0  0  0  0
    6.6401    1.0369    0.0000 H   0  0  0  0  0  0  0  0  0  0  0  0
    5.7932    3.8100    0.0000 H   0  0  0  0  0  0  0  0  0  0  0  0
    8.5991    2.1900    0.0000 H   0  0  0  0  0  0  0  0  0  0  0  0
  1 22  1  0  0  0  0
  2 25  1  0  0  0  0
  3 27  1  0  0  0  0
  4 18  1  0  0  0  0
  5 19  1  0  0  0  0
  6 20  1  0  0  0  0
  7 21  1  0  0  0  0
  8 24  1  0  0  0  0
  9 12  1  0  0  0  0
  9 17  1  0  0  0  0
 10 14  1  0  0  0  0
 10 15  1  0  0  0  0
 11 15  2  0  0  0  0
 12 15  1  0  0  0  0
 12 16  1  0  0  0  0
 12 28  1  0  0  0  0
 13 14  1  0  0  0  0
 13 18  2  0  0  0  0
 13 19  1  0  0  0  0
 14 29  1  0  0  0  0
 14 30  1  0  0  0  0
 16 31  1  0  0  0  0
 16 32  1  0  0  0  0
 16 33  1  0  0  0  0
 17 22  1  0  0  0  0
 17 23  2  0  0  0  0
 18 21  1  0  0  0  0
 19 20  2  0  0  0  0
 20 24  1  0  0  0  0
 21 24  2  0  0  0  0
 22 26  2  0  0  0  0
 23 25  1  0  0  0  0
 23 34  1  0  0  0  0
 25 27  2  0  0  0  0
 26 27  1  0  0  0  0
 26 35  1  0  0  0  0
M  END
> <PUBCHEM_COMPOUND_CID>
524788
> <PUBCHEM_COMPOUND_CANONICALIZED>
1
> <PUBCHEM_CACTVS_COMPLEXITY>
504
> <PUBCHEM_CACTVS_HBOND_ACCEPTOR>
8
> <PUBCHEM_CACTVS_HBOND_DONOR>
0
> <PUBCHEM_CACTVS_ROTATABLE_BOND>
6
> <PUBCHEM_CACTVS_SUBSKEYS>
AAADccB4McAGAAAAAAAAAAAAAAAAAAAAAAAwYAAAAAAAAAABQAAAGwIAAAAADBagmCoyDoAABACIAiDSCAICCAAgJUAAikFGC4gNJiOFMh6COCCkwBEKqAeAwCAOACAQAQCACAQAQCACAQAQCAAAAAAAAA==
> <PUBCHEM_IUPAC_OPENEYE_NAME>
(2,3,4,5,6-pentafluorophenyl)methyl 2-(2,4,5-trichlorophenoxy)propanoate
> <PUBCHEM_IUPAC_CAS_NAME>
2-(2,4,5-trichlorophenoxy)propanoic acid (2,3,4,5,6-pentafluorophenyl)methyl ester
> <PUBCHEM_IUPAC_NAME_MARKUP>
(2,3,4,5,6-pentafluorophenyl)methyl 2-(2,4,5-trichlorophenoxy)propanoate
> <PUBCHEM_IUPAC_NAME>
(2,3,4,5,6-pentafluorophenyl)methyl 2-(2,4,5-trichlorophenoxy)propanoate
> <PUBCHEM_IUPAC_SYSTEMATIC_NAME>
[2,3,4,5,6-pentakis(fluoranyl)phenyl]methyl 2-[2,4,5-tris(chloranyl)phenoxy]propanoate
> <PUBCHEM_IUPAC_TRADITIONAL_NAME>
2-(2,4,5-trichlorophenoxy)propionic acid (2,3,4,5,6-pentafluorobenzyl) ester
> <PUBCHEM_IUPAC_INCHI>
InChI=1S/C16H8Cl3F5O3/c1-5(27-10-3-8(18)7(17)2-9(10)19)16(25)26-4-6-11(20)13(22)15(24)14(23)12(6)21/h2-3,5H,4H2,1H3
> <PUBCHEM_IUPAC_INCHIKEY>
ITZPCMBEXLNDBH-UHFFFAOYSA-N
> <PUBCHEM_XLOGP3_AA>
6.1
> <PUBCHEM_EXACT_MASS>
447.945918
> <PUBCHEM_MOLECULAR_FORMULA>
C16H8Cl3F5O3
> <PUBCHEM_MOLECULAR_WEIGHT>
449.6
> <PUBCHEM_OPENEYE_CAN_SMILES>
CC(C(=O)OCC1=C(C(=C(C(=C1F)F)F)F)F)OC2=CC(=C(C=C2Cl)Cl)Cl
> <PUBCHEM_OPENEYE_ISO_SMILES>
CC(C(=O)OCC1=C(C(=C(C(=C1F)F)F)F)F)OC2=CC(=C(C=C2Cl)Cl)Cl
> <PUBCHEM_CACTVS_TPSA>
35.5
> <PUBCHEM_MONOISOTOPIC_WEIGHT>
447.945918
> <PUBCHEM_TOTAL_CHARGE>
0
> <PUBCHEM_HEAVY_ATOM_COUNT>
27
> <PUBCHEM_ATOM_DEF_STEREO_COUNT>
0
> <PUBCHEM_ATOM_UDEF_STEREO_COUNT>
1
> <PUBCHEM_BOND_DEF_STEREO_COUNT>
0
> <PUBCHEM_BOND_UDEF_STEREO_COUNT>
0
> <PUBCHEM_ISOTOPIC_ATOM_COUNT>
0
> <PUBCHEM_COMPONENT_COUNT>
1
> <PUBCHEM_CACTVS_TAUTO_COUNT>
-1
> <PUBCHEM_COORDINATE_TYPE>
1
5
255
> <PUBCHEM_BONDANNOTATIONS>
12  16  3
13  18  8
13  19  8
17  22  8
17  23  8
18  21  8
19  20  8
20  24  8
21  24  8
22  26  8
23  25  8
25  27  8
26  27  8
$$$$
