524899
  -OEChem-10302200292D
 73 75  0     1  0  0  0  0  0999 V2000
    5.3548    2.9464    0.0000 Si  0  0  0  0  0  0  0  0  0  0  0  0
    8.4752    1.7067    0.0000 Si  0  0  0  0  0  0  0  0  0  0  0  0
    4.6844    2.2045    0.0000 O   0  0  0  0  0  0  0  0  0  0  0  0
    5.9405   -0.0578    0.0000 O   0  0  0  0  0  0  0  0  0  0  0  0
    7.6651    1.1203    0.0000 O   0  0  0  0  0  0  0  0  0  0  0  0
    4.6783   -1.3157    0.0000 N   0  0  0  0  0  0  0  0  0  0  0  0
    4.6783   -2.9252    0.0000 N   0  0  0  0  0  0  0  0  0  0  0  0
    2.8660   -1.1204    0.0000 N   0  0  0  0  0  0  0  0  0  0  0  0
    2.0000   -2.6204    0.0000 N   0  0  0  0  0  0  0  0  0  0  0  0
    2.8660   -4.1204    0.0000 N   0  0  0  0  0  0  0  0  0  0  0  0
    4.9917    1.2529    0.0000 C   0  0  3  0  0  0  0  0  0  0  0  0
    5.9422    0.9422    0.0000 C   0  0  3  0  0  0  0  0  0  0  0  0
    4.4026    0.4449    0.0000 C   0  0  0  0  0  0  0  0  0  0  0  0
    6.0252    3.6884    0.0000 C   0  0  0  0  0  0  0  0  0  0  0  0
    4.9889   -0.3652    0.0000 C   0  0  3  0  0  0  0  0  0  0  0  0
    6.7523    1.5286    0.0000 C   0  0  0  0  0  0  0  0  0  0  0  0
    9.2852    2.2930    0.0000 C   0  0  0  0  0  0  0  0  0  0  0  0
    4.6128    3.6169    0.0000 C   0  0  0  0  0  0  0  0  0  0  0  0
    6.0968    2.2760    0.0000 C   0  0  0  0  0  0  0  0  0  0  0  0
    6.6956    4.4304    0.0000 C   0  0  0  0  0  0  0  0  0  0  0  0
    5.2832    4.3588    0.0000 C   0  0  0  0  0  0  0  0  0  0  0  0
    6.7672    3.0180    0.0000 C   0  0  0  0  0  0  0  0  0  0  0  0
    9.0615    0.8966    0.0000 C   0  0  0  0  0  0  0  0  0  0  0  0
    7.8888    2.5167    0.0000 C   0  0  0  0  0  0  0  0  0  0  0  0
   10.0952    2.8794    0.0000 C   0  0  0  0  0  0  0  0  0  0  0  0
    9.8716    1.4830    0.0000 C   0  0  0  0  0  0  0  0  0  0  0  0
    8.6988    3.1031    0.0000 C   0  0  0  0  0  0  0  0  0  0  0  0
    3.7320   -1.6204    0.0000 C   0  0  0  0  0  0  0  0  0  0  0  0
    5.2619   -2.1204    0.0000 C   0  0  0  0  0  0  0  0  0  0  0  0
    3.7320   -2.6204    0.0000 C   0  0  0  0  0  0  0  0  0  0  0  0
    2.8660   -3.1204    0.0000 C   0  0  0  0  0  0  0  0  0  0  0  0
    2.0000   -1.6204    0.0000 C   0  0  0  0  0  0  0  0  0  0  0  0
    5.4309    1.6905    0.0000 H   0  0  0  0  0  0  0  0  0  0  0  0
    6.4942    0.6598    0.0000 H   0  0  0  0  0  0  0  0  0  0  0  0
    3.9425    0.8605    0.0000 H   0  0  0  0  0  0  0  0  0  0  0  0
    3.9411    0.0308    0.0000 H   0  0  0  0  0  0  0  0  0  0  0  0
    5.4266   -0.8043    0.0000 H   0  0  0  0  0  0  0  0  0  0  0  0
    7.0999    2.0420    0.0000 H   0  0  0  0  0  0  0  0  0  0  0  0
    6.3070    1.9600    0.0000 H   0  0  0  0  0  0  0  0  0  0  0  0
    5.0284    4.0769    0.0000 H   0  0  0  0  0  0  0  0  0  0  0  0
    4.1528    4.0325    0.0000 H   0  0  0  0  0  0  0  0  0  0  0  0
    4.1971    3.1568    0.0000 H   0  0  0  0  0  0  0  0  0  0  0  0
    5.6811    1.8160    0.0000 H   0  0  0  0  0  0  0  0  0  0  0  0
    6.5568    1.8604    0.0000 H   0  0  0  0  0  0  0  0  0  0  0  0
    6.5124    2.7361    0.0000 H   0  0  0  0  0  0  0  0  0  0  0  0
    7.1556    4.0148    0.0000 H   0  0  0  0  0  0  0  0  0  0  0  0
    7.1113    4.8905    0.0000 H   0  0  0  0  0  0  0  0  0  0  0  0
    6.2356    4.8461    0.0000 H   0  0  0  0  0  0  0  0  0  0  0  0
    5.6989    4.8189    0.0000 H   0  0  0  0  0  0  0  0  0  0  0  0
    4.8232    4.7745    0.0000 H   0  0  0  0  0  0  0  0  0  0  0  0
    4.8675    3.8988    0.0000 H   0  0  0  0  0  0  0  0  0  0  0  0
    6.3515    2.5580    0.0000 H   0  0  0  0  0  0  0  0  0  0  0  0
    7.2272    2.6024    0.0000 H   0  0  0  0  0  0  0  0  0  0  0  0
    7.1828    3.4780    0.0000 H   0  0  0  0  0  0  0  0  0  0  0  0
    8.5593    0.5331    0.0000 H   0  0  0  0  0  0  0  0  0  0  0  0
    9.4251    0.3944    0.0000 H   0  0  0  0  0  0  0  0  0  0  0  0
    9.5638    1.2602    0.0000 H   0  0  0  0  0  0  0  0  0  0  0  0
    8.3910    2.8803    0.0000 H   0  0  0  0  0  0  0  0  0  0  0  0
    7.5252    3.0189    0.0000 H   0  0  0  0  0  0  0  0  0  0  0  0
    7.3866    2.1531    0.0000 H   0  0  0  0  0  0  0  0  0  0  0  0
   10.4588    2.3772    0.0000 H   0  0  0  0  0  0  0  0  0  0  0  0
   10.5974    3.2430    0.0000 H   0  0  0  0  0  0  0  0  0  0  0  0
    9.7317    3.3816    0.0000 H   0  0  0  0  0  0  0  0  0  0  0  0
    9.3694    1.1194    0.0000 H   0  0  0  0  0  0  0  0  0  0  0  0
   10.2351    0.9808    0.0000 H   0  0  0  0  0  0  0  0  0  0  0  0
   10.3738    1.8466    0.0000 H   0  0  0  0  0  0  0  0  0  0  0  0
    9.2010    3.4666    0.0000 H   0  0  0  0  0  0  0  0  0  0  0  0
    8.3352    3.6053    0.0000 H   0  0  0  0  0  0  0  0  0  0  0  0
    8.1966    2.7395    0.0000 H   0  0  0  0  0  0  0  0  0  0  0  0
    5.8819   -2.1204    0.0000 H   0  0  0  0  0  0  0  0  0  0  0  0
    1.4631   -1.3104    0.0000 H   0  0  0  0  0  0  0  0  0  0  0  0
    2.3291   -4.4304    0.0000 H   0  0  0  0  0  0  0  0  0  0  0  0
    3.4030   -4.4304    0.0000 H   0  0  0  0  0  0  0  0  0  0  0  0
  1  3  1  0  0  0  0
  1 14  1  0  0  0  0
  1 18  1  0  0  0  0
  1 19  1  0  0  0  0
  2  5  1  0  0  0  0
  2 17  1  0  0  0  0
  2 23  1  0  0  0  0
  2 24  1  0  0  0  0
  3 11  1  0  0  0  0
  4 12  1  0  0  0  0
  4 15  1  0  0  0  0
  5 16  1  0  0  0  0
  6 15  1  0  0  0  0
  6 28  1  0  0  0  0
  6 29  1  0  0  0  0
  7 29  2  0  0  0  0
  7 30  1  0  0  0  0
  8 28  2  0  0  0  0
  8 32  1  0  0  0  0
  9 31  1  0  0  0  0
  9 32  2  0  0  0  0
 10 31  1  0  0  0  0
 10 72  1  0  0  0  0
 10 73  1  0  0  0  0
 11 12  1  0  0  0  0
 11 13  1  0  0  0  0
 11 33  1  0  0  0  0
 12 16  1  0  0  0  0
 12 34  1  0  0  0  0
 13 15  1  0  0  0  0
 13 35  1  0  0  0  0
 13 36  1  0  0  0  0
 14 20  1  0  0  0  0
 14 21  1  0  0  0  0
 14 22  1  0  0  0  0
 15 37  1  0  0  0  0
 16 38  1  0  0  0  0
 16 39  1  0  0  0  0
 17 25  1  0  0  0  0
 17 26  1  0  0  0  0
 17 27  1  0  0  0  0
 18 40  1  0  0  0  0
 18 41  1  0  0  0  0
 18 42  1  0  0  0  0
 19 43  1  0  0  0  0
 19 44  1  0  0  0  0
 19 45  1  0  0  0  0
 20 46  1  0  0  0  0
 20 47  1  0  0  0  0
 20 48  1  0  0  0  0
 21 49  1  0  0  0  0
 21 50  1  0  0  0  0
 21 51  1  0  0  0  0
 22 52  1  0  0  0  0
 22 53  1  0  0  0  0
 22 54  1  0  0  0  0
 23 55  1  0  0  0  0
 23 56  1  0  0  0  0
 23 57  1  0  0  0  0
 24 58  1  0  0  0  0
 24 59  1  0  0  0  0
 24 60  1  0  0  0  0
 25 61  1  0  0  0  0
 25 62  1  0  0  0  0
 25 63  1  0  0  0  0
 26 64  1  0  0  0  0
 26 65  1  0  0  0  0
 26 66  1  0  0  0  0
 27 67  1  0  0  0  0
 27 68  1  0  0  0  0
 27 69  1  0  0  0  0
 28 30  1  0  0  0  0
 29 70  1  0  0  0  0
 30 31  2  0  0  0  0
 32 71  1  0  0  0  0
M  END
> <PUBCHEM_COMPOUND_CID>
524899
> <PUBCHEM_COMPOUND_CANONICALIZED>
1
> <PUBCHEM_CACTVS_COMPLEXITY>
653
> <PUBCHEM_CACTVS_HBOND_ACCEPTOR>
7
> <PUBCHEM_CACTVS_HBOND_DONOR>
1
> <PUBCHEM_CACTVS_ROTATABLE_BOND>
8
> <PUBCHEM_CACTVS_SUBSKEYS>
AAADcfB7sAwAAAAAAAAAAAAAAAAAAWJAAAAsAAAAAAAAAFgB+AAAHhAQAEAADBzhtwZH8L9MFAGgAQZhZACAgC0REKABUCAoVBCBSAJAyEAeBAgPAALCACCwMAIAAAAAAAAAAAAAAAAAAAAAAAAAAAAAAA==
> <PUBCHEM_IUPAC_OPENEYE_NAME>
9-[4-[tert-butyl(dimethyl)silyl]oxy-5-[[tert-butyl(dimethyl)silyl]oxymethyl]tetrahydrofuran-2-yl]purin-6-amine
> <PUBCHEM_IUPAC_CAS_NAME>
9-[4-[tert-butyl(dimethyl)silyl]oxy-5-[[tert-butyl(dimethyl)silyl]oxymethyl]-2-oxolanyl]-6-purinamine
> <PUBCHEM_IUPAC_NAME_MARKUP>
9-[4-[<I>tert</I>-butyl(dimethyl)silyl]oxy-5-[[<I>tert</I>-butyl(dimethyl)silyl]oxymethyl]oxolan-2-yl]purin-6-amine
> <PUBCHEM_IUPAC_NAME>
9-[4-[tert-butyl(dimethyl)silyl]oxy-5-[[tert-butyl(dimethyl)silyl]oxymethyl]oxolan-2-yl]purin-6-amine
> <PUBCHEM_IUPAC_SYSTEMATIC_NAME>
9-[4-[tert-butyl(dimethyl)silyl]oxy-5-[[tert-butyl(dimethyl)silyl]oxymethyl]oxolan-2-yl]purin-6-amine
> <PUBCHEM_IUPAC_TRADITIONAL_NAME>
[9-[4-[tert-butyl(dimethyl)silyl]oxy-5-[[tert-butyl(dimethyl)silyl]oxymethyl]tetrahydrofuran-2-yl]purin-6-yl]amine
> <PUBCHEM_IUPAC_INCHI>
InChI=1S/C22H41N5O3Si2/c1-21(2,3)31(7,8)28-12-16-15(30-32(9,10)22(4,5)6)11-17(29-16)27-14-26-18-19(23)24-13-25-20(18)27/h13-17H,11-12H2,1-10H3,(H2,23,24,25)
> <PUBCHEM_IUPAC_INCHIKEY>
JEDIATUHRBNRLS-UHFFFAOYSA-N
> <PUBCHEM_EXACT_MASS>
479.27479326
> <PUBCHEM_MOLECULAR_FORMULA>
C22H41N5O3Si2
> <PUBCHEM_MOLECULAR_WEIGHT>
479.8
> <PUBCHEM_OPENEYE_CAN_SMILES>
CC(C)(C)[Si](C)(C)OCC1C(CC(O1)N2C=NC3=C(N=CN=C32)N)O[Si](C)(C)C(C)(C)C
> <PUBCHEM_OPENEYE_ISO_SMILES>
CC(C)(C)[Si](C)(C)OCC1C(CC(O1)N2C=NC3=C(N=CN=C32)N)O[Si](C)(C)C(C)(C)C
> <PUBCHEM_CACTVS_TPSA>
97.3
> <PUBCHEM_MONOISOTOPIC_WEIGHT>
479.27479326
> <PUBCHEM_TOTAL_CHARGE>
0
> <PUBCHEM_HEAVY_ATOM_COUNT>
32
> <PUBCHEM_ATOM_DEF_STEREO_COUNT>
0
> <PUBCHEM_ATOM_UDEF_STEREO_COUNT>
3
> <PUBCHEM_BOND_DEF_STEREO_COUNT>
0
> <PUBCHEM_BOND_UDEF_STEREO_COUNT>
0
> <PUBCHEM_ISOTOPIC_ATOM_COUNT>
0
> <PUBCHEM_COMPONENT_COUNT>
1
> <PUBCHEM_CACTVS_TAUTO_COUNT>
-1
> <PUBCHEM_COORDINATE_TYPE>
1
5
255
> <PUBCHEM_BONDANNOTATIONS>
12  16  3
28  30  8
11  3  3
30  31  8
15  6  3
6  28  8
6  29  8
7  29  8
7  30  8
8  28  8
8  32  8
9  31  8
9  32  8
$$$$
