524830
  -OEChem-10302200292D
 18 18  0     1  0  0  0  0  0999 V2000
    3.6828   -1.0005    0.0000 O   0  0  0  0  0  0  0  0  0  0  0  0
    3.1828    1.1901    0.0000 O   0  0  0  0  0  0  0  0  0  0  0  0
    4.8063    0.4083    0.0000 O   0  0  0  0  0  0  0  0  0  0  0  0
    2.7818   -0.5666    0.0000 C   0  0  3  0  0  0  0  0  0  0  0  0
    2.5593    0.4083    0.0000 C   0  0  0  0  0  0  0  0  0  0  0  0
    2.0000   -1.1901    0.0000 C   0  0  0  0  0  0  0  0  0  0  0  0
    4.5838   -0.5666    0.0000 C   0  0  0  0  0  0  0  0  0  0  0  0
    4.1828    1.1901    0.0000 C   0  0  0  0  0  0  0  0  0  0  0  0
    2.8512   -1.1827    0.0000 H   0  0  0  0  0  0  0  0  0  0  0  0
    2.1728    0.8930    0.0000 H   0  0  0  0  0  0  0  0  0  0  0  0
    2.0007    0.1393    0.0000 H   0  0  0  0  0  0  0  0  0  0  0  0
    1.6134   -0.7054    0.0000 H   0  0  0  0  0  0  0  0  0  0  0  0
    1.5153   -1.5767    0.0000 H   0  0  0  0  0  0  0  0  0  0  0  0
    2.3866   -1.6749    0.0000 H   0  0  0  0  0  0  0  0  0  0  0  0
    4.7217   -1.1711    0.0000 H   0  0  0  0  0  0  0  0  0  0  0  0
    5.2038   -0.5666    0.0000 H   0  0  0  0  0  0  0  0  0  0  0  0
    4.7414    1.4591    0.0000 H   0  0  0  0  0  0  0  0  0  0  0  0
    4.0448    1.7946    0.0000 H   0  0  0  0  0  0  0  0  0  0  0  0
  1  4  1  0  0  0  0
  1  7  1  0  0  0  0
  2  5  1  0  0  0  0
  2  8  1  0  0  0  0
  3  7  1  0  0  0  0
  3  8  1  0  0  0  0
  4  5  1  0  0  0  0
  4  6  1  0  0  0  0
  4  9  1  0  0  0  0
  5 10  1  0  0  0  0
  5 11  1  0  0  0  0
  6 12  1  0  0  0  0
  6 13  1  0  0  0  0
  6 14  1  0  0  0  0
  7 15  1  0  0  0  0
  7 16  1  0  0  0  0
  8 17  1  0  0  0  0
  8 18  1  0  0  0  0
M  END
> <PUBCHEM_COMPOUND_CID>
524830
> <PUBCHEM_COMPOUND_CANONICALIZED>
1
> <PUBCHEM_CACTVS_COMPLEXITY>
64.7
> <PUBCHEM_CACTVS_HBOND_ACCEPTOR>
3
> <PUBCHEM_CACTVS_HBOND_DONOR>
0
> <PUBCHEM_CACTVS_ROTATABLE_BOND>
0
> <PUBCHEM_CACTVS_SUBSKEYS>
AAADccBgMAAAAAAAAAAAAAAAAAAAAAAAAAAAAAAABIAAAAAAAAAAGgAAAAAACBSggAMCCAAABAAAAAAAAAAAAAAAAAAAAAAAAAARAAAAAAAgAAAAAAAGAAAAAAAAAAAAAAAAAAAAAAAAAAAAAAAAAAAAAA==
> <PUBCHEM_IUPAC_OPENEYE_NAME>
6-methyl-1,3,5-trioxepane
> <PUBCHEM_IUPAC_CAS_NAME>
6-methyl-1,3,5-trioxepane
> <PUBCHEM_IUPAC_NAME_MARKUP>
6-methyl-1,3,5-trioxepane
> <PUBCHEM_IUPAC_NAME>
6-methyl-1,3,5-trioxepane
> <PUBCHEM_IUPAC_SYSTEMATIC_NAME>
6-methyl-1,3,5-trioxepane
> <PUBCHEM_IUPAC_TRADITIONAL_NAME>
6-methyl-1,3,5-trioxepane
> <PUBCHEM_IUPAC_INCHI>
InChI=1S/C5H10O3/c1-5-2-6-3-7-4-8-5/h5H,2-4H2,1H3
> <PUBCHEM_IUPAC_INCHIKEY>
UZLVVHHXLVCCDM-UHFFFAOYSA-N
> <PUBCHEM_XLOGP3_AA>
0.2
> <PUBCHEM_EXACT_MASS>
118.062994177
> <PUBCHEM_MOLECULAR_FORMULA>
C5H10O3
> <PUBCHEM_MOLECULAR_WEIGHT>
118.13
> <PUBCHEM_OPENEYE_CAN_SMILES>
CC1COCOCO1
> <PUBCHEM_OPENEYE_ISO_SMILES>
CC1COCOCO1
> <PUBCHEM_CACTVS_TPSA>
27.7
> <PUBCHEM_MONOISOTOPIC_WEIGHT>
118.062994177
> <PUBCHEM_TOTAL_CHARGE>
0
> <PUBCHEM_HEAVY_ATOM_COUNT>
8
> <PUBCHEM_ATOM_DEF_STEREO_COUNT>
0
> <PUBCHEM_ATOM_UDEF_STEREO_COUNT>
1
> <PUBCHEM_BOND_DEF_STEREO_COUNT>
0
> <PUBCHEM_BOND_UDEF_STEREO_COUNT>
0
> <PUBCHEM_ISOTOPIC_ATOM_COUNT>
0
> <PUBCHEM_COMPONENT_COUNT>
1
> <PUBCHEM_CACTVS_TAUTO_COUNT>
-1
> <PUBCHEM_COORDINATE_TYPE>
1
5
255
> <PUBCHEM_BONDANNOTATIONS>
4  6  3
$$$$
