524916
  -OEChem-10302200292D
101104  0     1  0  0  0  0  0999 V2000
   12.5314    1.9620    0.0000 Si  0  0  0  0  0  0  0  0  0  0  0  0
    3.7282   -2.9990    0.0000 Si  0  0  0  0  0  0  0  0  0  0  0  0
   12.2207    1.0115    0.0000 O   0  0  0  0  0  0  0  0  0  0  0  0
    4.5923   -3.5023    0.0000 O   0  0  0  0  0  0  0  0  0  0  0  0
    9.9854   -1.4500    0.0000 C   0  0  3  0  0  0  0  0  0  0  0  0
    9.1193   -1.9500    0.0000 C   0  0  3  0  0  0  0  0  0  0  0  0
    9.9854   -0.4500    0.0000 C   0  0  3  0  0  0  0  0  0  0  0  0
    8.2533   -1.4500    0.0000 C   0  0  3  0  0  0  0  0  0  0  0  0
    7.3433   -1.9568    0.0000 C   0  0  3  0  0  0  0  0  0  0  0  0
   10.9316   -0.1452    0.0000 C   0  0  3  0  0  0  0  0  0  0  0  0
    7.3353   -2.9984    0.0000 C   0  0  3  0  0  0  0  0  0  0  0  0
    9.1193    0.0500    0.0000 C   0  0  0  0  0  0  0  0  0  0  0  0
    8.2533   -0.4500    0.0000 C   0  0  0  0  0  0  0  0  0  0  0  0
   10.9316   -1.7547    0.0000 C   0  0  0  0  0  0  0  0  0  0  0  0
    9.1354   -2.9915    0.0000 C   0  0  0  0  0  0  0  0  0  0  0  0
   11.5152   -0.9500    0.0000 C   0  0  0  0  0  0  0  0  0  0  0  0
    8.2374   -3.5192    0.0000 C   0  0  0  0  0  0  0  0  0  0  0  0
    6.4165   -1.3927    0.0000 C   0  0  0  0  0  0  0  0  0  0  0  0
    6.3998   -3.5481    0.0000 C   0  0  0  0  0  0  0  0  0  0  0  0
    9.9854    0.5500    0.0000 C   0  0  0  0  0  0  0  0  0  0  0  0
    7.3510   -0.9568    0.0000 C   0  0  0  0  0  0  0  0  0  0  0  0
   11.2422    0.8053    0.0000 C   0  0  3  0  0  0  0  0  0  0  0  0
    5.4686   -1.9207    0.0000 C   0  0  0  0  0  0  0  0  0  0  0  0
    5.4602   -3.0056    0.0000 C   0  0  3  0  0  0  0  0  0  0  0  0
   10.5744    1.5496    0.0000 C   0  0  0  0  0  0  0  0  0  0  0  0
   12.8421    2.9125    0.0000 C   0  0  0  0  0  0  0  0  0  0  0  0
    2.8641   -2.4956    0.0000 C   0  0  0  0  0  0  0  0  0  0  0  0
   13.4819    1.6514    0.0000 C   0  0  0  0  0  0  0  0  0  0  0  0
   11.5809    2.2727    0.0000 C   0  0  0  0  0  0  0  0  0  0  0  0
    3.2248   -3.8631    0.0000 C   0  0  0  0  0  0  0  0  0  0  0  0
    4.2315   -2.1349    0.0000 C   0  0  0  0  0  0  0  0  0  0  0  0
   13.1527    3.8631    0.0000 C   0  0  0  0  0  0  0  0  0  0  0  0
   13.7926    2.6019    0.0000 C   0  0  0  0  0  0  0  0  0  0  0  0
   11.8916    3.2232    0.0000 C   0  0  0  0  0  0  0  0  0  0  0  0
    2.0000   -1.9923    0.0000 C   0  0  0  0  0  0  0  0  0  0  0  0
    2.3608   -3.3597    0.0000 C   0  0  0  0  0  0  0  0  0  0  0  0
    3.3674   -1.6315    0.0000 C   0  0  0  0  0  0  0  0  0  0  0  0
   10.0510   -2.0665    0.0000 H   0  0  0  0  0  0  0  0  0  0  0  0
    9.6586   -2.2558    0.0000 H   0  0  0  0  0  0  0  0  0  0  0  0
    8.7902   -1.1400    0.0000 H   0  0  0  0  0  0  0  0  0  0  0  0
   11.5441   -0.0490    0.0000 H   0  0  0  0  0  0  0  0  0  0  0  0
    7.3377   -3.6184    0.0000 H   0  0  0  0  0  0  0  0  0  0  0  0
    9.5179    0.5250    0.0000 H   0  0  0  0  0  0  0  0  0  0  0  0
    8.7208    0.5250    0.0000 H   0  0  0  0  0  0  0  0  0  0  0  0
    8.0413    0.1326    0.0000 H   0  0  0  0  0  0  0  0  0  0  0  0
    7.6427   -0.5576    0.0000 H   0  0  0  0  0  0  0  0  0  0  0  0
   10.6805   -2.3216    0.0000 H   0  0  0  0  0  0  0  0  0  0  0  0
   11.4690   -2.0639    0.0000 H   0  0  0  0  0  0  0  0  0  0  0  0
    9.3534   -3.5719    0.0000 H   0  0  0  0  0  0  0  0  0  0  0  0
    9.7445   -2.8760    0.0000 H   0  0  0  0  0  0  0  0  0  0  0  0
   11.9761   -1.3647    0.0000 H   0  0  0  0  0  0  0  0  0  0  0  0
   11.9761   -0.5352    0.0000 H   0  0  0  0  0  0  0  0  0  0  0  0
    7.8400   -3.9952    0.0000 H   0  0  0  0  0  0  0  0  0  0  0  0
    8.6383   -3.9921    0.0000 H   0  0  0  0  0  0  0  0  0  0  0  0
    6.8247   -0.9261    0.0000 H   0  0  0  0  0  0  0  0  0  0  0  0
    6.0266   -0.9107    0.0000 H   0  0  0  0  0  0  0  0  0  0  0  0
    6.0026   -4.0241    0.0000 H   0  0  0  0  0  0  0  0  0  0  0  0
    6.8008   -4.0210    0.0000 H   0  0  0  0  0  0  0  0  0  0  0  0
   10.6054    0.5500    0.0000 H   0  0  0  0  0  0  0  0  0  0  0  0
    9.9854    1.1700    0.0000 H   0  0  0  0  0  0  0  0  0  0  0  0
    9.3654    0.5500    0.0000 H   0  0  0  0  0  0  0  0  0  0  0  0
    7.9710   -0.9616    0.0000 H   0  0  0  0  0  0  0  0  0  0  0  0
    7.3558   -0.3369    0.0000 H   0  0  0  0  0  0  0  0  0  0  0  0
    6.7310   -0.9521    0.0000 H   0  0  0  0  0  0  0  0  0  0  0  0
   11.6563    0.3438    0.0000 H   0  0  0  0  0  0  0  0  0  0  0  0
    5.2640   -1.3354    0.0000 H   0  0  0  0  0  0  0  0  0  0  0  0
    4.8569   -2.0221    0.0000 H   0  0  0  0  0  0  0  0  0  0  0  0
    5.4590   -3.6256    0.0000 H   0  0  0  0  0  0  0  0  0  0  0  0
   11.0359    1.9636    0.0000 H   0  0  0  0  0  0  0  0  0  0  0  0
   10.1603    2.0110    0.0000 H   0  0  0  0  0  0  0  0  0  0  0  0
   10.1129    1.1355    0.0000 H   0  0  0  0  0  0  0  0  0  0  0  0
   13.2893    1.0620    0.0000 H   0  0  0  0  0  0  0  0  0  0  0  0
   14.0713    1.4588    0.0000 H   0  0  0  0  0  0  0  0  0  0  0  0
   13.6745    2.2407    0.0000 H   0  0  0  0  0  0  0  0  0  0  0  0
   11.7735    2.8620    0.0000 H   0  0  0  0  0  0  0  0  0  0  0  0
   10.9916    2.4653    0.0000 H   0  0  0  0  0  0  0  0  0  0  0  0
   11.3883    1.6834    0.0000 H   0  0  0  0  0  0  0  0  0  0  0  0
    2.6891   -3.5510    0.0000 H   0  0  0  0  0  0  0  0  0  0  0  0
    2.9128   -4.3988    0.0000 H   0  0  0  0  0  0  0  0  0  0  0  0
    3.7606   -4.1751    0.0000 H   0  0  0  0  0  0  0  0  0  0  0  0
    4.7672   -2.4469    0.0000 H   0  0  0  0  0  0  0  0  0  0  0  0
    4.5436   -1.5991    0.0000 H   0  0  0  0  0  0  0  0  0  0  0  0
    3.6958   -1.8228    0.0000 H   0  0  0  0  0  0  0  0  0  0  0  0
   13.7421    3.6704    0.0000 H   0  0  0  0  0  0  0  0  0  0  0  0
   13.3453    4.4524    0.0000 H   0  0  0  0  0  0  0  0  0  0  0  0
   12.5634    4.0557    0.0000 H   0  0  0  0  0  0  0  0  0  0  0  0
   13.6000    2.0126    0.0000 H   0  0  0  0  0  0  0  0  0  0  0  0
   14.3819    2.4093    0.0000 H   0  0  0  0  0  0  0  0  0  0  0  0
   13.9852    3.1912    0.0000 H   0  0  0  0  0  0  0  0  0  0  0  0
   12.0842    3.8125    0.0000 H   0  0  0  0  0  0  0  0  0  0  0  0
   11.3022    3.4158    0.0000 H   0  0  0  0  0  0  0  0  0  0  0  0
   11.6989    2.6339    0.0000 H   0  0  0  0  0  0  0  0  0  0  0  0
    2.3121   -1.4566    0.0000 H   0  0  0  0  0  0  0  0  0  0  0  0
    1.4643   -1.6802    0.0000 H   0  0  0  0  0  0  0  0  0  0  0  0
    1.6879   -2.5280    0.0000 H   0  0  0  0  0  0  0  0  0  0  0  0
    1.8250   -3.0477    0.0000 H   0  0  0  0  0  0  0  0  0  0  0  0
    2.0487   -3.8955    0.0000 H   0  0  0  0  0  0  0  0  0  0  0  0
    2.8965   -3.6718    0.0000 H   0  0  0  0  0  0  0  0  0  0  0  0
    3.9032   -1.9436    0.0000 H   0  0  0  0  0  0  0  0  0  0  0  0
    3.6795   -1.0958    0.0000 H   0  0  0  0  0  0  0  0  0  0  0  0
    2.8317   -1.3195    0.0000 H   0  0  0  0  0  0  0  0  0  0  0  0
  1  3  1  0  0  0  0
  1 26  1  0  0  0  0
  1 28  1  0  0  0  0
  1 29  1  0  0  0  0
  2  4  1  0  0  0  0
  2 27  1  0  0  0  0
  2 30  1  0  0  0  0
  2 31  1  0  0  0  0
  3 22  1  0  0  0  0
  4 24  1  0  0  0  0
  5  6  1  0  0  0  0
  5  7  1  0  0  0  0
  5 14  1  0  0  0  0
  5 38  1  0  0  0  0
  6  8  1  0  0  0  0
  6 15  1  0  0  0  0
  6 39  1  0  0  0  0
  7 10  1  0  0  0  0
  7 12  1  0  0  0  0
  7 20  1  0  0  0  0
  8  9  1  0  0  0  0
  8 13  1  0  0  0  0
  8 40  1  0  0  0  0
  9 11  1  0  0  0  0
  9 18  1  0  0  0  0
  9 21  1  0  0  0  0
 10 16  1  0  0  0  0
 10 22  1  0  0  0  0
 10 41  1  0  0  0  0
 11 17  1  0  0  0  0
 11 19  1  0  0  0  0
 11 42  1  0  0  0  0
 12 13  1  0  0  0  0
 12 43  1  0  0  0  0
 12 44  1  0  0  0  0
 13 45  1  0  0  0  0
 13 46  1  0  0  0  0
 14 16  1  0  0  0  0
 14 47  1  0  0  0  0
 14 48  1  0  0  0  0
 15 17  1  0  0  0  0
 15 49  1  0  0  0  0
 15 50  1  0  0  0  0
 16 51  1  0  0  0  0
 16 52  1  0  0  0  0
 17 53  1  0  0  0  0
 17 54  1  0  0  0  0
 18 23  1  0  0  0  0
 18 55  1  0  0  0  0
 18 56  1  0  0  0  0
 19 24  1  0  0  0  0
 19 57  1  0  0  0  0
 19 58  1  0  0  0  0
 20 59  1  0  0  0  0
 20 60  1  0  0  0  0
 20 61  1  0  0  0  0
 21 62  1  0  0  0  0
 21 63  1  0  0  0  0
 21 64  1  0  0  0  0
 22 25  1  0  0  0  0
 22 65  1  0  0  0  0
 23 24  1  0  0  0  0
 23 66  1  0  0  0  0
 23 67  1  0  0  0  0
 24 68  1  0  0  0  0
 25 69  1  0  0  0  0
 25 70  1  0  0  0  0
 25 71  1  0  0  0  0
 26 32  1  0  0  0  0
 26 33  1  0  0  0  0
 26 34  1  0  0  0  0
 27 35  1  0  0  0  0
 27 36  1  0  0  0  0
 27 37  1  0  0  0  0
 28 72  1  0  0  0  0
 28 73  1  0  0  0  0
 28 74  1  0  0  0  0
 29 75  1  0  0  0  0
 29 76  1  0  0  0  0
 29 77  1  0  0  0  0
 30 78  1  0  0  0  0
 30 79  1  0  0  0  0
 30 80  1  0  0  0  0
 31 81  1  0  0  0  0
 31 82  1  0  0  0  0
 31 83  1  0  0  0  0
 32 84  1  0  0  0  0
 32 85  1  0  0  0  0
 32 86  1  0  0  0  0
 33 87  1  0  0  0  0
 33 88  1  0  0  0  0
 33 89  1  0  0  0  0
 34 90  1  0  0  0  0
 34 91  1  0  0  0  0
 34 92  1  0  0  0  0
 35 93  1  0  0  0  0
 35 94  1  0  0  0  0
 35 95  1  0  0  0  0
 36 96  1  0  0  0  0
 36 97  1  0  0  0  0
 36 98  1  0  0  0  0
 37 99  1  0  0  0  0
 37100  1  0  0  0  0
 37101  1  0  0  0  0
M  END
> <PUBCHEM_COMPOUND_CID>
524916
> <PUBCHEM_COMPOUND_CANONICALIZED>
1
> <PUBCHEM_CACTVS_COMPLEXITY>
823
> <PUBCHEM_CACTVS_HBOND_ACCEPTOR>
2
> <PUBCHEM_CACTVS_HBOND_DONOR>
0
> <PUBCHEM_CACTVS_ROTATABLE_BOND>
7
> <PUBCHEM_CACTVS_SUBSKEYS>
AAADcfB8MAwAAAAAAAAAAAAAAAAAAYAAAAAwYMAAAAAAAGDAAAAAGhAAAEAADxSgoAJCAAAAAAEAAAAAAAAAAAAAAAAAAAAAAAAAAAIAAAAAAAAEAAAAAAGAwPAPgAAAAAAAAADAAAYAACAAAQAACAAAAA==
> <PUBCHEM_IUPAC_OPENEYE_NAME>
tert-butyl-[1-[3-[tert-butyl(dimethyl)silyl]oxy-10,13-dimethyl-2,3,4,5,6,7,8,9,11,12,14,15,16,17-tetradecahydro-1H-cyclopenta[a]phenanthren-17-yl]ethoxy]-dimethyl-silane
> <PUBCHEM_IUPAC_CAS_NAME>
tert-butyl-[1-[3-[tert-butyl(dimethyl)silyl]oxy-10,13-dimethyl-2,3,4,5,6,7,8,9,11,12,14,15,16,17-tetradecahydro-1H-cyclopenta[a]phenanthren-17-yl]ethoxy]-dimethylsilane
> <PUBCHEM_IUPAC_NAME_MARKUP>
<I>tert</I>-butyl-[1-[3-[<I>tert</I>-butyl(dimethyl)silyl]oxy-10,13-dimethyl-2,3,4,5,6,7,8,9,11,12,14,15,16,17-tetradecahydro-1<I>H</I>-cyclopenta[a]phenanthren-17-yl]ethoxy]-dimethylsilane
> <PUBCHEM_IUPAC_NAME>
tert-butyl-[1-[3-[tert-butyl(dimethyl)silyl]oxy-10,13-dimethyl-2,3,4,5,6,7,8,9,11,12,14,15,16,17-tetradecahydro-1H-cyclopenta[a]phenanthren-17-yl]ethoxy]-dimethylsilane
> <PUBCHEM_IUPAC_SYSTEMATIC_NAME>
tert-butyl-[1-[3-[tert-butyl(dimethyl)silyl]oxy-10,13-dimethyl-2,3,4,5,6,7,8,9,11,12,14,15,16,17-tetradecahydro-1H-cyclopenta[a]phenanthren-17-yl]ethoxy]-dimethyl-silane
> <PUBCHEM_IUPAC_TRADITIONAL_NAME>
tert-butyl-[1-[3-[tert-butyl(dimethyl)silyl]oxy-10,13-dimethyl-2,3,4,5,6,7,8,9,11,12,14,15,16,17-tetradecahydro-1H-cyclopenta[a]phenanthren-17-yl]ethoxy]-dimethyl-silane
> <PUBCHEM_IUPAC_INCHI>
InChI=1S/C33H64O2Si2/c1-23(34-36(10,11)30(2,3)4)27-16-17-28-26-15-14-24-22-25(35-37(12,13)31(5,6)7)18-20-32(24,8)29(26)19-21-33(27,28)9/h23-29H,14-22H2,1-13H3
> <PUBCHEM_IUPAC_INCHIKEY>
AZNWUPOSQLFONK-UHFFFAOYSA-N
> <PUBCHEM_EXACT_MASS>
548.44448435
> <PUBCHEM_MOLECULAR_FORMULA>
C33H64O2Si2
> <PUBCHEM_MOLECULAR_WEIGHT>
549.0
> <PUBCHEM_OPENEYE_CAN_SMILES>
CC(C1CCC2C1(CCC3C2CCC4C3(CCC(C4)O[Si](C)(C)C(C)(C)C)C)C)O[Si](C)(C)C(C)(C)C
> <PUBCHEM_OPENEYE_ISO_SMILES>
CC(C1CCC2C1(CCC3C2CCC4C3(CCC(C4)O[Si](C)(C)C(C)(C)C)C)C)O[Si](C)(C)C(C)(C)C
> <PUBCHEM_CACTVS_TPSA>
18.5
> <PUBCHEM_MONOISOTOPIC_WEIGHT>
548.44448435
> <PUBCHEM_TOTAL_CHARGE>
0
> <PUBCHEM_HEAVY_ATOM_COUNT>
37
> <PUBCHEM_ATOM_DEF_STEREO_COUNT>
0
> <PUBCHEM_ATOM_UDEF_STEREO_COUNT>
9
> <PUBCHEM_BOND_DEF_STEREO_COUNT>
0
> <PUBCHEM_BOND_UDEF_STEREO_COUNT>
0
> <PUBCHEM_ISOTOPIC_ATOM_COUNT>
0
> <PUBCHEM_COMPONENT_COUNT>
1
> <PUBCHEM_CACTVS_TAUTO_COUNT>
-1
> <PUBCHEM_COORDINATE_TYPE>
1
5
255
> <PUBCHEM_BONDANNOTATIONS>
10  16  3
11  17  3
22  25  3
24  4  3
5  14  3
6  15  3
7  20  3
8  13  3
9  21  3
$$$$
