524935
  -OEChem-10302200292D
 63 66  0     1  0  0  0  0  0999 V2000
    2.8641   -1.4701    0.0000 Si  0  0  0  0  0  0  0  0  0  0  0  0
    3.7282   -1.9734    0.0000 O   0  0  0  0  0  0  0  0  0  0  0  0
   10.3781    2.3342    0.0000 O   0  0  0  0  0  0  0  0  0  0  0  0
    7.3892    0.0789    0.0000 C   0  0  3  0  0  0  0  0  0  0  0  0
    6.4792   -0.4279    0.0000 C   0  0  3  0  0  0  0  0  0  0  0  0
    8.2552   -0.4211    0.0000 C   0  0  3  0  0  0  0  0  0  0  0  0
    9.1213    0.0789    0.0000 C   0  0  3  0  0  0  0  0  0  0  0  0
    6.4712   -1.4695    0.0000 C   0  0  3  0  0  0  0  0  0  0  0  0
    9.1213    1.0789    0.0000 C   0  0  3  0  0  0  0  0  0  0  0  0
    7.3892    1.0789    0.0000 C   0  0  0  0  0  0  0  0  0  0  0  0
    8.2713   -1.4626    0.0000 C   0  0  0  0  0  0  0  0  0  0  0  0
    7.3733   -1.9903    0.0000 C   0  0  0  0  0  0  0  0  0  0  0  0
    8.2552    1.5789    0.0000 C   0  0  0  0  0  0  0  0  0  0  0  0
    5.5524    0.1362    0.0000 C   0  0  0  0  0  0  0  0  0  0  0  0
   10.0675   -0.2258    0.0000 C   0  0  0  0  0  0  0  0  0  0  0  0
    5.5358   -2.0192    0.0000 C   0  0  0  0  0  0  0  0  0  0  0  0
    6.4869    0.5720    0.0000 C   0  0  0  0  0  0  0  0  0  0  0  0
   10.0675    1.3836    0.0000 C   0  0  0  0  0  0  0  0  0  0  0  0
    4.6045   -0.3918    0.0000 C   0  0  0  0  0  0  0  0  0  0  0  0
    4.5961   -1.4768    0.0000 C   0  0  3  0  0  0  0  0  0  0  0  0
   10.6511    0.5789    0.0000 C   0  0  0  0  0  0  0  0  0  0  0  0
    9.1213    2.0789    0.0000 C   0  0  0  0  0  0  0  0  0  0  0  0
    2.0000   -0.9667    0.0000 C   0  0  0  0  0  0  0  0  0  0  0  0
    2.3608   -2.3342    0.0000 C   0  0  0  0  0  0  0  0  0  0  0  0
    3.3674   -0.6060    0.0000 C   0  0  0  0  0  0  0  0  0  0  0  0
    7.9262    0.3889    0.0000 H   0  0  0  0  0  0  0  0  0  0  0  0
    8.7945   -0.7269    0.0000 H   0  0  0  0  0  0  0  0  0  0  0  0
    9.1869   -0.5376    0.0000 H   0  0  0  0  0  0  0  0  0  0  0  0
    6.4736   -2.0895    0.0000 H   0  0  0  0  0  0  0  0  0  0  0  0
    7.1772    1.6615    0.0000 H   0  0  0  0  0  0  0  0  0  0  0  0
    6.7786    0.9713    0.0000 H   0  0  0  0  0  0  0  0  0  0  0  0
    8.4893   -2.0430    0.0000 H   0  0  0  0  0  0  0  0  0  0  0  0
    8.8804   -1.3471    0.0000 H   0  0  0  0  0  0  0  0  0  0  0  0
    6.9760   -2.4663    0.0000 H   0  0  0  0  0  0  0  0  0  0  0  0
    7.7742   -2.4632    0.0000 H   0  0  0  0  0  0  0  0  0  0  0  0
    8.6538    2.0539    0.0000 H   0  0  0  0  0  0  0  0  0  0  0  0
    7.8567    2.0539    0.0000 H   0  0  0  0  0  0  0  0  0  0  0  0
    5.9606    0.6028    0.0000 H   0  0  0  0  0  0  0  0  0  0  0  0
    5.1625    0.6182    0.0000 H   0  0  0  0  0  0  0  0  0  0  0  0
    9.8164   -0.7927    0.0000 H   0  0  0  0  0  0  0  0  0  0  0  0
   10.6049   -0.5350    0.0000 H   0  0  0  0  0  0  0  0  0  0  0  0
    5.1385   -2.4952    0.0000 H   0  0  0  0  0  0  0  0  0  0  0  0
    5.9367   -2.4922    0.0000 H   0  0  0  0  0  0  0  0  0  0  0  0
    7.1069    0.5673    0.0000 H   0  0  0  0  0  0  0  0  0  0  0  0
    6.4917    1.1920    0.0000 H   0  0  0  0  0  0  0  0  0  0  0  0
    5.8669    0.5768    0.0000 H   0  0  0  0  0  0  0  0  0  0  0  0
    4.3999    0.1935    0.0000 H   0  0  0  0  0  0  0  0  0  0  0  0
    3.9928   -0.4932    0.0000 H   0  0  0  0  0  0  0  0  0  0  0  0
    4.5949   -2.0968    0.0000 H   0  0  0  0  0  0  0  0  0  0  0  0
   11.1120    0.1642    0.0000 H   0  0  0  0  0  0  0  0  0  0  0  0
   11.1120    0.9936    0.0000 H   0  0  0  0  0  0  0  0  0  0  0  0
    9.7413    2.0789    0.0000 H   0  0  0  0  0  0  0  0  0  0  0  0
    9.1213    2.6989    0.0000 H   0  0  0  0  0  0  0  0  0  0  0  0
    8.5013    2.0789    0.0000 H   0  0  0  0  0  0  0  0  0  0  0  0
    2.3121   -0.4310    0.0000 H   0  0  0  0  0  0  0  0  0  0  0  0
    1.4643   -0.6547    0.0000 H   0  0  0  0  0  0  0  0  0  0  0  0
    1.6879   -1.5025    0.0000 H   0  0  0  0  0  0  0  0  0  0  0  0
    1.8250   -2.0221    0.0000 H   0  0  0  0  0  0  0  0  0  0  0  0
    2.0487   -2.8699    0.0000 H   0  0  0  0  0  0  0  0  0  0  0  0
    2.8965   -2.6462    0.0000 H   0  0  0  0  0  0  0  0  0  0  0  0
    3.9032   -0.9181    0.0000 H   0  0  0  0  0  0  0  0  0  0  0  0
    3.6795   -0.0703    0.0000 H   0  0  0  0  0  0  0  0  0  0  0  0
    2.8317   -0.2939    0.0000 H   0  0  0  0  0  0  0  0  0  0  0  0
  1  2  1  0  0  0  0
  1 23  1  0  0  0  0
  1 24  1  0  0  0  0
  1 25  1  0  0  0  0
  2 20  1  0  0  0  0
  3 18  2  0  0  0  0
  4  5  1  0  0  0  0
  4  6  1  0  0  0  0
  4 10  1  0  0  0  0
  4 26  1  0  0  0  0
  5  8  1  0  0  0  0
  5 14  1  0  0  0  0
  5 17  1  0  0  0  0
  6  7  1  0  0  0  0
  6 11  1  0  0  0  0
  6 27  1  0  0  0  0
  7  9  1  0  0  0  0
  7 15  1  0  0  0  0
  7 28  1  0  0  0  0
  8 12  1  0  0  0  0
  8 16  1  0  0  0  0
  8 29  1  0  0  0  0
  9 13  1  0  0  0  0
  9 18  1  0  0  0  0
  9 22  1  0  0  0  0
 10 13  1  0  0  0  0
 10 30  1  0  0  0  0
 10 31  1  0  0  0  0
 11 12  1  0  0  0  0
 11 32  1  0  0  0  0
 11 33  1  0  0  0  0
 12 34  1  0  0  0  0
 12 35  1  0  0  0  0
 13 36  1  0  0  0  0
 13 37  1  0  0  0  0
 14 19  1  0  0  0  0
 14 38  1  0  0  0  0
 14 39  1  0  0  0  0
 15 21  1  0  0  0  0
 15 40  1  0  0  0  0
 15 41  1  0  0  0  0
 16 20  1  0  0  0  0
 16 42  1  0  0  0  0
 16 43  1  0  0  0  0
 17 44  1  0  0  0  0
 17 45  1  0  0  0  0
 17 46  1  0  0  0  0
 18 21  1  0  0  0  0
 19 20  1  0  0  0  0
 19 47  1  0  0  0  0
 19 48  1  0  0  0  0
 20 49  1  0  0  0  0
 21 50  1  0  0  0  0
 21 51  1  0  0  0  0
 22 52  1  0  0  0  0
 22 53  1  0  0  0  0
 22 54  1  0  0  0  0
 23 55  1  0  0  0  0
 23 56  1  0  0  0  0
 23 57  1  0  0  0  0
 24 58  1  0  0  0  0
 24 59  1  0  0  0  0
 24 60  1  0  0  0  0
 25 61  1  0  0  0  0
 25 62  1  0  0  0  0
 25 63  1  0  0  0  0
M  END
> <PUBCHEM_COMPOUND_CID>
524935
> <PUBCHEM_COMPOUND_CANONICALIZED>
1
> <PUBCHEM_CACTVS_COMPLEXITY>
553
> <PUBCHEM_CACTVS_HBOND_ACCEPTOR>
2
> <PUBCHEM_CACTVS_HBOND_DONOR>
0
> <PUBCHEM_CACTVS_ROTATABLE_BOND>
2
> <PUBCHEM_CACTVS_SUBSKEYS>
AAADcfB4MAgAAAAAAAAAAAAAAAAAAYAAAAAwYMAAAAAAAGDAAAAAGhAAAEAADxSggAJCAAAAAAEIAIAQAAAAAAAAAAAAAAEAAAAAABIAAAAAAAAEAAAAAAGIyPCPgAAAAAAAAADAAAYAACAAAAAACAAAAA==
> <PUBCHEM_IUPAC_OPENEYE_NAME>
10,13-dimethyl-3-trimethylsilyloxy-1,2,3,4,5,6,7,8,9,11,12,14,15,16-tetradecahydrocyclopenta[a]phenanthren-17-one
> <PUBCHEM_IUPAC_CAS_NAME>
10,13-dimethyl-3-trimethylsilyloxy-1,2,3,4,5,6,7,8,9,11,12,14,15,16-tetradecahydrocyclopenta[a]phenanthren-17-one
> <PUBCHEM_IUPAC_NAME_MARKUP>
10,13-dimethyl-3-trimethylsilyloxy-1,2,3,4,5,6,7,8,9,11,12,14,15,16-tetradecahydrocyclopenta[a]phenanthren-17-one
> <PUBCHEM_IUPAC_NAME>
10,13-dimethyl-3-trimethylsilyloxy-1,2,3,4,5,6,7,8,9,11,12,14,15,16-tetradecahydrocyclopenta[a]phenanthren-17-one
> <PUBCHEM_IUPAC_SYSTEMATIC_NAME>
10,13-dimethyl-3-trimethylsilyloxy-1,2,3,4,5,6,7,8,9,11,12,14,15,16-tetradecahydrocyclopenta[a]phenanthren-17-one
> <PUBCHEM_IUPAC_TRADITIONAL_NAME>
10,13-dimethyl-3-trimethylsilyloxy-1,2,3,4,5,6,7,8,9,11,12,14,15,16-tetradecahydrocyclopenta[a]phenanthren-17-one
> <PUBCHEM_IUPAC_INCHI>
InChI=1S/C22H38O2Si/c1-21-12-10-16(24-25(3,4)5)14-15(21)6-7-17-18-8-9-20(23)22(18,2)13-11-19(17)21/h15-19H,6-14H2,1-5H3
> <PUBCHEM_IUPAC_INCHIKEY>
RKALSSDGCWGKHQ-UHFFFAOYSA-N
> <PUBCHEM_EXACT_MASS>
362.264106985
> <PUBCHEM_MOLECULAR_FORMULA>
C22H38O2Si
> <PUBCHEM_MOLECULAR_WEIGHT>
362.6
> <PUBCHEM_OPENEYE_CAN_SMILES>
CC12CCC(CC1CCC3C2CCC4(C3CCC4=O)C)O[Si](C)(C)C
> <PUBCHEM_OPENEYE_ISO_SMILES>
CC12CCC(CC1CCC3C2CCC4(C3CCC4=O)C)O[Si](C)(C)C
> <PUBCHEM_CACTVS_TPSA>
26.3
> <PUBCHEM_MONOISOTOPIC_WEIGHT>
362.264106985
> <PUBCHEM_TOTAL_CHARGE>
0
> <PUBCHEM_HEAVY_ATOM_COUNT>
25
> <PUBCHEM_ATOM_DEF_STEREO_COUNT>
0
> <PUBCHEM_ATOM_UDEF_STEREO_COUNT>
7
> <PUBCHEM_BOND_DEF_STEREO_COUNT>
0
> <PUBCHEM_BOND_UDEF_STEREO_COUNT>
0
> <PUBCHEM_ISOTOPIC_ATOM_COUNT>
0
> <PUBCHEM_COMPONENT_COUNT>
1
> <PUBCHEM_CACTVS_TAUTO_COUNT>
-1
> <PUBCHEM_COORDINATE_TYPE>
1
5
255
> <PUBCHEM_BONDANNOTATIONS>
20  2  3
4  10  3
5  17  3
6  11  3
7  15  3
8  12  3
9  22  3
$$$$
