524953
  -OEChem-10302200292D
 92 93  0     1  0  0  0  0  0999 V2000
    5.3085   -2.7172    0.0000 Si  0  0  0  0  0  0  0  0  0  0  0  0
    3.4863   -0.4037    0.0000 Si  0  0  0  0  0  0  0  0  0  0  0  0
    8.6596   -2.5081    0.0000 Si  0  0  0  0  0  0  0  0  0  0  0  0
    4.9017   -1.8036    0.0000 O   0  0  0  0  0  0  0  0  0  0  0  0
    6.7985   -0.0435    0.0000 O   0  0  0  0  0  0  0  0  0  0  0  0
    4.2294    0.2655    0.0000 O   0  0  0  0  0  0  0  0  0  0  0  0
    8.0718   -1.6991    0.0000 O   0  0  0  0  0  0  0  0  0  0  0  0
    7.7216    1.5442    0.0000 O   0  0  0  0  0  0  0  0  0  0  0  0
    5.9895    4.5442    0.0000 O   0  0  0  0  0  0  0  0  0  0  0  0
    5.9895    1.5442    0.0000 N   0  0  0  0  0  0  0  0  0  0  0  0
    6.8555    3.0442    0.0000 N   0  0  0  0  0  0  0  0  0  0  0  0
    5.4895   -0.9946    0.0000 C   0  0  3  0  0  0  0  0  0  0  0  0
    5.1805   -0.0435    0.0000 C   0  0  3  0  0  0  0  0  0  0  0  0
    6.4895   -0.9946    0.0000 C   0  0  3  0  0  0  0  0  0  0  0  0
    5.9895    0.5442    0.0000 C   0  0  3  0  0  0  0  0  0  0  0  0
    5.7152   -3.6307    0.0000 C   0  0  0  0  0  0  0  0  0  0  0  0
    2.7431   -1.0728    0.0000 C   0  0  0  0  0  0  0  0  0  0  0  0
    7.0773   -1.8036    0.0000 C   0  0  0  0  0  0  0  0  0  0  0  0
    9.2474   -3.3171    0.0000 C   0  0  0  0  0  0  0  0  0  0  0  0
    4.3949   -3.1239    0.0000 C   0  0  0  0  0  0  0  0  0  0  0  0
    6.2220   -2.3104    0.0000 C   0  0  0  0  0  0  0  0  0  0  0  0
    2.8172    0.3395    0.0000 C   0  0  0  0  0  0  0  0  0  0  0  0
    4.1554   -1.1468    0.0000 C   0  0  0  0  0  0  0  0  0  0  0  0
    6.1219   -4.5442    0.0000 C   0  0  0  0  0  0  0  0  0  0  0  0
    4.8017   -4.0374    0.0000 C   0  0  0  0  0  0  0  0  0  0  0  0
    6.6287   -3.2240    0.0000 C   0  0  0  0  0  0  0  0  0  0  0  0
    2.0000   -1.7419    0.0000 C   0  0  0  0  0  0  0  0  0  0  0  0
    2.0740   -0.3296    0.0000 C   0  0  0  0  0  0  0  0  0  0  0  0
    3.4123   -1.8159    0.0000 C   0  0  0  0  0  0  0  0  0  0  0  0
    9.4686   -1.9203    0.0000 C   0  0  0  0  0  0  0  0  0  0  0  0
    7.8506   -3.0959    0.0000 C   0  0  0  0  0  0  0  0  0  0  0  0
    6.8555    2.0442    0.0000 C   0  0  0  0  0  0  0  0  0  0  0  0
    5.1235    2.0442    0.0000 C   0  0  0  0  0  0  0  0  0  0  0  0
    9.8352   -4.1261    0.0000 C   0  0  0  0  0  0  0  0  0  0  0  0
   10.0564   -2.7293    0.0000 C   0  0  0  0  0  0  0  0  0  0  0  0
    8.4384   -3.9049    0.0000 C   0  0  0  0  0  0  0  0  0  0  0  0
    5.1235    3.0442    0.0000 C   0  0  0  0  0  0  0  0  0  0  0  0
    5.9895    3.5442    0.0000 C   0  0  0  0  0  0  0  0  0  0  0  0
    5.7710   -1.5470    0.0000 H   0  0  0  0  0  0  0  0  0  0  0  0
    4.7421   -0.4819    0.0000 H   0  0  0  0  0  0  0  0  0  0  0  0
    7.1019   -0.8976    0.0000 H   0  0  0  0  0  0  0  0  0  0  0  0
    6.5419    0.8257    0.0000 H   0  0  0  0  0  0  0  0  0  0  0  0
    6.5200   -2.0754    0.0000 H   0  0  0  0  0  0  0  0  0  0  0  0
    7.2482   -2.3996    0.0000 H   0  0  0  0  0  0  0  0  0  0  0  0
    4.1427   -2.5575    0.0000 H   0  0  0  0  0  0  0  0  0  0  0  0
    3.8285   -3.3761    0.0000 H   0  0  0  0  0  0  0  0  0  0  0  0
    4.6471   -3.6903    0.0000 H   0  0  0  0  0  0  0  0  0  0  0  0
    6.4742   -2.8768    0.0000 H   0  0  0  0  0  0  0  0  0  0  0  0
    6.7884   -2.0582    0.0000 H   0  0  0  0  0  0  0  0  0  0  0  0
    5.9698   -1.7440    0.0000 H   0  0  0  0  0  0  0  0  0  0  0  0
    3.2779    0.7544    0.0000 H   0  0  0  0  0  0  0  0  0  0  0  0
    2.4023    0.8002    0.0000 H   0  0  0  0  0  0  0  0  0  0  0  0
    2.3564   -0.0754    0.0000 H   0  0  0  0  0  0  0  0  0  0  0  0
    3.6947   -1.5617    0.0000 H   0  0  0  0  0  0  0  0  0  0  0  0
    4.5703   -1.6076    0.0000 H   0  0  0  0  0  0  0  0  0  0  0  0
    4.6162   -0.7319    0.0000 H   0  0  0  0  0  0  0  0  0  0  0  0
    5.5555   -4.7964    0.0000 H   0  0  0  0  0  0  0  0  0  0  0  0
    6.3741   -5.1106    0.0000 H   0  0  0  0  0  0  0  0  0  0  0  0
    6.6883   -4.2921    0.0000 H   0  0  0  0  0  0  0  0  0  0  0  0
    4.5495   -3.4710    0.0000 H   0  0  0  0  0  0  0  0  0  0  0  0
    4.2352   -4.2896    0.0000 H   0  0  0  0  0  0  0  0  0  0  0  0
    5.0538   -4.6038    0.0000 H   0  0  0  0  0  0  0  0  0  0  0  0
    6.8809   -3.7904    0.0000 H   0  0  0  0  0  0  0  0  0  0  0  0
    7.1951   -2.9718    0.0000 H   0  0  0  0  0  0  0  0  0  0  0  0
    6.3766   -2.6576    0.0000 H   0  0  0  0  0  0  0  0  0  0  0  0
    1.5851   -1.2812    0.0000 H   0  0  0  0  0  0  0  0  0  0  0  0
    1.5392   -2.1568    0.0000 H   0  0  0  0  0  0  0  0  0  0  0  0
    2.4149   -2.2027    0.0000 H   0  0  0  0  0  0  0  0  0  0  0  0
    2.5348    0.0852    0.0000 H   0  0  0  0  0  0  0  0  0  0  0  0
    1.6592    0.1311    0.0000 H   0  0  0  0  0  0  0  0  0  0  0  0
    1.6133   -0.7445    0.0000 H   0  0  0  0  0  0  0  0  0  0  0  0
    2.9515   -2.2308    0.0000 H   0  0  0  0  0  0  0  0  0  0  0  0
    3.8271   -2.2767    0.0000 H   0  0  0  0  0  0  0  0  0  0  0  0
    3.8730   -1.4011    0.0000 H   0  0  0  0  0  0  0  0  0  0  0  0
    9.8330   -2.4219    0.0000 H   0  0  0  0  0  0  0  0  0  0  0  0
    9.9702   -1.5559    0.0000 H   0  0  0  0  0  0  0  0  0  0  0  0
    9.1042   -1.4187    0.0000 H   0  0  0  0  0  0  0  0  0  0  0  0
    7.4862   -2.5943    0.0000 H   0  0  0  0  0  0  0  0  0  0  0  0
    7.3490   -3.4603    0.0000 H   0  0  0  0  0  0  0  0  0  0  0  0
    8.2150   -3.5975    0.0000 H   0  0  0  0  0  0  0  0  0  0  0  0
    4.5866    1.7342    0.0000 H   0  0  0  0  0  0  0  0  0  0  0  0
    9.3336   -4.4906    0.0000 H   0  0  0  0  0  0  0  0  0  0  0  0
   10.1996   -4.6277    0.0000 H   0  0  0  0  0  0  0  0  0  0  0  0
   10.3368   -3.7617    0.0000 H   0  0  0  0  0  0  0  0  0  0  0  0
   10.4208   -3.2309    0.0000 H   0  0  0  0  0  0  0  0  0  0  0  0
   10.5580   -2.3649    0.0000 H   0  0  0  0  0  0  0  0  0  0  0  0
    9.6920   -2.2277    0.0000 H   0  0  0  0  0  0  0  0  0  0  0  0
    8.0739   -3.4033    0.0000 H   0  0  0  0  0  0  0  0  0  0  0  0
    7.9368   -4.2693    0.0000 H   0  0  0  0  0  0  0  0  0  0  0  0
    8.8028   -4.4065    0.0000 H   0  0  0  0  0  0  0  0  0  0  0  0
    7.3925    3.3542    0.0000 H   0  0  0  0  0  0  0  0  0  0  0  0
    4.5866    3.3542    0.0000 H   0  0  0  0  0  0  0  0  0  0  0  0
  1  4  1  0  0  0  0
  1 16  1  0  0  0  0
  1 20  1  0  0  0  0
  1 21  1  0  0  0  0
  2  6  1  0  0  0  0
  2 17  1  0  0  0  0
  2 22  1  0  0  0  0
  2 23  1  0  0  0  0
  3  7  1  0  0  0  0
  3 19  1  0  0  0  0
  3 30  1  0  0  0  0
  3 31  1  0  0  0  0
  4 12  1  0  0  0  0
  5 14  1  0  0  0  0
  5 15  1  0  0  0  0
  6 13  1  0  0  0  0
  7 18  1  0  0  0  0
  8 32  2  0  0  0  0
  9 38  2  0  0  0  0
 10 15  1  0  0  0  0
 10 32  1  0  0  0  0
 10 33  1  0  0  0  0
 11 32  1  0  0  0  0
 11 38  1  0  0  0  0
 11 91  1  0  0  0  0
 12 13  1  0  0  0  0
 12 14  1  0  0  0  0
 12 39  1  0  0  0  0
 13 15  1  0  0  0  0
 13 40  1  0  0  0  0
 14 18  1  0  0  0  0
 14 41  1  0  0  0  0
 15 42  1  0  0  0  0
 16 24  1  0  0  0  0
 16 25  1  0  0  0  0
 16 26  1  0  0  0  0
 17 27  1  0  0  0  0
 17 28  1  0  0  0  0
 17 29  1  0  0  0  0
 18 43  1  0  0  0  0
 18 44  1  0  0  0  0
 19 34  1  0  0  0  0
 19 35  1  0  0  0  0
 19 36  1  0  0  0  0
 20 45  1  0  0  0  0
 20 46  1  0  0  0  0
 20 47  1  0  0  0  0
 21 48  1  0  0  0  0
 21 49  1  0  0  0  0
 21 50  1  0  0  0  0
 22 51  1  0  0  0  0
 22 52  1  0  0  0  0
 22 53  1  0  0  0  0
 23 54  1  0  0  0  0
 23 55  1  0  0  0  0
 23 56  1  0  0  0  0
 24 57  1  0  0  0  0
 24 58  1  0  0  0  0
 24 59  1  0  0  0  0
 25 60  1  0  0  0  0
 25 61  1  0  0  0  0
 25 62  1  0  0  0  0
 26 63  1  0  0  0  0
 26 64  1  0  0  0  0
 26 65  1  0  0  0  0
 27 66  1  0  0  0  0
 27 67  1  0  0  0  0
 27 68  1  0  0  0  0
 28 69  1  0  0  0  0
 28 70  1  0  0  0  0
 28 71  1  0  0  0  0
 29 72  1  0  0  0  0
 29 73  1  0  0  0  0
 29 74  1  0  0  0  0
 30 75  1  0  0  0  0
 30 76  1  0  0  0  0
 30 77  1  0  0  0  0
 31 78  1  0  0  0  0
 31 79  1  0  0  0  0
 31 80  1  0  0  0  0
 33 37  2  0  0  0  0
 33 81  1  0  0  0  0
 34 82  1  0  0  0  0
 34 83  1  0  0  0  0
 34 84  1  0  0  0  0
 35 85  1  0  0  0  0
 35 86  1  0  0  0  0
 35 87  1  0  0  0  0
 36 88  1  0  0  0  0
 36 89  1  0  0  0  0
 36 90  1  0  0  0  0
 37 38  1  0  0  0  0
 37 92  1  0  0  0  0
M  END
> <PUBCHEM_COMPOUND_CID>
524953
> <PUBCHEM_COMPOUND_CANONICALIZED>
1
> <PUBCHEM_CACTVS_COMPLEXITY>
915
> <PUBCHEM_CACTVS_HBOND_ACCEPTOR>
6
> <PUBCHEM_CACTVS_HBOND_DONOR>
1
> <PUBCHEM_CACTVS_ROTATABLE_BOND>
11
> <PUBCHEM_CACTVS_SUBSKEYS>
AAADcfB7OAwAAAAAAAAAAAAAAAAAASAAAAAgAAAAAAAAAAAAAAAAHhAQAEAADBThoAZDAAPABAGIACFWUACAAAAAAgAIAAAIAECDAAIAgAAOAAAPFyISAMDwMAIAAAAAAAAAAAAAAAAAAAAAAAAAAAAAAA==
> <PUBCHEM_IUPAC_OPENEYE_NAME>
1-[3,4-bis[[tert-butyl(dimethyl)silyl]oxy]-5-[[tert-butyl(dimethyl)silyl]oxymethyl]tetrahydrofuran-2-yl]pyrimidine-2,4-dione
> <PUBCHEM_IUPAC_CAS_NAME>
1-[3,4-bis[[tert-butyl(dimethyl)silyl]oxy]-5-[[tert-butyl(dimethyl)silyl]oxymethyl]-2-oxolanyl]pyrimidine-2,4-dione
> <PUBCHEM_IUPAC_NAME_MARKUP>
1-[3,4-bis[[<I>tert</I>-butyl(dimethyl)silyl]oxy]-5-[[<I>tert</I>-butyl(dimethyl)silyl]oxymethyl]oxolan-2-yl]pyrimidine-2,4-dione
> <PUBCHEM_IUPAC_NAME>
1-[3,4-bis[[tert-butyl(dimethyl)silyl]oxy]-5-[[tert-butyl(dimethyl)silyl]oxymethyl]oxolan-2-yl]pyrimidine-2,4-dione
> <PUBCHEM_IUPAC_SYSTEMATIC_NAME>
1-[3,4-bis[[tert-butyl(dimethyl)silyl]oxy]-5-[[tert-butyl(dimethyl)silyl]oxymethyl]oxolan-2-yl]pyrimidine-2,4-dione
> <PUBCHEM_IUPAC_TRADITIONAL_NAME>
1-[3,4-bis[[tert-butyl(dimethyl)silyl]oxy]-5-[[tert-butyl(dimethyl)silyl]oxymethyl]tetrahydrofuran-2-yl]pyrimidine-2,4-quinone
> <PUBCHEM_IUPAC_INCHI>
InChI=1S/C27H54N2O6Si3/c1-25(2,3)36(10,11)32-18-19-21(34-37(12,13)26(4,5)6)22(35-38(14,15)27(7,8)9)23(33-19)29-17-16-20(30)28-24(29)31/h16-17,19,21-23H,18H2,1-15H3,(H,28,30,31)
> <PUBCHEM_IUPAC_INCHIKEY>
ZLBNLKHALKSZGU-UHFFFAOYSA-N
> <PUBCHEM_EXACT_MASS>
586.32896705
> <PUBCHEM_MOLECULAR_FORMULA>
C27H54N2O6Si3
> <PUBCHEM_MOLECULAR_WEIGHT>
587.0
> <PUBCHEM_OPENEYE_CAN_SMILES>
CC(C)(C)[Si](C)(C)OCC1C(C(C(O1)N2C=CC(=O)NC2=O)O[Si](C)(C)C(C)(C)C)O[Si](C)(C)C(C)(C)C
> <PUBCHEM_OPENEYE_ISO_SMILES>
CC(C)(C)[Si](C)(C)OCC1C(C(C(O1)N2C=CC(=O)NC2=O)O[Si](C)(C)C(C)(C)C)O[Si](C)(C)C(C)(C)C
> <PUBCHEM_CACTVS_TPSA>
86.3
> <PUBCHEM_MONOISOTOPIC_WEIGHT>
586.32896705
> <PUBCHEM_TOTAL_CHARGE>
0
> <PUBCHEM_HEAVY_ATOM_COUNT>
38
> <PUBCHEM_ATOM_DEF_STEREO_COUNT>
0
> <PUBCHEM_ATOM_UDEF_STEREO_COUNT>
4
> <PUBCHEM_BOND_DEF_STEREO_COUNT>
0
> <PUBCHEM_BOND_UDEF_STEREO_COUNT>
0
> <PUBCHEM_ISOTOPIC_ATOM_COUNT>
0
> <PUBCHEM_COMPONENT_COUNT>
1
> <PUBCHEM_CACTVS_TAUTO_COUNT>
-1
> <PUBCHEM_COORDINATE_TYPE>
1
5
255
> <PUBCHEM_BONDANNOTATIONS>
15  10  3
10  32  8
10  33  8
11  32  8
11  38  8
14  18  3
33  37  8
37  38  8
12  4  3
13  6  3
$$$$
