524985
  -OEChem-10302200292D
 42 43  0     1  0  0  0  0  0999 V2000
    4.9898   -0.8621    0.0000 Si  0  0  0  0  0  0  0  0  0  0  0  0
    3.7687   -1.7278    0.0000 O   0  0  0  0  0  0  0  0  0  0  0  0
    6.2614   -1.6567    0.0000 O   0  0  0  0  0  0  0  0  0  0  0  0
    3.7688    0.7556    0.0000 O   0  0  0  0  0  0  0  0  0  0  0  0
    5.2486    0.1038    0.0000 N   0  0  0  0  0  0  0  0  0  0  0  0
    3.2153   -0.2073    0.0000 C   0  0  0  0  0  0  0  0  0  0  0  0
    6.6802   -0.0938    0.0000 C   0  0  0  0  0  0  0  0  0  0  0  0
    5.1701    1.5646    0.0000 C   0  0  0  0  0  0  0  0  0  0  0  0
    2.9397   -1.1686    0.0000 C   0  0  3  0  0  0  0  0  0  0  0  0
    7.0386   -1.0274    0.0000 C   0  0  3  0  0  0  0  0  0  0  0  0
    4.1756    1.6691    0.0000 C   0  0  3  0  0  0  0  0  0  0  0  0
    4.7309   -1.8280    0.0000 C   0  0  0  0  0  0  0  0  0  0  0  0
    2.0000   -1.5106    0.0000 C   0  0  0  0  0  0  0  0  0  0  0  0
    8.0045   -1.2862    0.0000 C   0  0  0  0  0  0  0  0  0  0  0  0
    3.6756    2.5351    0.0000 C   0  0  0  0  0  0  0  0  0  0  0  0
    5.4380   -2.5351    0.0000 C   0  0  0  0  0  0  0  0  0  0  0  0
    4.0238   -2.5351    0.0000 C   0  0  0  0  0  0  0  0  0  0  0  0
    3.2103    0.4127    0.0000 H   0  0  0  0  0  0  0  0  0  0  0  0
    2.6010   -0.1235    0.0000 H   0  0  0  0  0  0  0  0  0  0  0  0
    7.2880    0.0285    0.0000 H   0  0  0  0  0  0  0  0  0  0  0  0
    6.6612    0.5259    0.0000 H   0  0  0  0  0  0  0  0  0  0  0  0
    5.7901    1.5651    0.0000 H   0  0  0  0  0  0  0  0  0  0  0  0
    5.2022    2.1838    0.0000 H   0  0  0  0  0  0  0  0  0  0  0  0
    2.8641   -1.7840    0.0000 H   0  0  0  0  0  0  0  0  0  0  0  0
    7.1675   -1.6339    0.0000 H   0  0  0  0  0  0  0  0  0  0  0  0
    3.5564    1.6367    0.0000 H   0  0  0  0  0  0  0  0  0  0  0  0
    4.1940   -1.5180    0.0000 H   0  0  0  0  0  0  0  0  0  0  0  0
    1.7880   -0.9280    0.0000 H   0  0  0  0  0  0  0  0  0  0  0  0
    1.4174   -1.7226    0.0000 H   0  0  0  0  0  0  0  0  0  0  0  0
    2.2120   -2.0932    0.0000 H   0  0  0  0  0  0  0  0  0  0  0  0
    7.8440   -1.8851    0.0000 H   0  0  0  0  0  0  0  0  0  0  0  0
    8.6034   -1.4467    0.0000 H   0  0  0  0  0  0  0  0  0  0  0  0
    8.1650   -0.6874    0.0000 H   0  0  0  0  0  0  0  0  0  0  0  0
    4.2125    2.8451    0.0000 H   0  0  0  0  0  0  0  0  0  0  0  0
    3.3656    3.0721    0.0000 H   0  0  0  0  0  0  0  0  0  0  0  0
    3.1386    2.2251    0.0000 H   0  0  0  0  0  0  0  0  0  0  0  0
    4.9996   -2.9735    0.0000 H   0  0  0  0  0  0  0  0  0  0  0  0
    5.8764   -2.9735    0.0000 H   0  0  0  0  0  0  0  0  0  0  0  0
    5.8764   -2.0967    0.0000 H   0  0  0  0  0  0  0  0  0  0  0  0
    3.5854   -2.0966    0.0000 H   0  0  0  0  0  0  0  0  0  0  0  0
    3.5853   -2.9735    0.0000 H   0  0  0  0  0  0  0  0  0  0  0  0
    4.4622   -2.9735    0.0000 H   0  0  0  0  0  0  0  0  0  0  0  0
  1  2  1  0  0  0  0
  1  3  1  0  0  0  0
  1  4  1  0  0  0  0
  1 12  1  0  0  0  0
  2  9  1  0  0  0  0
  3 10  1  0  0  0  0
  4 11  1  0  0  0  0
  5  6  1  0  0  0  0
  5  7  1  0  0  0  0
  5  8  1  0  0  0  0
  6  9  1  0  0  0  0
  6 18  1  0  0  0  0
  6 19  1  0  0  0  0
  7 10  1  0  0  0  0
  7 20  1  0  0  0  0
  7 21  1  0  0  0  0
  8 11  1  0  0  0  0
  8 22  1  0  0  0  0
  8 23  1  0  0  0  0
  9 13  1  0  0  0  0
  9 24  1  0  0  0  0
 10 14  1  0  0  0  0
 10 25  1  0  0  0  0
 11 15  1  0  0  0  0
 11 26  1  0  0  0  0
 12 16  1  0  0  0  0
 12 17  1  0  0  0  0
 12 27  1  0  0  0  0
 13 28  1  0  0  0  0
 13 29  1  0  0  0  0
 13 30  1  0  0  0  0
 14 31  1  0  0  0  0
 14 32  1  0  0  0  0
 14 33  1  0  0  0  0
 15 34  1  0  0  0  0
 15 35  1  0  0  0  0
 15 36  1  0  0  0  0
 16 37  1  0  0  0  0
 16 38  1  0  0  0  0
 16 39  1  0  0  0  0
 17 40  1  0  0  0  0
 17 41  1  0  0  0  0
 17 42  1  0  0  0  0
M  END
> <PUBCHEM_COMPOUND_CID>
524985
> <PUBCHEM_COMPOUND_CANONICALIZED>
1
> <PUBCHEM_CACTVS_COMPLEXITY>
238
> <PUBCHEM_CACTVS_HBOND_ACCEPTOR>
4
> <PUBCHEM_CACTVS_HBOND_DONOR>
0
> <PUBCHEM_CACTVS_ROTATABLE_BOND>
1
> <PUBCHEM_CACTVS_SUBSKEYS>
AAADceByMAgAAAAAAAAAAAAAAAAAAAAAAAAAAAAAAAAWLAAAAAAAHhAAAEAACBThoAZCAAMAAAAAAAAAAAAAAAAAAAAAAAAIAAACAAAAAAAEAAAAAACQAAAAAAAAAAAAAAAAAAAAAAAAAAAAAAAAAAAAAA==
> <PUBCHEM_IUPAC_OPENEYE_NAME>
1-isopropyl-3,7,10-trimethyl-2,8,9-trioxa-5-aza-1-silabicyclo[3.3.3]undecane
> <PUBCHEM_IUPAC_CAS_NAME>
3,7,10-trimethyl-1-propan-2-yl-2,8,9-trioxa-5-aza-1-silabicyclo[3.3.3]undecane
> <PUBCHEM_IUPAC_NAME_MARKUP>
3,7,10-trimethyl-1-propan-2-yl-2,8,9-trioxa-5-aza-1-silabicyclo[3.3.3]undecane
> <PUBCHEM_IUPAC_NAME>
3,7,10-trimethyl-1-propan-2-yl-2,8,9-trioxa-5-aza-1-silabicyclo[3.3.3]undecane
> <PUBCHEM_IUPAC_SYSTEMATIC_NAME>
3,7,10-trimethyl-1-propan-2-yl-2,8,9-trioxa-5-aza-1-silabicyclo[3.3.3]undecane
> <PUBCHEM_IUPAC_TRADITIONAL_NAME>
1-isopropyl-3,7,10-trimethyl-2,8,9-trioxa-5-aza-1-silabicyclo[3.3.3]undecane
> <PUBCHEM_IUPAC_INCHI>
InChI=1S/C12H25NO3Si/c1-9(2)17-14-10(3)6-13(7-11(4)15-17)8-12(5)16-17/h9-12H,6-8H2,1-5H3
> <PUBCHEM_IUPAC_INCHIKEY>
MFNQPKFQWOSBLY-UHFFFAOYSA-N
> <PUBCHEM_EXACT_MASS>
259.16037019
> <PUBCHEM_MOLECULAR_FORMULA>
C12H25NO3Si
> <PUBCHEM_MOLECULAR_WEIGHT>
259.42
> <PUBCHEM_OPENEYE_CAN_SMILES>
CC1CN2CC(O[Si](O1)(OC(C2)C)C(C)C)C
> <PUBCHEM_OPENEYE_ISO_SMILES>
CC1CN2CC(O[Si](O1)(OC(C2)C)C(C)C)C
> <PUBCHEM_CACTVS_TPSA>
30.9
> <PUBCHEM_MONOISOTOPIC_WEIGHT>
259.16037019
> <PUBCHEM_TOTAL_CHARGE>
0
> <PUBCHEM_HEAVY_ATOM_COUNT>
17
> <PUBCHEM_ATOM_DEF_STEREO_COUNT>
0
> <PUBCHEM_ATOM_UDEF_STEREO_COUNT>
3
> <PUBCHEM_BOND_DEF_STEREO_COUNT>
0
> <PUBCHEM_BOND_UDEF_STEREO_COUNT>
0
> <PUBCHEM_ISOTOPIC_ATOM_COUNT>
0
> <PUBCHEM_COMPONENT_COUNT>
1
> <PUBCHEM_CACTVS_TAUTO_COUNT>
-1
> <PUBCHEM_COORDINATE_TYPE>
1
5
255
> <PUBCHEM_BONDANNOTATIONS>
10  14  3
11  15  3
9  13  3
$$$$
