524997
  -OEChem-10302200292D
 40 41  0     1  0  0  0  0  0999 V2000
    4.9898   -0.8481    0.0000 Si  0  0  0  0  0  0  0  0  0  0  0  0
    3.7688    0.7695    0.0000 O   0  0  0  0  0  0  0  0  0  0  0  0
    6.2614   -1.6428    0.0000 O   0  0  0  0  0  0  0  0  0  0  0  0
    3.7687   -1.7138    0.0000 O   0  0  0  0  0  0  0  0  0  0  0  0
    5.2486    0.1178    0.0000 N   0  0  0  0  0  0  0  0  0  0  0  0
    5.1701    1.5785    0.0000 C   0  0  0  0  0  0  0  0  0  0  0  0
    6.6802   -0.0799    0.0000 C   0  0  0  0  0  0  0  0  0  0  0  0
    3.2153   -0.1934    0.0000 C   0  0  0  0  0  0  0  0  0  0  0  0
    4.1756    1.6831    0.0000 C   0  0  0  0  0  0  0  0  0  0  0  0
    7.0386   -1.0135    0.0000 C   0  0  3  0  0  0  0  0  0  0  0  0
    2.9397   -1.1546    0.0000 C   0  0  3  0  0  0  0  0  0  0  0  0
    5.5039    2.5212    0.0000 C   0  0  0  0  0  0  0  0  0  0  0  0
    6.0727    2.0090    0.0000 C   0  0  0  0  0  0  0  0  0  0  0  0
    8.0045   -1.2723    0.0000 C   0  0  0  0  0  0  0  0  0  0  0  0
    2.0000   -1.4966    0.0000 C   0  0  0  0  0  0  0  0  0  0  0  0
    4.7309   -1.8141    0.0000 C   0  0  0  0  0  0  0  0  0  0  0  0
    5.4380   -2.5212    0.0000 C   0  0  0  0  0  0  0  0  0  0  0  0
    7.2880    0.0424    0.0000 H   0  0  0  0  0  0  0  0  0  0  0  0
    6.6612    0.5398    0.0000 H   0  0  0  0  0  0  0  0  0  0  0  0
    3.2103    0.4266    0.0000 H   0  0  0  0  0  0  0  0  0  0  0  0
    2.6010   -0.1096    0.0000 H   0  0  0  0  0  0  0  0  0  0  0  0
    4.3045    2.2895    0.0000 H   0  0  0  0  0  0  0  0  0  0  0  0
    3.5859    1.8747    0.0000 H   0  0  0  0  0  0  0  0  0  0  0  0
    7.1675   -1.6199    0.0000 H   0  0  0  0  0  0  0  0  0  0  0  0
    2.8641   -1.7700    0.0000 H   0  0  0  0  0  0  0  0  0  0  0  0
    6.0883    2.3142    0.0000 H   0  0  0  0  0  0  0  0  0  0  0  0
    5.7108    3.1056    0.0000 H   0  0  0  0  0  0  0  0  0  0  0  0
    4.9194    2.7281    0.0000 H   0  0  0  0  0  0  0  0  0  0  0  0
    6.3396    1.4494    0.0000 H   0  0  0  0  0  0  0  0  0  0  0  0
    6.6323    2.2760    0.0000 H   0  0  0  0  0  0  0  0  0  0  0  0
    5.8057    2.5686    0.0000 H   0  0  0  0  0  0  0  0  0  0  0  0
    7.8440   -1.8712    0.0000 H   0  0  0  0  0  0  0  0  0  0  0  0
    8.6034   -1.4328    0.0000 H   0  0  0  0  0  0  0  0  0  0  0  0
    8.1650   -0.6734    0.0000 H   0  0  0  0  0  0  0  0  0  0  0  0
    1.7880   -0.9140    0.0000 H   0  0  0  0  0  0  0  0  0  0  0  0
    1.4174   -1.7087    0.0000 H   0  0  0  0  0  0  0  0  0  0  0  0
    2.2120   -2.0792    0.0000 H   0  0  0  0  0  0  0  0  0  0  0  0
    4.1321   -1.9745    0.0000 H   0  0  0  0  0  0  0  0  0  0  0  0
    5.2776   -3.1200    0.0000 H   0  0  0  0  0  0  0  0  0  0  0  0
    6.0369   -2.3607    0.0000 H   0  0  0  0  0  0  0  0  0  0  0  0
  1  2  1  0  0  0  0
  1  3  1  0  0  0  0
  1  4  1  0  0  0  0
  1 16  1  0  0  0  0
  2  9  1  0  0  0  0
  3 10  1  0  0  0  0
  4 11  1  0  0  0  0
  5  6  1  0  0  0  0
  5  7  1  0  0  0  0
  5  8  1  0  0  0  0
  6  9  1  0  0  0  0
  6 12  1  0  0  0  0
  6 13  1  0  0  0  0
  7 10  1  0  0  0  0
  7 18  1  0  0  0  0
  7 19  1  0  0  0  0
  8 11  1  0  0  0  0
  8 20  1  0  0  0  0
  8 21  1  0  0  0  0
  9 22  1  0  0  0  0
  9 23  1  0  0  0  0
 10 14  1  0  0  0  0
 10 24  1  0  0  0  0
 11 15  1  0  0  0  0
 11 25  1  0  0  0  0
 12 26  1  0  0  0  0
 12 27  1  0  0  0  0
 12 28  1  0  0  0  0
 13 29  1  0  0  0  0
 13 30  1  0  0  0  0
 13 31  1  0  0  0  0
 14 32  1  0  0  0  0
 14 33  1  0  0  0  0
 14 34  1  0  0  0  0
 15 35  1  0  0  0  0
 15 36  1  0  0  0  0
 15 37  1  0  0  0  0
 16 17  2  0  0  0  0
 16 38  1  0  0  0  0
 17 39  1  0  0  0  0
 17 40  1  0  0  0  0
M  END
> <PUBCHEM_COMPOUND_CID>
524997
> <PUBCHEM_COMPOUND_CANONICALIZED>
1
> <PUBCHEM_CACTVS_COMPLEXITY>
294
> <PUBCHEM_CACTVS_HBOND_ACCEPTOR>
4
> <PUBCHEM_CACTVS_HBOND_DONOR>
0
> <PUBCHEM_CACTVS_ROTATABLE_BOND>
1
> <PUBCHEM_CACTVS_SUBSKEYS>
AAADceByMAgAAAAAAAAAAAAAAAAAAAAAAAAAAAAAAAAWLAAAAAAAHhAAAEAADJzhoAZCAAMAAACAAAACAAAAAAAAAAAIAAAIAAACAAAAAAAEAAAAAACQAAAAAAAAAAAAAAAAAAAAAAAAAAAAAAAAAAAAAA==
> <PUBCHEM_IUPAC_OPENEYE_NAME>
3,6,6,10-tetramethyl-1-vinyl-2,8,9-trioxa-5-aza-1-silabicyclo[3.3.3]undecane
> <PUBCHEM_IUPAC_CAS_NAME>
1-ethenyl-3,6,6,10-tetramethyl-2,8,9-trioxa-5-aza-1-silabicyclo[3.3.3]undecane
> <PUBCHEM_IUPAC_NAME_MARKUP>
1-ethenyl-3,6,6,10-tetramethyl-2,8,9-trioxa-5-aza-1-silabicyclo[3.3.3]undecane
> <PUBCHEM_IUPAC_NAME>
1-ethenyl-3,6,6,10-tetramethyl-2,8,9-trioxa-5-aza-1-silabicyclo[3.3.3]undecane
> <PUBCHEM_IUPAC_SYSTEMATIC_NAME>
1-ethenyl-3,6,6,10-tetramethyl-2,8,9-trioxa-5-aza-1-silabicyclo[3.3.3]undecane
> <PUBCHEM_IUPAC_TRADITIONAL_NAME>
3,6,6,10-tetramethyl-1-vinyl-2,8,9-trioxa-5-aza-1-silabicyclo[3.3.3]undecane
> <PUBCHEM_IUPAC_INCHI>
InChI=1S/C12H23NO3Si/c1-6-17-14-9-12(4,5)13(7-10(2)15-17)8-11(3)16-17/h6,10-11H,1,7-9H2,2-5H3
> <PUBCHEM_IUPAC_INCHIKEY>
LHBFPZQOKPKWES-UHFFFAOYSA-N
> <PUBCHEM_EXACT_MASS>
257.14472013
> <PUBCHEM_MOLECULAR_FORMULA>
C12H23NO3Si
> <PUBCHEM_MOLECULAR_WEIGHT>
257.40
> <PUBCHEM_OPENEYE_CAN_SMILES>
CC1CN2CC(O[Si](O1)(OCC2(C)C)C=C)C
> <PUBCHEM_OPENEYE_ISO_SMILES>
CC1CN2CC(O[Si](O1)(OCC2(C)C)C=C)C
> <PUBCHEM_CACTVS_TPSA>
30.9
> <PUBCHEM_MONOISOTOPIC_WEIGHT>
257.14472013
> <PUBCHEM_TOTAL_CHARGE>
0
> <PUBCHEM_HEAVY_ATOM_COUNT>
17
> <PUBCHEM_ATOM_DEF_STEREO_COUNT>
0
> <PUBCHEM_ATOM_UDEF_STEREO_COUNT>
2
> <PUBCHEM_BOND_DEF_STEREO_COUNT>
0
> <PUBCHEM_BOND_UDEF_STEREO_COUNT>
0
> <PUBCHEM_ISOTOPIC_ATOM_COUNT>
0
> <PUBCHEM_COMPONENT_COUNT>
1
> <PUBCHEM_CACTVS_TAUTO_COUNT>
-1
> <PUBCHEM_COORDINATE_TYPE>
1
5
255
> <PUBCHEM_BONDANNOTATIONS>
10  14  3
11  15  3
$$$$
