524926
  -OEChem-10302200292D
 91 94  0     1  0  0  0  0  0999 V2000
   12.2207    1.8449    0.0000 Si  0  0  0  0  0  0  0  0  0  0  0  0
    3.7282   -2.1656    0.0000 Si  0  0  0  0  0  0  0  0  0  0  0  0
   11.2422    1.6387    0.0000 O   0  0  0  0  0  0  0  0  0  0  0  0
    4.5923   -2.6689    0.0000 O   0  0  0  0  0  0  0  0  0  0  0  0
    9.9854    0.3834    0.0000 C   0  0  3  0  0  0  0  0  0  0  0  0
    9.9854   -0.6166    0.0000 C   0  0  3  0  0  0  0  0  0  0  0  0
    9.1193   -1.1166    0.0000 C   0  0  3  0  0  0  0  0  0  0  0  0
    8.2533   -0.6166    0.0000 C   0  0  3  0  0  0  0  0  0  0  0  0
   10.9316    0.6882    0.0000 C   0  0  3  0  0  0  0  0  0  0  0  0
    9.1193    0.8834    0.0000 C   0  0  0  0  0  0  0  0  0  0  0  0
    7.3433   -1.1234    0.0000 C   0  0  3  0  0  0  0  0  0  0  0  0
    8.2533    0.3834    0.0000 C   0  0  0  0  0  0  0  0  0  0  0  0
   10.9316   -0.9213    0.0000 C   0  0  0  0  0  0  0  0  0  0  0  0
   11.5152   -0.1166    0.0000 C   0  0  0  0  0  0  0  0  0  0  0  0
    9.1354   -2.1581    0.0000 C   0  0  0  0  0  0  0  0  0  0  0  0
    9.9854    1.3834    0.0000 C   0  0  0  0  0  0  0  0  0  0  0  0
    7.3353   -2.1650    0.0000 C   0  0  0  0  0  0  0  0  0  0  0  0
    6.4165   -0.5593    0.0000 C   0  0  0  0  0  0  0  0  0  0  0  0
    8.2374   -2.6858    0.0000 C   0  0  0  0  0  0  0  0  0  0  0  0
    7.3510   -0.1234    0.0000 C   0  0  0  0  0  0  0  0  0  0  0  0
    5.4686   -1.0873    0.0000 C   0  0  0  0  0  0  0  0  0  0  0  0
    6.3998   -2.7147    0.0000 C   0  0  0  0  0  0  0  0  0  0  0  0
    5.4602   -2.1722    0.0000 C   0  0  0  0  0  0  0  0  0  0  0  0
   13.1993    2.0511    0.0000 C   0  0  0  0  0  0  0  0  0  0  0  0
   12.0145    2.8234    0.0000 C   0  0  0  0  0  0  0  0  0  0  0  0
   12.4270    0.8664    0.0000 C   0  0  0  0  0  0  0  0  0  0  0  0
   14.1778    2.2574    0.0000 C   0  0  0  0  0  0  0  0  0  0  0  0
   12.9930    3.0296    0.0000 C   0  0  0  0  0  0  0  0  0  0  0  0
   13.4055    1.0726    0.0000 C   0  0  0  0  0  0  0  0  0  0  0  0
    2.8641   -1.6622    0.0000 C   0  0  0  0  0  0  0  0  0  0  0  0
    3.2248   -3.0296    0.0000 C   0  0  0  0  0  0  0  0  0  0  0  0
    4.2315   -1.3015    0.0000 C   0  0  0  0  0  0  0  0  0  0  0  0
    2.0000   -1.1589    0.0000 C   0  0  0  0  0  0  0  0  0  0  0  0
    2.3608   -2.5263    0.0000 C   0  0  0  0  0  0  0  0  0  0  0  0
    3.3674   -0.7981    0.0000 C   0  0  0  0  0  0  0  0  0  0  0  0
   10.0510   -1.2331    0.0000 H   0  0  0  0  0  0  0  0  0  0  0  0
    9.6586   -1.4224    0.0000 H   0  0  0  0  0  0  0  0  0  0  0  0
    8.7902   -0.3066    0.0000 H   0  0  0  0  0  0  0  0  0  0  0  0
   11.5441    0.7844    0.0000 H   0  0  0  0  0  0  0  0  0  0  0  0
    9.5179    1.3584    0.0000 H   0  0  0  0  0  0  0  0  0  0  0  0
    8.7208    1.3584    0.0000 H   0  0  0  0  0  0  0  0  0  0  0  0
    8.0413    0.9661    0.0000 H   0  0  0  0  0  0  0  0  0  0  0  0
    7.6427    0.2758    0.0000 H   0  0  0  0  0  0  0  0  0  0  0  0
   10.6805   -1.4882    0.0000 H   0  0  0  0  0  0  0  0  0  0  0  0
   11.4690   -1.2305    0.0000 H   0  0  0  0  0  0  0  0  0  0  0  0
   11.9761   -0.5313    0.0000 H   0  0  0  0  0  0  0  0  0  0  0  0
   11.9761    0.2982    0.0000 H   0  0  0  0  0  0  0  0  0  0  0  0
    9.3534   -2.7385    0.0000 H   0  0  0  0  0  0  0  0  0  0  0  0
    9.7445   -2.0426    0.0000 H   0  0  0  0  0  0  0  0  0  0  0  0
   10.6054    1.3834    0.0000 H   0  0  0  0  0  0  0  0  0  0  0  0
    9.9854    2.0034    0.0000 H   0  0  0  0  0  0  0  0  0  0  0  0
    9.3654    1.3834    0.0000 H   0  0  0  0  0  0  0  0  0  0  0  0
    6.8247   -0.0927    0.0000 H   0  0  0  0  0  0  0  0  0  0  0  0
    6.0266   -0.0773    0.0000 H   0  0  0  0  0  0  0  0  0  0  0  0
    8.2398   -3.3058    0.0000 H   0  0  0  0  0  0  0  0  0  0  0  0
    7.9710   -0.1282    0.0000 H   0  0  0  0  0  0  0  0  0  0  0  0
    7.3558    0.4966    0.0000 H   0  0  0  0  0  0  0  0  0  0  0  0
    6.7310   -0.1186    0.0000 H   0  0  0  0  0  0  0  0  0  0  0  0
    5.2640   -0.5020    0.0000 H   0  0  0  0  0  0  0  0  0  0  0  0
    4.8569   -1.1886    0.0000 H   0  0  0  0  0  0  0  0  0  0  0  0
    6.4022   -3.3347    0.0000 H   0  0  0  0  0  0  0  0  0  0  0  0
   12.6212    2.9513    0.0000 H   0  0  0  0  0  0  0  0  0  0  0  0
   11.8867    3.4301    0.0000 H   0  0  0  0  0  0  0  0  0  0  0  0
   11.4079    2.6956    0.0000 H   0  0  0  0  0  0  0  0  0  0  0  0
   11.8203    0.7386    0.0000 H   0  0  0  0  0  0  0  0  0  0  0  0
   12.5548    0.2597    0.0000 H   0  0  0  0  0  0  0  0  0  0  0  0
   13.0336    0.9943    0.0000 H   0  0  0  0  0  0  0  0  0  0  0  0
   14.3056    1.6507    0.0000 H   0  0  0  0  0  0  0  0  0  0  0  0
   14.7844    2.3852    0.0000 H   0  0  0  0  0  0  0  0  0  0  0  0
   14.0499    2.8640    0.0000 H   0  0  0  0  0  0  0  0  0  0  0  0
   13.5997    3.1575    0.0000 H   0  0  0  0  0  0  0  0  0  0  0  0
   12.8652    3.6363    0.0000 H   0  0  0  0  0  0  0  0  0  0  0  0
   12.3864    2.9018    0.0000 H   0  0  0  0  0  0  0  0  0  0  0  0
   12.7988    0.9448    0.0000 H   0  0  0  0  0  0  0  0  0  0  0  0
   13.5333    0.4660    0.0000 H   0  0  0  0  0  0  0  0  0  0  0  0
   14.0121    1.2005    0.0000 H   0  0  0  0  0  0  0  0  0  0  0  0
    2.6891   -2.7176    0.0000 H   0  0  0  0  0  0  0  0  0  0  0  0
    2.9128   -3.5654    0.0000 H   0  0  0  0  0  0  0  0  0  0  0  0
    3.7606   -3.3417    0.0000 H   0  0  0  0  0  0  0  0  0  0  0  0
    4.7672   -1.6135    0.0000 H   0  0  0  0  0  0  0  0  0  0  0  0
    4.5436   -0.7657    0.0000 H   0  0  0  0  0  0  0  0  0  0  0  0
    3.6958   -0.9894    0.0000 H   0  0  0  0  0  0  0  0  0  0  0  0
    2.3121   -0.6231    0.0000 H   0  0  0  0  0  0  0  0  0  0  0  0
    1.4643   -0.8468    0.0000 H   0  0  0  0  0  0  0  0  0  0  0  0
    1.6879   -1.6946    0.0000 H   0  0  0  0  0  0  0  0  0  0  0  0
    1.8250   -2.2142    0.0000 H   0  0  0  0  0  0  0  0  0  0  0  0
    2.0487   -3.0620    0.0000 H   0  0  0  0  0  0  0  0  0  0  0  0
    2.8965   -2.8384    0.0000 H   0  0  0  0  0  0  0  0  0  0  0  0
    3.9032   -1.1102    0.0000 H   0  0  0  0  0  0  0  0  0  0  0  0
    3.6795   -0.2624    0.0000 H   0  0  0  0  0  0  0  0  0  0  0  0
    2.8317   -0.4861    0.0000 H   0  0  0  0  0  0  0  0  0  0  0  0
  1  3  1  0  0  0  0
  1 24  1  0  0  0  0
  1 25  1  0  0  0  0
  1 26  1  0  0  0  0
  2  4  1  0  0  0  0
  2 30  1  0  0  0  0
  2 31  1  0  0  0  0
  2 32  1  0  0  0  0
  3  9  1  0  0  0  0
  4 23  1  0  0  0  0
  5  6  1  0  0  0  0
  5  9  1  0  0  0  0
  5 10  1  0  0  0  0
  5 16  1  0  0  0  0
  6  7  1  0  0  0  0
  6 13  1  0  0  0  0
  6 36  1  0  0  0  0
  7  8  1  0  0  0  0
  7 15  1  0  0  0  0
  7 37  1  0  0  0  0
  8 11  1  0  0  0  0
  8 12  1  0  0  0  0
  8 38  1  0  0  0  0
  9 14  1  0  0  0  0
  9 39  1  0  0  0  0
 10 12  1  0  0  0  0
 10 40  1  0  0  0  0
 10 41  1  0  0  0  0
 11 17  1  0  0  0  0
 11 18  1  0  0  0  0
 11 20  1  0  0  0  0
 12 42  1  0  0  0  0
 12 43  1  0  0  0  0
 13 14  1  0  0  0  0
 13 44  1  0  0  0  0
 13 45  1  0  0  0  0
 14 46  1  0  0  0  0
 14 47  1  0  0  0  0
 15 19  1  0  0  0  0
 15 48  1  0  0  0  0
 15 49  1  0  0  0  0
 16 50  1  0  0  0  0
 16 51  1  0  0  0  0
 16 52  1  0  0  0  0
 17 19  2  0  0  0  0
 17 22  1  0  0  0  0
 18 21  1  0  0  0  0
 18 53  1  0  0  0  0
 18 54  1  0  0  0  0
 19 55  1  0  0  0  0
 20 56  1  0  0  0  0
 20 57  1  0  0  0  0
 20 58  1  0  0  0  0
 21 23  1  0  0  0  0
 21 59  1  0  0  0  0
 21 60  1  0  0  0  0
 22 23  2  0  0  0  0
 22 61  1  0  0  0  0
 24 27  1  0  0  0  0
 24 28  1  0  0  0  0
 24 29  1  0  0  0  0
 25 62  1  0  0  0  0
 25 63  1  0  0  0  0
 25 64  1  0  0  0  0
 26 65  1  0  0  0  0
 26 66  1  0  0  0  0
 26 67  1  0  0  0  0
 27 68  1  0  0  0  0
 27 69  1  0  0  0  0
 27 70  1  0  0  0  0
 28 71  1  0  0  0  0
 28 72  1  0  0  0  0
 28 73  1  0  0  0  0
 29 74  1  0  0  0  0
 29 75  1  0  0  0  0
 29 76  1  0  0  0  0
 30 33  1  0  0  0  0
 30 34  1  0  0  0  0
 30 35  1  0  0  0  0
 31 77  1  0  0  0  0
 31 78  1  0  0  0  0
 31 79  1  0  0  0  0
 32 80  1  0  0  0  0
 32 81  1  0  0  0  0
 32 82  1  0  0  0  0
 33 83  1  0  0  0  0
 33 84  1  0  0  0  0
 33 85  1  0  0  0  0
 34 86  1  0  0  0  0
 34 87  1  0  0  0  0
 34 88  1  0  0  0  0
 35 89  1  0  0  0  0
 35 90  1  0  0  0  0
 35 91  1  0  0  0  0
M  END
> <PUBCHEM_COMPOUND_CID>
524926
> <PUBCHEM_COMPOUND_CANONICALIZED>
1
> <PUBCHEM_CACTVS_COMPLEXITY>
887
> <PUBCHEM_CACTVS_HBOND_ACCEPTOR>
2
> <PUBCHEM_CACTVS_HBOND_DONOR>
0
> <PUBCHEM_CACTVS_ROTATABLE_BOND>
6
> <PUBCHEM_CACTVS_SUBSKEYS>
AAADcfB4MAwAAAAAAAAAAAAAAAAAAYAAAAAwQIAAAAAAAGCAAAAAGhAAAEAADxSgoAJCAAAAAAGAAiBCAAAAAAAgIAAACAAAAAgIAAIAAQAAAAAEgAAIgAOAwPAPgAAAAAAAAACAAAQAACAAAIAADAAAAA==
> <PUBCHEM_IUPAC_OPENEYE_NAME>
tert-butyl-[[3-[tert-butyl(dimethyl)silyl]oxy-10,13-dimethyl-2,7,8,9,11,12,14,15,16,17-decahydro-1H-cyclopenta[a]phenanthren-17-yl]oxy]-dimethyl-silane
> <PUBCHEM_IUPAC_CAS_NAME>
tert-butyl-[[3-[tert-butyl(dimethyl)silyl]oxy-10,13-dimethyl-2,7,8,9,11,12,14,15,16,17-decahydro-1H-cyclopenta[a]phenanthren-17-yl]oxy]-dimethylsilane
> <PUBCHEM_IUPAC_NAME_MARKUP>
<I>tert</I>-butyl-[[3-[<I>tert</I>-butyl(dimethyl)silyl]oxy-10,13-dimethyl-2,7,8,9,11,12,14,15,16,17-decahydro-1<I>H</I>-cyclopenta[a]phenanthren-17-yl]oxy]-dimethylsilane
> <PUBCHEM_IUPAC_NAME>
tert-butyl-[[3-[tert-butyl(dimethyl)silyl]oxy-10,13-dimethyl-2,7,8,9,11,12,14,15,16,17-decahydro-1H-cyclopenta[a]phenanthren-17-yl]oxy]-dimethylsilane
> <PUBCHEM_IUPAC_SYSTEMATIC_NAME>
tert-butyl-[[3-[tert-butyl(dimethyl)silyl]oxy-10,13-dimethyl-2,7,8,9,11,12,14,15,16,17-decahydro-1H-cyclopenta[a]phenanthren-17-yl]oxy]-dimethyl-silane
> <PUBCHEM_IUPAC_TRADITIONAL_NAME>
tert-butyl-[[3-[tert-butyl(dimethyl)silyl]oxy-10,13-dimethyl-2,7,8,9,11,12,14,15,16,17-decahydro-1H-cyclopenta[a]phenanthren-17-yl]oxy]-dimethyl-silane
> <PUBCHEM_IUPAC_INCHI>
InChI=1S/C31H56O2Si2/c1-28(2,3)34(9,10)32-23-17-19-30(7)22(21-23)13-14-24-25-15-16-27(31(25,8)20-18-26(24)30)33-35(11,12)29(4,5)6/h13,21,24-27H,14-20H2,1-12H3
> <PUBCHEM_IUPAC_INCHIKEY>
HAPKJTXIXLQIKC-UHFFFAOYSA-N
> <PUBCHEM_EXACT_MASS>
516.38188409
> <PUBCHEM_MOLECULAR_FORMULA>
C31H56O2Si2
> <PUBCHEM_MOLECULAR_WEIGHT>
516.9
> <PUBCHEM_OPENEYE_CAN_SMILES>
CC12CCC3C(C1CCC2O[Si](C)(C)C(C)(C)C)CC=C4C3(CCC(=C4)O[Si](C)(C)C(C)(C)C)C
> <PUBCHEM_OPENEYE_ISO_SMILES>
CC12CCC3C(C1CCC2O[Si](C)(C)C(C)(C)C)CC=C4C3(CCC(=C4)O[Si](C)(C)C(C)(C)C)C
> <PUBCHEM_CACTVS_TPSA>
18.5
> <PUBCHEM_MONOISOTOPIC_WEIGHT>
516.38188409
> <PUBCHEM_TOTAL_CHARGE>
0
> <PUBCHEM_HEAVY_ATOM_COUNT>
35
> <PUBCHEM_ATOM_DEF_STEREO_COUNT>
0
> <PUBCHEM_ATOM_UDEF_STEREO_COUNT>
6
> <PUBCHEM_BOND_DEF_STEREO_COUNT>
0
> <PUBCHEM_BOND_UDEF_STEREO_COUNT>
0
> <PUBCHEM_ISOTOPIC_ATOM_COUNT>
0
> <PUBCHEM_COMPONENT_COUNT>
1
> <PUBCHEM_CACTVS_TAUTO_COUNT>
-1
> <PUBCHEM_COORDINATE_TYPE>
1
5
255
> <PUBCHEM_BONDANNOTATIONS>
11  20  3
9  3  3
5  16  3
6  13  3
7  15  3
8  12  3
$$$$
