524980
  -OEChem-10302200292D
 40 41  0     1  0  0  0  0  0999 V2000
    4.9898   -0.3791    0.0000 Si  0  0  0  0  0  0  0  0  0  0  0  0
    3.7687   -1.2448    0.0000 O   0  0  0  0  0  0  0  0  0  0  0  0
    6.2614   -1.1738    0.0000 O   0  0  0  0  0  0  0  0  0  0  0  0
    3.7688    1.2385    0.0000 O   0  0  0  0  0  0  0  0  0  0  0  0
    4.7309   -1.3451    0.0000 O   0  0  0  0  0  0  0  0  0  0  0  0
    5.2486    0.5868    0.0000 N   0  0  0  0  0  0  0  0  0  0  0  0
    3.2153    0.2757    0.0000 C   0  0  0  0  0  0  0  0  0  0  0  0
    6.6802    0.3891    0.0000 C   0  0  0  0  0  0  0  0  0  0  0  0
    5.1701    2.0476    0.0000 C   0  0  0  0  0  0  0  0  0  0  0  0
    2.9397   -0.6856    0.0000 C   0  0  3  0  0  0  0  0  0  0  0  0
    7.0386   -0.5445    0.0000 C   0  0  3  0  0  0  0  0  0  0  0  0
    4.1756    2.1521    0.0000 C   0  0  3  0  0  0  0  0  0  0  0  0
    2.0000   -1.0276    0.0000 C   0  0  0  0  0  0  0  0  0  0  0  0
    8.0045   -0.8033    0.0000 C   0  0  0  0  0  0  0  0  0  0  0  0
    3.6756    3.0181    0.0000 C   0  0  0  0  0  0  0  0  0  0  0  0
    5.4380   -2.0522    0.0000 C   0  0  0  0  0  0  0  0  0  0  0  0
    5.1792   -3.0181    0.0000 C   0  0  0  0  0  0  0  0  0  0  0  0
    3.2103    0.8956    0.0000 H   0  0  0  0  0  0  0  0  0  0  0  0
    2.6010    0.3594    0.0000 H   0  0  0  0  0  0  0  0  0  0  0  0
    7.2880    0.5115    0.0000 H   0  0  0  0  0  0  0  0  0  0  0  0
    6.6612    1.0088    0.0000 H   0  0  0  0  0  0  0  0  0  0  0  0
    5.7901    2.0481    0.0000 H   0  0  0  0  0  0  0  0  0  0  0  0
    5.2022    2.6667    0.0000 H   0  0  0  0  0  0  0  0  0  0  0  0
    2.8641   -1.3010    0.0000 H   0  0  0  0  0  0  0  0  0  0  0  0
    7.1675   -1.1509    0.0000 H   0  0  0  0  0  0  0  0  0  0  0  0
    3.5564    2.1196    0.0000 H   0  0  0  0  0  0  0  0  0  0  0  0
    1.7880   -0.4450    0.0000 H   0  0  0  0  0  0  0  0  0  0  0  0
    1.4174   -1.2397    0.0000 H   0  0  0  0  0  0  0  0  0  0  0  0
    2.2120   -1.6102    0.0000 H   0  0  0  0  0  0  0  0  0  0  0  0
    7.8440   -1.4022    0.0000 H   0  0  0  0  0  0  0  0  0  0  0  0
    8.6034   -0.9637    0.0000 H   0  0  0  0  0  0  0  0  0  0  0  0
    8.1650   -0.2044    0.0000 H   0  0  0  0  0  0  0  0  0  0  0  0
    4.2125    3.3281    0.0000 H   0  0  0  0  0  0  0  0  0  0  0  0
    3.3656    3.5550    0.0000 H   0  0  0  0  0  0  0  0  0  0  0  0
    3.1386    2.7081    0.0000 H   0  0  0  0  0  0  0  0  0  0  0  0
    6.0000   -2.3142    0.0000 H   0  0  0  0  0  0  0  0  0  0  0  0
    5.7937   -1.5443    0.0000 H   0  0  0  0  0  0  0  0  0  0  0  0
    4.5804   -2.8576    0.0000 H   0  0  0  0  0  0  0  0  0  0  0  0
    5.0188   -3.6170    0.0000 H   0  0  0  0  0  0  0  0  0  0  0  0
    5.7781   -3.1786    0.0000 H   0  0  0  0  0  0  0  0  0  0  0  0
  1  2  1  0  0  0  0
  1  3  1  0  0  0  0
  1  4  1  0  0  0  0
  1  5  1  0  0  0  0
  2 10  1  0  0  0  0
  3 11  1  0  0  0  0
  4 12  1  0  0  0  0
  5 16  1  0  0  0  0
  6  7  1  0  0  0  0
  6  8  1  0  0  0  0
  6  9  1  0  0  0  0
  7 10  1  0  0  0  0
  7 18  1  0  0  0  0
  7 19  1  0  0  0  0
  8 11  1  0  0  0  0
  8 20  1  0  0  0  0
  8 21  1  0  0  0  0
  9 12  1  0  0  0  0
  9 22  1  0  0  0  0
  9 23  1  0  0  0  0
 10 13  1  0  0  0  0
 10 24  1  0  0  0  0
 11 14  1  0  0  0  0
 11 25  1  0  0  0  0
 12 15  1  0  0  0  0
 12 26  1  0  0  0  0
 13 27  1  0  0  0  0
 13 28  1  0  0  0  0
 13 29  1  0  0  0  0
 14 30  1  0  0  0  0
 14 31  1  0  0  0  0
 14 32  1  0  0  0  0
 15 33  1  0  0  0  0
 15 34  1  0  0  0  0
 15 35  1  0  0  0  0
 16 17  1  0  0  0  0
 16 36  1  0  0  0  0
 16 37  1  0  0  0  0
 17 38  1  0  0  0  0
 17 39  1  0  0  0  0
 17 40  1  0  0  0  0
M  END
> <PUBCHEM_COMPOUND_CID>
524980
> <PUBCHEM_COMPOUND_CANONICALIZED>
1
> <PUBCHEM_CACTVS_COMPLEXITY>
230
> <PUBCHEM_CACTVS_HBOND_ACCEPTOR>
5
> <PUBCHEM_CACTVS_HBOND_DONOR>
0
> <PUBCHEM_CACTVS_ROTATABLE_BOND>
2
> <PUBCHEM_CACTVS_SUBSKEYS>
AAADceByOAgAAAAAAAAAAAAAAAAAAAAAAAAAAAAAAAAWLAAAAAAAHgAAAEAACBThgAYCAAMAAAAAAAAAAAAAAAAAAAAAAAAIAAACAAAAAAAEAAAAAACQAAAAAAAAAAAAAAAAAAAAAAAAAAAAAAAAAAAAAA==
> <PUBCHEM_IUPAC_OPENEYE_NAME>
1-ethoxy-3,7,10-trimethyl-2,8,9-trioxa-5-aza-1-silabicyclo[3.3.3]undecane
> <PUBCHEM_IUPAC_CAS_NAME>
1-ethoxy-3,7,10-trimethyl-2,8,9-trioxa-5-aza-1-silabicyclo[3.3.3]undecane
> <PUBCHEM_IUPAC_NAME_MARKUP>
1-ethoxy-3,7,10-trimethyl-2,8,9-trioxa-5-aza-1-silabicyclo[3.3.3]undecane
> <PUBCHEM_IUPAC_NAME>
1-ethoxy-3,7,10-trimethyl-2,8,9-trioxa-5-aza-1-silabicyclo[3.3.3]undecane
> <PUBCHEM_IUPAC_SYSTEMATIC_NAME>
1-ethoxy-3,7,10-trimethyl-2,8,9-trioxa-5-aza-1-silabicyclo[3.3.3]undecane
> <PUBCHEM_IUPAC_TRADITIONAL_NAME>
1-ethoxy-3,7,10-trimethyl-2,8,9-trioxa-5-aza-1-silabicyclo[3.3.3]undecane
> <PUBCHEM_IUPAC_INCHI>
InChI=1S/C11H23NO4Si/c1-5-13-17-14-9(2)6-12(7-10(3)15-17)8-11(4)16-17/h9-11H,5-8H2,1-4H3
> <PUBCHEM_IUPAC_INCHIKEY>
ITODRLMDNMAMCE-UHFFFAOYSA-N
> <PUBCHEM_EXACT_MASS>
261.13963475
> <PUBCHEM_MOLECULAR_FORMULA>
C11H23NO4Si
> <PUBCHEM_MOLECULAR_WEIGHT>
261.39
> <PUBCHEM_OPENEYE_CAN_SMILES>
CCO[Si]12OC(CN(CC(O1)C)CC(O2)C)C
> <PUBCHEM_OPENEYE_ISO_SMILES>
CCO[Si]12OC(CN(CC(O1)C)CC(O2)C)C
> <PUBCHEM_CACTVS_TPSA>
40.2
> <PUBCHEM_MONOISOTOPIC_WEIGHT>
261.13963475
> <PUBCHEM_TOTAL_CHARGE>
0
> <PUBCHEM_HEAVY_ATOM_COUNT>
17
> <PUBCHEM_ATOM_DEF_STEREO_COUNT>
0
> <PUBCHEM_ATOM_UDEF_STEREO_COUNT>
3
> <PUBCHEM_BOND_DEF_STEREO_COUNT>
0
> <PUBCHEM_BOND_UDEF_STEREO_COUNT>
0
> <PUBCHEM_ISOTOPIC_ATOM_COUNT>
0
> <PUBCHEM_COMPONENT_COUNT>
1
> <PUBCHEM_CACTVS_TAUTO_COUNT>
-1
> <PUBCHEM_COORDINATE_TYPE>
1
5
255
> <PUBCHEM_BONDANNOTATIONS>
10  13  3
11  14  3
12  15  3
$$$$
