524932
  -OEChem-10302200292D
 72 75  0     1  0  0  0  0  0999 V2000
    3.7282   -1.4701    0.0000 Si  0  0  0  0  0  0  0  0  0  0  0  0
    4.5923   -1.9734    0.0000 O   0  0  0  0  0  0  0  0  0  0  0  0
   11.2422    2.3342    0.0000 O   0  0  0  0  0  0  0  0  0  0  0  0
    8.2533    0.0789    0.0000 C   0  0  3  0  0  0  0  0  0  0  0  0
    7.3433   -0.4279    0.0000 C   0  0  3  0  0  0  0  0  0  0  0  0
    9.1193   -0.4211    0.0000 C   0  0  3  0  0  0  0  0  0  0  0  0
    9.9854    0.0789    0.0000 C   0  0  3  0  0  0  0  0  0  0  0  0
    7.3353   -1.4695    0.0000 C   0  0  3  0  0  0  0  0  0  0  0  0
    9.9854    1.0789    0.0000 C   0  0  3  0  0  0  0  0  0  0  0  0
    8.2533    1.0789    0.0000 C   0  0  0  0  0  0  0  0  0  0  0  0
    9.1354   -1.4626    0.0000 C   0  0  0  0  0  0  0  0  0  0  0  0
    8.2374   -1.9903    0.0000 C   0  0  0  0  0  0  0  0  0  0  0  0
    9.1193    1.5789    0.0000 C   0  0  0  0  0  0  0  0  0  0  0  0
    6.4165    0.1362    0.0000 C   0  0  0  0  0  0  0  0  0  0  0  0
   10.9316   -0.2258    0.0000 C   0  0  0  0  0  0  0  0  0  0  0  0
    6.3998   -2.0192    0.0000 C   0  0  0  0  0  0  0  0  0  0  0  0
    7.3510    0.5720    0.0000 C   0  0  0  0  0  0  0  0  0  0  0  0
    5.4686   -0.3918    0.0000 C   0  0  0  0  0  0  0  0  0  0  0  0
   10.9316    1.3836    0.0000 C   0  0  0  0  0  0  0  0  0  0  0  0
    5.4602   -1.4768    0.0000 C   0  0  3  0  0  0  0  0  0  0  0  0
   11.5152    0.5789    0.0000 C   0  0  0  0  0  0  0  0  0  0  0  0
    9.9854    2.0789    0.0000 C   0  0  0  0  0  0  0  0  0  0  0  0
    2.8641   -0.9667    0.0000 C   0  0  0  0  0  0  0  0  0  0  0  0
    3.2248   -2.3342    0.0000 C   0  0  0  0  0  0  0  0  0  0  0  0
    4.2315   -0.6060    0.0000 C   0  0  0  0  0  0  0  0  0  0  0  0
    2.0000   -0.4634    0.0000 C   0  0  0  0  0  0  0  0  0  0  0  0
    2.3608   -1.8308    0.0000 C   0  0  0  0  0  0  0  0  0  0  0  0
    3.3674   -0.1027    0.0000 C   0  0  0  0  0  0  0  0  0  0  0  0
    8.7902    0.3889    0.0000 H   0  0  0  0  0  0  0  0  0  0  0  0
    9.6586   -0.7269    0.0000 H   0  0  0  0  0  0  0  0  0  0  0  0
   10.0510   -0.5376    0.0000 H   0  0  0  0  0  0  0  0  0  0  0  0
    7.3377   -2.0895    0.0000 H   0  0  0  0  0  0  0  0  0  0  0  0
    8.0413    1.6615    0.0000 H   0  0  0  0  0  0  0  0  0  0  0  0
    7.6427    0.9713    0.0000 H   0  0  0  0  0  0  0  0  0  0  0  0
    9.3534   -2.0430    0.0000 H   0  0  0  0  0  0  0  0  0  0  0  0
    9.7445   -1.3471    0.0000 H   0  0  0  0  0  0  0  0  0  0  0  0
    7.8400   -2.4663    0.0000 H   0  0  0  0  0  0  0  0  0  0  0  0
    8.6383   -2.4632    0.0000 H   0  0  0  0  0  0  0  0  0  0  0  0
    9.5179    2.0539    0.0000 H   0  0  0  0  0  0  0  0  0  0  0  0
    8.7208    2.0539    0.0000 H   0  0  0  0  0  0  0  0  0  0  0  0
    6.8247    0.6028    0.0000 H   0  0  0  0  0  0  0  0  0  0  0  0
    6.0266    0.6182    0.0000 H   0  0  0  0  0  0  0  0  0  0  0  0
   10.6805   -0.7927    0.0000 H   0  0  0  0  0  0  0  0  0  0  0  0
   11.4690   -0.5350    0.0000 H   0  0  0  0  0  0  0  0  0  0  0  0
    6.0026   -2.4952    0.0000 H   0  0  0  0  0  0  0  0  0  0  0  0
    6.8008   -2.4922    0.0000 H   0  0  0  0  0  0  0  0  0  0  0  0
    7.9710    0.5673    0.0000 H   0  0  0  0  0  0  0  0  0  0  0  0
    7.3558    1.1920    0.0000 H   0  0  0  0  0  0  0  0  0  0  0  0
    6.7310    0.5768    0.0000 H   0  0  0  0  0  0  0  0  0  0  0  0
    5.2640    0.1935    0.0000 H   0  0  0  0  0  0  0  0  0  0  0  0
    4.8569   -0.4932    0.0000 H   0  0  0  0  0  0  0  0  0  0  0  0
    5.4590   -2.0968    0.0000 H   0  0  0  0  0  0  0  0  0  0  0  0
   11.9761    0.1642    0.0000 H   0  0  0  0  0  0  0  0  0  0  0  0
   11.9761    0.9936    0.0000 H   0  0  0  0  0  0  0  0  0  0  0  0
   10.6054    2.0789    0.0000 H   0  0  0  0  0  0  0  0  0  0  0  0
    9.9854    2.6989    0.0000 H   0  0  0  0  0  0  0  0  0  0  0  0
    9.3654    2.0789    0.0000 H   0  0  0  0  0  0  0  0  0  0  0  0
    2.6891   -2.0221    0.0000 H   0  0  0  0  0  0  0  0  0  0  0  0
    2.9128   -2.8699    0.0000 H   0  0  0  0  0  0  0  0  0  0  0  0
    3.7606   -2.6462    0.0000 H   0  0  0  0  0  0  0  0  0  0  0  0
    4.7672   -0.9181    0.0000 H   0  0  0  0  0  0  0  0  0  0  0  0
    4.5436   -0.0703    0.0000 H   0  0  0  0  0  0  0  0  0  0  0  0
    3.6958   -0.2939    0.0000 H   0  0  0  0  0  0  0  0  0  0  0  0
    2.3121    0.0723    0.0000 H   0  0  0  0  0  0  0  0  0  0  0  0
    1.4643   -0.1513    0.0000 H   0  0  0  0  0  0  0  0  0  0  0  0
    1.6879   -0.9991    0.0000 H   0  0  0  0  0  0  0  0  0  0  0  0
    1.8250   -1.5188    0.0000 H   0  0  0  0  0  0  0  0  0  0  0  0
    2.0487   -2.3666    0.0000 H   0  0  0  0  0  0  0  0  0  0  0  0
    2.8965   -2.1429    0.0000 H   0  0  0  0  0  0  0  0  0  0  0  0
    3.9032   -0.4147    0.0000 H   0  0  0  0  0  0  0  0  0  0  0  0
    3.6795    0.4331    0.0000 H   0  0  0  0  0  0  0  0  0  0  0  0
    2.8317    0.2094    0.0000 H   0  0  0  0  0  0  0  0  0  0  0  0
  1  2  1  0  0  0  0
  1 23  1  0  0  0  0
  1 24  1  0  0  0  0
  1 25  1  0  0  0  0
  2 20  1  0  0  0  0
  3 19  2  0  0  0  0
  4  5  1  0  0  0  0
  4  6  1  0  0  0  0
  4 10  1  0  0  0  0
  4 29  1  0  0  0  0
  5  8  1  0  0  0  0
  5 14  1  0  0  0  0
  5 17  1  0  0  0  0
  6  7  1  0  0  0  0
  6 11  1  0  0  0  0
  6 30  1  0  0  0  0
  7  9  1  0  0  0  0
  7 15  1  0  0  0  0
  7 31  1  0  0  0  0
  8 12  1  0  0  0  0
  8 16  1  0  0  0  0
  8 32  1  0  0  0  0
  9 13  1  0  0  0  0
  9 19  1  0  0  0  0
  9 22  1  0  0  0  0
 10 13  1  0  0  0  0
 10 33  1  0  0  0  0
 10 34  1  0  0  0  0
 11 12  1  0  0  0  0
 11 35  1  0  0  0  0
 11 36  1  0  0  0  0
 12 37  1  0  0  0  0
 12 38  1  0  0  0  0
 13 39  1  0  0  0  0
 13 40  1  0  0  0  0
 14 18  1  0  0  0  0
 14 41  1  0  0  0  0
 14 42  1  0  0  0  0
 15 21  1  0  0  0  0
 15 43  1  0  0  0  0
 15 44  1  0  0  0  0
 16 20  1  0  0  0  0
 16 45  1  0  0  0  0
 16 46  1  0  0  0  0
 17 47  1  0  0  0  0
 17 48  1  0  0  0  0
 17 49  1  0  0  0  0
 18 20  1  0  0  0  0
 18 50  1  0  0  0  0
 18 51  1  0  0  0  0
 19 21  1  0  0  0  0
 20 52  1  0  0  0  0
 21 53  1  0  0  0  0
 21 54  1  0  0  0  0
 22 55  1  0  0  0  0
 22 56  1  0  0  0  0
 22 57  1  0  0  0  0
 23 26  1  0  0  0  0
 23 27  1  0  0  0  0
 23 28  1  0  0  0  0
 24 58  1  0  0  0  0
 24 59  1  0  0  0  0
 24 60  1  0  0  0  0
 25 61  1  0  0  0  0
 25 62  1  0  0  0  0
 25 63  1  0  0  0  0
 26 64  1  0  0  0  0
 26 65  1  0  0  0  0
 26 66  1  0  0  0  0
 27 67  1  0  0  0  0
 27 68  1  0  0  0  0
 27 69  1  0  0  0  0
 28 70  1  0  0  0  0
 28 71  1  0  0  0  0
 28 72  1  0  0  0  0
M  END
> <PUBCHEM_COMPOUND_CID>
524932
> <PUBCHEM_COMPOUND_CANONICALIZED>
1
> <PUBCHEM_CACTVS_COMPLEXITY>
635
> <PUBCHEM_CACTVS_HBOND_ACCEPTOR>
2
> <PUBCHEM_CACTVS_HBOND_DONOR>
0
> <PUBCHEM_CACTVS_ROTATABLE_BOND>
3
> <PUBCHEM_CACTVS_SUBSKEYS>
AAADcfB4MAgAAAAAAAAAAAAAAAAAAYAAAAAwYMAAAAAAAGDAAAAAGhAAAEAADxSgoAJCAAAAAAEIAIAQAAAAAAAAAAAAAAEAAAAAABIAAAAAAAAEAAAAAAGIyPCPgAAAAAAAAADAAAYAACAAAAAACAAAAA==
> <PUBCHEM_IUPAC_OPENEYE_NAME>
3-[tert-butyl(dimethyl)silyl]oxy-10,13-dimethyl-1,2,3,4,5,6,7,8,9,11,12,14,15,16-tetradecahydrocyclopenta[a]phenanthren-17-one
> <PUBCHEM_IUPAC_CAS_NAME>
3-[tert-butyl(dimethyl)silyl]oxy-10,13-dimethyl-1,2,3,4,5,6,7,8,9,11,12,14,15,16-tetradecahydrocyclopenta[a]phenanthren-17-one
> <PUBCHEM_IUPAC_NAME_MARKUP>
3-[<I>tert</I>-butyl(dimethyl)silyl]oxy-10,13-dimethyl-1,2,3,4,5,6,7,8,9,11,12,14,15,16-tetradecahydrocyclopenta[a]phenanthren-17-one
> <PUBCHEM_IUPAC_NAME>
3-[tert-butyl(dimethyl)silyl]oxy-10,13-dimethyl-1,2,3,4,5,6,7,8,9,11,12,14,15,16-tetradecahydrocyclopenta[a]phenanthren-17-one
> <PUBCHEM_IUPAC_SYSTEMATIC_NAME>
3-[tert-butyl(dimethyl)silyl]oxy-10,13-dimethyl-1,2,3,4,5,6,7,8,9,11,12,14,15,16-tetradecahydrocyclopenta[a]phenanthren-17-one
> <PUBCHEM_IUPAC_TRADITIONAL_NAME>
3-[tert-butyl(dimethyl)silyl]oxy-10,13-dimethyl-1,2,3,4,5,6,7,8,9,11,12,14,15,16-tetradecahydrocyclopenta[a]phenanthren-17-one
> <PUBCHEM_IUPAC_INCHI>
InChI=1S/C25H44O2Si/c1-23(2,3)28(6,7)27-18-12-14-24(4)17(16-18)8-9-19-20-10-11-22(26)25(20,5)15-13-21(19)24/h17-21H,8-16H2,1-7H3
> <PUBCHEM_IUPAC_INCHIKEY>
UGWVQACEZWDYMD-UHFFFAOYSA-N
> <PUBCHEM_EXACT_MASS>
404.31105718
> <PUBCHEM_MOLECULAR_FORMULA>
C25H44O2Si
> <PUBCHEM_MOLECULAR_WEIGHT>
404.7
> <PUBCHEM_OPENEYE_CAN_SMILES>
CC12CCC(CC1CCC3C2CCC4(C3CCC4=O)C)O[Si](C)(C)C(C)(C)C
> <PUBCHEM_OPENEYE_ISO_SMILES>
CC12CCC(CC1CCC3C2CCC4(C3CCC4=O)C)O[Si](C)(C)C(C)(C)C
> <PUBCHEM_CACTVS_TPSA>
26.3
> <PUBCHEM_MONOISOTOPIC_WEIGHT>
404.31105718
> <PUBCHEM_TOTAL_CHARGE>
0
> <PUBCHEM_HEAVY_ATOM_COUNT>
28
> <PUBCHEM_ATOM_DEF_STEREO_COUNT>
0
> <PUBCHEM_ATOM_UDEF_STEREO_COUNT>
7
> <PUBCHEM_BOND_DEF_STEREO_COUNT>
0
> <PUBCHEM_BOND_UDEF_STEREO_COUNT>
0
> <PUBCHEM_ISOTOPIC_ATOM_COUNT>
0
> <PUBCHEM_COMPONENT_COUNT>
1
> <PUBCHEM_CACTVS_TAUTO_COUNT>
-1
> <PUBCHEM_COORDINATE_TYPE>
1
5
255
> <PUBCHEM_BONDANNOTATIONS>
20  2  3
4  10  3
5  17  3
6  11  3
7  15  3
8  12  3
9  22  3
$$$$
