525000
  -OEChem-10302200292D
 45 46  0     1  0  0  0  0  0999 V2000
    2.0000   -0.0000    0.0000 F   0  0  0  0  0  0  0  0  0  0  0  0
    2.3660    1.3660    0.0000 F   0  0  0  0  0  0  0  0  0  0  0  0
    3.3660   -0.3660    0.0000 F   0  0  0  0  0  0  0  0  0  0  0  0
    4.5981    0.5000    0.0000 O   0  0  0  0  0  0  0  0  0  0  0  0
   10.6603    2.0000    0.0000 O   0  0  0  0  0  0  0  0  0  0  0  0
    8.9282   -1.0000    0.0000 O   0  0  0  0  0  0  0  0  0  0  0  0
    3.7320    2.0000    0.0000 O   0  0  0  0  0  0  0  0  0  0  0  0
    9.7942    0.5000    0.0000 N   0  0  0  0  0  0  0  0  0  0  0  0
   10.6603   -1.0000    0.0000 N   0  0  0  0  0  0  0  0  0  0  0  0
   12.4725    0.8047    0.0000 N   0  0  0  0  0  0  0  0  0  0  0  0
   12.4725   -0.8047    0.0000 N   0  0  0  0  0  0  0  0  0  0  0  0
    8.0622    0.5000    0.0000 C   0  0  0  0  0  0  0  0  0  0  0  0
    7.1962    1.0000    0.0000 C   0  0  0  0  0  0  0  0  0  0  0  0
    8.9282    1.0000    0.0000 C   0  0  0  0  0  0  0  0  0  0  0  0
    6.3301    0.5000    0.0000 C   0  0  0  0  0  0  0  0  0  0  0  0
    5.4641    1.0000    0.0000 C   0  0  3  0  0  0  0  0  0  0  0  0
   11.5263    0.5000    0.0000 C   0  0  0  0  0  0  0  0  0  0  0  0
   10.6603    1.0000    0.0000 C   0  0  0  0  0  0  0  0  0  0  0  0
   11.5263   -0.5000    0.0000 C   0  0  0  0  0  0  0  0  0  0  0  0
    9.7942   -0.5000    0.0000 C   0  0  0  0  0  0  0  0  0  0  0  0
    5.4641    2.0000    0.0000 C   0  0  0  0  0  0  0  0  0  0  0  0
   10.6603   -2.0000    0.0000 C   0  0  0  0  0  0  0  0  0  0  0  0
   13.0561    0.0000    0.0000 C   0  0  0  0  0  0  0  0  0  0  0  0
   12.7832    1.7552    0.0000 C   0  0  0  0  0  0  0  0  0  0  0  0
    3.7320    1.0000    0.0000 C   0  0  0  0  0  0  0  0  0  0  0  0
    2.8660    0.5000    0.0000 C   0  0  0  0  0  0  0  0  0  0  0  0
    7.6636    0.0251    0.0000 H   0  0  0  0  0  0  0  0  0  0  0  0
    8.4607    0.0251    0.0000 H   0  0  0  0  0  0  0  0  0  0  0  0
    7.5947    1.4750    0.0000 H   0  0  0  0  0  0  0  0  0  0  0  0
    6.7976    1.4750    0.0000 H   0  0  0  0  0  0  0  0  0  0  0  0
    9.3267    1.4750    0.0000 H   0  0  0  0  0  0  0  0  0  0  0  0
    8.5297    1.4750    0.0000 H   0  0  0  0  0  0  0  0  0  0  0  0
    5.9316    0.0251    0.0000 H   0  0  0  0  0  0  0  0  0  0  0  0
    6.7287    0.0251    0.0000 H   0  0  0  0  0  0  0  0  0  0  0  0
    5.4641    0.3800    0.0000 H   0  0  0  0  0  0  0  0  0  0  0  0
    6.0841    2.0000    0.0000 H   0  0  0  0  0  0  0  0  0  0  0  0
    5.4641    2.6200    0.0000 H   0  0  0  0  0  0  0  0  0  0  0  0
    4.8441    2.0000    0.0000 H   0  0  0  0  0  0  0  0  0  0  0  0
   13.6761   -0.0000    0.0000 H   0  0  0  0  0  0  0  0  0  0  0  0
   10.0403   -2.0000    0.0000 H   0  0  0  0  0  0  0  0  0  0  0  0
   10.6603   -2.6200    0.0000 H   0  0  0  0  0  0  0  0  0  0  0  0
   11.2803   -2.0000    0.0000 H   0  0  0  0  0  0  0  0  0  0  0  0
   13.3725    1.5626    0.0000 H   0  0  0  0  0  0  0  0  0  0  0  0
   12.9758    2.3446    0.0000 H   0  0  0  0  0  0  0  0  0  0  0  0
   12.1938    1.9479    0.0000 H   0  0  0  0  0  0  0  0  0  0  0  0
  1 26  1  0  0  0  0
  2 26  1  0  0  0  0
  3 26  1  0  0  0  0
  4 16  1  0  0  0  0
  4 25  1  0  0  0  0
  5 18  2  0  0  0  0
  6 20  2  0  0  0  0
  7 25  2  0  0  0  0
  8 14  1  0  0  0  0
  8 18  1  0  0  0  0
  8 20  1  0  0  0  0
  9 19  1  0  0  0  0
  9 20  1  0  0  0  0
  9 22  1  0  0  0  0
 10 17  1  0  0  0  0
 10 23  1  0  0  0  0
 10 24  1  0  0  0  0
 11 19  1  0  0  0  0
 11 23  2  0  0  0  0
 12 13  1  0  0  0  0
 12 14  1  0  0  0  0
 12 27  1  0  0  0  0
 12 28  1  0  0  0  0
 13 15  1  0  0  0  0
 13 29  1  0  0  0  0
 13 30  1  0  0  0  0
 14 31  1  0  0  0  0
 14 32  1  0  0  0  0
 15 16  1  0  0  0  0
 15 33  1  0  0  0  0
 15 34  1  0  0  0  0
 16 21  1  0  0  0  0
 16 35  1  0  0  0  0
 17 18  1  0  0  0  0
 17 19  2  0  0  0  0
 21 36  1  0  0  0  0
 21 37  1  0  0  0  0
 21 38  1  0  0  0  0
 22 40  1  0  0  0  0
 22 41  1  0  0  0  0
 22 42  1  0  0  0  0
 23 39  1  0  0  0  0
 24 43  1  0  0  0  0
 24 44  1  0  0  0  0
 24 45  1  0  0  0  0
 25 26  1  0  0  0  0
M  END
> <PUBCHEM_COMPOUND_CID>
525000
> <PUBCHEM_COMPOUND_CANONICALIZED>
1
> <PUBCHEM_CACTVS_COMPLEXITY>
572
> <PUBCHEM_CACTVS_HBOND_ACCEPTOR>
8
> <PUBCHEM_CACTVS_HBOND_DONOR>
0
> <PUBCHEM_CACTVS_ROTATABLE_BOND>
7
> <PUBCHEM_CACTVS_SUBSKEYS>
AAADceBzuYAAAAAAAAAAAAAAAAAAAWAAAAAsAAAAAAAAAFgBgAAAHwAAAAAACBzhlhYHuBcMFACoAQfxfACAgC0XEKABUAGoVECASApAyCAWAIgMByLAAGGQEAIAAAAAAAAAAAAAAAAAAAAAAAAAAAAAAA==
> <PUBCHEM_IUPAC_OPENEYE_NAME>
[5-(3,7-dimethyl-2,6-dioxo-purin-1-yl)-1-methyl-pentyl] 2,2,2-trifluoroacetate
> <PUBCHEM_IUPAC_CAS_NAME>
2,2,2-trifluoroacetic acid 6-(3,7-dimethyl-2,6-dioxo-1-purinyl)hexan-2-yl ester
> <PUBCHEM_IUPAC_NAME_MARKUP>
6-(3,7-dimethyl-2,6-dioxopurin-1-yl)hexan-2-yl 2,2,2-trifluoroacetate
> <PUBCHEM_IUPAC_NAME>
6-(3,7-dimethyl-2,6-dioxopurin-1-yl)hexan-2-yl 2,2,2-trifluoroacetate
> <PUBCHEM_IUPAC_SYSTEMATIC_NAME>
6-[3,7-dimethyl-2,6-bis(oxidanylidene)purin-1-yl]hexan-2-yl 2,2,2-tris(fluoranyl)ethanoate
> <PUBCHEM_IUPAC_TRADITIONAL_NAME>
2,2,2-trifluoroacetic acid [5-(2,6-diketo-3,7-dimethyl-purin-1-yl)-1-methyl-pentyl] ester
> <PUBCHEM_IUPAC_INCHI>
InChI=1S/C15H19F3N4O4/c1-9(26-13(24)15(16,17)18)6-4-5-7-22-12(23)10-11(19-8-20(10)2)21(3)14(22)25/h8-9H,4-7H2,1-3H3
> <PUBCHEM_IUPAC_INCHIKEY>
ZQNQBJNITRBVFR-UHFFFAOYSA-N
> <PUBCHEM_XLOGP3>
2.4
> <PUBCHEM_EXACT_MASS>
376.13583959
> <PUBCHEM_MOLECULAR_FORMULA>
C15H19F3N4O4
> <PUBCHEM_MOLECULAR_WEIGHT>
376.33
> <PUBCHEM_OPENEYE_CAN_SMILES>
CC(CCCCN1C(=O)C2=C(N=CN2C)N(C1=O)C)OC(=O)C(F)(F)F
> <PUBCHEM_OPENEYE_ISO_SMILES>
CC(CCCCN1C(=O)C2=C(N=CN2C)N(C1=O)C)OC(=O)C(F)(F)F
> <PUBCHEM_CACTVS_TPSA>
84.7
> <PUBCHEM_MONOISOTOPIC_WEIGHT>
376.13583959
> <PUBCHEM_TOTAL_CHARGE>
0
> <PUBCHEM_HEAVY_ATOM_COUNT>
26
> <PUBCHEM_ATOM_DEF_STEREO_COUNT>
0
> <PUBCHEM_ATOM_UDEF_STEREO_COUNT>
1
> <PUBCHEM_BOND_DEF_STEREO_COUNT>
0
> <PUBCHEM_BOND_UDEF_STEREO_COUNT>
0
> <PUBCHEM_ISOTOPIC_ATOM_COUNT>
0
> <PUBCHEM_COMPONENT_COUNT>
1
> <PUBCHEM_CACTVS_TAUTO_COUNT>
-1
> <PUBCHEM_COORDINATE_TYPE>
1
5
255
> <PUBCHEM_BONDANNOTATIONS>
10  17  8
10  23  8
11  19  8
11  23  8
16  21  3
17  18  8
17  19  8
8  18  8
8  20  8
9  19  8
9  20  8
$$$$
