525083
  -OEChem-10302200292D
 69 72  0     1  0  0  0  0  0999 V2000
    8.7605    0.6881    0.0000 O   0  0  0  0  0  0  0  0  0  0  0  0
    7.4248    2.1767    0.0000 O   0  0  0  0  0  0  0  0  0  0  0  0
    8.4034    2.3829    0.0000 O   0  0  0  0  0  0  0  0  0  0  0  0
    5.7785    2.7148    0.0000 O   0  0  0  0  0  0  0  0  0  0  0  0
    6.5251   -1.7734    0.0000 C   0  0  3  0  0  0  0  0  0  0  0  0
    5.6591   -2.2734    0.0000 C   0  0  3  0  0  0  0  0  0  0  0  0
    6.5251   -0.7734    0.0000 C   0  0  3  0  0  0  0  0  0  0  0  0
    4.7931   -1.7734    0.0000 C   0  0  3  0  0  0  0  0  0  0  0  0
    3.8831   -2.2802    0.0000 C   0  0  3  0  0  0  0  0  0  0  0  0
    7.4714   -0.4686    0.0000 C   0  0  3  0  0  0  0  0  0  0  0  0
    3.8751   -3.3218    0.0000 C   0  0  3  0  0  0  0  0  0  0  0  0
    5.6591   -0.2734    0.0000 C   0  0  0  0  0  0  0  0  0  0  0  0
    4.7931   -0.7734    0.0000 C   0  0  0  0  0  0  0  0  0  0  0  0
    7.4714   -2.0781    0.0000 C   0  0  0  0  0  0  0  0  0  0  0  0
    5.6752   -3.3149    0.0000 C   0  0  0  0  0  0  0  0  0  0  0  0
    8.0550   -1.2734    0.0000 C   0  0  0  0  0  0  0  0  0  0  0  0
    4.7771   -3.8426    0.0000 C   0  0  0  0  0  0  0  0  0  0  0  0
    2.9562   -1.7161    0.0000 C   0  0  0  0  0  0  0  0  0  0  0  0
    6.5251    0.2266    0.0000 C   0  0  0  0  0  0  0  0  0  0  0  0
    2.9396   -3.8715    0.0000 C   0  0  0  0  0  0  0  0  0  0  0  0
    3.8908   -1.2802    0.0000 C   0  0  0  0  0  0  0  0  0  0  0  0
    7.7820    0.4819    0.0000 C   0  0  3  0  0  0  0  0  0  0  0  0
    2.0084   -2.2441    0.0000 C   0  0  0  0  0  0  0  0  0  0  0  0
    2.0000   -3.3290    0.0000 C   0  0  0  0  0  0  0  0  0  0  0  0
    7.1142    1.2262    0.0000 C   0  0  0  0  0  0  0  0  0  0  0  0
    9.0712    1.6386    0.0000 C   0  0  0  0  0  0  0  0  0  0  0  0
    6.7570    2.9210    0.0000 C   0  0  0  0  0  0  0  0  0  0  0  0
   10.0497    1.8448    0.0000 C   0  0  0  0  0  0  0  0  0  0  0  0
    7.0677    3.8715    0.0000 C   0  0  0  0  0  0  0  0  0  0  0  0
    6.5908   -2.3899    0.0000 H   0  0  0  0  0  0  0  0  0  0  0  0
    6.1984   -2.5792    0.0000 H   0  0  0  0  0  0  0  0  0  0  0  0
    5.3300   -1.4634    0.0000 H   0  0  0  0  0  0  0  0  0  0  0  0
    8.0838   -0.3724    0.0000 H   0  0  0  0  0  0  0  0  0  0  0  0
    3.8774   -3.9418    0.0000 H   0  0  0  0  0  0  0  0  0  0  0  0
    6.0576    0.2016    0.0000 H   0  0  0  0  0  0  0  0  0  0  0  0
    5.2606    0.2016    0.0000 H   0  0  0  0  0  0  0  0  0  0  0  0
    4.5810   -0.1908    0.0000 H   0  0  0  0  0  0  0  0  0  0  0  0
    4.1825   -0.8810    0.0000 H   0  0  0  0  0  0  0  0  0  0  0  0
    7.2203   -2.6450    0.0000 H   0  0  0  0  0  0  0  0  0  0  0  0
    8.0087   -2.3873    0.0000 H   0  0  0  0  0  0  0  0  0  0  0  0
    5.8932   -3.8953    0.0000 H   0  0  0  0  0  0  0  0  0  0  0  0
    6.2843   -3.1994    0.0000 H   0  0  0  0  0  0  0  0  0  0  0  0
    8.5158   -1.6881    0.0000 H   0  0  0  0  0  0  0  0  0  0  0  0
    8.5158   -0.8586    0.0000 H   0  0  0  0  0  0  0  0  0  0  0  0
    4.3798   -4.3186    0.0000 H   0  0  0  0  0  0  0  0  0  0  0  0
    5.1781   -4.3155    0.0000 H   0  0  0  0  0  0  0  0  0  0  0  0
    3.3645   -1.2495    0.0000 H   0  0  0  0  0  0  0  0  0  0  0  0
    2.5663   -1.2341    0.0000 H   0  0  0  0  0  0  0  0  0  0  0  0
    7.1451    0.2266    0.0000 H   0  0  0  0  0  0  0  0  0  0  0  0
    6.5251    0.8466    0.0000 H   0  0  0  0  0  0  0  0  0  0  0  0
    5.9051    0.2266    0.0000 H   0  0  0  0  0  0  0  0  0  0  0  0
    2.5423   -4.3475    0.0000 H   0  0  0  0  0  0  0  0  0  0  0  0
    3.3406   -4.3444    0.0000 H   0  0  0  0  0  0  0  0  0  0  0  0
    4.5108   -1.2850    0.0000 H   0  0  0  0  0  0  0  0  0  0  0  0
    3.8956   -0.6603    0.0000 H   0  0  0  0  0  0  0  0  0  0  0  0
    3.2708   -1.2755    0.0000 H   0  0  0  0  0  0  0  0  0  0  0  0
    7.9746    1.0712    0.0000 H   0  0  0  0  0  0  0  0  0  0  0  0
    1.8038   -1.6588    0.0000 H   0  0  0  0  0  0  0  0  0  0  0  0
    1.3967   -2.3454    0.0000 H   0  0  0  0  0  0  0  0  0  0  0  0
    1.3900   -3.2182    0.0000 H   0  0  0  0  0  0  0  0  0  0  0  0
    1.7864   -3.9111    0.0000 H   0  0  0  0  0  0  0  0  0  0  0  0
    6.5672    1.5182    0.0000 H   0  0  0  0  0  0  0  0  0  0  0  0
    6.7316    0.7383    0.0000 H   0  0  0  0  0  0  0  0  0  0  0  0
   10.1775    1.2382    0.0000 H   0  0  0  0  0  0  0  0  0  0  0  0
   10.6564    1.9727    0.0000 H   0  0  0  0  0  0  0  0  0  0  0  0
    9.9218    2.4515    0.0000 H   0  0  0  0  0  0  0  0  0  0  0  0
    7.6570    3.6789    0.0000 H   0  0  0  0  0  0  0  0  0  0  0  0
    7.2603    4.4609    0.0000 H   0  0  0  0  0  0  0  0  0  0  0  0
    6.4783    4.0641    0.0000 H   0  0  0  0  0  0  0  0  0  0  0  0
  1 22  1  0  0  0  0
  1 26  1  0  0  0  0
  2 25  1  0  0  0  0
  2 27  1  0  0  0  0
  3 26  2  0  0  0  0
  4 27  2  0  0  0  0
  5  6  1  0  0  0  0
  5  7  1  0  0  0  0
  5 14  1  0  0  0  0
  5 30  1  0  0  0  0
  6  8  1  0  0  0  0
  6 15  1  0  0  0  0
  6 31  1  0  0  0  0
  7 10  1  0  0  0  0
  7 12  1  0  0  0  0
  7 19  1  0  0  0  0
  8  9  1  0  0  0  0
  8 13  1  0  0  0  0
  8 32  1  0  0  0  0
  9 11  1  0  0  0  0
  9 18  1  0  0  0  0
  9 21  1  0  0  0  0
 10 16  1  0  0  0  0
 10 22  1  0  0  0  0
 10 33  1  0  0  0  0
 11 17  1  0  0  0  0
 11 20  1  0  0  0  0
 11 34  1  0  0  0  0
 12 13  1  0  0  0  0
 12 35  1  0  0  0  0
 12 36  1  0  0  0  0
 13 37  1  0  0  0  0
 13 38  1  0  0  0  0
 14 16  1  0  0  0  0
 14 39  1  0  0  0  0
 14 40  1  0  0  0  0
 15 17  1  0  0  0  0
 15 41  1  0  0  0  0
 15 42  1  0  0  0  0
 16 43  1  0  0  0  0
 16 44  1  0  0  0  0
 17 45  1  0  0  0  0
 17 46  1  0  0  0  0
 18 23  1  0  0  0  0
 18 47  1  0  0  0  0
 18 48  1  0  0  0  0
 19 49  1  0  0  0  0
 19 50  1  0  0  0  0
 19 51  1  0  0  0  0
 20 24  1  0  0  0  0
 20 52  1  0  0  0  0
 20 53  1  0  0  0  0
 21 54  1  0  0  0  0
 21 55  1  0  0  0  0
 21 56  1  0  0  0  0
 22 25  1  0  0  0  0
 22 57  1  0  0  0  0
 23 24  1  0  0  0  0
 23 58  1  0  0  0  0
 23 59  1  0  0  0  0
 24 60  1  0  0  0  0
 24 61  1  0  0  0  0
 25 62  1  0  0  0  0
 25 63  1  0  0  0  0
 26 28  1  0  0  0  0
 27 29  1  0  0  0  0
 28 64  1  0  0  0  0
 28 65  1  0  0  0  0
 28 66  1  0  0  0  0
 29 67  1  0  0  0  0
 29 68  1  0  0  0  0
 29 69  1  0  0  0  0
M  END
> <PUBCHEM_COMPOUND_CID>
525083
> <PUBCHEM_COMPOUND_CANONICALIZED>
1
> <PUBCHEM_CACTVS_COMPLEXITY>
645
> <PUBCHEM_CACTVS_HBOND_ACCEPTOR>
4
> <PUBCHEM_CACTVS_HBOND_DONOR>
0
> <PUBCHEM_CACTVS_ROTATABLE_BOND>
6
> <PUBCHEM_CACTVS_SUBSKEYS>
AAADcfB4OAAAAAAAAAAAAAAAAAAAAYAAAAAwYMAAAAAAAGDAAAAAGgAAAAAADxSggAICCAAABAAIAACQCAAAAAAAAAAAAAAAAAABAAIAAAACAAAEAAACAAGAwPAPgAAAAAAAAACAAAQAACAAAQAACAAAAA==
> <PUBCHEM_IUPAC_OPENEYE_NAME>
[2-acetoxy-2-(10,13-dimethyl-2,3,4,5,6,7,8,9,11,12,14,15,16,17-tetradecahydro-1H-cyclopenta[a]phenanthren-17-yl)ethyl] acetate
> <PUBCHEM_IUPAC_CAS_NAME>
acetic acid [2-acetyloxy-2-(10,13-dimethyl-2,3,4,5,6,7,8,9,11,12,14,15,16,17-tetradecahydro-1H-cyclopenta[a]phenanthren-17-yl)ethyl] ester
> <PUBCHEM_IUPAC_NAME_MARKUP>
[2-acetyloxy-2-(10,13-dimethyl-2,3,4,5,6,7,8,9,11,12,14,15,16,17-tetradecahydro-1<I>H</I>-cyclopenta[a]phenanthren-17-yl)ethyl] acetate
> <PUBCHEM_IUPAC_NAME>
[2-acetyloxy-2-(10,13-dimethyl-2,3,4,5,6,7,8,9,11,12,14,15,16,17-tetradecahydro-1H-cyclopenta[a]phenanthren-17-yl)ethyl] acetate
> <PUBCHEM_IUPAC_SYSTEMATIC_NAME>
[2-acetyloxy-2-(10,13-dimethyl-2,3,4,5,6,7,8,9,11,12,14,15,16,17-tetradecahydro-1H-cyclopenta[a]phenanthren-17-yl)ethyl] ethanoate
> <PUBCHEM_IUPAC_TRADITIONAL_NAME>
acetic acid [2-acetoxy-2-(10,13-dimethyl-2,3,4,5,6,7,8,9,11,12,14,15,16,17-tetradecahydro-1H-cyclopenta[a]phenanthren-17-yl)ethyl] ester
> <PUBCHEM_IUPAC_INCHI>
InChI=1S/C25H40O4/c1-16(26)28-15-23(29-17(2)27)22-11-10-20-19-9-8-18-7-5-6-13-24(18,3)21(19)12-14-25(20,22)4/h18-23H,5-15H2,1-4H3
> <PUBCHEM_IUPAC_INCHIKEY>
RZMRLFZKLOVKNA-UHFFFAOYSA-N
> <PUBCHEM_XLOGP3_AA>
7
> <PUBCHEM_EXACT_MASS>
404.29265975
> <PUBCHEM_MOLECULAR_FORMULA>
C25H40O4
> <PUBCHEM_MOLECULAR_WEIGHT>
404.6
> <PUBCHEM_OPENEYE_CAN_SMILES>
CC(=O)OCC(C1CCC2C1(CCC3C2CCC4C3(CCCC4)C)C)OC(=O)C
> <PUBCHEM_OPENEYE_ISO_SMILES>
CC(=O)OCC(C1CCC2C1(CCC3C2CCC4C3(CCCC4)C)C)OC(=O)C
> <PUBCHEM_CACTVS_TPSA>
52.6
> <PUBCHEM_MONOISOTOPIC_WEIGHT>
404.29265975
> <PUBCHEM_TOTAL_CHARGE>
0
> <PUBCHEM_HEAVY_ATOM_COUNT>
29
> <PUBCHEM_ATOM_DEF_STEREO_COUNT>
0
> <PUBCHEM_ATOM_UDEF_STEREO_COUNT>
8
> <PUBCHEM_BOND_DEF_STEREO_COUNT>
0
> <PUBCHEM_BOND_UDEF_STEREO_COUNT>
0
> <PUBCHEM_ISOTOPIC_ATOM_COUNT>
0
> <PUBCHEM_COMPONENT_COUNT>
1
> <PUBCHEM_CACTVS_TAUTO_COUNT>
-1
> <PUBCHEM_COORDINATE_TYPE>
1
5
255
> <PUBCHEM_BONDANNOTATIONS>
10  16  3
11  20  3
22  25  3
5  14  3
6  15  3
7  19  3
8  13  3
9  21  3
$$$$
