525015
  -OEChem-10302200292D
 43 45  0     1  0  0  0  0  0999 V2000
    5.8301   -4.8295    0.0000 F   0  0  0  0  0  0  0  0  0  0  0  0
    7.1962   -4.4635    0.0000 F   0  0  0  0  0  0  0  0  0  0  0  0
    6.8301   -3.0974    0.0000 F   0  0  0  0  0  0  0  0  0  0  0  0
    2.0000   -4.4635    0.0000 F   0  0  0  0  0  0  0  0  0  0  0  0
    3.3660   -4.8295    0.0000 F   0  0  0  0  0  0  0  0  0  0  0  0
    2.3660   -3.0974    0.0000 F   0  0  0  0  0  0  0  0  0  0  0  0
    5.4071   -0.3757    0.0000 O   0  0  0  0  0  0  0  0  0  0  0  0
    3.7891   -0.3757    0.0000 O   0  0  0  0  0  0  0  0  0  0  0  0
    5.2791    2.2979    0.0000 O   0  0  0  0  0  0  0  0  0  0  0  0
    5.0981    0.5754    0.0000 C   0  0  3  0  0  0  0  0  0  0  0  0
    4.0981    0.5754    0.0000 C   0  0  0  0  0  0  0  0  0  0  0  0
    5.6859    1.3844    0.0000 C   0  0  0  0  0  0  0  0  0  0  0  0
    4.5981   -1.9635    0.0000 C   0  0  0  0  0  0  0  0  0  0  0  0
    3.7320   -2.4635    0.0000 C   0  0  0  0  0  0  0  0  0  0  0  0
    5.4641   -2.4635    0.0000 C   0  0  0  0  0  0  0  0  0  0  0  0
    3.7320   -3.4635    0.0000 C   0  0  0  0  0  0  0  0  0  0  0  0
    5.4641   -3.4635    0.0000 C   0  0  0  0  0  0  0  0  0  0  0  0
    4.5981   -3.9635    0.0000 C   0  0  0  0  0  0  0  0  0  0  0  0
    5.8669    3.1069    0.0000 C   0  0  0  0  0  0  0  0  0  0  0  0
    6.8614    3.0024    0.0000 C   0  0  0  0  0  0  0  0  0  0  0  0
    6.3301   -3.9635    0.0000 C   0  0  0  0  0  0  0  0  0  0  0  0
    2.8660   -3.9635    0.0000 C   0  0  0  0  0  0  0  0  0  0  0  0
    5.4602    4.0205    0.0000 C   0  0  0  0  0  0  0  0  0  0  0  0
    7.4492    3.8114    0.0000 C   0  0  0  0  0  0  0  0  0  0  0  0
    7.2682    2.0889    0.0000 C   0  0  0  0  0  0  0  0  0  0  0  0
    6.0480    4.8295    0.0000 C   0  0  0  0  0  0  0  0  0  0  0  0
    7.0425    4.7250    0.0000 C   0  0  0  0  0  0  0  0  0  0  0  0
    4.5981   -0.9635    0.0000 B   0  0  0  0  0  0  0  0  0  0  0  0
    5.7104    0.4784    0.0000 H   0  0  0  0  0  0  0  0  0  0  0  0
    4.1629    1.1920    0.0000 H   0  0  0  0  0  0  0  0  0  0  0  0
    3.4916    0.7043    0.0000 H   0  0  0  0  0  0  0  0  0  0  0  0
    6.1166    0.9384    0.0000 H   0  0  0  0  0  0  0  0  0  0  0  0
    6.1999    1.7311    0.0000 H   0  0  0  0  0  0  0  0  0  0  0  0
    3.1951   -2.1535    0.0000 H   0  0  0  0  0  0  0  0  0  0  0  0
    6.0010   -2.1535    0.0000 H   0  0  0  0  0  0  0  0  0  0  0  0
    4.5981   -4.5835    0.0000 H   0  0  0  0  0  0  0  0  0  0  0  0
    4.8436    4.0853    0.0000 H   0  0  0  0  0  0  0  0  0  0  0  0
    8.0658    3.7466    0.0000 H   0  0  0  0  0  0  0  0  0  0  0  0
    6.7018    1.8367    0.0000 H   0  0  0  0  0  0  0  0  0  0  0  0
    7.5204    1.5225    0.0000 H   0  0  0  0  0  0  0  0  0  0  0  0
    7.8346    2.3410    0.0000 H   0  0  0  0  0  0  0  0  0  0  0  0
    5.7958    5.3959    0.0000 H   0  0  0  0  0  0  0  0  0  0  0  0
    7.4069    5.2266    0.0000 H   0  0  0  0  0  0  0  0  0  0  0  0
  1 21  1  0  0  0  0
  2 21  1  0  0  0  0
  3 21  1  0  0  0  0
  4 22  1  0  0  0  0
  5 22  1  0  0  0  0
  6 22  1  0  0  0  0
  7 10  1  0  0  0  0
  7 28  1  0  0  0  0
  8 11  1  0  0  0  0
  8 28  1  0  0  0  0
  9 12  1  0  0  0  0
  9 19  1  0  0  0  0
 10 11  1  0  0  0  0
 10 12  1  0  0  0  0
 10 29  1  0  0  0  0
 11 30  1  0  0  0  0
 11 31  1  0  0  0  0
 12 32  1  0  0  0  0
 12 33  1  0  0  0  0
 13 14  2  0  0  0  0
 13 15  1  0  0  0  0
 13 28  1  0  0  0  0
 14 16  1  0  0  0  0
 14 34  1  0  0  0  0
 15 17  2  0  0  0  0
 15 35  1  0  0  0  0
 16 18  2  0  0  0  0
 16 22  1  0  0  0  0
 17 18  1  0  0  0  0
 17 21  1  0  0  0  0
 18 36  1  0  0  0  0
 19 20  1  0  0  0  0
 19 23  2  0  0  0  0
 20 24  2  0  0  0  0
 20 25  1  0  0  0  0
 23 26  1  0  0  0  0
 23 37  1  0  0  0  0
 24 27  1  0  0  0  0
 24 38  1  0  0  0  0
 25 39  1  0  0  0  0
 25 40  1  0  0  0  0
 25 41  1  0  0  0  0
 26 27  2  0  0  0  0
 26 42  1  0  0  0  0
 27 43  1  0  0  0  0
M  END
> <PUBCHEM_COMPOUND_CID>
525015
> <PUBCHEM_COMPOUND_CANONICALIZED>
1
> <PUBCHEM_CACTVS_COMPLEXITY>
493
> <PUBCHEM_CACTVS_HBOND_ACCEPTOR>
9
> <PUBCHEM_CACTVS_HBOND_DONOR>
0
> <PUBCHEM_CACTVS_ROTATABLE_BOND>
4
> <PUBCHEM_CACTVS_SUBSKEYS>
AAADccJ4McAAAAAAAAAAAAAAAAAAASAAAAAwYAAAAAAAAAABQAAoGwAAAAAADBSgmBIyBoAABACAAiBCAAACCAAgIAAIiAAGCIgNJiKEMRqCOCClwBEKqAeAwGAOAAACAAAIAAAAAAQAABAAAAAAAAAAAA==
> <PUBCHEM_IUPAC_OPENEYE_NAME>
2-[3,5-bis(trifluoromethyl)phenyl]-4-[(2-methylphenoxy)methyl]-1,3,2-dioxaborolane
> <PUBCHEM_IUPAC_CAS_NAME>
2-[3,5-bis(trifluoromethyl)phenyl]-4-[(2-methylphenoxy)methyl]-1,3,2-dioxaborolane
> <PUBCHEM_IUPAC_NAME_MARKUP>
2-[3,5-bis(trifluoromethyl)phenyl]-4-[(2-methylphenoxy)methyl]-1,3,2-dioxaborolane
> <PUBCHEM_IUPAC_NAME>
2-[3,5-bis(trifluoromethyl)phenyl]-4-[(2-methylphenoxy)methyl]-1,3,2-dioxaborolane
> <PUBCHEM_IUPAC_SYSTEMATIC_NAME>
2-[3,5-bis(trifluoromethyl)phenyl]-4-[(2-methylphenoxy)methyl]-1,3,2-dioxaborolane
> <PUBCHEM_IUPAC_TRADITIONAL_NAME>
2-[3,5-bis(trifluoromethyl)phenyl]-4-[(2-methylphenoxy)methyl]-1,3,2-dioxaborolane
> <PUBCHEM_IUPAC_INCHI>
InChI=1S/C18H15BF6O3/c1-11-4-2-3-5-16(11)26-9-15-10-27-19(28-15)14-7-12(17(20,21)22)6-13(8-14)18(23,24)25/h2-8,15H,9-10H2,1H3
> <PUBCHEM_IUPAC_INCHIKEY>
DOJBYDPEVKKFJC-UHFFFAOYSA-N
> <PUBCHEM_EXACT_MASS>
404.1018435
> <PUBCHEM_MOLECULAR_FORMULA>
C18H15BF6O3
> <PUBCHEM_MOLECULAR_WEIGHT>
404.1
> <PUBCHEM_OPENEYE_CAN_SMILES>
B1(OCC(O1)COC2=CC=CC=C2C)C3=CC(=CC(=C3)C(F)(F)F)C(F)(F)F
> <PUBCHEM_OPENEYE_ISO_SMILES>
B1(OCC(O1)COC2=CC=CC=C2C)C3=CC(=CC(=C3)C(F)(F)F)C(F)(F)F
> <PUBCHEM_CACTVS_TPSA>
27.7
> <PUBCHEM_MONOISOTOPIC_WEIGHT>
404.1018435
> <PUBCHEM_TOTAL_CHARGE>
0
> <PUBCHEM_HEAVY_ATOM_COUNT>
28
> <PUBCHEM_ATOM_DEF_STEREO_COUNT>
0
> <PUBCHEM_ATOM_UDEF_STEREO_COUNT>
1
> <PUBCHEM_BOND_DEF_STEREO_COUNT>
0
> <PUBCHEM_BOND_UDEF_STEREO_COUNT>
0
> <PUBCHEM_ISOTOPIC_ATOM_COUNT>
0
> <PUBCHEM_COMPONENT_COUNT>
1
> <PUBCHEM_CACTVS_TAUTO_COUNT>
-1
> <PUBCHEM_COORDINATE_TYPE>
1
5
255
> <PUBCHEM_BONDANNOTATIONS>
10  12  3
13  14  8
13  15  8
14  16  8
15  17  8
16  18  8
17  18  8
19  20  8
19  23  8
20  24  8
23  26  8
24  27  8
26  27  8
$$$$
