525017
  -OEChem-10302200292D
 37 39  0     1  0  0  0  0  0999 V2000
    2.8660   -4.8965    0.0000 Br  0  0  0  0  0  0  0  0  0  0  0  0
    3.6750   -0.3087    0.0000 O   0  0  0  0  0  0  0  0  0  0  0  0
    2.0570   -0.3087    0.0000 O   0  0  0  0  0  0  0  0  0  0  0  0
    3.5471    2.3649    0.0000 O   0  0  0  0  0  0  0  0  0  0  0  0
    3.3660    0.6424    0.0000 C   0  0  3  0  0  0  0  0  0  0  0  0
    2.3660    0.6424    0.0000 C   0  0  0  0  0  0  0  0  0  0  0  0
    3.9538    1.4514    0.0000 C   0  0  0  0  0  0  0  0  0  0  0  0
    2.8660   -1.8965    0.0000 C   0  0  0  0  0  0  0  0  0  0  0  0
    4.1349    3.1739    0.0000 C   0  0  0  0  0  0  0  0  0  0  0  0
    5.1294    3.0694    0.0000 C   0  0  0  0  0  0  0  0  0  0  0  0
    2.0000   -2.3965    0.0000 C   0  0  0  0  0  0  0  0  0  0  0  0
    3.7320   -2.3965    0.0000 C   0  0  0  0  0  0  0  0  0  0  0  0
    3.7281    4.0875    0.0000 C   0  0  0  0  0  0  0  0  0  0  0  0
    5.7172    3.8784    0.0000 C   0  0  0  0  0  0  0  0  0  0  0  0
    5.5361    2.1559    0.0000 C   0  0  0  0  0  0  0  0  0  0  0  0
    2.0000   -3.3965    0.0000 C   0  0  0  0  0  0  0  0  0  0  0  0
    3.7320   -3.3965    0.0000 C   0  0  0  0  0  0  0  0  0  0  0  0
    4.3159    4.8965    0.0000 C   0  0  0  0  0  0  0  0  0  0  0  0
    5.3104    4.7920    0.0000 C   0  0  0  0  0  0  0  0  0  0  0  0
    2.8660   -3.8965    0.0000 C   0  0  0  0  0  0  0  0  0  0  0  0
    2.8660   -0.8965    0.0000 B   0  0  0  0  0  0  0  0  0  0  0  0
    3.9784    0.5454    0.0000 H   0  0  0  0  0  0  0  0  0  0  0  0
    2.4308    1.2590    0.0000 H   0  0  0  0  0  0  0  0  0  0  0  0
    1.7596    0.7713    0.0000 H   0  0  0  0  0  0  0  0  0  0  0  0
    4.3845    1.0054    0.0000 H   0  0  0  0  0  0  0  0  0  0  0  0
    4.4678    1.7981    0.0000 H   0  0  0  0  0  0  0  0  0  0  0  0
    1.4631   -2.0865    0.0000 H   0  0  0  0  0  0  0  0  0  0  0  0
    4.2690   -2.0865    0.0000 H   0  0  0  0  0  0  0  0  0  0  0  0
    3.1115    4.1523    0.0000 H   0  0  0  0  0  0  0  0  0  0  0  0
    6.3338    3.8136    0.0000 H   0  0  0  0  0  0  0  0  0  0  0  0
    4.9697    1.9037    0.0000 H   0  0  0  0  0  0  0  0  0  0  0  0
    5.7883    1.5895    0.0000 H   0  0  0  0  0  0  0  0  0  0  0  0
    6.1025    2.4080    0.0000 H   0  0  0  0  0  0  0  0  0  0  0  0
    1.4631   -3.7065    0.0000 H   0  0  0  0  0  0  0  0  0  0  0  0
    4.2690   -3.7065    0.0000 H   0  0  0  0  0  0  0  0  0  0  0  0
    4.0637    5.4629    0.0000 H   0  0  0  0  0  0  0  0  0  0  0  0
    5.6749    5.2936    0.0000 H   0  0  0  0  0  0  0  0  0  0  0  0
  1 20  1  0  0  0  0
  2  5  1  0  0  0  0
  2 21  1  0  0  0  0
  3  6  1  0  0  0  0
  3 21  1  0  0  0  0
  4  7  1  0  0  0  0
  4  9  1  0  0  0  0
  5  6  1  0  0  0  0
  5  7  1  0  0  0  0
  5 22  1  0  0  0  0
  6 23  1  0  0  0  0
  6 24  1  0  0  0  0
  7 25  1  0  0  0  0
  7 26  1  0  0  0  0
  8 11  2  0  0  0  0
  8 12  1  0  0  0  0
  8 21  1  0  0  0  0
  9 10  1  0  0  0  0
  9 13  2  0  0  0  0
 10 14  2  0  0  0  0
 10 15  1  0  0  0  0
 11 16  1  0  0  0  0
 11 27  1  0  0  0  0
 12 17  2  0  0  0  0
 12 28  1  0  0  0  0
 13 18  1  0  0  0  0
 13 29  1  0  0  0  0
 14 19  1  0  0  0  0
 14 30  1  0  0  0  0
 15 31  1  0  0  0  0
 15 32  1  0  0  0  0
 15 33  1  0  0  0  0
 16 20  2  0  0  0  0
 16 34  1  0  0  0  0
 17 20  1  0  0  0  0
 17 35  1  0  0  0  0
 18 19  2  0  0  0  0
 18 36  1  0  0  0  0
 19 37  1  0  0  0  0
M  END
> <PUBCHEM_COMPOUND_CID>
525017
> <PUBCHEM_COMPOUND_CANONICALIZED>
1
> <PUBCHEM_CACTVS_COMPLEXITY>
323
> <PUBCHEM_CACTVS_HBOND_ACCEPTOR>
3
> <PUBCHEM_CACTVS_HBOND_DONOR>
0
> <PUBCHEM_CACTVS_ROTATABLE_BOND>
4
> <PUBCHEM_CACTVS_SUBSKEYS>
AAADceJ4MAAAEAAAAAAAAAAAAAAAASAAAAAwYAAAAAAAAAABQAAoGgBAAAABrBSgmAIyBoAABACAAiBCAAACCAAgIAQIiAAGCKgNJiKEMRqCOCClwBEKqheAwCAOAAAAAAAIAAAAAAAAABAAAAAAAAAAAA==
> <PUBCHEM_IUPAC_OPENEYE_NAME>
2-(4-bromophenyl)-4-[(2-methylphenoxy)methyl]-1,3,2-dioxaborolane
> <PUBCHEM_IUPAC_CAS_NAME>
2-(4-bromophenyl)-4-[(2-methylphenoxy)methyl]-1,3,2-dioxaborolane
> <PUBCHEM_IUPAC_NAME_MARKUP>
2-(4-bromophenyl)-4-[(2-methylphenoxy)methyl]-1,3,2-dioxaborolane
> <PUBCHEM_IUPAC_NAME>
2-(4-bromophenyl)-4-[(2-methylphenoxy)methyl]-1,3,2-dioxaborolane
> <PUBCHEM_IUPAC_SYSTEMATIC_NAME>
2-(4-bromophenyl)-4-[(2-methylphenoxy)methyl]-1,3,2-dioxaborolane
> <PUBCHEM_IUPAC_TRADITIONAL_NAME>
2-(4-bromophenyl)-4-[(2-methylphenoxy)methyl]-1,3,2-dioxaborolane
> <PUBCHEM_IUPAC_INCHI>
InChI=1S/C16H16BBrO3/c1-12-4-2-3-5-16(12)19-10-15-11-20-17(21-15)13-6-8-14(18)9-7-13/h2-9,15H,10-11H2,1H3
> <PUBCHEM_IUPAC_INCHIKEY>
CEJLYAZDSWFMDA-UHFFFAOYSA-N
> <PUBCHEM_EXACT_MASS>
346.03759
> <PUBCHEM_MOLECULAR_FORMULA>
C16H16BBrO3
> <PUBCHEM_MOLECULAR_WEIGHT>
347.0
> <PUBCHEM_OPENEYE_CAN_SMILES>
B1(OCC(O1)COC2=CC=CC=C2C)C3=CC=C(C=C3)Br
> <PUBCHEM_OPENEYE_ISO_SMILES>
B1(OCC(O1)COC2=CC=CC=C2C)C3=CC=C(C=C3)Br
> <PUBCHEM_CACTVS_TPSA>
27.7
> <PUBCHEM_MONOISOTOPIC_WEIGHT>
346.03759
> <PUBCHEM_TOTAL_CHARGE>
0
> <PUBCHEM_HEAVY_ATOM_COUNT>
21
> <PUBCHEM_ATOM_DEF_STEREO_COUNT>
0
> <PUBCHEM_ATOM_UDEF_STEREO_COUNT>
1
> <PUBCHEM_BOND_DEF_STEREO_COUNT>
0
> <PUBCHEM_BOND_UDEF_STEREO_COUNT>
0
> <PUBCHEM_ISOTOPIC_ATOM_COUNT>
0
> <PUBCHEM_COMPONENT_COUNT>
1
> <PUBCHEM_CACTVS_TAUTO_COUNT>
-1
> <PUBCHEM_COORDINATE_TYPE>
1
5
255
> <PUBCHEM_BONDANNOTATIONS>
10  14  8
11  16  8
12  17  8
13  18  8
14  19  8
16  20  8
17  20  8
18  19  8
5  7  3
8  11  8
8  12  8
9  10  8
9  13  8
$$$$
