525081
  -OEChem-10302200292D
 59 62  0     1  0  0  0  0  0999 V2000
    7.1142    2.2542    0.0000 O   0  0  0  0  0  0  0  0  0  0  0  0
    9.0712    2.6666    0.0000 O   0  0  0  0  0  0  0  0  0  0  0  0
    6.5251   -0.7454    0.0000 C   0  0  3  0  0  0  0  0  0  0  0  0
    5.6591   -1.2454    0.0000 C   0  0  3  0  0  0  0  0  0  0  0  0
    6.5251    0.2546    0.0000 C   0  0  3  0  0  0  0  0  0  0  0  0
    4.7931   -0.7454    0.0000 C   0  0  3  0  0  0  0  0  0  0  0  0
    3.8831   -1.2522    0.0000 C   0  0  3  0  0  0  0  0  0  0  0  0
    7.4714    0.5594    0.0000 C   0  0  3  0  0  0  0  0  0  0  0  0
    3.8751   -2.2938    0.0000 C   0  0  3  0  0  0  0  0  0  0  0  0
    5.6591    0.7546    0.0000 C   0  0  0  0  0  0  0  0  0  0  0  0
    4.7931    0.2546    0.0000 C   0  0  0  0  0  0  0  0  0  0  0  0
    7.4714   -1.0501    0.0000 C   0  0  0  0  0  0  0  0  0  0  0  0
    5.6752   -2.2869    0.0000 C   0  0  0  0  0  0  0  0  0  0  0  0
    8.0550   -0.2454    0.0000 C   0  0  0  0  0  0  0  0  0  0  0  0
    4.7771   -2.8146    0.0000 C   0  0  0  0  0  0  0  0  0  0  0  0
    2.9562   -0.6881    0.0000 C   0  0  0  0  0  0  0  0  0  0  0  0
    6.5251    1.2546    0.0000 C   0  0  0  0  0  0  0  0  0  0  0  0
    2.9396   -2.8435    0.0000 C   0  0  0  0  0  0  0  0  0  0  0  0
    3.8908   -0.2522    0.0000 C   0  0  0  0  0  0  0  0  0  0  0  0
    7.7820    1.5099    0.0000 C   0  0  3  0  0  0  0  0  0  0  0  0
    2.0084   -1.2161    0.0000 C   0  0  0  0  0  0  0  0  0  0  0  0
    2.0000   -2.3010    0.0000 C   0  0  0  0  0  0  0  0  0  0  0  0
    8.7605    1.7161    0.0000 C   0  0  0  0  0  0  0  0  0  0  0  0
    6.5908   -1.3619    0.0000 H   0  0  0  0  0  0  0  0  0  0  0  0
    6.1984   -1.5512    0.0000 H   0  0  0  0  0  0  0  0  0  0  0  0
    5.3300   -0.4354    0.0000 H   0  0  0  0  0  0  0  0  0  0  0  0
    8.0838    0.6556    0.0000 H   0  0  0  0  0  0  0  0  0  0  0  0
    3.8774   -2.9138    0.0000 H   0  0  0  0  0  0  0  0  0  0  0  0
    6.0576    1.2296    0.0000 H   0  0  0  0  0  0  0  0  0  0  0  0
    5.2606    1.2296    0.0000 H   0  0  0  0  0  0  0  0  0  0  0  0
    4.5810    0.8373    0.0000 H   0  0  0  0  0  0  0  0  0  0  0  0
    4.1825    0.1470    0.0000 H   0  0  0  0  0  0  0  0  0  0  0  0
    7.2203   -1.6170    0.0000 H   0  0  0  0  0  0  0  0  0  0  0  0
    8.0087   -1.3593    0.0000 H   0  0  0  0  0  0  0  0  0  0  0  0
    5.8932   -2.8673    0.0000 H   0  0  0  0  0  0  0  0  0  0  0  0
    6.2843   -2.1714    0.0000 H   0  0  0  0  0  0  0  0  0  0  0  0
    8.5158   -0.6601    0.0000 H   0  0  0  0  0  0  0  0  0  0  0  0
    8.5158    0.1694    0.0000 H   0  0  0  0  0  0  0  0  0  0  0  0
    4.3798   -3.2906    0.0000 H   0  0  0  0  0  0  0  0  0  0  0  0
    5.1781   -3.2875    0.0000 H   0  0  0  0  0  0  0  0  0  0  0  0
    3.3645   -0.2215    0.0000 H   0  0  0  0  0  0  0  0  0  0  0  0
    2.5663   -0.2061    0.0000 H   0  0  0  0  0  0  0  0  0  0  0  0
    7.1451    1.2546    0.0000 H   0  0  0  0  0  0  0  0  0  0  0  0
    6.5251    1.8746    0.0000 H   0  0  0  0  0  0  0  0  0  0  0  0
    5.9051    1.2546    0.0000 H   0  0  0  0  0  0  0  0  0  0  0  0
    2.5423   -3.3195    0.0000 H   0  0  0  0  0  0  0  0  0  0  0  0
    3.3406   -3.3164    0.0000 H   0  0  0  0  0  0  0  0  0  0  0  0
    4.5108   -0.2570    0.0000 H   0  0  0  0  0  0  0  0  0  0  0  0
    3.8956    0.3678    0.0000 H   0  0  0  0  0  0  0  0  0  0  0  0
    3.2708   -0.2474    0.0000 H   0  0  0  0  0  0  0  0  0  0  0  0
    7.9746    2.0992    0.0000 H   0  0  0  0  0  0  0  0  0  0  0  0
    1.8038   -0.6308    0.0000 H   0  0  0  0  0  0  0  0  0  0  0  0
    1.3967   -1.3174    0.0000 H   0  0  0  0  0  0  0  0  0  0  0  0
    1.3900   -2.1902    0.0000 H   0  0  0  0  0  0  0  0  0  0  0  0
    1.7864   -2.8831    0.0000 H   0  0  0  0  0  0  0  0  0  0  0  0
    8.7811    1.0965    0.0000 H   0  0  0  0  0  0  0  0  0  0  0  0
    9.3743    1.6288    0.0000 H   0  0  0  0  0  0  0  0  0  0  0  0
    7.3068    2.8435    0.0000 H   0  0  0  0  0  0  0  0  0  0  0  0
    9.6779    2.7945    0.0000 H   0  0  0  0  0  0  0  0  0  0  0  0
  1 20  1  0  0  0  0
  1 58  1  0  0  0  0
  2 23  1  0  0  0  0
  2 59  1  0  0  0  0
  3  4  1  0  0  0  0
  3  5  1  0  0  0  0
  3 12  1  0  0  0  0
  3 24  1  0  0  0  0
  4  6  1  0  0  0  0
  4 13  1  0  0  0  0
  4 25  1  0  0  0  0
  5  8  1  0  0  0  0
  5 10  1  0  0  0  0
  5 17  1  0  0  0  0
  6  7  1  0  0  0  0
  6 11  1  0  0  0  0
  6 26  1  0  0  0  0
  7  9  1  0  0  0  0
  7 16  1  0  0  0  0
  7 19  1  0  0  0  0
  8 14  1  0  0  0  0
  8 20  1  0  0  0  0
  8 27  1  0  0  0  0
  9 15  1  0  0  0  0
  9 18  1  0  0  0  0
  9 28  1  0  0  0  0
 10 11  1  0  0  0  0
 10 29  1  0  0  0  0
 10 30  1  0  0  0  0
 11 31  1  0  0  0  0
 11 32  1  0  0  0  0
 12 14  1  0  0  0  0
 12 33  1  0  0  0  0
 12 34  1  0  0  0  0
 13 15  1  0  0  0  0
 13 35  1  0  0  0  0
 13 36  1  0  0  0  0
 14 37  1  0  0  0  0
 14 38  1  0  0  0  0
 15 39  1  0  0  0  0
 15 40  1  0  0  0  0
 16 21  1  0  0  0  0
 16 41  1  0  0  0  0
 16 42  1  0  0  0  0
 17 43  1  0  0  0  0
 17 44  1  0  0  0  0
 17 45  1  0  0  0  0
 18 22  1  0  0  0  0
 18 46  1  0  0  0  0
 18 47  1  0  0  0  0
 19 48  1  0  0  0  0
 19 49  1  0  0  0  0
 19 50  1  0  0  0  0
 20 23  1  0  0  0  0
 20 51  1  0  0  0  0
 21 22  1  0  0  0  0
 21 52  1  0  0  0  0
 21 53  1  0  0  0  0
 22 54  1  0  0  0  0
 22 55  1  0  0  0  0
 23 56  1  0  0  0  0
 23 57  1  0  0  0  0
M  END
> <PUBCHEM_COMPOUND_CID>
525081
> <PUBCHEM_COMPOUND_CANONICALIZED>
1
> <PUBCHEM_CACTVS_COMPLEXITY>
449
> <PUBCHEM_CACTVS_HBOND_ACCEPTOR>
2
> <PUBCHEM_CACTVS_HBOND_DONOR>
2
> <PUBCHEM_CACTVS_ROTATABLE_BOND>
2
> <PUBCHEM_CACTVS_SUBSKEYS>
AAADcfB4MAAAAAAAAAAAAAAAAAAAAYAAAAAwYMAAAAAAAGDAAAAAGgAACAAADxSggAICAAAAAgAAAAAAAAAAAAAAAAAAAAAAAAABEAIAAAAAQAAEAAABAAGAwPAPgAAAAAAAAACAAAQAACAAAQAACAAAAA==
> <PUBCHEM_IUPAC_OPENEYE_NAME>
1-(10,13-dimethyl-2,3,4,5,6,7,8,9,11,12,14,15,16,17-tetradecahydro-1H-cyclopenta[a]phenanthren-17-yl)ethane-1,2-diol
> <PUBCHEM_IUPAC_CAS_NAME>
1-(10,13-dimethyl-2,3,4,5,6,7,8,9,11,12,14,15,16,17-tetradecahydro-1H-cyclopenta[a]phenanthren-17-yl)ethane-1,2-diol
> <PUBCHEM_IUPAC_NAME_MARKUP>
1-(10,13-dimethyl-2,3,4,5,6,7,8,9,11,12,14,15,16,17-tetradecahydro-1<I>H</I>-cyclopenta[a]phenanthren-17-yl)ethane-1,2-diol
> <PUBCHEM_IUPAC_NAME>
1-(10,13-dimethyl-2,3,4,5,6,7,8,9,11,12,14,15,16,17-tetradecahydro-1H-cyclopenta[a]phenanthren-17-yl)ethane-1,2-diol
> <PUBCHEM_IUPAC_SYSTEMATIC_NAME>
1-(10,13-dimethyl-2,3,4,5,6,7,8,9,11,12,14,15,16,17-tetradecahydro-1H-cyclopenta[a]phenanthren-17-yl)ethane-1,2-diol
> <PUBCHEM_IUPAC_TRADITIONAL_NAME>
1-(10,13-dimethyl-2,3,4,5,6,7,8,9,11,12,14,15,16,17-tetradecahydro-1H-cyclopenta[a]phenanthren-17-yl)ethane-1,2-diol
> <PUBCHEM_IUPAC_INCHI>
InChI=1S/C21H36O2/c1-20-11-4-3-5-14(20)6-7-15-16-8-9-18(19(23)13-22)21(16,2)12-10-17(15)20/h14-19,22-23H,3-13H2,1-2H3
> <PUBCHEM_IUPAC_INCHIKEY>
QUQBOXYLXZAONE-UHFFFAOYSA-N
> <PUBCHEM_XLOGP3_AA>
5.8
> <PUBCHEM_EXACT_MASS>
320.271530387
> <PUBCHEM_MOLECULAR_FORMULA>
C21H36O2
> <PUBCHEM_MOLECULAR_WEIGHT>
320.5
> <PUBCHEM_OPENEYE_CAN_SMILES>
CC12CCCCC1CCC3C2CCC4(C3CCC4C(CO)O)C
> <PUBCHEM_OPENEYE_ISO_SMILES>
CC12CCCCC1CCC3C2CCC4(C3CCC4C(CO)O)C
> <PUBCHEM_CACTVS_TPSA>
40.5
> <PUBCHEM_MONOISOTOPIC_WEIGHT>
320.271530387
> <PUBCHEM_TOTAL_CHARGE>
0
> <PUBCHEM_HEAVY_ATOM_COUNT>
23
> <PUBCHEM_ATOM_DEF_STEREO_COUNT>
0
> <PUBCHEM_ATOM_UDEF_STEREO_COUNT>
8
> <PUBCHEM_BOND_DEF_STEREO_COUNT>
0
> <PUBCHEM_BOND_UDEF_STEREO_COUNT>
0
> <PUBCHEM_ISOTOPIC_ATOM_COUNT>
0
> <PUBCHEM_COMPONENT_COUNT>
1
> <PUBCHEM_CACTVS_TAUTO_COUNT>
-1
> <PUBCHEM_COORDINATE_TYPE>
1
5
255
> <PUBCHEM_BONDANNOTATIONS>
20  1  3
3  12  3
4  13  3
5  17  3
6  11  3
7  19  3
8  14  3
9  18  3
$$$$
