525013
  -OEChem-10302200292D
 37 39  0     1  0  0  0  0  0999 V2000
    2.0000   -1.8965    0.0000 Cl  0  0  0  0  0  0  0  0  0  0  0  0
    3.7320   -4.8965    0.0000 Cl  0  0  0  0  0  0  0  0  0  0  0  0
    4.5411   -0.3087    0.0000 O   0  0  0  0  0  0  0  0  0  0  0  0
    2.9230   -0.3087    0.0000 O   0  0  0  0  0  0  0  0  0  0  0  0
    4.4131    2.3649    0.0000 O   0  0  0  0  0  0  0  0  0  0  0  0
    4.2320    0.6424    0.0000 C   0  0  3  0  0  0  0  0  0  0  0  0
    3.2320    0.6424    0.0000 C   0  0  0  0  0  0  0  0  0  0  0  0
    4.8198    1.4514    0.0000 C   0  0  0  0  0  0  0  0  0  0  0  0
    3.7320   -1.8965    0.0000 C   0  0  0  0  0  0  0  0  0  0  0  0
    5.0009    3.1739    0.0000 C   0  0  0  0  0  0  0  0  0  0  0  0
    4.5942    4.0875    0.0000 C   0  0  0  0  0  0  0  0  0  0  0  0
    2.8660   -2.3965    0.0000 C   0  0  0  0  0  0  0  0  0  0  0  0
    4.5981   -2.3965    0.0000 C   0  0  0  0  0  0  0  0  0  0  0  0
    5.9954    3.0694    0.0000 C   0  0  0  0  0  0  0  0  0  0  0  0
    5.1819    4.8965    0.0000 C   0  0  0  0  0  0  0  0  0  0  0  0
    3.5996    4.1920    0.0000 C   0  0  0  0  0  0  0  0  0  0  0  0
    2.8660   -3.3965    0.0000 C   0  0  0  0  0  0  0  0  0  0  0  0
    4.5981   -3.3965    0.0000 C   0  0  0  0  0  0  0  0  0  0  0  0
    6.5832    3.8784    0.0000 C   0  0  0  0  0  0  0  0  0  0  0  0
    6.1765    4.7920    0.0000 C   0  0  0  0  0  0  0  0  0  0  0  0
    3.7320   -3.8965    0.0000 C   0  0  0  0  0  0  0  0  0  0  0  0
    3.7320   -0.8965    0.0000 B   0  0  0  0  0  0  0  0  0  0  0  0
    4.8444    0.5454    0.0000 H   0  0  0  0  0  0  0  0  0  0  0  0
    3.2969    1.2590    0.0000 H   0  0  0  0  0  0  0  0  0  0  0  0
    2.6256    0.7713    0.0000 H   0  0  0  0  0  0  0  0  0  0  0  0
    5.2505    1.0054    0.0000 H   0  0  0  0  0  0  0  0  0  0  0  0
    5.3338    1.7981    0.0000 H   0  0  0  0  0  0  0  0  0  0  0  0
    5.1350   -2.0865    0.0000 H   0  0  0  0  0  0  0  0  0  0  0  0
    6.2476    2.5030    0.0000 H   0  0  0  0  0  0  0  0  0  0  0  0
    4.9298    5.4629    0.0000 H   0  0  0  0  0  0  0  0  0  0  0  0
    3.6644    4.8086    0.0000 H   0  0  0  0  0  0  0  0  0  0  0  0
    2.9830    4.2568    0.0000 H   0  0  0  0  0  0  0  0  0  0  0  0
    3.5348    3.5754    0.0000 H   0  0  0  0  0  0  0  0  0  0  0  0
    2.3291   -3.7065    0.0000 H   0  0  0  0  0  0  0  0  0  0  0  0
    5.1350   -3.7065    0.0000 H   0  0  0  0  0  0  0  0  0  0  0  0
    7.1998    3.8136    0.0000 H   0  0  0  0  0  0  0  0  0  0  0  0
    6.5409    5.2936    0.0000 H   0  0  0  0  0  0  0  0  0  0  0  0
  1 12  1  0  0  0  0
  2 21  1  0  0  0  0
  3  6  1  0  0  0  0
  3 22  1  0  0  0  0
  4  7  1  0  0  0  0
  4 22  1  0  0  0  0
  5  8  1  0  0  0  0
  5 10  1  0  0  0  0
  6  7  1  0  0  0  0
  6  8  1  0  0  0  0
  6 23  1  0  0  0  0
  7 24  1  0  0  0  0
  7 25  1  0  0  0  0
  8 26  1  0  0  0  0
  8 27  1  0  0  0  0
  9 12  2  0  0  0  0
  9 13  1  0  0  0  0
  9 22  1  0  0  0  0
 10 11  1  0  0  0  0
 10 14  2  0  0  0  0
 11 15  2  0  0  0  0
 11 16  1  0  0  0  0
 12 17  1  0  0  0  0
 13 18  2  0  0  0  0
 13 28  1  0  0  0  0
 14 19  1  0  0  0  0
 14 29  1  0  0  0  0
 15 20  1  0  0  0  0
 15 30  1  0  0  0  0
 16 31  1  0  0  0  0
 16 32  1  0  0  0  0
 16 33  1  0  0  0  0
 17 21  2  0  0  0  0
 17 34  1  0  0  0  0
 18 21  1  0  0  0  0
 18 35  1  0  0  0  0
 19 20  2  0  0  0  0
 19 36  1  0  0  0  0
 20 37  1  0  0  0  0
M  END
> <PUBCHEM_COMPOUND_CID>
525013
> <PUBCHEM_COMPOUND_CANONICALIZED>
1
> <PUBCHEM_CACTVS_COMPLEXITY>
360
> <PUBCHEM_CACTVS_HBOND_ACCEPTOR>
3
> <PUBCHEM_CACTVS_HBOND_DONOR>
0
> <PUBCHEM_CACTVS_ROTATABLE_BOND>
4
> <PUBCHEM_CACTVS_SUBSKEYS>
AAADccJ4MAAGAAAAAAAAAAAAAAAAASAAAAAwYAAAAAAAAAABQAAoGgIAAAAADBagmCIyBoAABACAAiBCAAACCAAgJQAIiAAGCogNJiKFMxqCOCClwBEKqAeAwCAOAAAAAACIAAAAAAAAARAAAAAAAAAAAA==
> <PUBCHEM_IUPAC_OPENEYE_NAME>
2-(2,4-dichlorophenyl)-4-[(2-methylphenoxy)methyl]-1,3,2-dioxaborolane
> <PUBCHEM_IUPAC_CAS_NAME>
2-(2,4-dichlorophenyl)-4-[(2-methylphenoxy)methyl]-1,3,2-dioxaborolane
> <PUBCHEM_IUPAC_NAME_MARKUP>
2-(2,4-dichlorophenyl)-4-[(2-methylphenoxy)methyl]-1,3,2-dioxaborolane
> <PUBCHEM_IUPAC_NAME>
2-(2,4-dichlorophenyl)-4-[(2-methylphenoxy)methyl]-1,3,2-dioxaborolane
> <PUBCHEM_IUPAC_SYSTEMATIC_NAME>
2-(2,4-dichlorophenyl)-4-[(2-methylphenoxy)methyl]-1,3,2-dioxaborolane
> <PUBCHEM_IUPAC_TRADITIONAL_NAME>
2-(2,4-dichlorophenyl)-4-[(2-methylphenoxy)methyl]-1,3,2-dioxaborolane
> <PUBCHEM_IUPAC_INCHI>
InChI=1S/C16H15BCl2O3/c1-11-4-2-3-5-16(11)20-9-13-10-21-17(22-13)14-7-6-12(18)8-15(14)19/h2-8,13H,9-10H2,1H3
> <PUBCHEM_IUPAC_INCHIKEY>
VQSFUHCENLSPKY-UHFFFAOYSA-N
> <PUBCHEM_EXACT_MASS>
336.0491299
> <PUBCHEM_MOLECULAR_FORMULA>
C16H15BCl2O3
> <PUBCHEM_MOLECULAR_WEIGHT>
337.0
> <PUBCHEM_OPENEYE_CAN_SMILES>
B1(OCC(O1)COC2=CC=CC=C2C)C3=C(C=C(C=C3)Cl)Cl
> <PUBCHEM_OPENEYE_ISO_SMILES>
B1(OCC(O1)COC2=CC=CC=C2C)C3=C(C=C(C=C3)Cl)Cl
> <PUBCHEM_CACTVS_TPSA>
27.7
> <PUBCHEM_MONOISOTOPIC_WEIGHT>
336.0491299
> <PUBCHEM_TOTAL_CHARGE>
0
> <PUBCHEM_HEAVY_ATOM_COUNT>
22
> <PUBCHEM_ATOM_DEF_STEREO_COUNT>
0
> <PUBCHEM_ATOM_UDEF_STEREO_COUNT>
1
> <PUBCHEM_BOND_DEF_STEREO_COUNT>
0
> <PUBCHEM_BOND_UDEF_STEREO_COUNT>
0
> <PUBCHEM_ISOTOPIC_ATOM_COUNT>
0
> <PUBCHEM_COMPONENT_COUNT>
1
> <PUBCHEM_CACTVS_TAUTO_COUNT>
-1
> <PUBCHEM_COORDINATE_TYPE>
1
5
255
> <PUBCHEM_BONDANNOTATIONS>
10  11  8
10  14  8
11  15  8
12  17  8
13  18  8
14  19  8
15  20  8
17  21  8
18  21  8
19  20  8
6  8  3
9  12  8
9  13  8
$$$$
