525003
  -OEChem-10302200292D
 51 52  0     1  0  0  0  0  0999 V2000
    3.3660    0.3840    0.0000 F   0  0  0  0  0  0  0  0  0  0  0  0
    2.0000    0.7500    0.0000 F   0  0  0  0  0  0  0  0  0  0  0  0
    2.3660    2.1160    0.0000 F   0  0  0  0  0  0  0  0  0  0  0  0
    4.5981    1.2500    0.0000 O   0  0  0  0  0  0  0  0  0  0  0  0
    8.9282   -0.2500    0.0000 O   0  0  0  0  0  0  0  0  0  0  0  0
   10.6603    2.7500    0.0000 O   0  0  0  0  0  0  0  0  0  0  0  0
    3.7320    2.7500    0.0000 O   0  0  0  0  0  0  0  0  0  0  0  0
    9.7942    1.2500    0.0000 N   0  0  0  0  0  0  0  0  0  0  0  0
   10.6603   -0.2500    0.0000 N   0  0  0  0  0  0  0  0  0  0  0  0
   12.4725    1.5547    0.0000 N   0  0  0  0  0  0  0  0  0  0  0  0
   12.4725   -0.0547    0.0000 N   0  0  0  0  0  0  0  0  0  0  0  0
    8.0622    1.2500    0.0000 C   0  0  0  0  0  0  0  0  0  0  0  0
    8.9282    1.7500    0.0000 C   0  0  0  0  0  0  0  0  0  0  0  0
    7.1962    1.7500    0.0000 C   0  0  0  0  0  0  0  0  0  0  0  0
    6.3301    1.2500    0.0000 C   0  0  0  0  0  0  0  0  0  0  0  0
   11.5263    1.2500    0.0000 C   0  0  0  0  0  0  0  0  0  0  0  0
   11.5263    0.2500    0.0000 C   0  0  0  0  0  0  0  0  0  0  0  0
    9.7942    0.2500    0.0000 C   0  0  0  0  0  0  0  0  0  0  0  0
   10.6603    1.7500    0.0000 C   0  0  0  0  0  0  0  0  0  0  0  0
    5.4641    1.7500    0.0000 C   0  0  3  0  0  0  0  0  0  0  0  0
   10.6603   -1.2500    0.0000 C   0  0  0  0  0  0  0  0  0  0  0  0
    9.7942   -1.7500    0.0000 C   0  0  0  0  0  0  0  0  0  0  0  0
    5.4641    2.7500    0.0000 C   0  0  0  0  0  0  0  0  0  0  0  0
   13.0561    0.7500    0.0000 C   0  0  0  0  0  0  0  0  0  0  0  0
   12.7832    2.5053    0.0000 C   0  0  0  0  0  0  0  0  0  0  0  0
    9.7942   -2.7500    0.0000 C   0  0  0  0  0  0  0  0  0  0  0  0
    3.7320    1.7500    0.0000 C   0  0  0  0  0  0  0  0  0  0  0  0
    2.8660    1.2500    0.0000 C   0  0  0  0  0  0  0  0  0  0  0  0
    7.6636    0.7751    0.0000 H   0  0  0  0  0  0  0  0  0  0  0  0
    8.4607    0.7751    0.0000 H   0  0  0  0  0  0  0  0  0  0  0  0
    9.3267    2.2250    0.0000 H   0  0  0  0  0  0  0  0  0  0  0  0
    8.5297    2.2250    0.0000 H   0  0  0  0  0  0  0  0  0  0  0  0
    7.5947    2.2250    0.0000 H   0  0  0  0  0  0  0  0  0  0  0  0
    6.7976    2.2250    0.0000 H   0  0  0  0  0  0  0  0  0  0  0  0
    5.9316    0.7751    0.0000 H   0  0  0  0  0  0  0  0  0  0  0  0
    6.7287    0.7751    0.0000 H   0  0  0  0  0  0  0  0  0  0  0  0
    5.4641    1.1300    0.0000 H   0  0  0  0  0  0  0  0  0  0  0  0
   10.8723   -1.8326    0.0000 H   0  0  0  0  0  0  0  0  0  0  0  0
   11.2708   -1.1423    0.0000 H   0  0  0  0  0  0  0  0  0  0  0  0
    9.5822   -1.1674    0.0000 H   0  0  0  0  0  0  0  0  0  0  0  0
    9.1836   -1.8577    0.0000 H   0  0  0  0  0  0  0  0  0  0  0  0
    6.0841    2.7500    0.0000 H   0  0  0  0  0  0  0  0  0  0  0  0
    5.4641    3.3700    0.0000 H   0  0  0  0  0  0  0  0  0  0  0  0
    4.8441    2.7500    0.0000 H   0  0  0  0  0  0  0  0  0  0  0  0
   13.6761    0.7500    0.0000 H   0  0  0  0  0  0  0  0  0  0  0  0
   13.3725    2.3126    0.0000 H   0  0  0  0  0  0  0  0  0  0  0  0
   12.9758    3.0946    0.0000 H   0  0  0  0  0  0  0  0  0  0  0  0
   12.1938    2.6979    0.0000 H   0  0  0  0  0  0  0  0  0  0  0  0
    9.1742   -2.7500    0.0000 H   0  0  0  0  0  0  0  0  0  0  0  0
    9.7942   -3.3700    0.0000 H   0  0  0  0  0  0  0  0  0  0  0  0
   10.4142   -2.7500    0.0000 H   0  0  0  0  0  0  0  0  0  0  0  0
  1 28  1  0  0  0  0
  2 28  1  0  0  0  0
  3 28  1  0  0  0  0
  4 20  1  0  0  0  0
  4 27  1  0  0  0  0
  5 18  2  0  0  0  0
  6 19  2  0  0  0  0
  7 27  2  0  0  0  0
  8 13  1  0  0  0  0
  8 18  1  0  0  0  0
  8 19  1  0  0  0  0
  9 17  1  0  0  0  0
  9 18  1  0  0  0  0
  9 21  1  0  0  0  0
 10 16  1  0  0  0  0
 10 24  1  0  0  0  0
 10 25  1  0  0  0  0
 11 17  1  0  0  0  0
 11 24  2  0  0  0  0
 12 13  1  0  0  0  0
 12 14  1  0  0  0  0
 12 29  1  0  0  0  0
 12 30  1  0  0  0  0
 13 31  1  0  0  0  0
 13 32  1  0  0  0  0
 14 15  1  0  0  0  0
 14 33  1  0  0  0  0
 14 34  1  0  0  0  0
 15 20  1  0  0  0  0
 15 35  1  0  0  0  0
 15 36  1  0  0  0  0
 16 17  2  0  0  0  0
 16 19  1  0  0  0  0
 20 23  1  0  0  0  0
 20 37  1  0  0  0  0
 21 22  1  0  0  0  0
 21 38  1  0  0  0  0
 21 39  1  0  0  0  0
 22 26  1  0  0  0  0
 22 40  1  0  0  0  0
 22 41  1  0  0  0  0
 23 42  1  0  0  0  0
 23 43  1  0  0  0  0
 23 44  1  0  0  0  0
 24 45  1  0  0  0  0
 25 46  1  0  0  0  0
 25 47  1  0  0  0  0
 25 48  1  0  0  0  0
 26 49  1  0  0  0  0
 26 50  1  0  0  0  0
 26 51  1  0  0  0  0
 27 28  1  0  0  0  0
M  END
> <PUBCHEM_COMPOUND_CID>
525003
> <PUBCHEM_COMPOUND_CANONICALIZED>
1
> <PUBCHEM_CACTVS_COMPLEXITY>
601
> <PUBCHEM_CACTVS_HBOND_ACCEPTOR>
8
> <PUBCHEM_CACTVS_HBOND_DONOR>
0
> <PUBCHEM_CACTVS_ROTATABLE_BOND>
9
> <PUBCHEM_CACTVS_SUBSKEYS>
AAADceB7uYAAAAAAAAAAAAAAAAAAAWAAAAAsAAAAAAAAAFgBgAAAHwAAAAAACBzhlhYHuBcMFACoAQfxfACAgC0XEKABUAGoVECASApAyCAWAIgMByLAAGGQEAIAAAAAAAAAAAAAAAAAAAAAAAAAAAAAAA==
> <PUBCHEM_IUPAC_OPENEYE_NAME>
[1-methyl-5-(7-methyl-2,6-dioxo-3-propyl-purin-1-yl)pentyl] 2,2,2-trifluoroacetate
> <PUBCHEM_IUPAC_CAS_NAME>
2,2,2-trifluoroacetic acid 6-(7-methyl-2,6-dioxo-3-propyl-1-purinyl)hexan-2-yl ester
> <PUBCHEM_IUPAC_NAME_MARKUP>
6-(7-methyl-2,6-dioxo-3-propylpurin-1-yl)hexan-2-yl 2,2,2-trifluoroacetate
> <PUBCHEM_IUPAC_NAME>
6-(7-methyl-2,6-dioxo-3-propylpurin-1-yl)hexan-2-yl 2,2,2-trifluoroacetate
> <PUBCHEM_IUPAC_SYSTEMATIC_NAME>
6-[7-methyl-2,6-bis(oxidanylidene)-3-propyl-purin-1-yl]hexan-2-yl 2,2,2-tris(fluoranyl)ethanoate
> <PUBCHEM_IUPAC_TRADITIONAL_NAME>
2,2,2-trifluoroacetic acid [5-(2,6-diketo-7-methyl-3-propyl-purin-1-yl)-1-methyl-pentyl] ester
> <PUBCHEM_IUPAC_INCHI>
InChI=1S/C17H23F3N4O4/c1-4-8-23-13-12(22(3)10-21-13)14(25)24(16(23)27)9-6-5-7-11(2)28-15(26)17(18,19)20/h10-11H,4-9H2,1-3H3
> <PUBCHEM_IUPAC_INCHIKEY>
ZRXSFVYUNMDMTC-UHFFFAOYSA-N
> <PUBCHEM_XLOGP3>
3.3
> <PUBCHEM_EXACT_MASS>
404.16713971
> <PUBCHEM_MOLECULAR_FORMULA>
C17H23F3N4O4
> <PUBCHEM_MOLECULAR_WEIGHT>
404.4
> <PUBCHEM_OPENEYE_CAN_SMILES>
CCCN1C2=C(C(=O)N(C1=O)CCCCC(C)OC(=O)C(F)(F)F)N(C=N2)C
> <PUBCHEM_OPENEYE_ISO_SMILES>
CCCN1C2=C(C(=O)N(C1=O)CCCCC(C)OC(=O)C(F)(F)F)N(C=N2)C
> <PUBCHEM_CACTVS_TPSA>
84.7
> <PUBCHEM_MONOISOTOPIC_WEIGHT>
404.16713971
> <PUBCHEM_TOTAL_CHARGE>
0
> <PUBCHEM_HEAVY_ATOM_COUNT>
28
> <PUBCHEM_ATOM_DEF_STEREO_COUNT>
0
> <PUBCHEM_ATOM_UDEF_STEREO_COUNT>
1
> <PUBCHEM_BOND_DEF_STEREO_COUNT>
0
> <PUBCHEM_BOND_UDEF_STEREO_COUNT>
0
> <PUBCHEM_ISOTOPIC_ATOM_COUNT>
0
> <PUBCHEM_COMPONENT_COUNT>
1
> <PUBCHEM_CACTVS_TAUTO_COUNT>
-1
> <PUBCHEM_COORDINATE_TYPE>
1
5
255
> <PUBCHEM_BONDANNOTATIONS>
10  16  8
10  24  8
11  17  8
11  24  8
16  17  8
16  19  8
20  23  3
8  18  8
8  19  8
9  17  8
9  18  8
$$$$
