525014
  -OEChem-10302200292D
 44 46  0     1  0  0  0  0  0999 V2000
    3.3660   -4.8295    0.0000 F   0  0  0  0  0  0  0  0  0  0  0  0
    2.0000   -4.4635    0.0000 F   0  0  0  0  0  0  0  0  0  0  0  0
    2.3660   -3.0974    0.0000 F   0  0  0  0  0  0  0  0  0  0  0  0
    7.1962   -4.4635    0.0000 F   0  0  0  0  0  0  0  0  0  0  0  0
    5.8301   -4.8295    0.0000 F   0  0  0  0  0  0  0  0  0  0  0  0
    6.8301   -3.0974    0.0000 F   0  0  0  0  0  0  0  0  0  0  0  0
    5.4071   -0.3757    0.0000 O   0  0  0  0  0  0  0  0  0  0  0  0
    3.7891   -0.3757    0.0000 O   0  0  0  0  0  0  0  0  0  0  0  0
    5.2791    2.2979    0.0000 O   0  0  0  0  0  0  0  0  0  0  0  0
    7.2682    2.0889    0.0000 O   0  0  0  0  0  0  0  0  0  0  0  0
    5.0981    0.5754    0.0000 C   0  0  3  0  0  0  0  0  0  0  0  0
    4.0981    0.5754    0.0000 C   0  0  0  0  0  0  0  0  0  0  0  0
    5.6859    1.3844    0.0000 C   0  0  0  0  0  0  0  0  0  0  0  0
    4.5981   -1.9635    0.0000 C   0  0  0  0  0  0  0  0  0  0  0  0
    5.4641   -2.4635    0.0000 C   0  0  0  0  0  0  0  0  0  0  0  0
    3.7320   -2.4635    0.0000 C   0  0  0  0  0  0  0  0  0  0  0  0
    5.4641   -3.4635    0.0000 C   0  0  0  0  0  0  0  0  0  0  0  0
    3.7320   -3.4635    0.0000 C   0  0  0  0  0  0  0  0  0  0  0  0
    4.5981   -3.9635    0.0000 C   0  0  0  0  0  0  0  0  0  0  0  0
    5.8669    3.1069    0.0000 C   0  0  0  0  0  0  0  0  0  0  0  0
    2.8660   -3.9635    0.0000 C   0  0  0  0  0  0  0  0  0  0  0  0
    6.3301   -3.9635    0.0000 C   0  0  0  0  0  0  0  0  0  0  0  0
    6.8614    3.0024    0.0000 C   0  0  0  0  0  0  0  0  0  0  0  0
    5.4602    4.0205    0.0000 C   0  0  0  0  0  0  0  0  0  0  0  0
    7.4492    3.8114    0.0000 C   0  0  0  0  0  0  0  0  0  0  0  0
    6.0480    4.8295    0.0000 C   0  0  0  0  0  0  0  0  0  0  0  0
    7.0425    4.7250    0.0000 C   0  0  0  0  0  0  0  0  0  0  0  0
    8.2627    1.9843    0.0000 C   0  0  0  0  0  0  0  0  0  0  0  0
    4.5981   -0.9635    0.0000 B   0  0  0  0  0  0  0  0  0  0  0  0
    5.7104    0.4784    0.0000 H   0  0  0  0  0  0  0  0  0  0  0  0
    4.1629    1.1920    0.0000 H   0  0  0  0  0  0  0  0  0  0  0  0
    3.4916    0.7043    0.0000 H   0  0  0  0  0  0  0  0  0  0  0  0
    6.1166    0.9384    0.0000 H   0  0  0  0  0  0  0  0  0  0  0  0
    6.1999    1.7311    0.0000 H   0  0  0  0  0  0  0  0  0  0  0  0
    6.0010   -2.1535    0.0000 H   0  0  0  0  0  0  0  0  0  0  0  0
    3.1951   -2.1535    0.0000 H   0  0  0  0  0  0  0  0  0  0  0  0
    4.5981   -4.5835    0.0000 H   0  0  0  0  0  0  0  0  0  0  0  0
    4.8436    4.0853    0.0000 H   0  0  0  0  0  0  0  0  0  0  0  0
    8.0658    3.7466    0.0000 H   0  0  0  0  0  0  0  0  0  0  0  0
    5.7958    5.3959    0.0000 H   0  0  0  0  0  0  0  0  0  0  0  0
    7.4069    5.2266    0.0000 H   0  0  0  0  0  0  0  0  0  0  0  0
    8.1979    1.3677    0.0000 H   0  0  0  0  0  0  0  0  0  0  0  0
    8.8793    1.9195    0.0000 H   0  0  0  0  0  0  0  0  0  0  0  0
    8.3275    2.6009    0.0000 H   0  0  0  0  0  0  0  0  0  0  0  0
  1 21  1  0  0  0  0
  2 21  1  0  0  0  0
  3 21  1  0  0  0  0
  4 22  1  0  0  0  0
  5 22  1  0  0  0  0
  6 22  1  0  0  0  0
  7 11  1  0  0  0  0
  7 29  1  0  0  0  0
  8 12  1  0  0  0  0
  8 29  1  0  0  0  0
  9 13  1  0  0  0  0
  9 20  1  0  0  0  0
 10 23  1  0  0  0  0
 10 28  1  0  0  0  0
 11 12  1  0  0  0  0
 11 13  1  0  0  0  0
 11 30  1  0  0  0  0
 12 31  1  0  0  0  0
 12 32  1  0  0  0  0
 13 33  1  0  0  0  0
 13 34  1  0  0  0  0
 14 15  2  0  0  0  0
 14 16  1  0  0  0  0
 14 29  1  0  0  0  0
 15 17  1  0  0  0  0
 15 35  1  0  0  0  0
 16 18  2  0  0  0  0
 16 36  1  0  0  0  0
 17 19  2  0  0  0  0
 17 22  1  0  0  0  0
 18 19  1  0  0  0  0
 18 21  1  0  0  0  0
 19 37  1  0  0  0  0
 20 23  1  0  0  0  0
 20 24  2  0  0  0  0
 23 25  2  0  0  0  0
 24 26  1  0  0  0  0
 24 38  1  0  0  0  0
 25 27  1  0  0  0  0
 25 39  1  0  0  0  0
 26 27  2  0  0  0  0
 26 40  1  0  0  0  0
 27 41  1  0  0  0  0
 28 42  1  0  0  0  0
 28 43  1  0  0  0  0
 28 44  1  0  0  0  0
M  END
> <PUBCHEM_COMPOUND_CID>
525014
> <PUBCHEM_COMPOUND_CANONICALIZED>
1
> <PUBCHEM_CACTVS_COMPLEXITY>
510
> <PUBCHEM_CACTVS_HBOND_ACCEPTOR>
10
> <PUBCHEM_CACTVS_HBOND_DONOR>
0
> <PUBCHEM_CACTVS_ROTATABLE_BOND>
5
> <PUBCHEM_CACTVS_SUBSKEYS>
AAADccJ4OcAAAAAAAAAAAAAAAAAAASAAAAAwYAAAAAAAAAABQAAoGwAAAAAADBSgmBIyBoAABACAAiBCAAACCAAgIAAIiAAGiIgNJiKEMRqCOCKlwBEKqAeAwEAOAAACAAAAQAAAAAQAAACAAAAAAAAAAA==
> <PUBCHEM_IUPAC_OPENEYE_NAME>
2-[3,5-bis(trifluoromethyl)phenyl]-4-[(2-methoxyphenoxy)methyl]-1,3,2-dioxaborolane
> <PUBCHEM_IUPAC_CAS_NAME>
2-[3,5-bis(trifluoromethyl)phenyl]-4-[(2-methoxyphenoxy)methyl]-1,3,2-dioxaborolane
> <PUBCHEM_IUPAC_NAME_MARKUP>
2-[3,5-bis(trifluoromethyl)phenyl]-4-[(2-methoxyphenoxy)methyl]-1,3,2-dioxaborolane
> <PUBCHEM_IUPAC_NAME>
2-[3,5-bis(trifluoromethyl)phenyl]-4-[(2-methoxyphenoxy)methyl]-1,3,2-dioxaborolane
> <PUBCHEM_IUPAC_SYSTEMATIC_NAME>
2-[3,5-bis(trifluoromethyl)phenyl]-4-[(2-methoxyphenoxy)methyl]-1,3,2-dioxaborolane
> <PUBCHEM_IUPAC_TRADITIONAL_NAME>
2-[3,5-bis(trifluoromethyl)phenyl]-4-[(2-methoxyphenoxy)methyl]-1,3,2-dioxaborolane
> <PUBCHEM_IUPAC_INCHI>
InChI=1S/C18H15BF6O4/c1-26-15-4-2-3-5-16(15)27-9-14-10-28-19(29-14)13-7-11(17(20,21)22)6-12(8-13)18(23,24)25/h2-8,14H,9-10H2,1H3
> <PUBCHEM_IUPAC_INCHIKEY>
ZWNLFWQPQCGZSF-UHFFFAOYSA-N
> <PUBCHEM_EXACT_MASS>
420.0967581
> <PUBCHEM_MOLECULAR_FORMULA>
C18H15BF6O4
> <PUBCHEM_MOLECULAR_WEIGHT>
420.1
> <PUBCHEM_OPENEYE_CAN_SMILES>
B1(OCC(O1)COC2=CC=CC=C2OC)C3=CC(=CC(=C3)C(F)(F)F)C(F)(F)F
> <PUBCHEM_OPENEYE_ISO_SMILES>
B1(OCC(O1)COC2=CC=CC=C2OC)C3=CC(=CC(=C3)C(F)(F)F)C(F)(F)F
> <PUBCHEM_CACTVS_TPSA>
36.9
> <PUBCHEM_MONOISOTOPIC_WEIGHT>
420.0967581
> <PUBCHEM_TOTAL_CHARGE>
0
> <PUBCHEM_HEAVY_ATOM_COUNT>
29
> <PUBCHEM_ATOM_DEF_STEREO_COUNT>
0
> <PUBCHEM_ATOM_UDEF_STEREO_COUNT>
1
> <PUBCHEM_BOND_DEF_STEREO_COUNT>
0
> <PUBCHEM_BOND_UDEF_STEREO_COUNT>
0
> <PUBCHEM_ISOTOPIC_ATOM_COUNT>
0
> <PUBCHEM_COMPONENT_COUNT>
1
> <PUBCHEM_CACTVS_TAUTO_COUNT>
-1
> <PUBCHEM_COORDINATE_TYPE>
1
5
255
> <PUBCHEM_BONDANNOTATIONS>
11  13  3
14  15  8
14  16  8
15  17  8
16  18  8
17  19  8
18  19  8
20  23  8
20  24  8
23  25  8
24  26  8
25  27  8
26  27  8
$$$$
