525278
  -OEChem-10302200292D
 85 88  0     1  0  0  0  0  0999 V2000
    5.4641   -3.6598    0.0000 O   0  0  0  0  0  0  0  0  0  0  0  0
    4.6038   -2.1564    0.0000 O   0  0  0  0  0  0  0  0  0  0  0  0
   10.8572   -0.6074    0.0000 C   0  0  3  0  0  0  0  0  0  0  0  0
   10.8572   -1.6074    0.0000 C   0  0  3  0  0  0  0  0  0  0  0  0
    9.9911   -2.1074    0.0000 C   0  0  3  0  0  0  0  0  0  0  0  0
    9.1251   -1.6074    0.0000 C   0  0  3  0  0  0  0  0  0  0  0  0
   11.8034   -0.3027    0.0000 C   0  0  3  0  0  0  0  0  0  0  0  0
    9.9911   -0.1074    0.0000 C   0  0  0  0  0  0  0  0  0  0  0  0
    8.2151   -2.1143    0.0000 C   0  0  3  0  0  0  0  0  0  0  0  0
   11.8034   -1.9122    0.0000 C   0  0  0  0  0  0  0  0  0  0  0  0
    9.1251   -0.6074    0.0000 C   0  0  0  0  0  0  0  0  0  0  0  0
   12.3870   -1.1074    0.0000 C   0  0  0  0  0  0  0  0  0  0  0  0
   10.0072   -3.1489    0.0000 C   0  0  0  0  0  0  0  0  0  0  0  0
   12.1140    0.6478    0.0000 C   0  0  3  0  0  0  0  0  0  0  0  0
   10.8572    0.3926    0.0000 C   0  0  0  0  0  0  0  0  0  0  0  0
    8.2071   -3.1559    0.0000 C   0  0  0  0  0  0  0  0  0  0  0  0
    7.2883   -1.5502    0.0000 C   0  0  0  0  0  0  0  0  0  0  0  0
    9.1092   -3.6767    0.0000 C   0  0  0  0  0  0  0  0  0  0  0  0
    8.2228   -1.1143    0.0000 C   0  0  0  0  0  0  0  0  0  0  0  0
    7.2717   -3.7056    0.0000 C   0  0  0  0  0  0  0  0  0  0  0  0
    6.3404   -2.0781    0.0000 C   0  0  0  0  0  0  0  0  0  0  0  0
   13.0925    0.8540    0.0000 C   0  0  0  0  0  0  0  0  0  0  0  0
    6.3320   -3.1631    0.0000 C   0  0  3  0  0  0  0  0  0  0  0  0
   11.4462    1.3921    0.0000 C   0  0  0  0  0  0  0  0  0  0  0  0
   13.4032    1.8046    0.0000 C   0  0  0  0  0  0  0  0  0  0  0  0
   14.3817    2.0108    0.0000 C   0  0  0  0  0  0  0  0  0  0  0  0
   14.6924    2.9613    0.0000 C   0  0  0  0  0  0  0  0  0  0  0  0
    4.6000   -3.1564    0.0000 C   0  0  0  0  0  0  0  0  0  0  0  0
    3.7320   -3.6531    0.0000 C   0  0  0  0  0  0  0  0  0  0  0  0
   15.6709    3.1675    0.0000 C   0  0  0  0  0  0  0  0  0  0  0  0
   14.0245    3.7056    0.0000 C   0  0  0  0  0  0  0  0  0  0  0  0
    2.8680   -3.1498    0.0000 C   0  0  0  0  0  0  0  0  0  0  0  0
    2.0000   -3.6464    0.0000 C   0  0  0  0  0  0  0  0  0  0  0  0
   10.9228   -2.2240    0.0000 H   0  0  0  0  0  0  0  0  0  0  0  0
   10.5304   -2.4133    0.0000 H   0  0  0  0  0  0  0  0  0  0  0  0
    9.6620   -1.2974    0.0000 H   0  0  0  0  0  0  0  0  0  0  0  0
   12.4159   -0.2065    0.0000 H   0  0  0  0  0  0  0  0  0  0  0  0
   10.3897    0.3675    0.0000 H   0  0  0  0  0  0  0  0  0  0  0  0
    9.5926    0.3675    0.0000 H   0  0  0  0  0  0  0  0  0  0  0  0
   11.5523   -2.4791    0.0000 H   0  0  0  0  0  0  0  0  0  0  0  0
   12.3408   -2.2214    0.0000 H   0  0  0  0  0  0  0  0  0  0  0  0
    8.9131   -0.0248    0.0000 H   0  0  0  0  0  0  0  0  0  0  0  0
    8.5145   -0.7151    0.0000 H   0  0  0  0  0  0  0  0  0  0  0  0
   12.8479   -1.5222    0.0000 H   0  0  0  0  0  0  0  0  0  0  0  0
   12.8479   -0.6927    0.0000 H   0  0  0  0  0  0  0  0  0  0  0  0
   10.2252   -3.7293    0.0000 H   0  0  0  0  0  0  0  0  0  0  0  0
   10.6163   -3.0334    0.0000 H   0  0  0  0  0  0  0  0  0  0  0  0
   12.3067    1.2371    0.0000 H   0  0  0  0  0  0  0  0  0  0  0  0
   11.4772    0.3926    0.0000 H   0  0  0  0  0  0  0  0  0  0  0  0
   10.8572    1.0126    0.0000 H   0  0  0  0  0  0  0  0  0  0  0  0
   10.2372    0.3926    0.0000 H   0  0  0  0  0  0  0  0  0  0  0  0
    7.6965   -1.0835    0.0000 H   0  0  0  0  0  0  0  0  0  0  0  0
    6.8984   -1.0682    0.0000 H   0  0  0  0  0  0  0  0  0  0  0  0
    9.1116   -4.2967    0.0000 H   0  0  0  0  0  0  0  0  0  0  0  0
    8.8428   -1.1191    0.0000 H   0  0  0  0  0  0  0  0  0  0  0  0
    8.2276   -0.4943    0.0000 H   0  0  0  0  0  0  0  0  0  0  0  0
    7.6028   -1.1095    0.0000 H   0  0  0  0  0  0  0  0  0  0  0  0
    6.8744   -4.1816    0.0000 H   0  0  0  0  0  0  0  0  0  0  0  0
    7.6726   -4.1785    0.0000 H   0  0  0  0  0  0  0  0  0  0  0  0
    6.1358   -1.4929    0.0000 H   0  0  0  0  0  0  0  0  0  0  0  0
    5.7287   -2.1795    0.0000 H   0  0  0  0  0  0  0  0  0  0  0  0
   13.1131    0.2344    0.0000 H   0  0  0  0  0  0  0  0  0  0  0  0
   13.7064    0.7667    0.0000 H   0  0  0  0  0  0  0  0  0  0  0  0
    5.7969   -2.8500    0.0000 H   0  0  0  0  0  0  0  0  0  0  0  0
   11.9077    1.8062    0.0000 H   0  0  0  0  0  0  0  0  0  0  0  0
   11.0321    1.8536    0.0000 H   0  0  0  0  0  0  0  0  0  0  0  0
   10.9847    0.9781    0.0000 H   0  0  0  0  0  0  0  0  0  0  0  0
   13.3826    2.4242    0.0000 H   0  0  0  0  0  0  0  0  0  0  0  0
   12.7894    1.8919    0.0000 H   0  0  0  0  0  0  0  0  0  0  0  0
   14.4023    1.3911    0.0000 H   0  0  0  0  0  0  0  0  0  0  0  0
   14.9955    1.9234    0.0000 H   0  0  0  0  0  0  0  0  0  0  0  0
   14.8850    3.5506    0.0000 H   0  0  0  0  0  0  0  0  0  0  0  0
    3.3317   -4.1265    0.0000 H   0  0  0  0  0  0  0  0  0  0  0  0
    4.1287   -4.1296    0.0000 H   0  0  0  0  0  0  0  0  0  0  0  0
   15.7987    2.5608    0.0000 H   0  0  0  0  0  0  0  0  0  0  0  0
   16.2776    3.2954    0.0000 H   0  0  0  0  0  0  0  0  0  0  0  0
   15.5430    3.7742    0.0000 H   0  0  0  0  0  0  0  0  0  0  0  0
   14.4860    4.1197    0.0000 H   0  0  0  0  0  0  0  0  0  0  0  0
   13.6105    4.1671    0.0000 H   0  0  0  0  0  0  0  0  0  0  0  0
   13.5631    3.2915    0.0000 H   0  0  0  0  0  0  0  0  0  0  0  0
    3.2683   -2.6763    0.0000 H   0  0  0  0  0  0  0  0  0  0  0  0
    2.4712   -2.6733    0.0000 H   0  0  0  0  0  0  0  0  0  0  0  0
    1.6921   -3.1083    0.0000 H   0  0  0  0  0  0  0  0  0  0  0  0
    1.4619   -3.9543    0.0000 H   0  0  0  0  0  0  0  0  0  0  0  0
    2.3079   -4.1845    0.0000 H   0  0  0  0  0  0  0  0  0  0  0  0
  1 23  1  0  0  0  0
  1 28  1  0  0  0  0
  2 28  2  0  0  0  0
  3  4  1  0  0  0  0
  3  7  1  0  0  0  0
  3  8  1  0  0  0  0
  3 15  1  0  0  0  0
  4  5  1  0  0  0  0
  4 10  1  0  0  0  0
  4 34  1  0  0  0  0
  5  6  1  0  0  0  0
  5 13  1  0  0  0  0
  5 35  1  0  0  0  0
  6  9  1  0  0  0  0
  6 11  1  0  0  0  0
  6 36  1  0  0  0  0
  7 12  1  0  0  0  0
  7 14  1  0  0  0  0
  7 37  1  0  0  0  0
  8 11  1  0  0  0  0
  8 38  1  0  0  0  0
  8 39  1  0  0  0  0
  9 16  1  0  0  0  0
  9 17  1  0  0  0  0
  9 19  1  0  0  0  0
 10 12  1  0  0  0  0
 10 40  1  0  0  0  0
 10 41  1  0  0  0  0
 11 42  1  0  0  0  0
 11 43  1  0  0  0  0
 12 44  1  0  0  0  0
 12 45  1  0  0  0  0
 13 18  1  0  0  0  0
 13 46  1  0  0  0  0
 13 47  1  0  0  0  0
 14 22  1  0  0  0  0
 14 24  1  0  0  0  0
 14 48  1  0  0  0  0
 15 49  1  0  0  0  0
 15 50  1  0  0  0  0
 15 51  1  0  0  0  0
 16 18  2  0  0  0  0
 16 20  1  0  0  0  0
 17 21  1  0  0  0  0
 17 52  1  0  0  0  0
 17 53  1  0  0  0  0
 18 54  1  0  0  0  0
 19 55  1  0  0  0  0
 19 56  1  0  0  0  0
 19 57  1  0  0  0  0
 20 23  1  0  0  0  0
 20 58  1  0  0  0  0
 20 59  1  0  0  0  0
 21 23  1  0  0  0  0
 21 60  1  0  0  0  0
 21 61  1  0  0  0  0
 22 25  1  0  0  0  0
 22 62  1  0  0  0  0
 22 63  1  0  0  0  0
 23 64  1  0  0  0  0
 24 65  1  0  0  0  0
 24 66  1  0  0  0  0
 24 67  1  0  0  0  0
 25 26  1  0  0  0  0
 25 68  1  0  0  0  0
 25 69  1  0  0  0  0
 26 27  1  0  0  0  0
 26 70  1  0  0  0  0
 26 71  1  0  0  0  0
 27 30  1  0  0  0  0
 27 31  1  0  0  0  0
 27 72  1  0  0  0  0
 28 29  1  0  0  0  0
 29 32  1  0  0  0  0
 29 73  1  0  0  0  0
 29 74  1  0  0  0  0
 30 75  1  0  0  0  0
 30 76  1  0  0  0  0
 30 77  1  0  0  0  0
 31 78  1  0  0  0  0
 31 79  1  0  0  0  0
 31 80  1  0  0  0  0
 32 33  1  0  0  0  0
 32 81  1  0  0  0  0
 32 82  1  0  0  0  0
 33 83  1  0  0  0  0
 33 84  1  0  0  0  0
 33 85  1  0  0  0  0
M  END
> <PUBCHEM_COMPOUND_CID>
525278
> <PUBCHEM_COMPOUND_CANONICALIZED>
1
> <PUBCHEM_CACTVS_COMPLEXITY>
722
> <PUBCHEM_CACTVS_HBOND_ACCEPTOR>
2
> <PUBCHEM_CACTVS_HBOND_DONOR>
0
> <PUBCHEM_CACTVS_ROTATABLE_BOND>
9
> <PUBCHEM_CACTVS_SUBSKEYS>
AAADcfB4MAAAAAAAAAAAAAAAAAAAAYAAAAAwYIAAAAAAAGCAAAAAGgAAAAAADxSggAICCAAABACIAiDSCAAAAAAgAAAACAEAAAgAABIAAQACAAAEwAAIAAOAwPAPgAAAAAAAAADAAAQAACAAAQAACAAAAA==
> <PUBCHEM_IUPAC_OPENEYE_NAME>
[17-(1,5-dimethylhexyl)-10,13-dimethyl-2,3,4,7,8,9,11,12,14,15,16,17-dodecahydro-1H-cyclopenta[a]phenanthren-3-yl] butanoate
> <PUBCHEM_IUPAC_CAS_NAME>
butanoic acid [10,13-dimethyl-17-(6-methylheptan-2-yl)-2,3,4,7,8,9,11,12,14,15,16,17-dodecahydro-1H-cyclopenta[a]phenanthren-3-yl] ester
> <PUBCHEM_IUPAC_NAME_MARKUP>
[10,13-dimethyl-17-(6-methylheptan-2-yl)-2,3,4,7,8,9,11,12,14,15,16,17-dodecahydro-1<I>H</I>-cyclopenta[a]phenanthren-3-yl] butanoate
> <PUBCHEM_IUPAC_NAME>
[10,13-dimethyl-17-(6-methylheptan-2-yl)-2,3,4,7,8,9,11,12,14,15,16,17-dodecahydro-1H-cyclopenta[a]phenanthren-3-yl] butanoate
> <PUBCHEM_IUPAC_SYSTEMATIC_NAME>
[10,13-dimethyl-17-(6-methylheptan-2-yl)-2,3,4,7,8,9,11,12,14,15,16,17-dodecahydro-1H-cyclopenta[a]phenanthren-3-yl] butanoate
> <PUBCHEM_IUPAC_TRADITIONAL_NAME>
butyric acid [17-(1,5-dimethylhexyl)-10,13-dimethyl-2,3,4,7,8,9,11,12,14,15,16,17-dodecahydro-1H-cyclopenta[a]phenanthren-3-yl] ester
> <PUBCHEM_IUPAC_INCHI>
InChI=1S/C31H52O2/c1-7-9-29(32)33-24-16-18-30(5)23(20-24)12-13-25-27-15-14-26(22(4)11-8-10-21(2)3)31(27,6)19-17-28(25)30/h12,21-22,24-28H,7-11,13-20H2,1-6H3
> <PUBCHEM_IUPAC_INCHIKEY>
CKDZWMVGDHGMFR-UHFFFAOYSA-N
> <PUBCHEM_XLOGP3_AA>
9.9
> <PUBCHEM_EXACT_MASS>
456.396730897
> <PUBCHEM_MOLECULAR_FORMULA>
C31H52O2
> <PUBCHEM_MOLECULAR_WEIGHT>
456.7
> <PUBCHEM_OPENEYE_CAN_SMILES>
CCCC(=O)OC1CCC2(C3CCC4(C(C3CC=C2C1)CCC4C(C)CCCC(C)C)C)C
> <PUBCHEM_OPENEYE_ISO_SMILES>
CCCC(=O)OC1CCC2(C3CCC4(C(C3CC=C2C1)CCC4C(C)CCCC(C)C)C)C
> <PUBCHEM_CACTVS_TPSA>
26.3
> <PUBCHEM_MONOISOTOPIC_WEIGHT>
456.396730897
> <PUBCHEM_TOTAL_CHARGE>
0
> <PUBCHEM_HEAVY_ATOM_COUNT>
33
> <PUBCHEM_ATOM_DEF_STEREO_COUNT>
0
> <PUBCHEM_ATOM_UDEF_STEREO_COUNT>
8
> <PUBCHEM_BOND_DEF_STEREO_COUNT>
0
> <PUBCHEM_BOND_UDEF_STEREO_COUNT>
0
> <PUBCHEM_ISOTOPIC_ATOM_COUNT>
0
> <PUBCHEM_COMPONENT_COUNT>
1
> <PUBCHEM_CACTVS_TAUTO_COUNT>
1
> <PUBCHEM_COORDINATE_TYPE>
1
5
255
> <PUBCHEM_BONDANNOTATIONS>
23  1  3
14  24  3
3  15  3
4  10  3
5  13  3
6  11  3
7  12  3
9  19  3
$$$$
