525327
  -OEChem-10302200292D
 32 34  0     1  0  0  0  0  0999 V2000
    3.7320    3.0000    0.0000 O   0  0  0  0  0  0  0  0  0  0  0  0
    4.5981    0.5000    0.0000 N   0  0  0  0  0  0  0  0  0  0  0  0
    2.8660    0.5000    0.0000 N   0  0  3  0  0  0  0  0  0  0  0  0
    2.8660    1.5000    0.0000 N   0  0  0  0  0  0  0  0  0  0  0  0
    5.5443    0.1953    0.0000 N   0  0  0  0  0  0  0  0  0  0  0  0
    3.7320    0.0000    0.0000 C   0  0  3  0  0  0  0  0  0  0  0  0
    4.5981    1.5000    0.0000 C   0  0  0  0  0  0  0  0  0  0  0  0
    3.7320   -1.0000    0.0000 C   0  0  0  0  0  0  0  0  0  0  0  0
    3.7320    2.0000    0.0000 C   0  0  0  0  0  0  0  0  0  0  0  0
    5.5443    1.8047    0.0000 C   0  0  0  0  0  0  0  0  0  0  0  0
    6.1279    1.0000    0.0000 C   0  0  0  0  0  0  0  0  0  0  0  0
    2.0000    0.0000    0.0000 C   0  0  0  0  0  0  0  0  0  0  0  0
    2.8660   -1.5000    0.0000 C   0  0  0  0  0  0  0  0  0  0  0  0
    4.5981   -1.5000    0.0000 C   0  0  0  0  0  0  0  0  0  0  0  0
    7.1279    1.0000    0.0000 C   0  0  0  0  0  0  0  0  0  0  0  0
    2.8660   -2.5000    0.0000 C   0  0  0  0  0  0  0  0  0  0  0  0
    4.5981   -2.5000    0.0000 C   0  0  0  0  0  0  0  0  0  0  0  0
    3.7320   -3.0000    0.0000 C   0  0  0  0  0  0  0  0  0  0  0  0
    3.1951   -0.3100    0.0000 H   0  0  0  0  0  0  0  0  0  0  0  0
    2.3291    1.8100    0.0000 H   0  0  0  0  0  0  0  0  0  0  0  0
    5.7369    2.3940    0.0000 H   0  0  0  0  0  0  0  0  0  0  0  0
    1.6900    0.5369    0.0000 H   0  0  0  0  0  0  0  0  0  0  0  0
    1.4631   -0.3100    0.0000 H   0  0  0  0  0  0  0  0  0  0  0  0
    2.3100   -0.5369    0.0000 H   0  0  0  0  0  0  0  0  0  0  0  0
    2.3291   -1.1900    0.0000 H   0  0  0  0  0  0  0  0  0  0  0  0
    5.1350   -1.1900    0.0000 H   0  0  0  0  0  0  0  0  0  0  0  0
    7.1279    0.3800    0.0000 H   0  0  0  0  0  0  0  0  0  0  0  0
    7.7479    1.0000    0.0000 H   0  0  0  0  0  0  0  0  0  0  0  0
    7.1279    1.6200    0.0000 H   0  0  0  0  0  0  0  0  0  0  0  0
    2.3291   -2.8100    0.0000 H   0  0  0  0  0  0  0  0  0  0  0  0
    5.1350   -2.8100    0.0000 H   0  0  0  0  0  0  0  0  0  0  0  0
    3.7320   -3.6200    0.0000 H   0  0  0  0  0  0  0  0  0  0  0  0
  1  9  2  0  0  0  0
  2  5  1  0  0  0  0
  2  6  1  0  0  0  0
  2  7  1  0  0  0  0
  3  4  1  0  0  0  0
  3  6  1  0  0  0  0
  3 12  1  0  0  0  0
  4  9  1  0  0  0  0
  4 20  1  0  0  0  0
  5 11  2  0  0  0  0
  6  8  1  0  0  0  0
  6 19  1  0  0  0  0
  7  9  1  0  0  0  0
  7 10  2  0  0  0  0
  8 13  2  0  0  0  0
  8 14  1  0  0  0  0
 10 11  1  0  0  0  0
 10 21  1  0  0  0  0
 11 15  1  0  0  0  0
 12 22  1  0  0  0  0
 12 23  1  0  0  0  0
 12 24  1  0  0  0  0
 13 16  1  0  0  0  0
 13 25  1  0  0  0  0
 14 17  2  0  0  0  0
 14 26  1  0  0  0  0
 15 27  1  0  0  0  0
 15 28  1  0  0  0  0
 15 29  1  0  0  0  0
 16 18  2  0  0  0  0
 16 30  1  0  0  0  0
 17 18  1  0  0  0  0
 17 31  1  0  0  0  0
 18 32  1  0  0  0  0
M  END
> <PUBCHEM_COMPOUND_CID>
525327
> <PUBCHEM_COMPOUND_CANONICALIZED>
1
> <PUBCHEM_CACTVS_COMPLEXITY>
329
> <PUBCHEM_CACTVS_HBOND_ACCEPTOR>
3
> <PUBCHEM_CACTVS_HBOND_DONOR>
1
> <PUBCHEM_CACTVS_ROTATABLE_BOND>
1
> <PUBCHEM_CACTVS_SUBSKEYS>
AAADccBzoAAAAAAAAAAAAAAAAAAAAWAAAAA8QAAAAAAAAFgBwAAAHgAYAAAADAjBngQzgJJqAACqAyVyVACSBAAnggAe+CG4ZNiIYDLA1fGUpQhoiALIyaccgAAOAAAAAAAAAAAAAAAAAAAAAAAAAAAAAA==
> <PUBCHEM_IUPAC_OPENEYE_NAME>
2,6-dimethyl-7-phenyl-5,7-dihydropyrazolo[1,5-d][1,2,4]triazin-4-one
> <PUBCHEM_IUPAC_CAS_NAME>
2,6-dimethyl-7-phenyl-5,7-dihydropyrazolo[1,5-d][1,2,4]triazin-4-one
> <PUBCHEM_IUPAC_NAME_MARKUP>
2,6-dimethyl-7-phenyl-5,7-dihydropyrazolo[1,5-d][1,2,4]triazin-4-one
> <PUBCHEM_IUPAC_NAME>
2,6-dimethyl-7-phenyl-5,7-dihydropyrazolo[1,5-d][1,2,4]triazin-4-one
> <PUBCHEM_IUPAC_SYSTEMATIC_NAME>
2,6-dimethyl-7-phenyl-5,7-dihydropyrazolo[1,5-d][1,2,4]triazin-4-one
> <PUBCHEM_IUPAC_TRADITIONAL_NAME>
2,6-dimethyl-7-phenyl-5,7-dihydropyrazolo[1,5-d][1,2,4]triazin-4-one
> <PUBCHEM_IUPAC_INCHI>
InChI=1S/C13H14N4O/c1-9-8-11-12(18)15-16(2)13(17(11)14-9)10-6-4-3-5-7-10/h3-8,13H,1-2H3,(H,15,18)
> <PUBCHEM_IUPAC_INCHIKEY>
RUFNUJIQQGZOLS-UHFFFAOYSA-N
> <PUBCHEM_XLOGP3_AA>
2
> <PUBCHEM_EXACT_MASS>
242.11676108
> <PUBCHEM_MOLECULAR_FORMULA>
C13H14N4O
> <PUBCHEM_MOLECULAR_WEIGHT>
242.28
> <PUBCHEM_OPENEYE_CAN_SMILES>
CC1=NN2C(N(NC(=O)C2=C1)C)C3=CC=CC=C3
> <PUBCHEM_OPENEYE_ISO_SMILES>
CC1=NN2C(N(NC(=O)C2=C1)C)C3=CC=CC=C3
> <PUBCHEM_CACTVS_TPSA>
50.2
> <PUBCHEM_MONOISOTOPIC_WEIGHT>
242.11676108
> <PUBCHEM_TOTAL_CHARGE>
0
> <PUBCHEM_HEAVY_ATOM_COUNT>
18
> <PUBCHEM_ATOM_DEF_STEREO_COUNT>
0
> <PUBCHEM_ATOM_UDEF_STEREO_COUNT>
1
> <PUBCHEM_BOND_DEF_STEREO_COUNT>
0
> <PUBCHEM_BOND_UDEF_STEREO_COUNT>
0
> <PUBCHEM_ISOTOPIC_ATOM_COUNT>
0
> <PUBCHEM_COMPONENT_COUNT>
1
> <PUBCHEM_CACTVS_TAUTO_COUNT>
-1
> <PUBCHEM_COORDINATE_TYPE>
1
5
255
> <PUBCHEM_BONDANNOTATIONS>
10  11  8
13  16  8
14  17  8
16  18  8
17  18  8
2  5  8
2  7  8
5  11  8
6  8  3
7  10  8
8  13  8
8  14  8
$$$$
