525325
  -OEChem-10302200292D
 35 37  0     1  0  0  0  0  0999 V2000
    3.7320    3.0000    0.0000 O   0  0  0  0  0  0  0  0  0  0  0  0
    2.8660    0.5000    0.0000 N   0  0  3  0  0  0  0  0  0  0  0  0
    4.5981    0.5000    0.0000 N   0  0  0  0  0  0  0  0  0  0  0  0
    2.8660    1.5000    0.0000 N   0  0  0  0  0  0  0  0  0  0  0  0
    5.5443    0.1953    0.0000 N   0  0  0  0  0  0  0  0  0  0  0  0
    3.7320    0.0000    0.0000 C   0  0  3  0  0  0  0  0  0  0  0  0
    4.5981    1.5000    0.0000 C   0  0  0  0  0  0  0  0  0  0  0  0
    3.7320   -1.0000    0.0000 C   0  0  0  0  0  0  0  0  0  0  0  0
    3.7320    2.0000    0.0000 C   0  0  0  0  0  0  0  0  0  0  0  0
    5.5443    1.8047    0.0000 C   0  0  0  0  0  0  0  0  0  0  0  0
    2.0000    0.0000    0.0000 C   0  0  0  0  0  0  0  0  0  0  0  0
    6.1279    1.0000    0.0000 C   0  0  0  0  0  0  0  0  0  0  0  0
    2.0000    2.0000    0.0000 C   0  0  0  0  0  0  0  0  0  0  0  0
    4.5981   -1.5000    0.0000 C   0  0  0  0  0  0  0  0  0  0  0  0
    2.8660   -1.5000    0.0000 C   0  0  0  0  0  0  0  0  0  0  0  0
    7.1279    1.0000    0.0000 C   0  0  0  0  0  0  0  0  0  0  0  0
    4.5981   -2.5000    0.0000 C   0  0  0  0  0  0  0  0  0  0  0  0
    2.8660   -2.5000    0.0000 C   0  0  0  0  0  0  0  0  0  0  0  0
    3.7320   -3.0000    0.0000 C   0  0  0  0  0  0  0  0  0  0  0  0
    3.1951   -0.3100    0.0000 H   0  0  0  0  0  0  0  0  0  0  0  0
    5.7369    2.3940    0.0000 H   0  0  0  0  0  0  0  0  0  0  0  0
    1.6900    0.5369    0.0000 H   0  0  0  0  0  0  0  0  0  0  0  0
    1.4631   -0.3100    0.0000 H   0  0  0  0  0  0  0  0  0  0  0  0
    2.3100   -0.5369    0.0000 H   0  0  0  0  0  0  0  0  0  0  0  0
    2.3100    2.5369    0.0000 H   0  0  0  0  0  0  0  0  0  0  0  0
    1.4631    2.3100    0.0000 H   0  0  0  0  0  0  0  0  0  0  0  0
    1.6900    1.4631    0.0000 H   0  0  0  0  0  0  0  0  0  0  0  0
    5.1350   -1.1900    0.0000 H   0  0  0  0  0  0  0  0  0  0  0  0
    2.3291   -1.1900    0.0000 H   0  0  0  0  0  0  0  0  0  0  0  0
    7.1279    0.3800    0.0000 H   0  0  0  0  0  0  0  0  0  0  0  0
    7.7479    1.0000    0.0000 H   0  0  0  0  0  0  0  0  0  0  0  0
    7.1279    1.6200    0.0000 H   0  0  0  0  0  0  0  0  0  0  0  0
    5.1350   -2.8100    0.0000 H   0  0  0  0  0  0  0  0  0  0  0  0
    2.3291   -2.8100    0.0000 H   0  0  0  0  0  0  0  0  0  0  0  0
    3.7320   -3.6200    0.0000 H   0  0  0  0  0  0  0  0  0  0  0  0
  1  9  2  0  0  0  0
  2  4  1  0  0  0  0
  2  6  1  0  0  0  0
  2 11  1  0  0  0  0
  3  5  1  0  0  0  0
  3  6  1  0  0  0  0
  3  7  1  0  0  0  0
  4  9  1  0  0  0  0
  4 13  1  0  0  0  0
  5 12  2  0  0  0  0
  6  8  1  0  0  0  0
  6 20  1  0  0  0  0
  7  9  1  0  0  0  0
  7 10  2  0  0  0  0
  8 14  2  0  0  0  0
  8 15  1  0  0  0  0
 10 12  1  0  0  0  0
 10 21  1  0  0  0  0
 11 22  1  0  0  0  0
 11 23  1  0  0  0  0
 11 24  1  0  0  0  0
 12 16  1  0  0  0  0
 13 25  1  0  0  0  0
 13 26  1  0  0  0  0
 13 27  1  0  0  0  0
 14 17  1  0  0  0  0
 14 28  1  0  0  0  0
 15 18  2  0  0  0  0
 15 29  1  0  0  0  0
 16 30  1  0  0  0  0
 16 31  1  0  0  0  0
 16 32  1  0  0  0  0
 17 19  2  0  0  0  0
 17 33  1  0  0  0  0
 18 19  1  0  0  0  0
 18 34  1  0  0  0  0
 19 35  1  0  0  0  0
M  END
> <PUBCHEM_COMPOUND_CID>
525325
> <PUBCHEM_COMPOUND_CANONICALIZED>
1
> <PUBCHEM_CACTVS_COMPLEXITY>
355
> <PUBCHEM_CACTVS_HBOND_ACCEPTOR>
3
> <PUBCHEM_CACTVS_HBOND_DONOR>
0
> <PUBCHEM_CACTVS_ROTATABLE_BOND>
1
> <PUBCHEM_CACTVS_SUBSKEYS>
AAADceBzoAAAAAAAAAAAAAAAAAAAAWAAAAA8QAAAAAAAAFgBwAAAHgAIAAAADAjBngQzgJIIAACqAyVyVACSBAAnggAe2CG4ZNiIYDLA1fGUpQhoigLIyaccgAAOAAAAAAAAAAAAAAAAAAAAAAAAAAAAAA==
> <PUBCHEM_IUPAC_OPENEYE_NAME>
2,5,6-trimethyl-7-phenyl-7H-pyrazolo[1,5-d][1,2,4]triazin-4-one
> <PUBCHEM_IUPAC_CAS_NAME>
2,5,6-trimethyl-7-phenyl-7H-pyrazolo[1,5-d][1,2,4]triazin-4-one
> <PUBCHEM_IUPAC_NAME_MARKUP>
2,5,6-trimethyl-7-phenyl-7<I>H</I>-pyrazolo[1,5-d][1,2,4]triazin-4-one
> <PUBCHEM_IUPAC_NAME>
2,5,6-trimethyl-7-phenyl-7H-pyrazolo[1,5-d][1,2,4]triazin-4-one
> <PUBCHEM_IUPAC_SYSTEMATIC_NAME>
2,5,6-trimethyl-7-phenyl-7H-pyrazolo[1,5-d][1,2,4]triazin-4-one
> <PUBCHEM_IUPAC_TRADITIONAL_NAME>
2,5,6-trimethyl-7-phenyl-7H-pyrazolo[1,5-d][1,2,4]triazin-4-one
> <PUBCHEM_IUPAC_INCHI>
InChI=1S/C14H16N4O/c1-10-9-12-14(19)17(3)16(2)13(18(12)15-10)11-7-5-4-6-8-11/h4-9,13H,1-3H3
> <PUBCHEM_IUPAC_INCHIKEY>
HAVWRIPPXYGRTL-UHFFFAOYSA-N
> <PUBCHEM_XLOGP3_AA>
2.2
> <PUBCHEM_EXACT_MASS>
256.13241115
> <PUBCHEM_MOLECULAR_FORMULA>
C14H16N4O
> <PUBCHEM_MOLECULAR_WEIGHT>
256.30
> <PUBCHEM_OPENEYE_CAN_SMILES>
CC1=NN2C(N(N(C(=O)C2=C1)C)C)C3=CC=CC=C3
> <PUBCHEM_OPENEYE_ISO_SMILES>
CC1=NN2C(N(N(C(=O)C2=C1)C)C)C3=CC=CC=C3
> <PUBCHEM_CACTVS_TPSA>
41.4
> <PUBCHEM_MONOISOTOPIC_WEIGHT>
256.13241115
> <PUBCHEM_TOTAL_CHARGE>
0
> <PUBCHEM_HEAVY_ATOM_COUNT>
19
> <PUBCHEM_ATOM_DEF_STEREO_COUNT>
0
> <PUBCHEM_ATOM_UDEF_STEREO_COUNT>
1
> <PUBCHEM_BOND_DEF_STEREO_COUNT>
0
> <PUBCHEM_BOND_UDEF_STEREO_COUNT>
0
> <PUBCHEM_ISOTOPIC_ATOM_COUNT>
0
> <PUBCHEM_COMPONENT_COUNT>
1
> <PUBCHEM_CACTVS_TAUTO_COUNT>
-1
> <PUBCHEM_COORDINATE_TYPE>
1
5
255
> <PUBCHEM_BONDANNOTATIONS>
10  12  8
14  17  8
15  18  8
17  19  8
18  19  8
3  5  8
3  7  8
5  12  8
6  8  3
7  10  8
8  14  8
8  15  8
$$$$
