525319
  -OEChem-10302200292D
141142  0     1  0  0  0  0  0999 V2000
    9.1641   -0.0594    0.0000 Si  0  0  0  0  0  0  0  0  0  0  0  0
    6.8301    3.6788    0.0000 Si  0  0  0  0  0  0  0  0  0  0  0  0
    7.1962   -3.3600    0.0000 Si  0  0  0  0  0  0  0  0  0  0  0  0
    4.5981   -3.8600    0.0000 Si  0  0  0  0  0  0  0  0  0  0  0  0
    2.8660   -1.8600    0.0000 Si  0  0  0  0  0  0  0  0  0  0  0  0
    9.8062    3.7750    0.0000 Si  0  0  0  0  0  0  0  0  0  0  0  0
    4.9008    2.5660    0.0000 Si  0  0  0  0  0  0  0  0  0  0  0  0
    2.8660    1.1400    0.0000 Si  0  0  0  0  0  0  0  0  0  0  0  0
    6.6962    2.1788    0.0000 O   0  0  0  0  0  0  0  0  0  0  0  0
    7.1962   -0.3600    0.0000 O   0  0  0  0  0  0  0  0  0  0  0  0
    8.9562    0.9187    0.0000 O   0  0  0  0  0  0  0  0  0  0  0  0
    7.6962    3.1788    0.0000 O   0  0  0  0  0  0  0  0  0  0  0  0
    5.4641   -0.3600    0.0000 O   0  0  0  0  0  0  0  0  0  0  0  0
    7.1962   -2.3600    0.0000 O   0  0  0  0  0  0  0  0  0  0  0  0
    5.4641   -3.3600    0.0000 O   0  0  0  0  0  0  0  0  0  0  0  0
    3.7320   -2.3600    0.0000 O   0  0  0  0  0  0  0  0  0  0  0  0
    8.8551    3.4660    0.0000 O   0  0  0  0  0  0  0  0  0  0  0  0
    4.6929    1.5879    0.0000 O   0  0  0  0  0  0  0  0  0  0  0  0
    3.7320    0.6400    0.0000 O   0  0  0  0  0  0  0  0  0  0  0  0
    7.1962    0.6400    0.0000 C   0  0  3  0  0  0  0  0  0  0  0  0
    8.0052    1.2278    0.0000 C   0  0  3  0  0  0  0  0  0  0  0  0
    7.6962    2.1788    0.0000 C   0  0  3  0  0  0  0  0  0  0  0  0
    6.3871    1.2278    0.0000 C   0  0  3  0  0  0  0  0  0  0  0  0
    6.3301   -1.8600    0.0000 C   0  0  3  0  0  0  0  0  0  0  0  0
    6.3301   -0.8600    0.0000 C   0  0  3  0  0  0  0  0  0  0  0  0
    5.4641   -2.3600    0.0000 C   0  0  3  0  0  0  0  0  0  0  0  0
    4.5981   -1.8600    0.0000 C   0  0  3  0  0  0  0  0  0  0  0  0
    4.5981   -0.8600    0.0000 C   0  0  3  0  0  0  0  0  0  0  0  0
    8.6472    2.4878    0.0000 C   0  0  0  0  0  0  0  0  0  0  0  0
    5.4361    0.9187    0.0000 C   0  0  0  0  0  0  0  0  0  0  0  0
    3.7320   -0.3600    0.0000 C   0  0  0  0  0  0  0  0  0  0  0  0
   10.1423    0.1485    0.0000 C   0  0  0  0  0  0  0  0  0  0  0  0
    9.3720   -1.0376    0.0000 C   0  0  0  0  0  0  0  0  0  0  0  0
    8.1860   -0.2673    0.0000 C   0  0  0  0  0  0  0  0  0  0  0  0
    5.9641    4.1788    0.0000 C   0  0  0  0  0  0  0  0  0  0  0  0
    7.3301    4.5448    0.0000 C   0  0  0  0  0  0  0  0  0  0  0  0
    6.3301    2.8128    0.0000 C   0  0  0  0  0  0  0  0  0  0  0  0
    7.1962   -4.3600    0.0000 C   0  0  0  0  0  0  0  0  0  0  0  0
    8.1962   -3.3600    0.0000 C   0  0  0  0  0  0  0  0  0  0  0  0
    6.1962   -3.3600    0.0000 C   0  0  0  0  0  0  0  0  0  0  0  0
    3.7320   -4.3600    0.0000 C   0  0  0  0  0  0  0  0  0  0  0  0
    5.0981   -4.7260    0.0000 C   0  0  0  0  0  0  0  0  0  0  0  0
    4.0981   -2.9940    0.0000 C   0  0  0  0  0  0  0  0  0  0  0  0
    2.0000   -1.3600    0.0000 C   0  0  0  0  0  0  0  0  0  0  0  0
    2.3660   -2.7260    0.0000 C   0  0  0  0  0  0  0  0  0  0  0  0
    3.3660   -0.9940    0.0000 C   0  0  0  0  0  0  0  0  0  0  0  0
   10.7572    4.0840    0.0000 C   0  0  0  0  0  0  0  0  0  0  0  0
    9.4972    4.7260    0.0000 C   0  0  0  0  0  0  0  0  0  0  0  0
   10.1152    2.8239    0.0000 C   0  0  0  0  0  0  0  0  0  0  0  0
    5.1088    3.5442    0.0000 C   0  0  0  0  0  0  0  0  0  0  0  0
    3.9227    2.7739    0.0000 C   0  0  0  0  0  0  0  0  0  0  0  0
    5.8790    2.3581    0.0000 C   0  0  0  0  0  0  0  0  0  0  0  0
    2.0000    1.6400    0.0000 C   0  0  0  0  0  0  0  0  0  0  0  0
    3.3660    2.0060    0.0000 C   0  0  0  0  0  0  0  0  0  0  0  0
    2.3660    0.2739    0.0000 C   0  0  0  0  0  0  0  0  0  0  0  0
    6.6437    0.3585    0.0000 H   0  0  0  0  0  0  0  0  0  0  0  0
    8.4436    1.6662    0.0000 H   0  0  0  0  0  0  0  0  0  0  0  0
    5.9487    1.6662    0.0000 H   0  0  0  0  0  0  0  0  0  0  0  0
    6.3301   -2.4800    0.0000 H   0  0  0  0  0  0  0  0  0  0  0  0
    6.3301   -0.2400    0.0000 H   0  0  0  0  0  0  0  0  0  0  0  0
    4.9272   -2.6700    0.0000 H   0  0  0  0  0  0  0  0  0  0  0  0
    4.5981   -2.4800    0.0000 H   0  0  0  0  0  0  0  0  0  0  0  0
    4.5981   -0.2400    0.0000 H   0  0  0  0  0  0  0  0  0  0  0  0
    8.7335    1.8739    0.0000 H   0  0  0  0  0  0  0  0  0  0  0  0
    9.2668    2.4662    0.0000 H   0  0  0  0  0  0  0  0  0  0  0  0
    4.9475    0.5370    0.0000 H   0  0  0  0  0  0  0  0  0  0  0  0
    5.7272    0.3713    0.0000 H   0  0  0  0  0  0  0  0  0  0  0  0
    3.1215   -0.2524    0.0000 H   0  0  0  0  0  0  0  0  0  0  0  0
    3.5200   -0.9426    0.0000 H   0  0  0  0  0  0  0  0  0  0  0  0
   10.2712   -0.4579    0.0000 H   0  0  0  0  0  0  0  0  0  0  0  0
   10.7487    0.2774    0.0000 H   0  0  0  0  0  0  0  0  0  0  0  0
   10.0134    0.7550    0.0000 H   0  0  0  0  0  0  0  0  0  0  0  0
    8.7656   -1.1665    0.0000 H   0  0  0  0  0  0  0  0  0  0  0  0
    9.5010   -1.6440    0.0000 H   0  0  0  0  0  0  0  0  0  0  0  0
    9.9785   -0.9086    0.0000 H   0  0  0  0  0  0  0  0  0  0  0  0
    8.0571    0.3391    0.0000 H   0  0  0  0  0  0  0  0  0  0  0  0
    7.5795   -0.3962    0.0000 H   0  0  0  0  0  0  0  0  0  0  0  0
    8.3149   -0.8738    0.0000 H   0  0  0  0  0  0  0  0  0  0  0  0
    6.2741    4.7158    0.0000 H   0  0  0  0  0  0  0  0  0  0  0  0
    5.4272    4.4888    0.0000 H   0  0  0  0  0  0  0  0  0  0  0  0
    5.6541    3.6419    0.0000 H   0  0  0  0  0  0  0  0  0  0  0  0
    7.8671    4.2348    0.0000 H   0  0  0  0  0  0  0  0  0  0  0  0
    7.6401    5.0818    0.0000 H   0  0  0  0  0  0  0  0  0  0  0  0
    6.7932    4.8548    0.0000 H   0  0  0  0  0  0  0  0  0  0  0  0
    5.7932    3.1228    0.0000 H   0  0  0  0  0  0  0  0  0  0  0  0
    6.0201    2.2758    0.0000 H   0  0  0  0  0  0  0  0  0  0  0  0
    6.8671    2.5028    0.0000 H   0  0  0  0  0  0  0  0  0  0  0  0
    6.5762   -4.3600    0.0000 H   0  0  0  0  0  0  0  0  0  0  0  0
    7.1962   -4.9800    0.0000 H   0  0  0  0  0  0  0  0  0  0  0  0
    7.8162   -4.3600    0.0000 H   0  0  0  0  0  0  0  0  0  0  0  0
    8.1962   -3.9800    0.0000 H   0  0  0  0  0  0  0  0  0  0  0  0
    8.8162   -3.3600    0.0000 H   0  0  0  0  0  0  0  0  0  0  0  0
    8.1962   -2.7400    0.0000 H   0  0  0  0  0  0  0  0  0  0  0  0
    6.1962   -2.7400    0.0000 H   0  0  0  0  0  0  0  0  0  0  0  0
    5.5762   -3.3600    0.0000 H   0  0  0  0  0  0  0  0  0  0  0  0
    6.1962   -3.9800    0.0000 H   0  0  0  0  0  0  0  0  0  0  0  0
    3.4220   -3.8231    0.0000 H   0  0  0  0  0  0  0  0  0  0  0  0
    3.1951   -4.6700    0.0000 H   0  0  0  0  0  0  0  0  0  0  0  0
    4.0420   -4.8970    0.0000 H   0  0  0  0  0  0  0  0  0  0  0  0
    4.5611   -5.0360    0.0000 H   0  0  0  0  0  0  0  0  0  0  0  0
    5.4081   -5.2630    0.0000 H   0  0  0  0  0  0  0  0  0  0  0  0
    5.6350   -4.4160    0.0000 H   0  0  0  0  0  0  0  0  0  0  0  0
    4.6350   -2.6840    0.0000 H   0  0  0  0  0  0  0  0  0  0  0  0
    3.7881   -2.4571    0.0000 H   0  0  0  0  0  0  0  0  0  0  0  0
    3.5611   -3.3040    0.0000 H   0  0  0  0  0  0  0  0  0  0  0  0
    2.3100   -0.8231    0.0000 H   0  0  0  0  0  0  0  0  0  0  0  0
    1.4631   -1.0500    0.0000 H   0  0  0  0  0  0  0  0  0  0  0  0
    1.6900   -1.8970    0.0000 H   0  0  0  0  0  0  0  0  0  0  0  0
    1.8291   -2.4160    0.0000 H   0  0  0  0  0  0  0  0  0  0  0  0
    2.0560   -3.2630    0.0000 H   0  0  0  0  0  0  0  0  0  0  0  0
    2.9030   -3.0360    0.0000 H   0  0  0  0  0  0  0  0  0  0  0  0
    3.9030   -1.3040    0.0000 H   0  0  0  0  0  0  0  0  0  0  0  0
    3.6760   -0.4571    0.0000 H   0  0  0  0  0  0  0  0  0  0  0  0
    2.8291   -0.6840    0.0000 H   0  0  0  0  0  0  0  0  0  0  0  0
   10.9488    3.4944    0.0000 H   0  0  0  0  0  0  0  0  0  0  0  0
   11.3469    4.2756    0.0000 H   0  0  0  0  0  0  0  0  0  0  0  0
   10.5656    4.6737    0.0000 H   0  0  0  0  0  0  0  0  0  0  0  0
   10.0868    4.9176    0.0000 H   0  0  0  0  0  0  0  0  0  0  0  0
    9.3056    5.3157    0.0000 H   0  0  0  0  0  0  0  0  0  0  0  0
    8.9075    4.5345    0.0000 H   0  0  0  0  0  0  0  0  0  0  0  0
    9.5255    2.6324    0.0000 H   0  0  0  0  0  0  0  0  0  0  0  0
   10.3068    2.2343    0.0000 H   0  0  0  0  0  0  0  0  0  0  0  0
   10.7048    3.0155    0.0000 H   0  0  0  0  0  0  0  0  0  0  0  0
    5.7152    3.4153    0.0000 H   0  0  0  0  0  0  0  0  0  0  0  0
    5.2377    4.1506    0.0000 H   0  0  0  0  0  0  0  0  0  0  0  0
    4.5023    3.6731    0.0000 H   0  0  0  0  0  0  0  0  0  0  0  0
    4.0516    3.3804    0.0000 H   0  0  0  0  0  0  0  0  0  0  0  0
    3.3162    2.9028    0.0000 H   0  0  0  0  0  0  0  0  0  0  0  0
    3.7938    2.1675    0.0000 H   0  0  0  0  0  0  0  0  0  0  0  0
    5.7501    1.7517    0.0000 H   0  0  0  0  0  0  0  0  0  0  0  0
    6.4854    2.2292    0.0000 H   0  0  0  0  0  0  0  0  0  0  0  0
    6.0079    2.9646    0.0000 H   0  0  0  0  0  0  0  0  0  0  0  0
    2.3100    2.1769    0.0000 H   0  0  0  0  0  0  0  0  0  0  0  0
    1.4631    1.9500    0.0000 H   0  0  0  0  0  0  0  0  0  0  0  0
    1.6900    1.1030    0.0000 H   0  0  0  0  0  0  0  0  0  0  0  0
    3.9030    1.6960    0.0000 H   0  0  0  0  0  0  0  0  0  0  0  0
    3.6760    2.5429    0.0000 H   0  0  0  0  0  0  0  0  0  0  0  0
    2.8291    2.3160    0.0000 H   0  0  0  0  0  0  0  0  0  0  0  0
    1.8291    0.5839    0.0000 H   0  0  0  0  0  0  0  0  0  0  0  0
    2.0560   -0.2630    0.0000 H   0  0  0  0  0  0  0  0  0  0  0  0
    2.9030   -0.0361    0.0000 H   0  0  0  0  0  0  0  0  0  0  0  0
  1 11  1  0  0  0  0
  1 32  1  0  0  0  0
  1 33  1  0  0  0  0
  1 34  1  0  0  0  0
  2 12  1  0  0  0  0
  2 35  1  0  0  0  0
  2 36  1  0  0  0  0
  2 37  1  0  0  0  0
  3 14  1  0  0  0  0
  3 38  1  0  0  0  0
  3 39  1  0  0  0  0
  3 40  1  0  0  0  0
  4 15  1  0  0  0  0
  4 41  1  0  0  0  0
  4 42  1  0  0  0  0
  4 43  1  0  0  0  0
  5 16  1  0  0  0  0
  5 44  1  0  0  0  0
  5 45  1  0  0  0  0
  5 46  1  0  0  0  0
  6 17  1  0  0  0  0
  6 47  1  0  0  0  0
  6 48  1  0  0  0  0
  6 49  1  0  0  0  0
  7 18  1  0  0  0  0
  7 50  1  0  0  0  0
  7 51  1  0  0  0  0
  7 52  1  0  0  0  0
  8 19  1  0  0  0  0
  8 53  1  0  0  0  0
  8 54  1  0  0  0  0
  8 55  1  0  0  0  0
  9 22  1  0  0  0  0
  9 23  1  0  0  0  0
 10 20  1  0  0  0  0
 10 25  1  0  0  0  0
 11 21  1  0  0  0  0
 12 22  1  0  0  0  0
 13 25  1  0  0  0  0
 13 28  1  0  0  0  0
 14 24  1  0  0  0  0
 15 26  1  0  0  0  0
 16 27  1  0  0  0  0
 17 29  1  0  0  0  0
 18 30  1  0  0  0  0
 19 31  1  0  0  0  0
 20 21  1  0  0  0  0
 20 23  1  0  0  0  0
 20 56  1  0  0  0  0
 21 22  1  0  0  0  0
 21 57  1  0  0  0  0
 22 29  1  0  0  0  0
 23 30  1  0  0  0  0
 23 58  1  0  0  0  0
 24 25  1  0  0  0  0
 24 26  1  0  0  0  0
 24 59  1  0  0  0  0
 25 60  1  0  0  0  0
 26 27  1  0  0  0  0
 26 61  1  0  0  0  0
 27 28  1  0  0  0  0
 27 62  1  0  0  0  0
 28 31  1  0  0  0  0
 28 63  1  0  0  0  0
 29 64  1  0  0  0  0
 29 65  1  0  0  0  0
 30 66  1  0  0  0  0
 30 67  1  0  0  0  0
 31 68  1  0  0  0  0
 31 69  1  0  0  0  0
 32 70  1  0  0  0  0
 32 71  1  0  0  0  0
 32 72  1  0  0  0  0
 33 73  1  0  0  0  0
 33 74  1  0  0  0  0
 33 75  1  0  0  0  0
 34 76  1  0  0  0  0
 34 77  1  0  0  0  0
 34 78  1  0  0  0  0
 35 79  1  0  0  0  0
 35 80  1  0  0  0  0
 35 81  1  0  0  0  0
 36 82  1  0  0  0  0
 36 83  1  0  0  0  0
 36 84  1  0  0  0  0
 37 85  1  0  0  0  0
 37 86  1  0  0  0  0
 37 87  1  0  0  0  0
 38 88  1  0  0  0  0
 38 89  1  0  0  0  0
 38 90  1  0  0  0  0
 39 91  1  0  0  0  0
 39 92  1  0  0  0  0
 39 93  1  0  0  0  0
 40 94  1  0  0  0  0
 40 95  1  0  0  0  0
 40 96  1  0  0  0  0
 41 97  1  0  0  0  0
 41 98  1  0  0  0  0
 41 99  1  0  0  0  0
 42100  1  0  0  0  0
 42101  1  0  0  0  0
 42102  1  0  0  0  0
 43103  1  0  0  0  0
 43104  1  0  0  0  0
 43105  1  0  0  0  0
 44106  1  0  0  0  0
 44107  1  0  0  0  0
 44108  1  0  0  0  0
 45109  1  0  0  0  0
 45110  1  0  0  0  0
 45111  1  0  0  0  0
 46112  1  0  0  0  0
 46113  1  0  0  0  0
 46114  1  0  0  0  0
 47115  1  0  0  0  0
 47116  1  0  0  0  0
 47117  1  0  0  0  0
 48118  1  0  0  0  0
 48119  1  0  0  0  0
 48120  1  0  0  0  0
 49121  1  0  0  0  0
 49122  1  0  0  0  0
 49123  1  0  0  0  0
 50124  1  0  0  0  0
 50125  1  0  0  0  0
 50126  1  0  0  0  0
 51127  1  0  0  0  0
 51128  1  0  0  0  0
 51129  1  0  0  0  0
 52130  1  0  0  0  0
 52131  1  0  0  0  0
 52132  1  0  0  0  0
 53133  1  0  0  0  0
 53134  1  0  0  0  0
 53135  1  0  0  0  0
 54136  1  0  0  0  0
 54137  1  0  0  0  0
 54138  1  0  0  0  0
 55139  1  0  0  0  0
 55140  1  0  0  0  0
 55141  1  0  0  0  0
M  END
> <PUBCHEM_COMPOUND_CID>
525319
> <PUBCHEM_COMPOUND_CANONICALIZED>
1
> <PUBCHEM_CACTVS_COMPLEXITY>
1190
> <PUBCHEM_CACTVS_HBOND_ACCEPTOR>
11
> <PUBCHEM_CACTVS_HBOND_DONOR>
0
> <PUBCHEM_CACTVS_ROTATABLE_BOND>
21
> <PUBCHEM_CACTVS_SUBSKEYS>
AAADcfB8PAwAAAAAAAAAAAAAAAAAASAAAAAkAAAAAAAAAAAAAAAAGhAAAEAACBSwgANCCAAABAEAAAAAAAAAAAAAAAAAAAAAAAARAAIAAAAiAAAFAAAGAAHAYAwAAAAAAAAAAAAAAAAAAAAAAAAAAAAAAA==
> <PUBCHEM_IUPAC_OPENEYE_NAME>
trimethyl-[2-trimethylsilyloxy-2,5-bis(trimethylsilyloxymethyl)-4-[3,4,5-tris(trimethylsilyloxy)-6-(trimethylsilyloxymethyl)tetrahydropyran-2-yl]oxy-tetrahydrofuran-3-yl]oxy-silane
> <PUBCHEM_IUPAC_CAS_NAME>
trimethyl-[[2-trimethylsilyloxy-2,5-bis(trimethylsilyloxymethyl)-4-[[3,4,5-tris(trimethylsilyloxy)-6-(trimethylsilyloxymethyl)-2-oxanyl]oxy]-3-oxolanyl]oxy]silane
> <PUBCHEM_IUPAC_NAME_MARKUP>
trimethyl-[2-trimethylsilyloxy-2,5-bis(trimethylsilyloxymethyl)-4-[3,4,5-tris(trimethylsilyloxy)-6-(trimethylsilyloxymethyl)oxan-2-yl]oxyoxolan-3-yl]oxysilane
> <PUBCHEM_IUPAC_NAME>
trimethyl-[2-trimethylsilyloxy-2,5-bis(trimethylsilyloxymethyl)-4-[3,4,5-tris(trimethylsilyloxy)-6-(trimethylsilyloxymethyl)oxan-2-yl]oxyoxolan-3-yl]oxysilane
> <PUBCHEM_IUPAC_SYSTEMATIC_NAME>
trimethyl-[2-trimethylsilyloxy-2,5-bis(trimethylsilyloxymethyl)-4-[3,4,5-tris(trimethylsilyloxy)-6-(trimethylsilyloxymethyl)oxan-2-yl]oxy-oxolan-3-yl]oxy-silane
> <PUBCHEM_IUPAC_TRADITIONAL_NAME>
trimethyl-[2-trimethylsilyloxy-2,5-bis(trimethylsilyloxymethyl)-4-[3,4,5-tris(trimethylsilyloxy)-6-(trimethylsilyloxymethyl)tetrahydropyran-2-yl]oxy-tetrahydrofuran-3-yl]oxy-silane
> <PUBCHEM_IUPAC_INCHI>
InChI=1S/C36H86O11Si8/c1-48(2,3)37-25-28-30(43-51(10,11)12)32(44-52(13,14)15)33(45-53(16,17)18)35(40-28)41-31-29(26-38-49(4,5)6)42-36(47-55(22,23)24,27-39-50(7,8)9)34(31)46-54(19,20)21/h28-35H,25-27H2,1-24H3
> <PUBCHEM_IUPAC_INCHIKEY>
GAHZLIHEAJXJMO-UHFFFAOYSA-N
> <PUBCHEM_EXACT_MASS>
918.43242583
> <PUBCHEM_MOLECULAR_FORMULA>
C36H86O11Si8
> <PUBCHEM_MOLECULAR_WEIGHT>
919.7
> <PUBCHEM_OPENEYE_CAN_SMILES>
C[Si](C)(C)OCC1C(C(C(C(O1)OC2C(OC(C2O[Si](C)(C)C)(CO[Si](C)(C)C)O[Si](C)(C)C)CO[Si](C)(C)C)O[Si](C)(C)C)O[Si](C)(C)C)O[Si](C)(C)C
> <PUBCHEM_OPENEYE_ISO_SMILES>
C[Si](C)(C)OCC1C(C(C(C(O1)OC2C(OC(C2O[Si](C)(C)C)(CO[Si](C)(C)C)O[Si](C)(C)C)CO[Si](C)(C)C)O[Si](C)(C)C)O[Si](C)(C)C)O[Si](C)(C)C
> <PUBCHEM_CACTVS_TPSA>
102
> <PUBCHEM_MONOISOTOPIC_WEIGHT>
918.43242583
> <PUBCHEM_TOTAL_CHARGE>
0
> <PUBCHEM_HEAVY_ATOM_COUNT>
55
> <PUBCHEM_ATOM_DEF_STEREO_COUNT>
0
> <PUBCHEM_ATOM_UDEF_STEREO_COUNT>
9
> <PUBCHEM_BOND_DEF_STEREO_COUNT>
0
> <PUBCHEM_BOND_UDEF_STEREO_COUNT>
0
> <PUBCHEM_ISOTOPIC_ATOM_COUNT>
0
> <PUBCHEM_COMPONENT_COUNT>
1
> <PUBCHEM_CACTVS_TAUTO_COUNT>
-1
> <PUBCHEM_COORDINATE_TYPE>
1
5
255
> <PUBCHEM_BONDANNOTATIONS>
20  10  3
25  10  3
21  11  3
24  14  3
26  15  3
27  16  3
22  29  3
23  30  3
28  31  3
$$$$
