525432
  -OEChem-10302200292D
 30 29  0     1  0  0  0  0  0999 V2000
    4.5981    0.5670    0.0000 S   0  0  0  0  0  0  0  0  0  0  0  0
    3.7320    0.0670    0.0000 C   0  0  0  0  0  0  0  0  0  0  0  0
    2.8660   -0.4330    0.0000 C   0  0  0  0  0  0  0  0  0  0  0  0
    5.4641    0.0670    0.0000 C   0  0  3  0  0  0  0  0  0  0  0  0
    3.2320    0.9330    0.0000 C   0  0  0  0  0  0  0  0  0  0  0  0
    4.2320   -0.7990    0.0000 C   0  0  0  0  0  0  0  0  0  0  0  0
    6.3301    0.5670    0.0000 C   0  0  0  0  0  0  0  0  0  0  0  0
    2.0000    0.0670    0.0000 C   0  0  0  0  0  0  0  0  0  0  0  0
    5.4641   -0.9330    0.0000 C   0  0  0  0  0  0  0  0  0  0  0  0
    7.1962    0.0670    0.0000 C   0  0  0  0  0  0  0  0  0  0  0  0
    2.4675   -0.9080    0.0000 H   0  0  0  0  0  0  0  0  0  0  0  0
    3.2646   -0.9080    0.0000 H   0  0  0  0  0  0  0  0  0  0  0  0
    4.9272   -0.2430    0.0000 H   0  0  0  0  0  0  0  0  0  0  0  0
    3.7690    1.2430    0.0000 H   0  0  0  0  0  0  0  0  0  0  0  0
    2.9220    1.4700    0.0000 H   0  0  0  0  0  0  0  0  0  0  0  0
    2.6951    0.6230    0.0000 H   0  0  0  0  0  0  0  0  0  0  0  0
    3.6951   -1.1090    0.0000 H   0  0  0  0  0  0  0  0  0  0  0  0
    4.5420   -1.3360    0.0000 H   0  0  0  0  0  0  0  0  0  0  0  0
    4.7690   -0.4890    0.0000 H   0  0  0  0  0  0  0  0  0  0  0  0
    6.7287    1.0419    0.0000 H   0  0  0  0  0  0  0  0  0  0  0  0
    5.9316    1.0419    0.0000 H   0  0  0  0  0  0  0  0  0  0  0  0
    2.3100    0.6039    0.0000 H   0  0  0  0  0  0  0  0  0  0  0  0
    1.4631    0.3770    0.0000 H   0  0  0  0  0  0  0  0  0  0  0  0
    1.6900   -0.4699    0.0000 H   0  0  0  0  0  0  0  0  0  0  0  0
    4.8441   -0.9330    0.0000 H   0  0  0  0  0  0  0  0  0  0  0  0
    5.4641   -1.5530    0.0000 H   0  0  0  0  0  0  0  0  0  0  0  0
    6.0841   -0.9330    0.0000 H   0  0  0  0  0  0  0  0  0  0  0  0
    6.8862   -0.4699    0.0000 H   0  0  0  0  0  0  0  0  0  0  0  0
    7.7331   -0.2430    0.0000 H   0  0  0  0  0  0  0  0  0  0  0  0
    7.5062    0.6039    0.0000 H   0  0  0  0  0  0  0  0  0  0  0  0
  1  2  1  0  0  0  0
  1  4  1  0  0  0  0
  2  3  1  0  0  0  0
  2  5  1  0  0  0  0
  2  6  1  0  0  0  0
  3  8  1  0  0  0  0
  3 11  1  0  0  0  0
  3 12  1  0  0  0  0
  4  7  1  0  0  0  0
  4  9  1  0  0  0  0
  4 13  1  0  0  0  0
  5 14  1  0  0  0  0
  5 15  1  0  0  0  0
  5 16  1  0  0  0  0
  6 17  1  0  0  0  0
  6 18  1  0  0  0  0
  6 19  1  0  0  0  0
  7 10  1  0  0  0  0
  7 20  1  0  0  0  0
  7 21  1  0  0  0  0
  8 22  1  0  0  0  0
  8 23  1  0  0  0  0
  8 24  1  0  0  0  0
  9 25  1  0  0  0  0
  9 26  1  0  0  0  0
  9 27  1  0  0  0  0
 10 28  1  0  0  0  0
 10 29  1  0  0  0  0
 10 30  1  0  0  0  0
M  END
> <PUBCHEM_COMPOUND_CID>
525432
> <PUBCHEM_COMPOUND_CANONICALIZED>
1
> <PUBCHEM_CACTVS_COMPLEXITY>
86.7
> <PUBCHEM_CACTVS_HBOND_ACCEPTOR>
1
> <PUBCHEM_CACTVS_HBOND_DONOR>
0
> <PUBCHEM_CACTVS_ROTATABLE_BOND>
4
> <PUBCHEM_CACTVS_SUBSKEYS>
AAADceBwAABAAAAAAAAAAAAAAAAAAAAAAAAAAAAAAAAAAAAAAAAAGAQAAAAADACEQACCAAAAAAgAAAAAAAAAAAAAABAAAAAAAAAAAAAgAAAAAAAAAAAgAAAAAAAIAAAAAAAAAAAAAAAAAAAAAAAAAAAAAA==
> <PUBCHEM_IUPAC_OPENEYE_NAME>
2-methyl-2-sec-butylsulfanyl-butane
> <PUBCHEM_IUPAC_CAS_NAME>
2-(butan-2-ylthio)-2-methylbutane
> <PUBCHEM_IUPAC_NAME_MARKUP>
2-butan-2-ylsulfanyl-2-methylbutane
> <PUBCHEM_IUPAC_NAME>
2-butan-2-ylsulfanyl-2-methylbutane
> <PUBCHEM_IUPAC_SYSTEMATIC_NAME>
2-butan-2-ylsulfanyl-2-methyl-butane
> <PUBCHEM_IUPAC_TRADITIONAL_NAME>
2-methyl-2-(sec-butylthio)butane
> <PUBCHEM_IUPAC_INCHI>
InChI=1S/C9H20S/c1-6-8(3)10-9(4,5)7-2/h8H,6-7H2,1-5H3
> <PUBCHEM_IUPAC_INCHIKEY>
CAUBTWNIPVKWEU-UHFFFAOYSA-N
> <PUBCHEM_XLOGP3_AA>
3.7
> <PUBCHEM_EXACT_MASS>
160.12857181
> <PUBCHEM_MOLECULAR_FORMULA>
C9H20S
> <PUBCHEM_MOLECULAR_WEIGHT>
160.32
> <PUBCHEM_OPENEYE_CAN_SMILES>
CCC(C)SC(C)(C)CC
> <PUBCHEM_OPENEYE_ISO_SMILES>
CCC(C)SC(C)(C)CC
> <PUBCHEM_CACTVS_TPSA>
25.3
> <PUBCHEM_MONOISOTOPIC_WEIGHT>
160.12857181
> <PUBCHEM_TOTAL_CHARGE>
0
> <PUBCHEM_HEAVY_ATOM_COUNT>
10
> <PUBCHEM_ATOM_DEF_STEREO_COUNT>
0
> <PUBCHEM_ATOM_UDEF_STEREO_COUNT>
1
> <PUBCHEM_BOND_DEF_STEREO_COUNT>
0
> <PUBCHEM_BOND_UDEF_STEREO_COUNT>
0
> <PUBCHEM_ISOTOPIC_ATOM_COUNT>
0
> <PUBCHEM_COMPONENT_COUNT>
1
> <PUBCHEM_CACTVS_TAUTO_COUNT>
-1
> <PUBCHEM_COORDINATE_TYPE>
1
5
255
> <PUBCHEM_BONDANNOTATIONS>
4  9  3
$$$$
