525967
  -OEChem-10302200292D
 24 24  0     1  0  0  0  0  0999 V2000
    3.3090    1.1191    0.0000 S   0  0  0  0  0  0  0  0  0  0  0  0
    2.8090   -0.4197    0.0000 N   0  0  0  0  0  0  0  0  0  0  0  0
    4.5691   -0.1410    0.0000 C   0  0  3  0  0  0  0  0  0  0  0  0
    3.6180    0.1681    0.0000 C   0  0  3  0  0  0  0  0  0  0  0  0
    5.3122    0.5282    0.0000 C   0  0  0  0  0  0  0  0  0  0  0  0
    2.0000    0.1681    0.0000 C   0  0  0  0  0  0  0  0  0  0  0  0
    2.3090    1.1191    0.0000 C   0  0  0  0  0  0  0  0  0  0  0  0
    4.7770   -1.1191    0.0000 C   0  0  0  0  0  0  0  0  0  0  0  0
    6.2633    0.2192    0.0000 C   0  0  0  0  0  0  0  0  0  0  0  0
    4.1083   -0.5558    0.0000 H   0  0  0  0  0  0  0  0  0  0  0  0
    4.0564    0.6065    0.0000 H   0  0  0  0  0  0  0  0  0  0  0  0
    5.6033    1.0756    0.0000 H   0  0  0  0  0  0  0  0  0  0  0  0
    4.8237    0.9099    0.0000 H   0  0  0  0  0  0  0  0  0  0  0  0
    2.8090   -1.0397    0.0000 H   0  0  0  0  0  0  0  0  0  0  0  0
    1.4336    0.4202    0.0000 H   0  0  0  0  0  0  0  0  0  0  0  0
    1.6900   -0.3689    0.0000 H   0  0  0  0  0  0  0  0  0  0  0  0
    2.3738    1.7357    0.0000 H   0  0  0  0  0  0  0  0  0  0  0  0
    1.7026    1.2480    0.0000 H   0  0  0  0  0  0  0  0  0  0  0  0
    4.1706   -1.2480    0.0000 H   0  0  0  0  0  0  0  0  0  0  0  0
    4.9059   -1.7256    0.0000 H   0  0  0  0  0  0  0  0  0  0  0  0
    5.3834   -0.9902    0.0000 H   0  0  0  0  0  0  0  0  0  0  0  0
    6.0717   -0.3705    0.0000 H   0  0  0  0  0  0  0  0  0  0  0  0
    6.8530    0.0276    0.0000 H   0  0  0  0  0  0  0  0  0  0  0  0
    6.4549    0.8088    0.0000 H   0  0  0  0  0  0  0  0  0  0  0  0
  1  4  1  0  0  0  0
  1  7  1  0  0  0  0
  2  4  1  0  0  0  0
  2  6  1  0  0  0  0
  2 14  1  0  0  0  0
  3  4  1  0  0  0  0
  3  5  1  0  0  0  0
  3  8  1  0  0  0  0
  3 10  1  0  0  0  0
  4 11  1  0  0  0  0
  5  9  1  0  0  0  0
  5 12  1  0  0  0  0
  5 13  1  0  0  0  0
  6  7  1  0  0  0  0
  6 15  1  0  0  0  0
  6 16  1  0  0  0  0
  7 17  1  0  0  0  0
  7 18  1  0  0  0  0
  8 19  1  0  0  0  0
  8 20  1  0  0  0  0
  8 21  1  0  0  0  0
  9 22  1  0  0  0  0
  9 23  1  0  0  0  0
  9 24  1  0  0  0  0
M  END
> <PUBCHEM_COMPOUND_CID>
525967
> <PUBCHEM_COMPOUND_CANONICALIZED>
1
> <PUBCHEM_CACTVS_COMPLEXITY>
85
> <PUBCHEM_CACTVS_HBOND_ACCEPTOR>
2
> <PUBCHEM_CACTVS_HBOND_DONOR>
1
> <PUBCHEM_CACTVS_ROTATABLE_BOND>
2
> <PUBCHEM_CACTVS_SUBSKEYS>
AAADccBiAABAAAAAAAAAAAAAAAAAAWAAAAAAAAAAAAAAAAAAAAAAHAQQAAAADQDFQASCAALAAAgAAAAAAAAAAABAABAAAIAIAAAAAAAggAAEAAAAEACgAAAAAAAIAAAAAAAAAAAAAAAAAAAAAAAAAAAAAA==
> <PUBCHEM_IUPAC_OPENEYE_NAME>
2-sec-butylthiazolidine
> <PUBCHEM_IUPAC_CAS_NAME>
2-butan-2-ylthiazolidine
> <PUBCHEM_IUPAC_NAME_MARKUP>
2-butan-2-yl-1,3-thiazolidine
> <PUBCHEM_IUPAC_NAME>
2-butan-2-yl-1,3-thiazolidine
> <PUBCHEM_IUPAC_SYSTEMATIC_NAME>
2-butan-2-yl-1,3-thiazolidine
> <PUBCHEM_IUPAC_TRADITIONAL_NAME>
2-sec-butylthiazolidine
> <PUBCHEM_IUPAC_INCHI>
InChI=1S/C7H15NS/c1-3-6(2)7-8-4-5-9-7/h6-8H,3-5H2,1-2H3
> <PUBCHEM_IUPAC_INCHIKEY>
FIEBNWSCVQZSGR-UHFFFAOYSA-N
> <PUBCHEM_XLOGP3_AA>
2.1
> <PUBCHEM_EXACT_MASS>
145.09252066
> <PUBCHEM_MOLECULAR_FORMULA>
C7H15NS
> <PUBCHEM_MOLECULAR_WEIGHT>
145.27
> <PUBCHEM_OPENEYE_CAN_SMILES>
CCC(C)C1NCCS1
> <PUBCHEM_OPENEYE_ISO_SMILES>
CCC(C)C1NCCS1
> <PUBCHEM_CACTVS_TPSA>
37.3
> <PUBCHEM_MONOISOTOPIC_WEIGHT>
145.09252066
> <PUBCHEM_TOTAL_CHARGE>
0
> <PUBCHEM_HEAVY_ATOM_COUNT>
9
> <PUBCHEM_ATOM_DEF_STEREO_COUNT>
0
> <PUBCHEM_ATOM_UDEF_STEREO_COUNT>
2
> <PUBCHEM_BOND_DEF_STEREO_COUNT>
0
> <PUBCHEM_BOND_UDEF_STEREO_COUNT>
0
> <PUBCHEM_ISOTOPIC_ATOM_COUNT>
0
> <PUBCHEM_COMPONENT_COUNT>
1
> <PUBCHEM_CACTVS_TAUTO_COUNT>
-1
> <PUBCHEM_COORDINATE_TYPE>
1
5
255
> <PUBCHEM_BONDANNOTATIONS>
4  2  3
3  8  3
$$$$
