525968
  -OEChem-10302200292D
 30 30  0     1  0  0  0  0  0999 V2000
    3.3090    1.0148    0.0000 S   0  0  0  0  0  0  0  0  0  0  0  0
    2.8090   -0.5241    0.0000 N   0  0  0  0  0  0  0  0  0  0  0  0
    3.6180    0.0637    0.0000 C   0  0  3  0  0  0  0  0  0  0  0  0
    4.5691   -0.2453    0.0000 C   0  0  0  0  0  0  0  0  0  0  0  0
    5.3122    0.4238    0.0000 C   0  0  0  0  0  0  0  0  0  0  0  0
    6.2633    0.1148    0.0000 C   0  0  0  0  0  0  0  0  0  0  0  0
    2.0000    0.0637    0.0000 C   0  0  0  0  0  0  0  0  0  0  0  0
    2.3090    1.0148    0.0000 C   0  0  0  0  0  0  0  0  0  0  0  0
    7.0064    0.7839    0.0000 C   0  0  0  0  0  0  0  0  0  0  0  0
    7.9575    0.4749    0.0000 C   0  0  0  0  0  0  0  0  0  0  0  0
    8.7006    1.1441    0.0000 C   0  0  0  0  0  0  0  0  0  0  0  0
    4.0564    0.5021    0.0000 H   0  0  0  0  0  0  0  0  0  0  0  0
    4.2780   -0.7927    0.0000 H   0  0  0  0  0  0  0  0  0  0  0  0
    5.0577   -0.6270    0.0000 H   0  0  0  0  0  0  0  0  0  0  0  0
    5.6033    0.9713    0.0000 H   0  0  0  0  0  0  0  0  0  0  0  0
    4.8237    0.8055    0.0000 H   0  0  0  0  0  0  0  0  0  0  0  0
    5.9722   -0.4326    0.0000 H   0  0  0  0  0  0  0  0  0  0  0  0
    6.7519   -0.2669    0.0000 H   0  0  0  0  0  0  0  0  0  0  0  0
    2.8090   -1.1441    0.0000 H   0  0  0  0  0  0  0  0  0  0  0  0
    1.4336    0.3159    0.0000 H   0  0  0  0  0  0  0  0  0  0  0  0
    1.6900   -0.4732    0.0000 H   0  0  0  0  0  0  0  0  0  0  0  0
    7.2975    1.3314    0.0000 H   0  0  0  0  0  0  0  0  0  0  0  0
    6.5179    1.1657    0.0000 H   0  0  0  0  0  0  0  0  0  0  0  0
    2.3738    1.6314    0.0000 H   0  0  0  0  0  0  0  0  0  0  0  0
    1.7026    1.1437    0.0000 H   0  0  0  0  0  0  0  0  0  0  0  0
    7.6664   -0.0725    0.0000 H   0  0  0  0  0  0  0  0  0  0  0  0
    8.4461    0.0932    0.0000 H   0  0  0  0  0  0  0  0  0  0  0  0
    9.1155    0.6833    0.0000 H   0  0  0  0  0  0  0  0  0  0  0  0
    9.1614    1.5589    0.0000 H   0  0  0  0  0  0  0  0  0  0  0  0
    8.2858    1.6048    0.0000 H   0  0  0  0  0  0  0  0  0  0  0  0
  1  3  1  0  0  0  0
  1  8  1  0  0  0  0
  2  3  1  0  0  0  0
  2  7  1  0  0  0  0
  2 19  1  0  0  0  0
  3  4  1  0  0  0  0
  3 12  1  0  0  0  0
  4  5  1  0  0  0  0
  4 13  1  0  0  0  0
  4 14  1  0  0  0  0
  5  6  1  0  0  0  0
  5 15  1  0  0  0  0
  5 16  1  0  0  0  0
  6  9  1  0  0  0  0
  6 17  1  0  0  0  0
  6 18  1  0  0  0  0
  7  8  1  0  0  0  0
  7 20  1  0  0  0  0
  7 21  1  0  0  0  0
  8 24  1  0  0  0  0
  8 25  1  0  0  0  0
  9 10  1  0  0  0  0
  9 22  1  0  0  0  0
  9 23  1  0  0  0  0
 10 11  1  0  0  0  0
 10 26  1  0  0  0  0
 10 27  1  0  0  0  0
 11 28  1  0  0  0  0
 11 29  1  0  0  0  0
 11 30  1  0  0  0  0
M  END
> <PUBCHEM_COMPOUND_CID>
525968
> <PUBCHEM_COMPOUND_CANONICALIZED>
1
> <PUBCHEM_CACTVS_COMPLEXITY>
95.6
> <PUBCHEM_CACTVS_HBOND_ACCEPTOR>
2
> <PUBCHEM_CACTVS_HBOND_DONOR>
1
> <PUBCHEM_CACTVS_ROTATABLE_BOND>
5
> <PUBCHEM_CACTVS_SUBSKEYS>
AAADceByAABAAAAAAAAAAAAAAAAAAWAAAAAAAAAAAAAAAAAAAAAAHAQQAAAACADFQASCAALAAAgAAAAAAAAAAABAABAAAIAIAAAAAAIggAAEAAAAEACgAAEQgAAAAAAAAAAAAAAAAAAAAAAAAAAAAAAAAA==
> <PUBCHEM_IUPAC_OPENEYE_NAME>
2-hexylthiazolidine
> <PUBCHEM_IUPAC_CAS_NAME>
2-hexylthiazolidine
> <PUBCHEM_IUPAC_NAME_MARKUP>
2-hexyl-1,3-thiazolidine
> <PUBCHEM_IUPAC_NAME>
2-hexyl-1,3-thiazolidine
> <PUBCHEM_IUPAC_SYSTEMATIC_NAME>
2-hexyl-1,3-thiazolidine
> <PUBCHEM_IUPAC_TRADITIONAL_NAME>
2-hexylthiazolidine
> <PUBCHEM_IUPAC_INCHI>
InChI=1S/C9H19NS/c1-2-3-4-5-6-9-10-7-8-11-9/h9-10H,2-8H2,1H3
> <PUBCHEM_IUPAC_INCHIKEY>
OAMNFUGALUYNII-UHFFFAOYSA-N
> <PUBCHEM_XLOGP3_AA>
3.3
> <PUBCHEM_EXACT_MASS>
173.12382078
> <PUBCHEM_MOLECULAR_FORMULA>
C9H19NS
> <PUBCHEM_MOLECULAR_WEIGHT>
173.32
> <PUBCHEM_OPENEYE_CAN_SMILES>
CCCCCCC1NCCS1
> <PUBCHEM_OPENEYE_ISO_SMILES>
CCCCCCC1NCCS1
> <PUBCHEM_CACTVS_TPSA>
37.3
> <PUBCHEM_MONOISOTOPIC_WEIGHT>
173.12382078
> <PUBCHEM_TOTAL_CHARGE>
0
> <PUBCHEM_HEAVY_ATOM_COUNT>
11
> <PUBCHEM_ATOM_DEF_STEREO_COUNT>
0
> <PUBCHEM_ATOM_UDEF_STEREO_COUNT>
1
> <PUBCHEM_BOND_DEF_STEREO_COUNT>
0
> <PUBCHEM_BOND_UDEF_STEREO_COUNT>
0
> <PUBCHEM_ISOTOPIC_ATOM_COUNT>
0
> <PUBCHEM_COMPONENT_COUNT>
1
> <PUBCHEM_CACTVS_TAUTO_COUNT>
-1
> <PUBCHEM_COORDINATE_TYPE>
1
5
255
> <PUBCHEM_BONDANNOTATIONS>
3  4  3
$$$$
