525969
  -OEChem-10302200292D
 36 36  0     1  0  0  0  0  0999 V2000
    3.3090    0.8347    0.0000 S   0  0  0  0  0  0  0  0  0  0  0  0
    2.8090   -0.7041    0.0000 N   0  0  0  0  0  0  0  0  0  0  0  0
    3.6180   -0.1163    0.0000 C   0  0  3  0  0  0  0  0  0  0  0  0
    4.5691   -0.4254    0.0000 C   0  0  0  0  0  0  0  0  0  0  0  0
    5.3122    0.2438    0.0000 C   0  0  0  0  0  0  0  0  0  0  0  0
    6.2633   -0.0652    0.0000 C   0  0  0  0  0  0  0  0  0  0  0  0
    7.0064    0.6039    0.0000 C   0  0  0  0  0  0  0  0  0  0  0  0
    7.9575    0.2949    0.0000 C   0  0  0  0  0  0  0  0  0  0  0  0
    2.0000   -0.1163    0.0000 C   0  0  0  0  0  0  0  0  0  0  0  0
    2.3090    0.8347    0.0000 C   0  0  0  0  0  0  0  0  0  0  0  0
    8.7006    0.9640    0.0000 C   0  0  0  0  0  0  0  0  0  0  0  0
    9.6517    0.6550    0.0000 C   0  0  0  0  0  0  0  0  0  0  0  0
   10.3948    1.3241    0.0000 C   0  0  0  0  0  0  0  0  0  0  0  0
    4.0564    0.3221    0.0000 H   0  0  0  0  0  0  0  0  0  0  0  0
    4.2780   -0.9728    0.0000 H   0  0  0  0  0  0  0  0  0  0  0  0
    5.0577   -0.8071    0.0000 H   0  0  0  0  0  0  0  0  0  0  0  0
    5.6033    0.7912    0.0000 H   0  0  0  0  0  0  0  0  0  0  0  0
    4.8237    0.6255    0.0000 H   0  0  0  0  0  0  0  0  0  0  0  0
    5.9722   -0.6127    0.0000 H   0  0  0  0  0  0  0  0  0  0  0  0
    6.7519   -0.4469    0.0000 H   0  0  0  0  0  0  0  0  0  0  0  0
    7.2975    1.1513    0.0000 H   0  0  0  0  0  0  0  0  0  0  0  0
    6.5179    0.9856    0.0000 H   0  0  0  0  0  0  0  0  0  0  0  0
    7.6664   -0.2526    0.0000 H   0  0  0  0  0  0  0  0  0  0  0  0
    8.4461   -0.0868    0.0000 H   0  0  0  0  0  0  0  0  0  0  0  0
    2.8090   -1.3241    0.0000 H   0  0  0  0  0  0  0  0  0  0  0  0
    1.4336    0.1358    0.0000 H   0  0  0  0  0  0  0  0  0  0  0  0
    1.6900   -0.6533    0.0000 H   0  0  0  0  0  0  0  0  0  0  0  0
    2.3738    1.4513    0.0000 H   0  0  0  0  0  0  0  0  0  0  0  0
    1.7026    0.9636    0.0000 H   0  0  0  0  0  0  0  0  0  0  0  0
    8.9917    1.5114    0.0000 H   0  0  0  0  0  0  0  0  0  0  0  0
    8.2121    1.3457    0.0000 H   0  0  0  0  0  0  0  0  0  0  0  0
    9.3606    0.1076    0.0000 H   0  0  0  0  0  0  0  0  0  0  0  0
   10.1403    0.2733    0.0000 H   0  0  0  0  0  0  0  0  0  0  0  0
   10.8097    0.8634    0.0000 H   0  0  0  0  0  0  0  0  0  0  0  0
   10.8556    1.7390    0.0000 H   0  0  0  0  0  0  0  0  0  0  0  0
    9.9800    1.7849    0.0000 H   0  0  0  0  0  0  0  0  0  0  0  0
  1  3  1  0  0  0  0
  1 10  1  0  0  0  0
  2  3  1  0  0  0  0
  2  9  1  0  0  0  0
  2 25  1  0  0  0  0
  3  4  1  0  0  0  0
  3 14  1  0  0  0  0
  4  5  1  0  0  0  0
  4 15  1  0  0  0  0
  4 16  1  0  0  0  0
  5  6  1  0  0  0  0
  5 17  1  0  0  0  0
  5 18  1  0  0  0  0
  6  7  1  0  0  0  0
  6 19  1  0  0  0  0
  6 20  1  0  0  0  0
  7  8  1  0  0  0  0
  7 21  1  0  0  0  0
  7 22  1  0  0  0  0
  8 11  1  0  0  0  0
  8 23  1  0  0  0  0
  8 24  1  0  0  0  0
  9 10  1  0  0  0  0
  9 26  1  0  0  0  0
  9 27  1  0  0  0  0
 10 28  1  0  0  0  0
 10 29  1  0  0  0  0
 11 12  1  0  0  0  0
 11 30  1  0  0  0  0
 11 31  1  0  0  0  0
 12 13  1  0  0  0  0
 12 32  1  0  0  0  0
 12 33  1  0  0  0  0
 13 34  1  0  0  0  0
 13 35  1  0  0  0  0
 13 36  1  0  0  0  0
M  END
> <PUBCHEM_COMPOUND_CID>
525969
> <PUBCHEM_COMPOUND_CANONICALIZED>
1
> <PUBCHEM_CACTVS_COMPLEXITY>
117
> <PUBCHEM_CACTVS_HBOND_ACCEPTOR>
2
> <PUBCHEM_CACTVS_HBOND_DONOR>
1
> <PUBCHEM_CACTVS_ROTATABLE_BOND>
7
> <PUBCHEM_CACTVS_SUBSKEYS>
AAADceByAABAAAAAAAAAAAAAAAAAAWAAAAAAAAAAAAAAAAAAAAAAHAQQAAAACADFQASCAALAAAgAAAAAAAAAAABAABAAAIAIAAAAAAIggAAEAAAAEACgAAEQgIAAAAAAAAAAAAAAAAAAAAAAAAAAAAAAAA==
> <PUBCHEM_IUPAC_OPENEYE_NAME>
2-octylthiazolidine
> <PUBCHEM_IUPAC_CAS_NAME>
2-octylthiazolidine
> <PUBCHEM_IUPAC_NAME_MARKUP>
2-octyl-1,3-thiazolidine
> <PUBCHEM_IUPAC_NAME>
2-octyl-1,3-thiazolidine
> <PUBCHEM_IUPAC_SYSTEMATIC_NAME>
2-octyl-1,3-thiazolidine
> <PUBCHEM_IUPAC_TRADITIONAL_NAME>
2-octylthiazolidine
> <PUBCHEM_IUPAC_INCHI>
InChI=1S/C11H23NS/c1-2-3-4-5-6-7-8-11-12-9-10-13-11/h11-12H,2-10H2,1H3
> <PUBCHEM_IUPAC_INCHIKEY>
PBDQYMCEPIQARI-UHFFFAOYSA-N
> <PUBCHEM_XLOGP3_AA>
4.3
> <PUBCHEM_EXACT_MASS>
201.15512091
> <PUBCHEM_MOLECULAR_FORMULA>
C11H23NS
> <PUBCHEM_MOLECULAR_WEIGHT>
201.37
> <PUBCHEM_OPENEYE_CAN_SMILES>
CCCCCCCCC1NCCS1
> <PUBCHEM_OPENEYE_ISO_SMILES>
CCCCCCCCC1NCCS1
> <PUBCHEM_CACTVS_TPSA>
37.3
> <PUBCHEM_MONOISOTOPIC_WEIGHT>
201.15512091
> <PUBCHEM_TOTAL_CHARGE>
0
> <PUBCHEM_HEAVY_ATOM_COUNT>
13
> <PUBCHEM_ATOM_DEF_STEREO_COUNT>
0
> <PUBCHEM_ATOM_UDEF_STEREO_COUNT>
1
> <PUBCHEM_BOND_DEF_STEREO_COUNT>
0
> <PUBCHEM_BOND_UDEF_STEREO_COUNT>
0
> <PUBCHEM_ISOTOPIC_ATOM_COUNT>
0
> <PUBCHEM_COMPONENT_COUNT>
1
> <PUBCHEM_CACTVS_TAUTO_COUNT>
-1
> <PUBCHEM_COORDINATE_TYPE>
1
5
255
> <PUBCHEM_BONDANNOTATIONS>
3  4  3
$$$$
