526017
  -OEChem-10302200292D
 67 68  0     1  0  0  0  0  0999 V2000
    6.3301   -3.5000    0.0000 Si  0  0  0  0  0  0  0  0  0  0  0  0
    9.7942   -0.5000    0.0000 Si  0  0  0  0  0  0  0  0  0  0  0  0
    4.5981    4.5000    0.0000 F   0  0  0  0  0  0  0  0  0  0  0  0
    5.5981    3.5000    0.0000 F   0  0  0  0  0  0  0  0  0  0  0  0
    3.5981    3.5000    0.0000 F   0  0  0  0  0  0  0  0  0  0  0  0
    2.0000    0.0000    0.0000 F   0  0  0  0  0  0  0  0  0  0  0  0
    3.3660   -0.3660    0.0000 F   0  0  0  0  0  0  0  0  0  0  0  0
    2.3660    1.3660    0.0000 F   0  0  0  0  0  0  0  0  0  0  0  0
    6.3301   -2.5000    0.0000 O   0  0  0  0  0  0  0  0  0  0  0  0
    8.9282   -1.0000    0.0000 O   0  0  0  0  0  0  0  0  0  0  0  0
    7.1962    1.0000    0.0000 O   0  0  0  0  0  0  0  0  0  0  0  0
    6.3301   -0.5000    0.0000 N   0  0  0  0  0  0  0  0  0  0  0  0
    7.1962   -2.0000    0.0000 C   0  0  3  0  0  0  0  0  0  0  0  0
    7.1962   -1.0000    0.0000 C   0  0  0  0  0  0  0  0  0  0  0  0
    8.0622   -2.5000    0.0000 C   0  0  0  0  0  0  0  0  0  0  0  0
    8.9282   -2.0000    0.0000 C   0  0  0  0  0  0  0  0  0  0  0  0
    6.3301   -4.5000    0.0000 C   0  0  0  0  0  0  0  0  0  0  0  0
    5.3301   -3.5000    0.0000 C   0  0  0  0  0  0  0  0  0  0  0  0
    7.3301   -3.5000    0.0000 C   0  0  0  0  0  0  0  0  0  0  0  0
    8.0622   -3.5000    0.0000 C   0  0  0  0  0  0  0  0  0  0  0  0
    9.7942   -2.5000    0.0000 C   0  0  0  0  0  0  0  0  0  0  0  0
    6.3301    0.5000    0.0000 C   0  0  0  0  0  0  0  0  0  0  0  0
   10.6603   -0.0000    0.0000 C   0  0  0  0  0  0  0  0  0  0  0  0
    9.2942    0.3660    0.0000 C   0  0  0  0  0  0  0  0  0  0  0  0
   10.2942   -1.3660    0.0000 C   0  0  0  0  0  0  0  0  0  0  0  0
    5.4641   -1.0000    0.0000 C   0  0  0  0  0  0  0  0  0  0  0  0
    8.9282   -4.0000    0.0000 C   0  0  0  0  0  0  0  0  0  0  0  0
    9.7942   -3.5000    0.0000 C   0  0  0  0  0  0  0  0  0  0  0  0
    5.4641    1.0000    0.0000 C   0  0  0  0  0  0  0  0  0  0  0  0
    4.5981    0.5000    0.0000 C   0  0  0  0  0  0  0  0  0  0  0  0
    5.4641    2.0000    0.0000 C   0  0  0  0  0  0  0  0  0  0  0  0
    3.7320    1.0000    0.0000 C   0  0  0  0  0  0  0  0  0  0  0  0
    4.5981    2.5000    0.0000 C   0  0  0  0  0  0  0  0  0  0  0  0
    3.7320    2.0000    0.0000 C   0  0  0  0  0  0  0  0  0  0  0  0
    4.5981    3.5000    0.0000 C   0  0  0  0  0  0  0  0  0  0  0  0
    2.8660    0.5000    0.0000 C   0  0  0  0  0  0  0  0  0  0  0  0
    6.6592   -1.6900    0.0000 H   0  0  0  0  0  0  0  0  0  0  0  0
    7.8067   -1.1077    0.0000 H   0  0  0  0  0  0  0  0  0  0  0  0
    7.4082   -0.4174    0.0000 H   0  0  0  0  0  0  0  0  0  0  0  0
    5.7101   -4.5000    0.0000 H   0  0  0  0  0  0  0  0  0  0  0  0
    6.3301   -5.1200    0.0000 H   0  0  0  0  0  0  0  0  0  0  0  0
    6.9501   -4.5000    0.0000 H   0  0  0  0  0  0  0  0  0  0  0  0
    5.3301   -2.8800    0.0000 H   0  0  0  0  0  0  0  0  0  0  0  0
    4.7101   -3.5000    0.0000 H   0  0  0  0  0  0  0  0  0  0  0  0
    5.3301   -4.1200    0.0000 H   0  0  0  0  0  0  0  0  0  0  0  0
    7.3301   -4.1200    0.0000 H   0  0  0  0  0  0  0  0  0  0  0  0
    7.9501   -3.5000    0.0000 H   0  0  0  0  0  0  0  0  0  0  0  0
    7.3301   -2.8800    0.0000 H   0  0  0  0  0  0  0  0  0  0  0  0
    7.5252   -3.8100    0.0000 H   0  0  0  0  0  0  0  0  0  0  0  0
   10.3312   -2.1900    0.0000 H   0  0  0  0  0  0  0  0  0  0  0  0
   10.9703   -0.5369    0.0000 H   0  0  0  0  0  0  0  0  0  0  0  0
   11.1972    0.3100    0.0000 H   0  0  0  0  0  0  0  0  0  0  0  0
   10.3503    0.5369    0.0000 H   0  0  0  0  0  0  0  0  0  0  0  0
    9.8312    0.6760    0.0000 H   0  0  0  0  0  0  0  0  0  0  0  0
    8.9842    0.9030    0.0000 H   0  0  0  0  0  0  0  0  0  0  0  0
    8.7573    0.0560    0.0000 H   0  0  0  0  0  0  0  0  0  0  0  0
    9.7573   -1.6760    0.0000 H   0  0  0  0  0  0  0  0  0  0  0  0
   10.6042   -1.9030    0.0000 H   0  0  0  0  0  0  0  0  0  0  0  0
   10.8312   -1.0560    0.0000 H   0  0  0  0  0  0  0  0  0  0  0  0
    5.1541   -0.4631    0.0000 H   0  0  0  0  0  0  0  0  0  0  0  0
    4.9272   -1.3100    0.0000 H   0  0  0  0  0  0  0  0  0  0  0  0
    5.7741   -1.5369    0.0000 H   0  0  0  0  0  0  0  0  0  0  0  0
    8.9282   -4.6200    0.0000 H   0  0  0  0  0  0  0  0  0  0  0  0
   10.3312   -3.8100    0.0000 H   0  0  0  0  0  0  0  0  0  0  0  0
    4.5981   -0.1200    0.0000 H   0  0  0  0  0  0  0  0  0  0  0  0
    6.0010    2.3100    0.0000 H   0  0  0  0  0  0  0  0  0  0  0  0
    3.1951    2.3100    0.0000 H   0  0  0  0  0  0  0  0  0  0  0  0
  1  9  1  0  0  0  0
  1 17  1  0  0  0  0
  1 18  1  0  0  0  0
  1 19  1  0  0  0  0
  2 10  1  0  0  0  0
  2 23  1  0  0  0  0
  2 24  1  0  0  0  0
  2 25  1  0  0  0  0
  3 35  1  0  0  0  0
  4 35  1  0  0  0  0
  5 35  1  0  0  0  0
  6 36  1  0  0  0  0
  7 36  1  0  0  0  0
  8 36  1  0  0  0  0
  9 13  1  0  0  0  0
 10 16  1  0  0  0  0
 11 22  2  0  0  0  0
 12 14  1  0  0  0  0
 12 22  1  0  0  0  0
 12 26  1  0  0  0  0
 13 14  1  0  0  0  0
 13 15  1  0  0  0  0
 13 37  1  0  0  0  0
 14 38  1  0  0  0  0
 14 39  1  0  0  0  0
 15 16  1  0  0  0  0
 15 20  2  0  0  0  0
 16 21  2  0  0  0  0
 17 40  1  0  0  0  0
 17 41  1  0  0  0  0
 17 42  1  0  0  0  0
 18 43  1  0  0  0  0
 18 44  1  0  0  0  0
 18 45  1  0  0  0  0
 19 46  1  0  0  0  0
 19 47  1  0  0  0  0
 19 48  1  0  0  0  0
 20 27  1  0  0  0  0
 20 49  1  0  0  0  0
 21 28  1  0  0  0  0
 21 50  1  0  0  0  0
 22 29  1  0  0  0  0
 23 51  1  0  0  0  0
 23 52  1  0  0  0  0
 23 53  1  0  0  0  0
 24 54  1  0  0  0  0
 24 55  1  0  0  0  0
 24 56  1  0  0  0  0
 25 57  1  0  0  0  0
 25 58  1  0  0  0  0
 25 59  1  0  0  0  0
 26 60  1  0  0  0  0
 26 61  1  0  0  0  0
 26 62  1  0  0  0  0
 27 28  2  0  0  0  0
 27 63  1  0  0  0  0
 28 64  1  0  0  0  0
 29 30  2  0  0  0  0
 29 31  1  0  0  0  0
 30 32  1  0  0  0  0
 30 65  1  0  0  0  0
 31 33  2  0  0  0  0
 31 66  1  0  0  0  0
 32 34  2  0  0  0  0
 32 36  1  0  0  0  0
 33 34  1  0  0  0  0
 33 35  1  0  0  0  0
 34 67  1  0  0  0  0
M  END
> <PUBCHEM_COMPOUND_CID>
526017
> <PUBCHEM_COMPOUND_CANONICALIZED>
1
> <PUBCHEM_CACTVS_COMPLEXITY>
713
> <PUBCHEM_CACTVS_HBOND_ACCEPTOR>
9
> <PUBCHEM_CACTVS_HBOND_DONOR>
0
> <PUBCHEM_CACTVS_ROTATABLE_BOND>
8
> <PUBCHEM_CACTVS_SUBSKEYS>
AAADceB6McwAAAAAAAAAAAAAAAAAAAAAAAAwYAAAAAAAAAABQAAAHxAAAEAADBThmBZyBoMAAAGIAiFSEACCAAAkIAAIiAEODMgKJzKAlROEMQhlxhGYiYe4yOCOAAACAAAIAAAAAAQAABAAAAAAAAAAAA==
> <PUBCHEM_IUPAC_OPENEYE_NAME>
N-methyl-3,5-bis(trifluoromethyl)-N-[2-trimethylsilyloxy-2-(2-trimethylsilyloxyphenyl)ethyl]benzamide
> <PUBCHEM_IUPAC_CAS_NAME>
N-methyl-3,5-bis(trifluoromethyl)-N-[2-trimethylsilyloxy-2-(2-trimethylsilyloxyphenyl)ethyl]benzamide
> <PUBCHEM_IUPAC_NAME_MARKUP>
<I>N</I>-methyl-3,5-bis(trifluoromethyl)-<I>N</I>-[2-trimethylsilyloxy-2-(2-trimethylsilyloxyphenyl)ethyl]benzamide
> <PUBCHEM_IUPAC_NAME>
N-methyl-3,5-bis(trifluoromethyl)-N-[2-trimethylsilyloxy-2-(2-trimethylsilyloxyphenyl)ethyl]benzamide
> <PUBCHEM_IUPAC_SYSTEMATIC_NAME>
N-methyl-3,5-bis(trifluoromethyl)-N-[2-trimethylsilyloxy-2-(2-trimethylsilyloxyphenyl)ethyl]benzamide
> <PUBCHEM_IUPAC_TRADITIONAL_NAME>
N-methyl-3,5-bis(trifluoromethyl)-N-[2-trimethylsilyloxy-2-(2-trimethylsilyloxyphenyl)ethyl]benzamide
> <PUBCHEM_IUPAC_INCHI>
InChI=1S/C24H31F6NO3Si2/c1-31(22(32)16-12-17(23(25,26)27)14-18(13-16)24(28,29)30)15-21(34-36(5,6)7)19-10-8-9-11-20(19)33-35(2,3)4/h8-14,21H,15H2,1-7H3
> <PUBCHEM_IUPAC_INCHIKEY>
QDKWRYQRJXZNDI-UHFFFAOYSA-N
> <PUBCHEM_EXACT_MASS>
551.17466589
> <PUBCHEM_MOLECULAR_FORMULA>
C24H31F6NO3Si2
> <PUBCHEM_MOLECULAR_WEIGHT>
551.7
> <PUBCHEM_OPENEYE_CAN_SMILES>
CN(CC(C1=CC=CC=C1O[Si](C)(C)C)O[Si](C)(C)C)C(=O)C2=CC(=CC(=C2)C(F)(F)F)C(F)(F)F
> <PUBCHEM_OPENEYE_ISO_SMILES>
CN(CC(C1=CC=CC=C1O[Si](C)(C)C)O[Si](C)(C)C)C(=O)C2=CC(=CC(=C2)C(F)(F)F)C(F)(F)F
> <PUBCHEM_CACTVS_TPSA>
38.8
> <PUBCHEM_MONOISOTOPIC_WEIGHT>
551.17466589
> <PUBCHEM_TOTAL_CHARGE>
0
> <PUBCHEM_HEAVY_ATOM_COUNT>
36
> <PUBCHEM_ATOM_DEF_STEREO_COUNT>
0
> <PUBCHEM_ATOM_UDEF_STEREO_COUNT>
1
> <PUBCHEM_BOND_DEF_STEREO_COUNT>
0
> <PUBCHEM_BOND_UDEF_STEREO_COUNT>
0
> <PUBCHEM_ISOTOPIC_ATOM_COUNT>
0
> <PUBCHEM_COMPONENT_COUNT>
1
> <PUBCHEM_CACTVS_TAUTO_COUNT>
-1
> <PUBCHEM_COORDINATE_TYPE>
1
5
255
> <PUBCHEM_BONDANNOTATIONS>
13  14  3
15  16  8
15  20  8
16  21  8
20  27  8
21  28  8
27  28  8
29  30  8
29  31  8
30  32  8
31  33  8
32  34  8
33  34  8
$$$$
