526023
  -OEChem-10302200292D
101104  0     1  0  0  0  0  0999 V2000
    6.5232    1.9565    0.0000 Si  0  0  0  0  0  0  0  0  0  0  0  0
   11.3567    1.9180    0.0000 Si  0  0  0  0  0  0  0  0  0  0  0  0
   12.1511   -0.9095    0.0000 Si  0  0  0  0  0  0  0  0  0  0  0  0
    2.8641   -2.0924    0.0000 Si  0  0  0  0  0  0  0  0  0  0  0  0
    6.5232    0.9565    0.0000 O   0  0  0  0  0  0  0  0  0  0  0  0
   10.3781    1.7118    0.0000 O   0  0  0  0  0  0  0  0  0  0  0  0
   11.6511   -0.0435    0.0000 O   0  0  0  0  0  0  0  0  0  0  0  0
    3.7282   -2.5958    0.0000 O   0  0  0  0  0  0  0  0  0  0  0  0
    9.1213    0.4565    0.0000 C   0  0  3  0  0  0  0  0  0  0  0  0
    9.1213   -0.5435    0.0000 C   0  0  3  0  0  0  0  0  0  0  0  0
    8.2552   -1.0435    0.0000 C   0  0  3  0  0  0  0  0  0  0  0  0
    7.3892   -0.5435    0.0000 C   0  0  3  0  0  0  0  0  0  0  0  0
    6.4792   -1.0503    0.0000 C   0  0  3  0  0  0  0  0  0  0  0  0
    7.3892    0.4565    0.0000 C   0  0  3  0  0  0  0  0  0  0  0  0
    8.2552    0.9565    0.0000 C   0  0  0  0  0  0  0  0  0  0  0  0
   10.0675    0.7613    0.0000 C   0  0  3  0  0  0  0  0  0  0  0  0
   10.0675   -0.8482    0.0000 C   0  0  0  0  0  0  0  0  0  0  0  0
   10.6511   -0.0435    0.0000 C   0  0  3  0  0  0  0  0  0  0  0  0
    8.2713   -2.0850    0.0000 C   0  0  0  0  0  0  0  0  0  0  0  0
    6.4712   -2.0919    0.0000 C   0  0  0  0  0  0  0  0  0  0  0  0
    9.1213    1.4565    0.0000 C   0  0  0  0  0  0  0  0  0  0  0  0
    5.5524   -0.4862    0.0000 C   0  0  0  0  0  0  0  0  0  0  0  0
    7.3733   -2.6127    0.0000 C   0  0  0  0  0  0  0  0  0  0  0  0
    6.4869   -0.0503    0.0000 C   0  0  0  0  0  0  0  0  0  0  0  0
    5.5358   -2.6416    0.0000 C   0  0  0  0  0  0  0  0  0  0  0  0
    4.6045   -1.0142    0.0000 C   0  0  0  0  0  0  0  0  0  0  0  0
    4.5961   -2.0991    0.0000 C   0  0  3  0  0  0  0  0  0  0  0  0
    6.5232    2.9565    0.0000 C   0  0  0  0  0  0  0  0  0  0  0  0
    5.5232    1.9565    0.0000 C   0  0  0  0  0  0  0  0  0  0  0  0
    7.5232    1.9565    0.0000 C   0  0  0  0  0  0  0  0  0  0  0  0
   12.3352    2.1242    0.0000 C   0  0  0  0  0  0  0  0  0  0  0  0
   11.1504    2.8965    0.0000 C   0  0  0  0  0  0  0  0  0  0  0  0
   11.5629    0.9395    0.0000 C   0  0  0  0  0  0  0  0  0  0  0  0
   12.6511   -1.7755    0.0000 C   0  0  0  0  0  0  0  0  0  0  0  0
   13.0171   -0.4095    0.0000 C   0  0  0  0  0  0  0  0  0  0  0  0
   11.2851   -1.4095    0.0000 C   0  0  0  0  0  0  0  0  0  0  0  0
    2.0000   -1.5891    0.0000 C   0  0  0  0  0  0  0  0  0  0  0  0
    2.3608   -2.9565    0.0000 C   0  0  0  0  0  0  0  0  0  0  0  0
    3.3674   -1.2284    0.0000 C   0  0  0  0  0  0  0  0  0  0  0  0
    9.1869   -1.1600    0.0000 H   0  0  0  0  0  0  0  0  0  0  0  0
    8.7945   -1.3493    0.0000 H   0  0  0  0  0  0  0  0  0  0  0  0
    7.9262   -0.2335    0.0000 H   0  0  0  0  0  0  0  0  0  0  0  0
    7.3892    1.0765    0.0000 H   0  0  0  0  0  0  0  0  0  0  0  0
    8.6538    1.4315    0.0000 H   0  0  0  0  0  0  0  0  0  0  0  0
    7.8567    1.4315    0.0000 H   0  0  0  0  0  0  0  0  0  0  0  0
   10.6800    0.8575    0.0000 H   0  0  0  0  0  0  0  0  0  0  0  0
    9.8164   -1.4151    0.0000 H   0  0  0  0  0  0  0  0  0  0  0  0
   10.6049   -1.1574    0.0000 H   0  0  0  0  0  0  0  0  0  0  0  0
   10.9328    0.5088    0.0000 H   0  0  0  0  0  0  0  0  0  0  0  0
    8.4893   -2.6654    0.0000 H   0  0  0  0  0  0  0  0  0  0  0  0
    8.8804   -1.9695    0.0000 H   0  0  0  0  0  0  0  0  0  0  0  0
    9.7413    1.4565    0.0000 H   0  0  0  0  0  0  0  0  0  0  0  0
    9.1213    2.0765    0.0000 H   0  0  0  0  0  0  0  0  0  0  0  0
    8.5013    1.4565    0.0000 H   0  0  0  0  0  0  0  0  0  0  0  0
    5.9606   -0.0196    0.0000 H   0  0  0  0  0  0  0  0  0  0  0  0
    5.1625   -0.0042    0.0000 H   0  0  0  0  0  0  0  0  0  0  0  0
    7.3756   -3.2327    0.0000 H   0  0  0  0  0  0  0  0  0  0  0  0
    7.1069   -0.0551    0.0000 H   0  0  0  0  0  0  0  0  0  0  0  0
    6.4917    0.5696    0.0000 H   0  0  0  0  0  0  0  0  0  0  0  0
    5.8669   -0.0456    0.0000 H   0  0  0  0  0  0  0  0  0  0  0  0
    5.1385   -3.1176    0.0000 H   0  0  0  0  0  0  0  0  0  0  0  0
    5.9367   -3.1145    0.0000 H   0  0  0  0  0  0  0  0  0  0  0  0
    4.3999   -0.4289    0.0000 H   0  0  0  0  0  0  0  0  0  0  0  0
    3.9928   -1.1156    0.0000 H   0  0  0  0  0  0  0  0  0  0  0  0
    4.5949   -2.7191    0.0000 H   0  0  0  0  0  0  0  0  0  0  0  0
    7.1432    2.9565    0.0000 H   0  0  0  0  0  0  0  0  0  0  0  0
    6.5232    3.5765    0.0000 H   0  0  0  0  0  0  0  0  0  0  0  0
    5.9032    2.9565    0.0000 H   0  0  0  0  0  0  0  0  0  0  0  0
    5.5232    2.5765    0.0000 H   0  0  0  0  0  0  0  0  0  0  0  0
    4.9032    1.9565    0.0000 H   0  0  0  0  0  0  0  0  0  0  0  0
    5.5232    1.3365    0.0000 H   0  0  0  0  0  0  0  0  0  0  0  0
    7.5232    1.3365    0.0000 H   0  0  0  0  0  0  0  0  0  0  0  0
    8.1432    1.9565    0.0000 H   0  0  0  0  0  0  0  0  0  0  0  0
    7.5232    2.5765    0.0000 H   0  0  0  0  0  0  0  0  0  0  0  0
   12.4630    1.5176    0.0000 H   0  0  0  0  0  0  0  0  0  0  0  0
   12.9418    2.2521    0.0000 H   0  0  0  0  0  0  0  0  0  0  0  0
   12.2073    2.7309    0.0000 H   0  0  0  0  0  0  0  0  0  0  0  0
   11.7571    3.0244    0.0000 H   0  0  0  0  0  0  0  0  0  0  0  0
   11.0226    3.5032    0.0000 H   0  0  0  0  0  0  0  0  0  0  0  0
   10.5438    2.7687    0.0000 H   0  0  0  0  0  0  0  0  0  0  0  0
   10.9562    0.8117    0.0000 H   0  0  0  0  0  0  0  0  0  0  0  0
   11.6907    0.3328    0.0000 H   0  0  0  0  0  0  0  0  0  0  0  0
   12.1695    1.0674    0.0000 H   0  0  0  0  0  0  0  0  0  0  0  0
   12.1142   -2.0855    0.0000 H   0  0  0  0  0  0  0  0  0  0  0  0
   12.9611   -2.3124    0.0000 H   0  0  0  0  0  0  0  0  0  0  0  0
   13.1880   -1.4655    0.0000 H   0  0  0  0  0  0  0  0  0  0  0  0
   13.3271   -0.9464    0.0000 H   0  0  0  0  0  0  0  0  0  0  0  0
   13.5541   -0.0995    0.0000 H   0  0  0  0  0  0  0  0  0  0  0  0
   12.7071    0.1275    0.0000 H   0  0  0  0  0  0  0  0  0  0  0  0
   10.9751   -0.8725    0.0000 H   0  0  0  0  0  0  0  0  0  0  0  0
   10.7481   -1.7195    0.0000 H   0  0  0  0  0  0  0  0  0  0  0  0
   11.5951   -1.9464    0.0000 H   0  0  0  0  0  0  0  0  0  0  0  0
    2.3121   -1.0534    0.0000 H   0  0  0  0  0  0  0  0  0  0  0  0
    1.4643   -1.2770    0.0000 H   0  0  0  0  0  0  0  0  0  0  0  0
    1.6879   -2.1249    0.0000 H   0  0  0  0  0  0  0  0  0  0  0  0
    1.8250   -2.6445    0.0000 H   0  0  0  0  0  0  0  0  0  0  0  0
    2.0487   -3.4923    0.0000 H   0  0  0  0  0  0  0  0  0  0  0  0
    2.8965   -3.2686    0.0000 H   0  0  0  0  0  0  0  0  0  0  0  0
    3.9032   -1.5404    0.0000 H   0  0  0  0  0  0  0  0  0  0  0  0
    3.6795   -0.6926    0.0000 H   0  0  0  0  0  0  0  0  0  0  0  0
    2.8317   -0.9163    0.0000 H   0  0  0  0  0  0  0  0  0  0  0  0
  1  5  1  0  0  0  0
  1 28  1  0  0  0  0
  1 29  1  0  0  0  0
  1 30  1  0  0  0  0
  2  6  1  0  0  0  0
  2 31  1  0  0  0  0
  2 32  1  0  0  0  0
  2 33  1  0  0  0  0
  3  7  1  0  0  0  0
  3 34  1  0  0  0  0
  3 35  1  0  0  0  0
  3 36  1  0  0  0  0
  4  8  1  0  0  0  0
  4 37  1  0  0  0  0
  4 38  1  0  0  0  0
  4 39  1  0  0  0  0
  5 14  1  0  0  0  0
  6 16  1  0  0  0  0
  7 18  1  0  0  0  0
  8 27  1  0  0  0  0
  9 10  1  0  0  0  0
  9 15  1  0  0  0  0
  9 16  1  0  0  0  0
  9 21  1  0  0  0  0
 10 11  1  0  0  0  0
 10 17  1  0  0  0  0
 10 40  1  0  0  0  0
 11 12  1  0  0  0  0
 11 19  1  0  0  0  0
 11 41  1  0  0  0  0
 12 13  1  0  0  0  0
 12 14  1  0  0  0  0
 12 42  1  0  0  0  0
 13 20  1  0  0  0  0
 13 22  1  0  0  0  0
 13 24  1  0  0  0  0
 14 15  1  0  0  0  0
 14 43  1  0  0  0  0
 15 44  1  0  0  0  0
 15 45  1  0  0  0  0
 16 18  1  0  0  0  0
 16 46  1  0  0  0  0
 17 18  1  0  0  0  0
 17 47  1  0  0  0  0
 17 48  1  0  0  0  0
 18 49  1  0  0  0  0
 19 23  1  0  0  0  0
 19 50  1  0  0  0  0
 19 51  1  0  0  0  0
 20 23  2  0  0  0  0
 20 25  1  0  0  0  0
 21 52  1  0  0  0  0
 21 53  1  0  0  0  0
 21 54  1  0  0  0  0
 22 26  1  0  0  0  0
 22 55  1  0  0  0  0
 22 56  1  0  0  0  0
 23 57  1  0  0  0  0
 24 58  1  0  0  0  0
 24 59  1  0  0  0  0
 24 60  1  0  0  0  0
 25 27  1  0  0  0  0
 25 61  1  0  0  0  0
 25 62  1  0  0  0  0
 26 27  1  0  0  0  0
 26 63  1  0  0  0  0
 26 64  1  0  0  0  0
 27 65  1  0  0  0  0
 28 66  1  0  0  0  0
 28 67  1  0  0  0  0
 28 68  1  0  0  0  0
 29 69  1  0  0  0  0
 29 70  1  0  0  0  0
 29 71  1  0  0  0  0
 30 72  1  0  0  0  0
 30 73  1  0  0  0  0
 30 74  1  0  0  0  0
 31 75  1  0  0  0  0
 31 76  1  0  0  0  0
 31 77  1  0  0  0  0
 32 78  1  0  0  0  0
 32 79  1  0  0  0  0
 32 80  1  0  0  0  0
 33 81  1  0  0  0  0
 33 82  1  0  0  0  0
 33 83  1  0  0  0  0
 34 84  1  0  0  0  0
 34 85  1  0  0  0  0
 34 86  1  0  0  0  0
 35 87  1  0  0  0  0
 35 88  1  0  0  0  0
 35 89  1  0  0  0  0
 36 90  1  0  0  0  0
 36 91  1  0  0  0  0
 36 92  1  0  0  0  0
 37 93  1  0  0  0  0
 37 94  1  0  0  0  0
 37 95  1  0  0  0  0
 38 96  1  0  0  0  0
 38 97  1  0  0  0  0
 38 98  1  0  0  0  0
 39 99  1  0  0  0  0
 39100  1  0  0  0  0
 39101  1  0  0  0  0
M  END
> <PUBCHEM_COMPOUND_CID>
526023
> <PUBCHEM_COMPOUND_CANONICALIZED>
1
> <PUBCHEM_CACTVS_COMPLEXITY>
927
> <PUBCHEM_CACTVS_HBOND_ACCEPTOR>
4
> <PUBCHEM_CACTVS_HBOND_DONOR>
0
> <PUBCHEM_CACTVS_ROTATABLE_BOND>
8
> <PUBCHEM_CACTVS_SUBSKEYS>
AAADcfB4OAwAAAAAAAAAAAAAAAAAAYAAAAAwYIAAAAAAAGCAAAAAGhAAAEAADxSggAJCAAAAAAGAAiBCAAAAAAAgAAAACAAAAAgBAAIAAQAAAAAEwAAIAAPA4PQPgAAAAAAAAADAAAYAADAAAIAADCAAAA==
> <PUBCHEM_IUPAC_OPENEYE_NAME>
[10,13-dimethyl-3,11,16-tris(trimethylsilyloxy)-2,3,4,7,8,9,11,12,14,15,16,17-dodecahydro-1H-cyclopenta[a]phenanthren-17-yl]oxy-trimethyl-silane
> <PUBCHEM_IUPAC_CAS_NAME>
[10,13-dimethyl-3,11,16-tris(trimethylsilyloxy)-2,3,4,7,8,9,11,12,14,15,16,17-dodecahydro-1H-cyclopenta[a]phenanthren-17-yl]oxy-trimethylsilane
> <PUBCHEM_IUPAC_NAME_MARKUP>
[10,13-dimethyl-3,11,16-tris(trimethylsilyloxy)-2,3,4,7,8,9,11,12,14,15,16,17-dodecahydro-1<I>H</I>-cyclopenta[a]phenanthren-17-yl]oxy-trimethylsilane
> <PUBCHEM_IUPAC_NAME>
[10,13-dimethyl-3,11,16-tris(trimethylsilyloxy)-2,3,4,7,8,9,11,12,14,15,16,17-dodecahydro-1H-cyclopenta[a]phenanthren-17-yl]oxy-trimethylsilane
> <PUBCHEM_IUPAC_SYSTEMATIC_NAME>
[10,13-dimethyl-3,11,16-tris(trimethylsilyloxy)-2,3,4,7,8,9,11,12,14,15,16,17-dodecahydro-1H-cyclopenta[a]phenanthren-17-yl]oxy-trimethyl-silane
> <PUBCHEM_IUPAC_TRADITIONAL_NAME>
[10,13-dimethyl-3,11,16-tris(trimethylsilyloxy)-2,3,4,7,8,9,11,12,14,15,16,17-dodecahydro-1H-cyclopenta[a]phenanthren-17-yl]oxy-trimethyl-silane
> <PUBCHEM_IUPAC_INCHI>
InChI=1S/C31H62O4Si4/c1-30-18-17-23(32-36(3,4)5)19-22(30)15-16-24-25-20-26(33-37(6,7)8)29(35-39(12,13)14)31(25,2)21-27(28(24)30)34-38(9,10)11/h15,23-29H,16-21H2,1-14H3
> <PUBCHEM_IUPAC_INCHIKEY>
JDZAMNQEJSKBPC-UHFFFAOYSA-N
> <PUBCHEM_EXACT_MASS>
610.37251659
> <PUBCHEM_MOLECULAR_FORMULA>
C31H62O4Si4
> <PUBCHEM_MOLECULAR_WEIGHT>
611.2
> <PUBCHEM_OPENEYE_CAN_SMILES>
CC12CCC(CC1=CCC3C2C(CC4(C3CC(C4O[Si](C)(C)C)O[Si](C)(C)C)C)O[Si](C)(C)C)O[Si](C)(C)C
> <PUBCHEM_OPENEYE_ISO_SMILES>
CC12CCC(CC1=CCC3C2C(CC4(C3CC(C4O[Si](C)(C)C)O[Si](C)(C)C)C)O[Si](C)(C)C)O[Si](C)(C)C
> <PUBCHEM_CACTVS_TPSA>
36.9
> <PUBCHEM_MONOISOTOPIC_WEIGHT>
610.37251659
> <PUBCHEM_TOTAL_CHARGE>
0
> <PUBCHEM_HEAVY_ATOM_COUNT>
39
> <PUBCHEM_ATOM_DEF_STEREO_COUNT>
0
> <PUBCHEM_ATOM_UDEF_STEREO_COUNT>
9
> <PUBCHEM_BOND_DEF_STEREO_COUNT>
0
> <PUBCHEM_BOND_UDEF_STEREO_COUNT>
0
> <PUBCHEM_ISOTOPIC_ATOM_COUNT>
0
> <PUBCHEM_COMPONENT_COUNT>
1
> <PUBCHEM_CACTVS_TAUTO_COUNT>
-1
> <PUBCHEM_COORDINATE_TYPE>
1
5
255
> <PUBCHEM_BONDANNOTATIONS>
10  17  3
11  19  3
12  14  3
13  24  3
14  5  3
16  6  3
18  7  3
27  8  3
9  21  3
$$$$
