526019
  -OEChem-10302200292D
 54 55  0     1  0  0  0  0  0999 V2000
    6.3301   -3.5000    0.0000 Si  0  0  0  0  0  0  0  0  0  0  0  0
    4.5981    4.5000    0.0000 F   0  0  0  0  0  0  0  0  0  0  0  0
    5.5981    3.5000    0.0000 F   0  0  0  0  0  0  0  0  0  0  0  0
    3.5981    3.5000    0.0000 F   0  0  0  0  0  0  0  0  0  0  0  0
    2.0000    0.0000    0.0000 F   0  0  0  0  0  0  0  0  0  0  0  0
    3.3660   -0.3660    0.0000 F   0  0  0  0  0  0  0  0  0  0  0  0
    2.3660    1.3660    0.0000 F   0  0  0  0  0  0  0  0  0  0  0  0
    6.3301   -2.5000    0.0000 O   0  0  0  0  0  0  0  0  0  0  0  0
    7.1962    1.0000    0.0000 O   0  0  0  0  0  0  0  0  0  0  0  0
    6.3301   -0.5000    0.0000 N   0  0  0  0  0  0  0  0  0  0  0  0
    7.1962   -2.0000    0.0000 C   0  0  3  0  0  0  0  0  0  0  0  0
    7.1962   -1.0000    0.0000 C   0  0  0  0  0  0  0  0  0  0  0  0
    8.0622   -2.5000    0.0000 C   0  0  0  0  0  0  0  0  0  0  0  0
    6.3301   -4.5000    0.0000 C   0  0  0  0  0  0  0  0  0  0  0  0
    5.3301   -3.5000    0.0000 C   0  0  0  0  0  0  0  0  0  0  0  0
    7.3301   -3.5000    0.0000 C   0  0  0  0  0  0  0  0  0  0  0  0
    6.3301    0.5000    0.0000 C   0  0  0  0  0  0  0  0  0  0  0  0
    8.9282   -2.0000    0.0000 C   0  0  0  0  0  0  0  0  0  0  0  0
    8.0622   -3.5000    0.0000 C   0  0  0  0  0  0  0  0  0  0  0  0
    5.4641   -1.0000    0.0000 C   0  0  0  0  0  0  0  0  0  0  0  0
    5.4641    1.0000    0.0000 C   0  0  0  0  0  0  0  0  0  0  0  0
    9.7942   -2.5000    0.0000 C   0  0  0  0  0  0  0  0  0  0  0  0
    8.9282   -4.0000    0.0000 C   0  0  0  0  0  0  0  0  0  0  0  0
    4.5981    0.5000    0.0000 C   0  0  0  0  0  0  0  0  0  0  0  0
    5.4641    2.0000    0.0000 C   0  0  0  0  0  0  0  0  0  0  0  0
    3.7320    1.0000    0.0000 C   0  0  0  0  0  0  0  0  0  0  0  0
    4.5981    2.5000    0.0000 C   0  0  0  0  0  0  0  0  0  0  0  0
    9.7942   -3.5000    0.0000 C   0  0  0  0  0  0  0  0  0  0  0  0
    3.7320    2.0000    0.0000 C   0  0  0  0  0  0  0  0  0  0  0  0
    4.5981    3.5000    0.0000 C   0  0  0  0  0  0  0  0  0  0  0  0
    2.8660    0.5000    0.0000 C   0  0  0  0  0  0  0  0  0  0  0  0
    6.6592   -1.6900    0.0000 H   0  0  0  0  0  0  0  0  0  0  0  0
    7.8067   -1.1077    0.0000 H   0  0  0  0  0  0  0  0  0  0  0  0
    7.4082   -0.4174    0.0000 H   0  0  0  0  0  0  0  0  0  0  0  0
    5.7101   -4.5000    0.0000 H   0  0  0  0  0  0  0  0  0  0  0  0
    6.3301   -5.1200    0.0000 H   0  0  0  0  0  0  0  0  0  0  0  0
    6.9501   -4.5000    0.0000 H   0  0  0  0  0  0  0  0  0  0  0  0
    5.3301   -2.8800    0.0000 H   0  0  0  0  0  0  0  0  0  0  0  0
    4.7101   -3.5000    0.0000 H   0  0  0  0  0  0  0  0  0  0  0  0
    5.3301   -4.1200    0.0000 H   0  0  0  0  0  0  0  0  0  0  0  0
    7.3301   -4.1200    0.0000 H   0  0  0  0  0  0  0  0  0  0  0  0
    7.9501   -3.5000    0.0000 H   0  0  0  0  0  0  0  0  0  0  0  0
    7.3301   -2.8800    0.0000 H   0  0  0  0  0  0  0  0  0  0  0  0
    8.9282   -1.3800    0.0000 H   0  0  0  0  0  0  0  0  0  0  0  0
    7.5252   -3.8100    0.0000 H   0  0  0  0  0  0  0  0  0  0  0  0
    5.1541   -0.4631    0.0000 H   0  0  0  0  0  0  0  0  0  0  0  0
    4.9272   -1.3100    0.0000 H   0  0  0  0  0  0  0  0  0  0  0  0
    5.7741   -1.5369    0.0000 H   0  0  0  0  0  0  0  0  0  0  0  0
   10.3312   -2.1900    0.0000 H   0  0  0  0  0  0  0  0  0  0  0  0
    8.9282   -4.6200    0.0000 H   0  0  0  0  0  0  0  0  0  0  0  0
    4.5981   -0.1200    0.0000 H   0  0  0  0  0  0  0  0  0  0  0  0
    6.0010    2.3100    0.0000 H   0  0  0  0  0  0  0  0  0  0  0  0
   10.3312   -3.8100    0.0000 H   0  0  0  0  0  0  0  0  0  0  0  0
    3.1951    2.3100    0.0000 H   0  0  0  0  0  0  0  0  0  0  0  0
  1  8  1  0  0  0  0
  1 14  1  0  0  0  0
  1 15  1  0  0  0  0
  1 16  1  0  0  0  0
  2 30  1  0  0  0  0
  3 30  1  0  0  0  0
  4 30  1  0  0  0  0
  5 31  1  0  0  0  0
  6 31  1  0  0  0  0
  7 31  1  0  0  0  0
  8 11  1  0  0  0  0
  9 17  2  0  0  0  0
 10 12  1  0  0  0  0
 10 17  1  0  0  0  0
 10 20  1  0  0  0  0
 11 12  1  0  0  0  0
 11 13  1  0  0  0  0
 11 32  1  0  0  0  0
 12 33  1  0  0  0  0
 12 34  1  0  0  0  0
 13 18  2  0  0  0  0
 13 19  1  0  0  0  0
 14 35  1  0  0  0  0
 14 36  1  0  0  0  0
 14 37  1  0  0  0  0
 15 38  1  0  0  0  0
 15 39  1  0  0  0  0
 15 40  1  0  0  0  0
 16 41  1  0  0  0  0
 16 42  1  0  0  0  0
 16 43  1  0  0  0  0
 17 21  1  0  0  0  0
 18 22  1  0  0  0  0
 18 44  1  0  0  0  0
 19 23  2  0  0  0  0
 19 45  1  0  0  0  0
 20 46  1  0  0  0  0
 20 47  1  0  0  0  0
 20 48  1  0  0  0  0
 21 24  2  0  0  0  0
 21 25  1  0  0  0  0
 22 28  2  0  0  0  0
 22 49  1  0  0  0  0
 23 28  1  0  0  0  0
 23 50  1  0  0  0  0
 24 26  1  0  0  0  0
 24 51  1  0  0  0  0
 25 27  2  0  0  0  0
 25 52  1  0  0  0  0
 26 29  2  0  0  0  0
 26 31  1  0  0  0  0
 27 29  1  0  0  0  0
 27 30  1  0  0  0  0
 28 53  1  0  0  0  0
 29 54  1  0  0  0  0
M  END
> <PUBCHEM_COMPOUND_CID>
526019
> <PUBCHEM_COMPOUND_CANONICALIZED>
1
> <PUBCHEM_CACTVS_COMPLEXITY>
576
> <PUBCHEM_CACTVS_HBOND_ACCEPTOR>
8
> <PUBCHEM_CACTVS_HBOND_DONOR>
0
> <PUBCHEM_CACTVS_ROTATABLE_BOND>
6
> <PUBCHEM_CACTVS_SUBSKEYS>
AAADceB6McgAAAAAAAAAAAAAAAAAAAAAAAAwYAAAAAAAAAABQAAAHxAAAEAADBThmBZyAIMAAAGIAiFSEACCAAAkAAAIiAEIDMgKJjKAlRGEMQhkxgGYiYeYyOCOAAACAAAAAAAAAAQAAAAAAAAAAAAAAA==
> <PUBCHEM_IUPAC_OPENEYE_NAME>
N-methyl-N-(2-phenyl-2-trimethylsilyloxy-ethyl)-3,5-bis(trifluoromethyl)benzamide
> <PUBCHEM_IUPAC_CAS_NAME>
N-methyl-N-(2-phenyl-2-trimethylsilyloxyethyl)-3,5-bis(trifluoromethyl)benzamide
> <PUBCHEM_IUPAC_NAME_MARKUP>
<I>N</I>-methyl-<I>N</I>-(2-phenyl-2-trimethylsilyloxyethyl)-3,5-bis(trifluoromethyl)benzamide
> <PUBCHEM_IUPAC_NAME>
N-methyl-N-(2-phenyl-2-trimethylsilyloxyethyl)-3,5-bis(trifluoromethyl)benzamide
> <PUBCHEM_IUPAC_SYSTEMATIC_NAME>
N-methyl-N-(2-phenyl-2-trimethylsilyloxy-ethyl)-3,5-bis(trifluoromethyl)benzamide
> <PUBCHEM_IUPAC_TRADITIONAL_NAME>
N-methyl-N-(2-phenyl-2-trimethylsilyloxy-ethyl)-3,5-bis(trifluoromethyl)benzamide
> <PUBCHEM_IUPAC_INCHI>
InChI=1S/C21H23F6NO2Si/c1-28(13-18(30-31(2,3)4)14-8-6-5-7-9-14)19(29)15-10-16(20(22,23)24)12-17(11-15)21(25,26)27/h5-12,18H,13H2,1-4H3
> <PUBCHEM_IUPAC_INCHIKEY>
CKJMVNRUFSZQOO-UHFFFAOYSA-N
> <PUBCHEM_EXACT_MASS>
463.14022448
> <PUBCHEM_MOLECULAR_FORMULA>
C21H23F6NO2Si
> <PUBCHEM_MOLECULAR_WEIGHT>
463.5
> <PUBCHEM_OPENEYE_CAN_SMILES>
CN(CC(C1=CC=CC=C1)O[Si](C)(C)C)C(=O)C2=CC(=CC(=C2)C(F)(F)F)C(F)(F)F
> <PUBCHEM_OPENEYE_ISO_SMILES>
CN(CC(C1=CC=CC=C1)O[Si](C)(C)C)C(=O)C2=CC(=CC(=C2)C(F)(F)F)C(F)(F)F
> <PUBCHEM_CACTVS_TPSA>
29.5
> <PUBCHEM_MONOISOTOPIC_WEIGHT>
463.14022448
> <PUBCHEM_TOTAL_CHARGE>
0
> <PUBCHEM_HEAVY_ATOM_COUNT>
31
> <PUBCHEM_ATOM_DEF_STEREO_COUNT>
0
> <PUBCHEM_ATOM_UDEF_STEREO_COUNT>
1
> <PUBCHEM_BOND_DEF_STEREO_COUNT>
0
> <PUBCHEM_BOND_UDEF_STEREO_COUNT>
0
> <PUBCHEM_ISOTOPIC_ATOM_COUNT>
0
> <PUBCHEM_COMPONENT_COUNT>
1
> <PUBCHEM_CACTVS_TAUTO_COUNT>
-1
> <PUBCHEM_COORDINATE_TYPE>
1
5
255
> <PUBCHEM_BONDANNOTATIONS>
11  12  3
13  18  8
13  19  8
18  22  8
19  23  8
21  24  8
21  25  8
22  28  8
23  28  8
24  26  8
25  27  8
26  29  8
27  29  8
$$$$
