526015
  -OEChem-10302200292D
 67 68  0     1  0  0  0  0  0999 V2000
    6.3301   -2.5670    0.0000 Si  0  0  0  0  0  0  0  0  0  0  0  0
    9.7942   -4.5670    0.0000 Si  0  0  0  0  0  0  0  0  0  0  0  0
    4.5981    5.4330    0.0000 F   0  0  0  0  0  0  0  0  0  0  0  0
    5.5981    4.4330    0.0000 F   0  0  0  0  0  0  0  0  0  0  0  0
    3.5981    4.4330    0.0000 F   0  0  0  0  0  0  0  0  0  0  0  0
    2.0000    0.9330    0.0000 F   0  0  0  0  0  0  0  0  0  0  0  0
    3.3660    0.5670    0.0000 F   0  0  0  0  0  0  0  0  0  0  0  0
    2.3660    2.2990    0.0000 F   0  0  0  0  0  0  0  0  0  0  0  0
    6.3301   -1.5670    0.0000 O   0  0  0  0  0  0  0  0  0  0  0  0
    8.9282   -4.0670    0.0000 O   0  0  0  0  0  0  0  0  0  0  0  0
    7.1962    1.9330    0.0000 O   0  0  0  0  0  0  0  0  0  0  0  0
    6.3301    0.4330    0.0000 N   0  0  0  0  0  0  0  0  0  0  0  0
    7.1962   -1.0670    0.0000 C   0  0  3  0  0  0  0  0  0  0  0  0
    7.1962   -0.0670    0.0000 C   0  0  0  0  0  0  0  0  0  0  0  0
    8.0622   -1.5670    0.0000 C   0  0  0  0  0  0  0  0  0  0  0  0
    6.3301   -3.5670    0.0000 C   0  0  0  0  0  0  0  0  0  0  0  0
    5.3301   -2.5670    0.0000 C   0  0  0  0  0  0  0  0  0  0  0  0
    7.3301   -2.5670    0.0000 C   0  0  0  0  0  0  0  0  0  0  0  0
    8.0622   -2.5670    0.0000 C   0  0  0  0  0  0  0  0  0  0  0  0
    8.9282   -1.0670    0.0000 C   0  0  0  0  0  0  0  0  0  0  0  0
    8.9282   -3.0670    0.0000 C   0  0  0  0  0  0  0  0  0  0  0  0
    6.3301    1.4330    0.0000 C   0  0  0  0  0  0  0  0  0  0  0  0
    5.4641   -0.0670    0.0000 C   0  0  0  0  0  0  0  0  0  0  0  0
    9.7942   -1.5670    0.0000 C   0  0  0  0  0  0  0  0  0  0  0  0
    9.7942   -2.5670    0.0000 C   0  0  0  0  0  0  0  0  0  0  0  0
   10.6603   -5.0670    0.0000 C   0  0  0  0  0  0  0  0  0  0  0  0
    9.2942   -5.4330    0.0000 C   0  0  0  0  0  0  0  0  0  0  0  0
   10.2942   -3.7010    0.0000 C   0  0  0  0  0  0  0  0  0  0  0  0
    5.4641    1.9330    0.0000 C   0  0  0  0  0  0  0  0  0  0  0  0
    4.5981    1.4330    0.0000 C   0  0  0  0  0  0  0  0  0  0  0  0
    5.4641    2.9330    0.0000 C   0  0  0  0  0  0  0  0  0  0  0  0
    3.7320    1.9330    0.0000 C   0  0  0  0  0  0  0  0  0  0  0  0
    4.5981    3.4330    0.0000 C   0  0  0  0  0  0  0  0  0  0  0  0
    3.7320    2.9330    0.0000 C   0  0  0  0  0  0  0  0  0  0  0  0
    4.5981    4.4330    0.0000 C   0  0  0  0  0  0  0  0  0  0  0  0
    2.8660    1.4330    0.0000 C   0  0  0  0  0  0  0  0  0  0  0  0
    6.6592   -0.7570    0.0000 H   0  0  0  0  0  0  0  0  0  0  0  0
    7.8067   -0.1746    0.0000 H   0  0  0  0  0  0  0  0  0  0  0  0
    7.4082    0.5156    0.0000 H   0  0  0  0  0  0  0  0  0  0  0  0
    5.7101   -3.5670    0.0000 H   0  0  0  0  0  0  0  0  0  0  0  0
    6.3301   -4.1870    0.0000 H   0  0  0  0  0  0  0  0  0  0  0  0
    6.9501   -3.5670    0.0000 H   0  0  0  0  0  0  0  0  0  0  0  0
    5.3301   -1.9470    0.0000 H   0  0  0  0  0  0  0  0  0  0  0  0
    4.7101   -2.5670    0.0000 H   0  0  0  0  0  0  0  0  0  0  0  0
    5.3301   -3.1870    0.0000 H   0  0  0  0  0  0  0  0  0  0  0  0
    7.3301   -3.1870    0.0000 H   0  0  0  0  0  0  0  0  0  0  0  0
    7.9501   -2.5670    0.0000 H   0  0  0  0  0  0  0  0  0  0  0  0
    7.3301   -1.9470    0.0000 H   0  0  0  0  0  0  0  0  0  0  0  0
    7.5252   -2.8770    0.0000 H   0  0  0  0  0  0  0  0  0  0  0  0
    8.9282   -0.4470    0.0000 H   0  0  0  0  0  0  0  0  0  0  0  0
    5.1541    0.4699    0.0000 H   0  0  0  0  0  0  0  0  0  0  0  0
    4.9272   -0.3770    0.0000 H   0  0  0  0  0  0  0  0  0  0  0  0
    5.7741   -0.6039    0.0000 H   0  0  0  0  0  0  0  0  0  0  0  0
   10.3312   -1.2570    0.0000 H   0  0  0  0  0  0  0  0  0  0  0  0
   10.3312   -2.8770    0.0000 H   0  0  0  0  0  0  0  0  0  0  0  0
   10.3503   -5.6039    0.0000 H   0  0  0  0  0  0  0  0  0  0  0  0
   11.1972   -5.3770    0.0000 H   0  0  0  0  0  0  0  0  0  0  0  0
   10.9703   -4.5300    0.0000 H   0  0  0  0  0  0  0  0  0  0  0  0
    8.7573   -5.1230    0.0000 H   0  0  0  0  0  0  0  0  0  0  0  0
    8.9842   -5.9700    0.0000 H   0  0  0  0  0  0  0  0  0  0  0  0
    9.8312   -5.7430    0.0000 H   0  0  0  0  0  0  0  0  0  0  0  0
   10.8312   -4.0110    0.0000 H   0  0  0  0  0  0  0  0  0  0  0  0
   10.6042   -3.1640    0.0000 H   0  0  0  0  0  0  0  0  0  0  0  0
    9.7573   -3.3910    0.0000 H   0  0  0  0  0  0  0  0  0  0  0  0
    4.5981    0.8130    0.0000 H   0  0  0  0  0  0  0  0  0  0  0  0
    6.0010    3.2430    0.0000 H   0  0  0  0  0  0  0  0  0  0  0  0
    3.1951    3.2430    0.0000 H   0  0  0  0  0  0  0  0  0  0  0  0
  1  9  1  0  0  0  0
  1 16  1  0  0  0  0
  1 17  1  0  0  0  0
  1 18  1  0  0  0  0
  2 10  1  0  0  0  0
  2 26  1  0  0  0  0
  2 27  1  0  0  0  0
  2 28  1  0  0  0  0
  3 35  1  0  0  0  0
  4 35  1  0  0  0  0
  5 35  1  0  0  0  0
  6 36  1  0  0  0  0
  7 36  1  0  0  0  0
  8 36  1  0  0  0  0
  9 13  1  0  0  0  0
 10 21  1  0  0  0  0
 11 22  2  0  0  0  0
 12 14  1  0  0  0  0
 12 22  1  0  0  0  0
 12 23  1  0  0  0  0
 13 14  1  0  0  0  0
 13 15  1  0  0  0  0
 13 37  1  0  0  0  0
 14 38  1  0  0  0  0
 14 39  1  0  0  0  0
 15 19  2  0  0  0  0
 15 20  1  0  0  0  0
 16 40  1  0  0  0  0
 16 41  1  0  0  0  0
 16 42  1  0  0  0  0
 17 43  1  0  0  0  0
 17 44  1  0  0  0  0
 17 45  1  0  0  0  0
 18 46  1  0  0  0  0
 18 47  1  0  0  0  0
 18 48  1  0  0  0  0
 19 21  1  0  0  0  0
 19 49  1  0  0  0  0
 20 24  2  0  0  0  0
 20 50  1  0  0  0  0
 21 25  2  0  0  0  0
 22 29  1  0  0  0  0
 23 51  1  0  0  0  0
 23 52  1  0  0  0  0
 23 53  1  0  0  0  0
 24 25  1  0  0  0  0
 24 54  1  0  0  0  0
 25 55  1  0  0  0  0
 26 56  1  0  0  0  0
 26 57  1  0  0  0  0
 26 58  1  0  0  0  0
 27 59  1  0  0  0  0
 27 60  1  0  0  0  0
 27 61  1  0  0  0  0
 28 62  1  0  0  0  0
 28 63  1  0  0  0  0
 28 64  1  0  0  0  0
 29 30  2  0  0  0  0
 29 31  1  0  0  0  0
 30 32  1  0  0  0  0
 30 65  1  0  0  0  0
 31 33  2  0  0  0  0
 31 66  1  0  0  0  0
 32 34  2  0  0  0  0
 32 36  1  0  0  0  0
 33 34  1  0  0  0  0
 33 35  1  0  0  0  0
 34 67  1  0  0  0  0
M  END
> <PUBCHEM_COMPOUND_CID>
526015
> <PUBCHEM_COMPOUND_CANONICALIZED>
1
> <PUBCHEM_CACTVS_COMPLEXITY>
713
> <PUBCHEM_CACTVS_HBOND_ACCEPTOR>
9
> <PUBCHEM_CACTVS_HBOND_DONOR>
0
> <PUBCHEM_CACTVS_ROTATABLE_BOND>
8
> <PUBCHEM_CACTVS_SUBSKEYS>
AAADceB6McwAAAAAAAAAAAAAAAAAAAAAAAAwYAAAAAAAAAABQAAAHxAAAEAADBThmBZyBoMAAAGIAiFSEACCAAAkIAAIiAEODMgKJjKAlROEMQhkxhGYiYfY2PKOAAADAAAAAAAAAAYAAAAAAAAAAAAAAA==
> <PUBCHEM_IUPAC_OPENEYE_NAME>
N-methyl-3,5-bis(trifluoromethyl)-N-[2-trimethylsilyloxy-2-(3-trimethylsilyloxyphenyl)ethyl]benzamide
> <PUBCHEM_IUPAC_CAS_NAME>
N-methyl-3,5-bis(trifluoromethyl)-N-[2-trimethylsilyloxy-2-(3-trimethylsilyloxyphenyl)ethyl]benzamide
> <PUBCHEM_IUPAC_NAME_MARKUP>
<I>N</I>-methyl-3,5-bis(trifluoromethyl)-<I>N</I>-[2-trimethylsilyloxy-2-(3-trimethylsilyloxyphenyl)ethyl]benzamide
> <PUBCHEM_IUPAC_NAME>
N-methyl-3,5-bis(trifluoromethyl)-N-[2-trimethylsilyloxy-2-(3-trimethylsilyloxyphenyl)ethyl]benzamide
> <PUBCHEM_IUPAC_SYSTEMATIC_NAME>
N-methyl-3,5-bis(trifluoromethyl)-N-[2-trimethylsilyloxy-2-(3-trimethylsilyloxyphenyl)ethyl]benzamide
> <PUBCHEM_IUPAC_TRADITIONAL_NAME>
N-methyl-3,5-bis(trifluoromethyl)-N-[2-trimethylsilyloxy-2-(3-trimethylsilyloxyphenyl)ethyl]benzamide
> <PUBCHEM_IUPAC_INCHI>
InChI=1S/C24H31F6NO3Si2/c1-31(22(32)17-11-18(23(25,26)27)14-19(12-17)24(28,29)30)15-21(34-36(5,6)7)16-9-8-10-20(13-16)33-35(2,3)4/h8-14,21H,15H2,1-7H3
> <PUBCHEM_IUPAC_INCHIKEY>
YNNAAKHUVJFAQK-UHFFFAOYSA-N
> <PUBCHEM_EXACT_MASS>
551.17466589
> <PUBCHEM_MOLECULAR_FORMULA>
C24H31F6NO3Si2
> <PUBCHEM_MOLECULAR_WEIGHT>
551.7
> <PUBCHEM_OPENEYE_CAN_SMILES>
CN(CC(C1=CC(=CC=C1)O[Si](C)(C)C)O[Si](C)(C)C)C(=O)C2=CC(=CC(=C2)C(F)(F)F)C(F)(F)F
> <PUBCHEM_OPENEYE_ISO_SMILES>
CN(CC(C1=CC(=CC=C1)O[Si](C)(C)C)O[Si](C)(C)C)C(=O)C2=CC(=CC(=C2)C(F)(F)F)C(F)(F)F
> <PUBCHEM_CACTVS_TPSA>
38.8
> <PUBCHEM_MONOISOTOPIC_WEIGHT>
551.17466589
> <PUBCHEM_TOTAL_CHARGE>
0
> <PUBCHEM_HEAVY_ATOM_COUNT>
36
> <PUBCHEM_ATOM_DEF_STEREO_COUNT>
0
> <PUBCHEM_ATOM_UDEF_STEREO_COUNT>
1
> <PUBCHEM_BOND_DEF_STEREO_COUNT>
0
> <PUBCHEM_BOND_UDEF_STEREO_COUNT>
0
> <PUBCHEM_ISOTOPIC_ATOM_COUNT>
0
> <PUBCHEM_COMPONENT_COUNT>
1
> <PUBCHEM_CACTVS_TAUTO_COUNT>
-1
> <PUBCHEM_COORDINATE_TYPE>
1
5
255
> <PUBCHEM_BONDANNOTATIONS>
13  14  3
15  19  8
15  20  8
19  21  8
20  24  8
21  25  8
24  25  8
29  30  8
29  31  8
30  32  8
31  33  8
32  34  8
33  34  8
$$$$
