526006
  -OEChem-10302200292D
 45 44  0     1  0  0  0  0  0999 V2000
    8.0622    0.8170    0.0000 Si  0  0  0  0  0  0  0  0  0  0  0  0
    2.8660    0.8170    0.0000 Si  0  0  0  0  0  0  0  0  0  0  0  0
    7.1962    1.3170    0.0000 O   0  0  0  0  0  0  0  0  0  0  0  0
    3.7320    1.3170    0.0000 O   0  0  0  0  0  0  0  0  0  0  0  0
    4.5981   -0.1830    0.0000 O   0  0  0  0  0  0  0  0  0  0  0  0
    6.3301    0.8170    0.0000 C   0  0  3  0  0  0  0  0  0  0  0  0
    6.3301   -0.1830    0.0000 C   0  0  0  0  0  0  0  0  0  0  0  0
    5.4641    1.3170    0.0000 C   0  0  0  0  0  0  0  0  0  0  0  0
    5.4641   -0.6830    0.0000 C   0  0  0  0  0  0  0  0  0  0  0  0
    8.9282    0.3170    0.0000 C   0  0  0  0  0  0  0  0  0  0  0  0
    8.5622    1.6830    0.0000 C   0  0  0  0  0  0  0  0  0  0  0  0
    7.5622   -0.0490    0.0000 C   0  0  0  0  0  0  0  0  0  0  0  0
    4.5981    0.8170    0.0000 C   0  0  0  0  0  0  0  0  0  0  0  0
    5.4641   -1.6830    0.0000 C   0  0  0  0  0  0  0  0  0  0  0  0
    2.0000    0.3170    0.0000 C   0  0  0  0  0  0  0  0  0  0  0  0
    2.3660    1.6830    0.0000 C   0  0  0  0  0  0  0  0  0  0  0  0
    3.3660   -0.0490    0.0000 C   0  0  0  0  0  0  0  0  0  0  0  0
    6.8671    0.5070    0.0000 H   0  0  0  0  0  0  0  0  0  0  0  0
    6.5422   -0.7656    0.0000 H   0  0  0  0  0  0  0  0  0  0  0  0
    6.9407   -0.0754    0.0000 H   0  0  0  0  0  0  0  0  0  0  0  0
    5.8626    1.7919    0.0000 H   0  0  0  0  0  0  0  0  0  0  0  0
    5.0656    1.7919    0.0000 H   0  0  0  0  0  0  0  0  0  0  0  0
    5.2520   -0.1004    0.0000 H   0  0  0  0  0  0  0  0  0  0  0  0
    4.8535   -0.7907    0.0000 H   0  0  0  0  0  0  0  0  0  0  0  0
    8.6182   -0.2199    0.0000 H   0  0  0  0  0  0  0  0  0  0  0  0
    9.4651    0.0070    0.0000 H   0  0  0  0  0  0  0  0  0  0  0  0
    9.2382    0.8539    0.0000 H   0  0  0  0  0  0  0  0  0  0  0  0
    9.0991    1.3730    0.0000 H   0  0  0  0  0  0  0  0  0  0  0  0
    8.8722    2.2200    0.0000 H   0  0  0  0  0  0  0  0  0  0  0  0
    8.0252    1.9930    0.0000 H   0  0  0  0  0  0  0  0  0  0  0  0
    7.0252    0.2610    0.0000 H   0  0  0  0  0  0  0  0  0  0  0  0
    7.2522   -0.5860    0.0000 H   0  0  0  0  0  0  0  0  0  0  0  0
    8.0991   -0.3590    0.0000 H   0  0  0  0  0  0  0  0  0  0  0  0
    4.8441   -1.6830    0.0000 H   0  0  0  0  0  0  0  0  0  0  0  0
    5.4641   -2.3030    0.0000 H   0  0  0  0  0  0  0  0  0  0  0  0
    6.0841   -1.6830    0.0000 H   0  0  0  0  0  0  0  0  0  0  0  0
    1.6900    0.8539    0.0000 H   0  0  0  0  0  0  0  0  0  0  0  0
    1.4631    0.0070    0.0000 H   0  0  0  0  0  0  0  0  0  0  0  0
    2.3100   -0.2199    0.0000 H   0  0  0  0  0  0  0  0  0  0  0  0
    2.9030    1.9930    0.0000 H   0  0  0  0  0  0  0  0  0  0  0  0
    2.0560    2.2200    0.0000 H   0  0  0  0  0  0  0  0  0  0  0  0
    1.8291    1.3730    0.0000 H   0  0  0  0  0  0  0  0  0  0  0  0
    2.8291   -0.3590    0.0000 H   0  0  0  0  0  0  0  0  0  0  0  0
    3.6760   -0.5860    0.0000 H   0  0  0  0  0  0  0  0  0  0  0  0
    3.9030    0.2610    0.0000 H   0  0  0  0  0  0  0  0  0  0  0  0
  1  3  1  0  0  0  0
  1 10  1  0  0  0  0
  1 11  1  0  0  0  0
  1 12  1  0  0  0  0
  2  4  1  0  0  0  0
  2 15  1  0  0  0  0
  2 16  1  0  0  0  0
  2 17  1  0  0  0  0
  3  6  1  0  0  0  0
  4 13  1  0  0  0  0
  5 13  2  0  0  0  0
  6  7  1  0  0  0  0
  6  8  1  0  0  0  0
  6 18  1  0  0  0  0
  7  9  1  0  0  0  0
  7 19  1  0  0  0  0
  7 20  1  0  0  0  0
  8 13  1  0  0  0  0
  8 21  1  0  0  0  0
  8 22  1  0  0  0  0
  9 14  1  0  0  0  0
  9 23  1  0  0  0  0
  9 24  1  0  0  0  0
 10 25  1  0  0  0  0
 10 26  1  0  0  0  0
 10 27  1  0  0  0  0
 11 28  1  0  0  0  0
 11 29  1  0  0  0  0
 11 30  1  0  0  0  0
 12 31  1  0  0  0  0
 12 32  1  0  0  0  0
 12 33  1  0  0  0  0
 14 34  1  0  0  0  0
 14 35  1  0  0  0  0
 14 36  1  0  0  0  0
 15 37  1  0  0  0  0
 15 38  1  0  0  0  0
 15 39  1  0  0  0  0
 16 40  1  0  0  0  0
 16 41  1  0  0  0  0
 16 42  1  0  0  0  0
 17 43  1  0  0  0  0
 17 44  1  0  0  0  0
 17 45  1  0  0  0  0
M  END
> <PUBCHEM_COMPOUND_CID>
526006
> <PUBCHEM_COMPOUND_CANONICALIZED>
1
> <PUBCHEM_CACTVS_COMPLEXITY>
241
> <PUBCHEM_CACTVS_HBOND_ACCEPTOR>
3
> <PUBCHEM_CACTVS_HBOND_DONOR>
0
> <PUBCHEM_CACTVS_ROTATABLE_BOND>
8
> <PUBCHEM_CACTVS_SUBSKEYS>
AAADceBwMAwAAAAAAAAAAAAAAAAAAAAAAAAAAAAAAAAAAAAAAAAAGhAAAEAACBSggAJCCAAAAAEIAACQCAAAAAAAAAAAAAEAAAAAABYAAAAAAAAFIAAAAAGISAAAAAAAAAAAAAAAAAAAAAAAAAAAAAAAAA==
> <PUBCHEM_IUPAC_OPENEYE_NAME>
trimethylsilyl 3-trimethylsilyloxyhexanoate
> <PUBCHEM_IUPAC_CAS_NAME>
3-trimethylsilyloxyhexanoic acid trimethylsilyl ester
> <PUBCHEM_IUPAC_NAME_MARKUP>
trimethylsilyl 3-trimethylsilyloxyhexanoate
> <PUBCHEM_IUPAC_NAME>
trimethylsilyl 3-trimethylsilyloxyhexanoate
> <PUBCHEM_IUPAC_SYSTEMATIC_NAME>
trimethylsilyl 3-trimethylsilyloxyhexanoate
> <PUBCHEM_IUPAC_TRADITIONAL_NAME>
3-trimethylsilyloxyhexanoic acid trimethylsilyl ester
> <PUBCHEM_IUPAC_INCHI>
InChI=1S/C12H28O3Si2/c1-8-9-11(14-16(2,3)4)10-12(13)15-17(5,6)7/h11H,8-10H2,1-7H3
> <PUBCHEM_IUPAC_INCHIKEY>
TUSDZUHTPDSVRW-UHFFFAOYSA-N
> <PUBCHEM_EXACT_MASS>
276.15769782
> <PUBCHEM_MOLECULAR_FORMULA>
C12H28O3Si2
> <PUBCHEM_MOLECULAR_WEIGHT>
276.52
> <PUBCHEM_OPENEYE_CAN_SMILES>
CCCC(CC(=O)O[Si](C)(C)C)O[Si](C)(C)C
> <PUBCHEM_OPENEYE_ISO_SMILES>
CCCC(CC(=O)O[Si](C)(C)C)O[Si](C)(C)C
> <PUBCHEM_CACTVS_TPSA>
35.5
> <PUBCHEM_MONOISOTOPIC_WEIGHT>
276.15769782
> <PUBCHEM_TOTAL_CHARGE>
0
> <PUBCHEM_HEAVY_ATOM_COUNT>
17
> <PUBCHEM_ATOM_DEF_STEREO_COUNT>
0
> <PUBCHEM_ATOM_UDEF_STEREO_COUNT>
1
> <PUBCHEM_BOND_DEF_STEREO_COUNT>
0
> <PUBCHEM_BOND_UDEF_STEREO_COUNT>
0
> <PUBCHEM_ISOTOPIC_ATOM_COUNT>
0
> <PUBCHEM_COMPONENT_COUNT>
1
> <PUBCHEM_CACTVS_TAUTO_COUNT>
-1
> <PUBCHEM_COORDINATE_TYPE>
1
5
255
> <PUBCHEM_BONDANNOTATIONS>
6  7  3
$$$$
