526037
  -OEChem-10302200292D
 94 97  0     1  0  0  0  0  0999 V2000
   11.3567    2.1134    0.0000 Si  0  0  0  0  0  0  0  0  0  0  0  0
    9.7103   -2.3476    0.0000 Si  0  0  0  0  0  0  0  0  0  0  0  0
   12.1511   -0.7141    0.0000 Si  0  0  0  0  0  0  0  0  0  0  0  0
    2.8641   -1.8971    0.0000 Si  0  0  0  0  0  0  0  0  0  0  0  0
   10.3781    1.9072    0.0000 O   0  0  0  0  0  0  0  0  0  0  0  0
   10.3781   -1.6033    0.0000 O   0  0  0  0  0  0  0  0  0  0  0  0
   11.6511    0.1519    0.0000 O   0  0  0  0  0  0  0  0  0  0  0  0
    3.7282   -2.4004    0.0000 O   0  0  0  0  0  0  0  0  0  0  0  0
    9.1213    0.6519    0.0000 C   0  0  3  0  0  0  0  0  0  0  0  0
    9.1213   -0.3481    0.0000 C   0  0  3  0  0  0  0  0  0  0  0  0
    8.2552   -0.8481    0.0000 C   0  0  3  0  0  0  0  0  0  0  0  0
   10.0675    0.9567    0.0000 C   0  0  3  0  0  0  0  0  0  0  0  0
   10.0675   -0.6528    0.0000 C   0  0  3  0  0  0  0  0  0  0  0  0
    7.3892   -0.3481    0.0000 C   0  0  3  0  0  0  0  0  0  0  0  0
   10.6511    0.1519    0.0000 C   0  0  3  0  0  0  0  0  0  0  0  0
    8.2552    1.1519    0.0000 C   0  0  0  0  0  0  0  0  0  0  0  0
    7.3892    0.6519    0.0000 C   0  0  0  0  0  0  0  0  0  0  0  0
    8.2713   -1.8896    0.0000 C   0  0  0  0  0  0  0  0  0  0  0  0
    9.1213    1.6519    0.0000 C   0  0  0  0  0  0  0  0  0  0  0  0
    6.4792   -0.8549    0.0000 C   0  0  0  0  0  0  0  0  0  0  0  0
    7.3733   -2.4173    0.0000 C   0  0  0  0  0  0  0  0  0  0  0  0
    6.4712   -1.8965    0.0000 C   0  0  0  0  0  0  0  0  0  0  0  0
    5.5524   -0.2908    0.0000 C   0  0  0  0  0  0  0  0  0  0  0  0
    5.5358   -2.4462    0.0000 C   0  0  0  0  0  0  0  0  0  0  0  0
   12.3352    2.3196    0.0000 C   0  0  0  0  0  0  0  0  0  0  0  0
   11.1504    3.0919    0.0000 C   0  0  0  0  0  0  0  0  0  0  0  0
   11.5629    1.1349    0.0000 C   0  0  0  0  0  0  0  0  0  0  0  0
   10.4546   -3.0155    0.0000 C   0  0  0  0  0  0  0  0  0  0  0  0
    9.0425   -3.0919    0.0000 C   0  0  0  0  0  0  0  0  0  0  0  0
    8.9660   -1.6798    0.0000 C   0  0  0  0  0  0  0  0  0  0  0  0
    4.6045   -0.8188    0.0000 C   0  0  0  0  0  0  0  0  0  0  0  0
    4.5961   -1.9037    0.0000 C   0  0  0  0  0  0  0  0  0  0  0  0
   13.0171   -0.2141    0.0000 C   0  0  0  0  0  0  0  0  0  0  0  0
   12.6511   -1.5801    0.0000 C   0  0  0  0  0  0  0  0  0  0  0  0
   11.2851   -1.2141    0.0000 C   0  0  0  0  0  0  0  0  0  0  0  0
    2.0000   -1.3937    0.0000 C   0  0  0  0  0  0  0  0  0  0  0  0
    2.3608   -2.7612    0.0000 C   0  0  0  0  0  0  0  0  0  0  0  0
    3.3674   -1.0330    0.0000 C   0  0  0  0  0  0  0  0  0  0  0  0
    9.1869   -0.9646    0.0000 H   0  0  0  0  0  0  0  0  0  0  0  0
    8.7945   -1.1539    0.0000 H   0  0  0  0  0  0  0  0  0  0  0  0
   10.6800    1.0529    0.0000 H   0  0  0  0  0  0  0  0  0  0  0  0
   10.6800   -0.7490    0.0000 H   0  0  0  0  0  0  0  0  0  0  0  0
    7.9262   -0.0381    0.0000 H   0  0  0  0  0  0  0  0  0  0  0  0
   10.9328   -0.4004    0.0000 H   0  0  0  0  0  0  0  0  0  0  0  0
    8.6538    1.6269    0.0000 H   0  0  0  0  0  0  0  0  0  0  0  0
    7.8567    1.6269    0.0000 H   0  0  0  0  0  0  0  0  0  0  0  0
    7.1772    1.2346    0.0000 H   0  0  0  0  0  0  0  0  0  0  0  0
    6.7786    0.5443    0.0000 H   0  0  0  0  0  0  0  0  0  0  0  0
    8.4893   -2.4700    0.0000 H   0  0  0  0  0  0  0  0  0  0  0  0
    8.8804   -1.7741    0.0000 H   0  0  0  0  0  0  0  0  0  0  0  0
    9.7413    1.6519    0.0000 H   0  0  0  0  0  0  0  0  0  0  0  0
    9.1213    2.2719    0.0000 H   0  0  0  0  0  0  0  0  0  0  0  0
    8.5013    1.6519    0.0000 H   0  0  0  0  0  0  0  0  0  0  0  0
    6.9760   -2.8933    0.0000 H   0  0  0  0  0  0  0  0  0  0  0  0
    7.7742   -2.8902    0.0000 H   0  0  0  0  0  0  0  0  0  0  0  0
    5.5643    0.3291    0.0000 H   0  0  0  0  0  0  0  0  0  0  0  0
    5.5382   -3.0662    0.0000 H   0  0  0  0  0  0  0  0  0  0  0  0
   12.4630    1.7130    0.0000 H   0  0  0  0  0  0  0  0  0  0  0  0
   12.9418    2.4475    0.0000 H   0  0  0  0  0  0  0  0  0  0  0  0
   12.2073    2.9263    0.0000 H   0  0  0  0  0  0  0  0  0  0  0  0
   11.7571    3.2198    0.0000 H   0  0  0  0  0  0  0  0  0  0  0  0
   11.0226    3.6986    0.0000 H   0  0  0  0  0  0  0  0  0  0  0  0
   10.5438    2.9641    0.0000 H   0  0  0  0  0  0  0  0  0  0  0  0
   10.9562    1.0070    0.0000 H   0  0  0  0  0  0  0  0  0  0  0  0
   11.6907    0.5282    0.0000 H   0  0  0  0  0  0  0  0  0  0  0  0
   12.1695    1.2628    0.0000 H   0  0  0  0  0  0  0  0  0  0  0  0
   10.0405   -3.4769    0.0000 H   0  0  0  0  0  0  0  0  0  0  0  0
   10.9161   -3.4295    0.0000 H   0  0  0  0  0  0  0  0  0  0  0  0
   10.8687   -2.5540    0.0000 H   0  0  0  0  0  0  0  0  0  0  0  0
    8.5810   -2.6778    0.0000 H   0  0  0  0  0  0  0  0  0  0  0  0
    8.6284   -3.5534    0.0000 H   0  0  0  0  0  0  0  0  0  0  0  0
    9.5039   -3.5060    0.0000 H   0  0  0  0  0  0  0  0  0  0  0  0
    9.3801   -1.2183    0.0000 H   0  0  0  0  0  0  0  0  0  0  0  0
    8.5045   -1.2657    0.0000 H   0  0  0  0  0  0  0  0  0  0  0  0
    8.5519   -2.1412    0.0000 H   0  0  0  0  0  0  0  0  0  0  0  0
    4.0712   -0.5026    0.0000 H   0  0  0  0  0  0  0  0  0  0  0  0
   13.3271   -0.7510    0.0000 H   0  0  0  0  0  0  0  0  0  0  0  0
   13.5541    0.0959    0.0000 H   0  0  0  0  0  0  0  0  0  0  0  0
   12.7071    0.3229    0.0000 H   0  0  0  0  0  0  0  0  0  0  0  0
   12.1142   -1.8901    0.0000 H   0  0  0  0  0  0  0  0  0  0  0  0
   12.9611   -2.1170    0.0000 H   0  0  0  0  0  0  0  0  0  0  0  0
   13.1880   -1.2701    0.0000 H   0  0  0  0  0  0  0  0  0  0  0  0
   10.9751   -0.6772    0.0000 H   0  0  0  0  0  0  0  0  0  0  0  0
   10.7481   -1.5241    0.0000 H   0  0  0  0  0  0  0  0  0  0  0  0
   11.5951   -1.7510    0.0000 H   0  0  0  0  0  0  0  0  0  0  0  0
    2.3121   -0.8580    0.0000 H   0  0  0  0  0  0  0  0  0  0  0  0
    1.4643   -1.0817    0.0000 H   0  0  0  0  0  0  0  0  0  0  0  0
    1.6879   -1.9295    0.0000 H   0  0  0  0  0  0  0  0  0  0  0  0
    1.8250   -2.4491    0.0000 H   0  0  0  0  0  0  0  0  0  0  0  0
    2.0487   -3.2969    0.0000 H   0  0  0  0  0  0  0  0  0  0  0  0
    2.8965   -3.0732    0.0000 H   0  0  0  0  0  0  0  0  0  0  0  0
    3.9032   -1.3450    0.0000 H   0  0  0  0  0  0  0  0  0  0  0  0
    3.6795   -0.4972    0.0000 H   0  0  0  0  0  0  0  0  0  0  0  0
    2.8317   -0.7209    0.0000 H   0  0  0  0  0  0  0  0  0  0  0  0
  1  5  1  0  0  0  0
  1 25  1  0  0  0  0
  1 26  1  0  0  0  0
  1 27  1  0  0  0  0
  2  6  1  0  0  0  0
  2 28  1  0  0  0  0
  2 29  1  0  0  0  0
  2 30  1  0  0  0  0
  3  7  1  0  0  0  0
  3 33  1  0  0  0  0
  3 34  1  0  0  0  0
  3 35  1  0  0  0  0
  4  8  1  0  0  0  0
  4 36  1  0  0  0  0
  4 37  1  0  0  0  0
  4 38  1  0  0  0  0
  5 12  1  0  0  0  0
  6 13  1  0  0  0  0
  7 15  1  0  0  0  0
  8 32  1  0  0  0  0
  9 10  1  0  0  0  0
  9 12  1  0  0  0  0
  9 16  1  0  0  0  0
  9 19  1  0  0  0  0
 10 11  1  0  0  0  0
 10 13  1  0  0  0  0
 10 39  1  0  0  0  0
 11 14  1  0  0  0  0
 11 18  1  0  0  0  0
 11 40  1  0  0  0  0
 12 15  1  0  0  0  0
 12 41  1  0  0  0  0
 13 15  1  0  0  0  0
 13 42  1  0  0  0  0
 14 17  1  0  0  0  0
 14 20  1  0  0  0  0
 14 43  1  0  0  0  0
 15 44  1  0  0  0  0
 16 17  1  0  0  0  0
 16 45  1  0  0  0  0
 16 46  1  0  0  0  0
 17 47  1  0  0  0  0
 17 48  1  0  0  0  0
 18 21  1  0  0  0  0
 18 49  1  0  0  0  0
 18 50  1  0  0  0  0
 19 51  1  0  0  0  0
 19 52  1  0  0  0  0
 19 53  1  0  0  0  0
 20 22  2  0  0  0  0
 20 23  1  0  0  0  0
 21 22  1  0  0  0  0
 21 54  1  0  0  0  0
 21 55  1  0  0  0  0
 22 24  1  0  0  0  0
 23 31  2  0  0  0  0
 23 56  1  0  0  0  0
 24 32  2  0  0  0  0
 24 57  1  0  0  0  0
 25 58  1  0  0  0  0
 25 59  1  0  0  0  0
 25 60  1  0  0  0  0
 26 61  1  0  0  0  0
 26 62  1  0  0  0  0
 26 63  1  0  0  0  0
 27 64  1  0  0  0  0
 27 65  1  0  0  0  0
 27 66  1  0  0  0  0
 28 67  1  0  0  0  0
 28 68  1  0  0  0  0
 28 69  1  0  0  0  0
 29 70  1  0  0  0  0
 29 71  1  0  0  0  0
 29 72  1  0  0  0  0
 30 73  1  0  0  0  0
 30 74  1  0  0  0  0
 30 75  1  0  0  0  0
 31 32  1  0  0  0  0
 31 76  1  0  0  0  0
 33 77  1  0  0  0  0
 33 78  1  0  0  0  0
 33 79  1  0  0  0  0
 34 80  1  0  0  0  0
 34 81  1  0  0  0  0
 34 82  1  0  0  0  0
 35 83  1  0  0  0  0
 35 84  1  0  0  0  0
 35 85  1  0  0  0  0
 36 86  1  0  0  0  0
 36 87  1  0  0  0  0
 36 88  1  0  0  0  0
 37 89  1  0  0  0  0
 37 90  1  0  0  0  0
 37 91  1  0  0  0  0
 38 92  1  0  0  0  0
 38 93  1  0  0  0  0
 38 94  1  0  0  0  0
M  END
> <PUBCHEM_COMPOUND_CID>
526037
> <PUBCHEM_COMPOUND_CANONICALIZED>
1
> <PUBCHEM_CACTVS_COMPLEXITY>
826
> <PUBCHEM_CACTVS_HBOND_ACCEPTOR>
4
> <PUBCHEM_CACTVS_HBOND_DONOR>
0
> <PUBCHEM_CACTVS_ROTATABLE_BOND>
8
> <PUBCHEM_CACTVS_SUBSKEYS>
AAADcfB4OAwAAAAAAAAAAAAAAAAAAYAAAAAwYMAAAAAAAGDBAAAAGhAAAEAADxSgmAJyBoAAAAGAAiBCAAACAAAgIAAIiAAGCIgJJiKAERKAMAAlwBEIiAfA4PAPoAABAAAQAADAAAYAACAAAIQADCAAAA==
> <PUBCHEM_IUPAC_OPENEYE_NAME>
trimethyl-[[13-methyl-3,15,16-tris(trimethylsilyloxy)-6,7,8,9,11,12,14,15,16,17-decahydrocyclopenta[a]phenanthren-17-yl]oxy]silane
> <PUBCHEM_IUPAC_CAS_NAME>
trimethyl-[[13-methyl-3,15,16-tris(trimethylsilyloxy)-6,7,8,9,11,12,14,15,16,17-decahydrocyclopenta[a]phenanthren-17-yl]oxy]silane
> <PUBCHEM_IUPAC_NAME_MARKUP>
trimethyl-[[13-methyl-3,15,16-tris(trimethylsilyloxy)-6,7,8,9,11,12,14,15,16,17-decahydrocyclopenta[a]phenanthren-17-yl]oxy]silane
> <PUBCHEM_IUPAC_NAME>
trimethyl-[[13-methyl-3,15,16-tris(trimethylsilyloxy)-6,7,8,9,11,12,14,15,16,17-decahydrocyclopenta[a]phenanthren-17-yl]oxy]silane
> <PUBCHEM_IUPAC_SYSTEMATIC_NAME>
trimethyl-[[13-methyl-3,15,16-tris(trimethylsilyloxy)-6,7,8,9,11,12,14,15,16,17-decahydrocyclopenta[a]phenanthren-17-yl]oxy]silane
> <PUBCHEM_IUPAC_TRADITIONAL_NAME>
trimethyl-[[13-methyl-3,15,16-tris(trimethylsilyloxy)-6,7,8,9,11,12,14,15,16,17-decahydrocyclopenta[a]phenanthren-17-yl]oxy]silane
> <PUBCHEM_IUPAC_INCHI>
InChI=1S/C30H56O4Si4/c1-30-19-18-24-23-17-15-22(31-35(2,3)4)20-21(23)14-16-25(24)26(30)27(32-36(5,6)7)28(33-37(8,9)10)29(30)34-38(11,12)13/h15,17,20,24-29H,14,16,18-19H2,1-13H3
> <PUBCHEM_IUPAC_INCHIKEY>
RSQDODOMVGFYEA-UHFFFAOYSA-N
> <PUBCHEM_EXACT_MASS>
592.32556640
> <PUBCHEM_MOLECULAR_FORMULA>
C30H56O4Si4
> <PUBCHEM_MOLECULAR_WEIGHT>
593.1
> <PUBCHEM_OPENEYE_CAN_SMILES>
CC12CCC3C(C1C(C(C2O[Si](C)(C)C)O[Si](C)(C)C)O[Si](C)(C)C)CCC4=C3C=CC(=C4)O[Si](C)(C)C
> <PUBCHEM_OPENEYE_ISO_SMILES>
CC12CCC3C(C1C(C(C2O[Si](C)(C)C)O[Si](C)(C)C)O[Si](C)(C)C)CCC4=C3C=CC(=C4)O[Si](C)(C)C
> <PUBCHEM_CACTVS_TPSA>
36.9
> <PUBCHEM_MONOISOTOPIC_WEIGHT>
592.32556640
> <PUBCHEM_TOTAL_CHARGE>
0
> <PUBCHEM_HEAVY_ATOM_COUNT>
38
> <PUBCHEM_ATOM_DEF_STEREO_COUNT>
0
> <PUBCHEM_ATOM_UDEF_STEREO_COUNT>
7
> <PUBCHEM_BOND_DEF_STEREO_COUNT>
0
> <PUBCHEM_BOND_UDEF_STEREO_COUNT>
0
> <PUBCHEM_ISOTOPIC_ATOM_COUNT>
0
> <PUBCHEM_COMPONENT_COUNT>
1
> <PUBCHEM_CACTVS_TAUTO_COUNT>
-1
> <PUBCHEM_COORDINATE_TYPE>
1
5
255
> <PUBCHEM_BONDANNOTATIONS>
10  13  3
11  18  3
14  17  3
20  22  8
20  23  8
22  24  8
23  31  8
24  32  8
31  32  8
12  5  3
13  6  3
15  7  3
9  19  3
$$$$
