526187
  -OEChem-10302200292D
 15 15  0     1  0  0  0  0  0999 V2000
    3.0000   -1.3365    0.0000 S   0  0  0  0  0  0  0  0  0  0  0  0
    3.4483    1.3365    0.0000 O   0  0  0  0  0  0  0  0  0  0  0  0
    3.0000   -0.3365    0.0000 C   0  0  3  0  0  0  0  0  0  0  0  0
    2.0000   -0.3365    0.0000 C   0  0  0  0  0  0  0  0  0  0  0  0
    2.0000   -1.3365    0.0000 C   0  0  0  0  0  0  0  0  0  0  0  0
    3.7071    0.3706    0.0000 C   0  0  0  0  0  0  0  0  0  0  0  0
    4.6730    0.1118    0.0000 C   0  0  0  0  0  0  0  0  0  0  0  0
    3.7853   -0.6618    0.0000 H   0  0  0  0  0  0  0  0  0  0  0  0
    2.0000    0.2835    0.0000 H   0  0  0  0  0  0  0  0  0  0  0  0
    1.3800   -0.3365    0.0000 H   0  0  0  0  0  0  0  0  0  0  0  0
    1.3800   -1.3365    0.0000 H   0  0  0  0  0  0  0  0  0  0  0  0
    2.0000   -1.9565    0.0000 H   0  0  0  0  0  0  0  0  0  0  0  0
    4.5126   -0.4871    0.0000 H   0  0  0  0  0  0  0  0  0  0  0  0
    5.2719   -0.0487    0.0000 H   0  0  0  0  0  0  0  0  0  0  0  0
    4.8335    0.7106    0.0000 H   0  0  0  0  0  0  0  0  0  0  0  0
  1  3  1  0  0  0  0
  1  5  1  0  0  0  0
  2  6  2  0  0  0  0
  3  4  1  0  0  0  0
  3  6  1  0  0  0  0
  3  8  1  0  0  0  0
  4  5  1  0  0  0  0
  4  9  1  0  0  0  0
  4 10  1  0  0  0  0
  5 11  1  0  0  0  0
  5 12  1  0  0  0  0
  6  7  1  0  0  0  0
  7 13  1  0  0  0  0
  7 14  1  0  0  0  0
  7 15  1  0  0  0  0
M  END
> <PUBCHEM_COMPOUND_CID>
526187
> <PUBCHEM_COMPOUND_CANONICALIZED>
1
> <PUBCHEM_CACTVS_COMPLEXITY>
90.1
> <PUBCHEM_CACTVS_HBOND_ACCEPTOR>
2
> <PUBCHEM_CACTVS_HBOND_DONOR>
0
> <PUBCHEM_CACTVS_ROTATABLE_BOND>
1
> <PUBCHEM_CACTVS_SUBSKEYS>
AAADccBgIABAAAAAAAAAAAAAAABIAAAAAAAAAAAAAAAAAAAAAAAAGgQAAAAACASEwACCAAAAAAgIAIAQAAAAAAAAABAAAAEAAAAAABIgAAAAAAAAAAAgAAAAAAAAAAAAAAAAAAAAAAAAAAAAAAAAAAAAAA==
> <PUBCHEM_IUPAC_OPENEYE_NAME>
1-(thietan-2-yl)ethanone
> <PUBCHEM_IUPAC_CAS_NAME>
1-(2-thietanyl)ethanone
> <PUBCHEM_IUPAC_NAME_MARKUP>
1-(thietan-2-yl)ethanone
> <PUBCHEM_IUPAC_NAME>
1-(thietan-2-yl)ethanone
> <PUBCHEM_IUPAC_SYSTEMATIC_NAME>
1-(thietan-2-yl)ethanone
> <PUBCHEM_IUPAC_TRADITIONAL_NAME>
1-(thietan-2-yl)ethanone
> <PUBCHEM_IUPAC_INCHI>
InChI=1S/C5H8OS/c1-4(6)5-2-3-7-5/h5H,2-3H2,1H3
> <PUBCHEM_IUPAC_INCHIKEY>
LHLNSXFHEGETML-UHFFFAOYSA-N
> <PUBCHEM_XLOGP3_AA>
0.8
> <PUBCHEM_EXACT_MASS>
116.02958605
> <PUBCHEM_MOLECULAR_FORMULA>
C5H8OS
> <PUBCHEM_MOLECULAR_WEIGHT>
116.18
> <PUBCHEM_OPENEYE_CAN_SMILES>
CC(=O)C1CCS1
> <PUBCHEM_OPENEYE_ISO_SMILES>
CC(=O)C1CCS1
> <PUBCHEM_CACTVS_TPSA>
42.4
> <PUBCHEM_MONOISOTOPIC_WEIGHT>
116.02958605
> <PUBCHEM_TOTAL_CHARGE>
0
> <PUBCHEM_HEAVY_ATOM_COUNT>
7
> <PUBCHEM_ATOM_DEF_STEREO_COUNT>
0
> <PUBCHEM_ATOM_UDEF_STEREO_COUNT>
1
> <PUBCHEM_BOND_DEF_STEREO_COUNT>
0
> <PUBCHEM_BOND_UDEF_STEREO_COUNT>
0
> <PUBCHEM_ISOTOPIC_ATOM_COUNT>
0
> <PUBCHEM_COMPONENT_COUNT>
1
> <PUBCHEM_CACTVS_TAUTO_COUNT>
3
> <PUBCHEM_COORDINATE_TYPE>
1
5
255
> <PUBCHEM_BONDANNOTATIONS>
3  8  3
$$$$
