526190
  -OEChem-10302200292D
 17 17  0     1  0  0  0  0  0999 V2000
    2.8090   -0.3756    0.0000 S   0  0  0  0  0  0  0  0  0  0  0  0
    4.2058   -0.5968    0.0000 S   0  0  0  0  0  0  0  0  0  0  0  0
    3.6180    0.2122    0.0000 C   0  0  3  0  0  0  0  0  0  0  0  0
    3.3090    1.1632    0.0000 C   0  0  0  0  0  0  0  0  0  0  0  0
    2.3090    1.1632    0.0000 C   0  0  0  0  0  0  0  0  0  0  0  0
    2.0000    0.2122    0.0000 C   0  0  0  0  0  0  0  0  0  0  0  0
    4.5691    0.5212    0.0000 C   0  0  0  0  0  0  0  0  0  0  0  0
    3.9155    1.2921    0.0000 H   0  0  0  0  0  0  0  0  0  0  0  0
    3.2442    1.7798    0.0000 H   0  0  0  0  0  0  0  0  0  0  0  0
    2.3738    1.7798    0.0000 H   0  0  0  0  0  0  0  0  0  0  0  0
    1.7026    1.2921    0.0000 H   0  0  0  0  0  0  0  0  0  0  0  0
    1.4336    0.4644    0.0000 H   0  0  0  0  0  0  0  0  0  0  0  0
    1.6900   -0.3248    0.0000 H   0  0  0  0  0  0  0  0  0  0  0  0
    4.7607   -0.0685    0.0000 H   0  0  0  0  0  0  0  0  0  0  0  0
    5.1588    0.7128    0.0000 H   0  0  0  0  0  0  0  0  0  0  0  0
    4.3775    1.1108    0.0000 H   0  0  0  0  0  0  0  0  0  0  0  0
    3.9536   -1.1632    0.0000 H   0  0  0  0  0  0  0  0  0  0  0  0
  1  3  1  0  0  0  0
  1  6  1  0  0  0  0
  2  3  1  0  0  0  0
  2 17  1  0  0  0  0
  3  4  1  0  0  0  0
  3  7  1  0  0  0  0
  4  5  1  0  0  0  0
  4  8  1  0  0  0  0
  4  9  1  0  0  0  0
  5  6  1  0  0  0  0
  5 10  1  0  0  0  0
  5 11  1  0  0  0  0
  6 12  1  0  0  0  0
  6 13  1  0  0  0  0
  7 14  1  0  0  0  0
  7 15  1  0  0  0  0
  7 16  1  0  0  0  0
M  END
> <PUBCHEM_COMPOUND_CID>
526190
> <PUBCHEM_COMPOUND_CANONICALIZED>
1
> <PUBCHEM_CACTVS_COMPLEXITY>
72.5
> <PUBCHEM_CACTVS_HBOND_ACCEPTOR>
2
> <PUBCHEM_CACTVS_HBOND_DONOR>
1
> <PUBCHEM_CACTVS_ROTATABLE_BOND>
0
> <PUBCHEM_CACTVS_SUBSKEYS>
AAADccBgAABgAAAAAAAAAAAAAAAAASAAAAAAAAAAAAAAAAAAAAAAGAQAAAAACACEQACCAAAAAAwAAAAAAAAAAQAAABAAAAAAAAAAAAIgAAAAAAAAAAAgAAAAAAAAAAAAAAAAAAAAAAAAAAAAAAAAAAAAAA==
> <PUBCHEM_IUPAC_OPENEYE_NAME>
2-methyltetrahydrothiophene-2-thiol
> <PUBCHEM_IUPAC_CAS_NAME>
2-methyl-2-thiolanethiol
> <PUBCHEM_IUPAC_NAME_MARKUP>
2-methylthiolane-2-thiol
> <PUBCHEM_IUPAC_NAME>
2-methylthiolane-2-thiol
> <PUBCHEM_IUPAC_SYSTEMATIC_NAME>
2-methylthiolane-2-thiol
> <PUBCHEM_IUPAC_TRADITIONAL_NAME>
2-methyltetrahydrothiophene-2-thiol
> <PUBCHEM_IUPAC_INCHI>
InChI=1S/C5H10S2/c1-5(6)3-2-4-7-5/h6H,2-4H2,1H3
> <PUBCHEM_IUPAC_INCHIKEY>
SVPXVYCUWKYTRA-UHFFFAOYSA-N
> <PUBCHEM_XLOGP3_AA>
2
> <PUBCHEM_EXACT_MASS>
134.02239267
> <PUBCHEM_MOLECULAR_FORMULA>
C5H10S2
> <PUBCHEM_MOLECULAR_WEIGHT>
134.3
> <PUBCHEM_OPENEYE_CAN_SMILES>
CC1(CCCS1)S
> <PUBCHEM_OPENEYE_ISO_SMILES>
CC1(CCCS1)S
> <PUBCHEM_CACTVS_TPSA>
26.3
> <PUBCHEM_MONOISOTOPIC_WEIGHT>
134.02239267
> <PUBCHEM_TOTAL_CHARGE>
0
> <PUBCHEM_HEAVY_ATOM_COUNT>
7
> <PUBCHEM_ATOM_DEF_STEREO_COUNT>
0
> <PUBCHEM_ATOM_UDEF_STEREO_COUNT>
1
> <PUBCHEM_BOND_DEF_STEREO_COUNT>
0
> <PUBCHEM_BOND_UDEF_STEREO_COUNT>
0
> <PUBCHEM_ISOTOPIC_ATOM_COUNT>
0
> <PUBCHEM_COMPONENT_COUNT>
1
> <PUBCHEM_CACTVS_TAUTO_COUNT>
-1
> <PUBCHEM_COORDINATE_TYPE>
1
5
255
> <PUBCHEM_BONDANNOTATIONS>
3  2  3
$$$$
