526112
  -OEChem-10302200292D
 55 55  0     1  0  0  0  0  0999 V2000
   11.3459   -2.4148    0.0000 O   0  0  0  0  0  0  0  0  0  0  0  0
    8.4980   -4.4839    0.0000 O   0  0  0  0  0  0  0  0  0  0  0  0
    5.9236   -1.7968    0.0000 O   0  0  0  0  0  0  0  0  0  0  0  0
   13.0499    3.8639    0.0000 O   0  0  0  0  0  0  0  0  0  0  0  0
   11.3179    3.8639    0.0000 O   0  0  0  0  0  0  0  0  0  0  0  0
    9.5858   -2.1361    0.0000 C   0  0  3  0  0  0  0  0  0  0  0  0
    8.7768   -2.7239    0.0000 C   0  0  3  0  0  0  0  0  0  0  0  0
   10.3948   -2.7239    0.0000 C   0  0  3  0  0  0  0  0  0  0  0  0
   10.0858   -3.6749    0.0000 C   0  0  0  0  0  0  0  0  0  0  0  0
    9.0858   -3.6749    0.0000 C   0  0  0  0  0  0  0  0  0  0  0  0
    9.5858   -1.1361    0.0000 C   0  0  0  0  0  0  0  0  0  0  0  0
    7.8258   -2.4148    0.0000 C   0  0  0  0  0  0  0  0  0  0  0  0
   10.4518   -0.6361    0.0000 C   0  0  0  0  0  0  0  0  0  0  0  0
    7.0826   -3.0840    0.0000 C   0  0  0  0  0  0  0  0  0  0  0  0
   10.4518    0.3639    0.0000 C   0  0  0  0  0  0  0  0  0  0  0  0
    6.1316   -2.7750    0.0000 C   0  0  0  0  0  0  0  0  0  0  0  0
   11.3179    0.8639    0.0000 C   0  0  0  0  0  0  0  0  0  0  0  0
    5.3884   -3.4441    0.0000 C   0  0  0  0  0  0  0  0  0  0  0  0
    4.4374   -3.1351    0.0000 C   0  0  0  0  0  0  0  0  0  0  0  0
   11.3179    1.8639    0.0000 C   0  0  0  0  0  0  0  0  0  0  0  0
    3.6942   -3.8042    0.0000 C   0  0  0  0  0  0  0  0  0  0  0  0
    2.7431   -3.4952    0.0000 C   0  0  0  0  0  0  0  0  0  0  0  0
   12.1839    2.3639    0.0000 C   0  0  0  0  0  0  0  0  0  0  0  0
    2.0000   -4.1643    0.0000 C   0  0  0  0  0  0  0  0  0  0  0  0
   12.1839    3.3639    0.0000 C   0  0  0  0  0  0  0  0  0  0  0  0
   10.1382   -1.8546    0.0000 H   0  0  0  0  0  0  0  0  0  0  0  0
    8.3384   -3.1623    0.0000 H   0  0  0  0  0  0  0  0  0  0  0  0
   10.8332   -3.1623    0.0000 H   0  0  0  0  0  0  0  0  0  0  0  0
   10.0210   -4.2915    0.0000 H   0  0  0  0  0  0  0  0  0  0  0  0
   10.6923   -3.8038    0.0000 H   0  0  0  0  0  0  0  0  0  0  0  0
    9.3738   -0.5535    0.0000 H   0  0  0  0  0  0  0  0  0  0  0  0
    8.9752   -1.2437    0.0000 H   0  0  0  0  0  0  0  0  0  0  0  0
    7.6968   -1.8084    0.0000 H   0  0  0  0  0  0  0  0  0  0  0  0
   10.9888   -0.9461    0.0000 H   0  0  0  0  0  0  0  0  0  0  0  0
   11.8066   -2.8297    0.0000 H   0  0  0  0  0  0  0  0  0  0  0  0
    7.2115   -3.6904    0.0000 H   0  0  0  0  0  0  0  0  0  0  0  0
    9.9149    0.6739    0.0000 H   0  0  0  0  0  0  0  0  0  0  0  0
   11.5299    0.2813    0.0000 H   0  0  0  0  0  0  0  0  0  0  0  0
   11.9285    0.9716    0.0000 H   0  0  0  0  0  0  0  0  0  0  0  0
    5.0973   -3.9915    0.0000 H   0  0  0  0  0  0  0  0  0  0  0  0
    5.8770   -3.8258    0.0000 H   0  0  0  0  0  0  0  0  0  0  0  0
    4.7284   -2.5876    0.0000 H   0  0  0  0  0  0  0  0  0  0  0  0
    3.9488   -2.7534    0.0000 H   0  0  0  0  0  0  0  0  0  0  0  0
   11.1058    2.4465    0.0000 H   0  0  0  0  0  0  0  0  0  0  0  0
   10.7073    1.7563    0.0000 H   0  0  0  0  0  0  0  0  0  0  0  0
    3.4031   -4.3516    0.0000 H   0  0  0  0  0  0  0  0  0  0  0  0
    4.1828   -4.1859    0.0000 H   0  0  0  0  0  0  0  0  0  0  0  0
    3.0342   -2.9478    0.0000 H   0  0  0  0  0  0  0  0  0  0  0  0
    2.2546   -3.1135    0.0000 H   0  0  0  0  0  0  0  0  0  0  0  0
   12.3960    1.7813    0.0000 H   0  0  0  0  0  0  0  0  0  0  0  0
   12.7945    2.4716    0.0000 H   0  0  0  0  0  0  0  0  0  0  0  0
    1.5851   -3.7036    0.0000 H   0  0  0  0  0  0  0  0  0  0  0  0
    1.5392   -4.5792    0.0000 H   0  0  0  0  0  0  0  0  0  0  0  0
    2.4149   -4.6251    0.0000 H   0  0  0  0  0  0  0  0  0  0  0  0
   13.0499    4.4839    0.0000 H   0  0  0  0  0  0  0  0  0  0  0  0
  1  8  1  0  0  0  0
  1 35  1  0  0  0  0
  2 10  2  0  0  0  0
  3 16  2  0  0  0  0
  4 25  1  0  0  0  0
  4 55  1  0  0  0  0
  5 25  2  0  0  0  0
  6  7  1  0  0  0  0
  6  8  1  0  0  0  0
  6 11  1  0  0  0  0
  6 26  1  0  0  0  0
  7 10  1  0  0  0  0
  7 12  1  0  0  0  0
  7 27  1  0  0  0  0
  8  9  1  0  0  0  0
  8 28  1  0  0  0  0
  9 10  1  0  0  0  0
  9 29  1  0  0  0  0
  9 30  1  0  0  0  0
 11 13  1  0  0  0  0
 11 31  1  0  0  0  0
 11 32  1  0  0  0  0
 12 14  2  3  0  0  0
 12 33  1  0  0  0  0
 13 15  2  3  0  0  0
 13 34  1  0  0  0  0
 14 16  1  0  0  0  0
 14 36  1  0  0  0  0
 15 17  1  0  0  0  0
 15 37  1  0  0  0  0
 16 18  1  0  0  0  0
 17 20  1  0  0  0  0
 17 38  1  0  0  0  0
 17 39  1  0  0  0  0
 18 19  1  0  0  0  0
 18 40  1  0  0  0  0
 18 41  1  0  0  0  0
 19 21  1  0  0  0  0
 19 42  1  0  0  0  0
 19 43  1  0  0  0  0
 20 23  1  0  0  0  0
 20 44  1  0  0  0  0
 20 45  1  0  0  0  0
 21 22  1  0  0  0  0
 21 46  1  0  0  0  0
 21 47  1  0  0  0  0
 22 24  1  0  0  0  0
 22 48  1  0  0  0  0
 22 49  1  0  0  0  0
 23 25  1  0  0  0  0
 23 50  1  0  0  0  0
 23 51  1  0  0  0  0
 24 52  1  0  0  0  0
 24 53  1  0  0  0  0
 24 54  1  0  0  0  0
M  END
> <PUBCHEM_COMPOUND_CID>
526112
> <PUBCHEM_COMPOUND_CANONICALIZED>
1
> <PUBCHEM_CACTVS_COMPLEXITY>
506
> <PUBCHEM_CACTVS_HBOND_ACCEPTOR>
5
> <PUBCHEM_CACTVS_HBOND_DONOR>
2
> <PUBCHEM_CACTVS_ROTATABLE_BOND>
12
> <PUBCHEM_CACTVS_SUBSKEYS>
AAADceB4OAAAAAAAAAAAAAAAAAAAAYAAAAAAAAAAAAAAAAAAAAAAGgAACAAADRSggAICCAAAAgCIAKDSCAAAAAAgAAAICAEAAEgAEBYAAQAAQAAEoAAIAYOKyKAOgAAAAAAAAAAAAAAAAAAAAIAADAAAAA==
> <PUBCHEM_IUPAC_OPENEYE_NAME>
7-[5-hydroxy-3-oxo-2-(3-oxooct-1-enyl)cyclopentyl]hept-5-enoic acid
> <PUBCHEM_IUPAC_CAS_NAME>
7-[5-hydroxy-3-oxo-2-(3-oxooct-1-enyl)cyclopentyl]-5-heptenoic acid
> <PUBCHEM_IUPAC_NAME_MARKUP>
7-[5-hydroxy-3-oxo-2-(3-oxooct-1-enyl)cyclopentyl]hept-5-enoic acid
> <PUBCHEM_IUPAC_NAME>
7-[5-hydroxy-3-oxo-2-(3-oxooct-1-enyl)cyclopentyl]hept-5-enoic acid
> <PUBCHEM_IUPAC_SYSTEMATIC_NAME>
7-[5-oxidanyl-3-oxidanylidene-2-(3-oxidanylideneoct-1-enyl)cyclopentyl]hept-5-enoic acid
> <PUBCHEM_IUPAC_TRADITIONAL_NAME>
7-[5-hydroxy-3-keto-2-(3-ketooct-1-enyl)cyclopentyl]hept-5-enoic acid
> <PUBCHEM_IUPAC_INCHI>
InChI=1S/C20H30O5/c1-2-3-6-9-15(21)12-13-17-16(18(22)14-19(17)23)10-7-4-5-8-11-20(24)25/h4,7,12-13,16-18,22H,2-3,5-6,8-11,14H2,1H3,(H,24,25)
> <PUBCHEM_IUPAC_INCHIKEY>
XEQAHADLFLAPQL-UHFFFAOYSA-N
> <PUBCHEM_XLOGP3_AA>
2.5
> <PUBCHEM_EXACT_MASS>
350.20932405
> <PUBCHEM_MOLECULAR_FORMULA>
C20H30O5
> <PUBCHEM_MOLECULAR_WEIGHT>
350.4
> <PUBCHEM_OPENEYE_CAN_SMILES>
CCCCCC(=O)C=CC1C(C(CC1=O)O)CC=CCCCC(=O)O
> <PUBCHEM_OPENEYE_ISO_SMILES>
CCCCCC(=O)C=CC1C(C(CC1=O)O)CC=CCCCC(=O)O
> <PUBCHEM_CACTVS_TPSA>
91.7
> <PUBCHEM_MONOISOTOPIC_WEIGHT>
350.20932405
> <PUBCHEM_TOTAL_CHARGE>
0
> <PUBCHEM_HEAVY_ATOM_COUNT>
25
> <PUBCHEM_ATOM_DEF_STEREO_COUNT>
0
> <PUBCHEM_ATOM_UDEF_STEREO_COUNT>
3
> <PUBCHEM_BOND_DEF_STEREO_COUNT>
0
> <PUBCHEM_BOND_UDEF_STEREO_COUNT>
2
> <PUBCHEM_ISOTOPIC_ATOM_COUNT>
0
> <PUBCHEM_COMPONENT_COUNT>
1
> <PUBCHEM_CACTVS_TAUTO_COUNT>
-1
> <PUBCHEM_COORDINATE_TYPE>
1
5
255
> <PUBCHEM_BONDANNOTATIONS>
8  1  3
12  14  1
13  15  1
6  11  3
7  12  3
$$$$
