526188
  -OEChem-10302200292D
 16 16  0     1  0  0  0  0  0999 V2000
    3.7601   -0.6056    0.0000 S   0  0  0  0  0  0  0  0  0  0  0  0
    6.2633    0.3423    0.0000 O   0  0  0  0  0  0  0  0  0  0  0  0
    2.9511   -0.0178    0.0000 C   0  0  3  0  0  0  0  0  0  0  0  0
    3.2601    0.9333    0.0000 C   0  0  0  0  0  0  0  0  0  0  0  0
    4.2601    0.9333    0.0000 C   0  0  0  0  0  0  0  0  0  0  0  0
    2.0000   -0.3268    0.0000 C   0  0  0  0  0  0  0  0  0  0  0  0
    4.5691   -0.0178    0.0000 C   0  0  0  0  0  0  0  0  0  0  0  0
    5.5202   -0.3268    0.0000 C   0  0  0  0  0  0  0  0  0  0  0  0
    2.8541   -0.6302    0.0000 H   0  0  0  0  0  0  0  0  0  0  0  0
    3.3249    1.5499    0.0000 H   0  0  0  0  0  0  0  0  0  0  0  0
    2.6536    1.0622    0.0000 H   0  0  0  0  0  0  0  0  0  0  0  0
    4.6245    1.4348    0.0000 H   0  0  0  0  0  0  0  0  0  0  0  0
    1.8084    0.2628    0.0000 H   0  0  0  0  0  0  0  0  0  0  0  0
    1.4103   -0.5184    0.0000 H   0  0  0  0  0  0  0  0  0  0  0  0
    2.1916   -0.9165    0.0000 H   0  0  0  0  0  0  0  0  0  0  0  0
    5.6490   -0.9333    0.0000 H   0  0  0  0  0  0  0  0  0  0  0  0
  1  3  1  0  0  0  0
  1  7  1  0  0  0  0
  2  8  2  0  0  0  0
  3  4  1  0  0  0  0
  3  6  1  0  0  0  0
  3  9  1  0  0  0  0
  4  5  1  0  0  0  0
  4 10  1  0  0  0  0
  4 11  1  0  0  0  0
  5  7  2  0  0  0  0
  5 12  1  0  0  0  0
  6 13  1  0  0  0  0
  6 14  1  0  0  0  0
  6 15  1  0  0  0  0
  7  8  1  0  0  0  0
  8 16  1  0  0  0  0
M  END
> <PUBCHEM_COMPOUND_CID>
526188
> <PUBCHEM_COMPOUND_CANONICALIZED>
1
> <PUBCHEM_CACTVS_COMPLEXITY>
129
> <PUBCHEM_CACTVS_HBOND_ACCEPTOR>
2
> <PUBCHEM_CACTVS_HBOND_DONOR>
0
> <PUBCHEM_CACTVS_ROTATABLE_BOND>
1
> <PUBCHEM_CACTVS_SUBSKEYS>
AAADccBgIABAAAAAAAAAAAAAAAAAAQAAAAAAAAAAAAAAAAAAAAAAGgQAAAAACACkwAKCAAAAAAiIAChSgAAAAAAgABAACAAAAEgAAAAgAQAAAAAAgAAoAYIAAAAAAAAAAAAAAAAAAAAAAAAAAAAAAAAAAA==
> <PUBCHEM_IUPAC_OPENEYE_NAME>
2-methyl-2,3-dihydrothiophene-5-carbaldehyde
> <PUBCHEM_IUPAC_CAS_NAME>
2-methyl-2,3-dihydrothiophene-5-carboxaldehyde
> <PUBCHEM_IUPAC_NAME_MARKUP>
2-methyl-2,3-dihydrothiophene-5-carbaldehyde
> <PUBCHEM_IUPAC_NAME>
2-methyl-2,3-dihydrothiophene-5-carbaldehyde
> <PUBCHEM_IUPAC_SYSTEMATIC_NAME>
2-methyl-2,3-dihydrothiophene-5-carbaldehyde
> <PUBCHEM_IUPAC_TRADITIONAL_NAME>
2-methyl-2,3-dihydrothiophene-5-carbaldehyde
> <PUBCHEM_IUPAC_INCHI>
InChI=1S/C6H8OS/c1-5-2-3-6(4-7)8-5/h3-5H,2H2,1H3
> <PUBCHEM_IUPAC_INCHIKEY>
ZRBOFSXEZKEMKN-UHFFFAOYSA-N
> <PUBCHEM_XLOGP3_AA>
1.4
> <PUBCHEM_EXACT_MASS>
128.02958605
> <PUBCHEM_MOLECULAR_FORMULA>
C6H8OS
> <PUBCHEM_MOLECULAR_WEIGHT>
128.19
> <PUBCHEM_OPENEYE_CAN_SMILES>
CC1CC=C(S1)C=O
> <PUBCHEM_OPENEYE_ISO_SMILES>
CC1CC=C(S1)C=O
> <PUBCHEM_CACTVS_TPSA>
42.4
> <PUBCHEM_MONOISOTOPIC_WEIGHT>
128.02958605
> <PUBCHEM_TOTAL_CHARGE>
0
> <PUBCHEM_HEAVY_ATOM_COUNT>
8
> <PUBCHEM_ATOM_DEF_STEREO_COUNT>
0
> <PUBCHEM_ATOM_UDEF_STEREO_COUNT>
1
> <PUBCHEM_BOND_DEF_STEREO_COUNT>
0
> <PUBCHEM_BOND_UDEF_STEREO_COUNT>
0
> <PUBCHEM_ISOTOPIC_ATOM_COUNT>
0
> <PUBCHEM_COMPONENT_COUNT>
1
> <PUBCHEM_CACTVS_TAUTO_COUNT>
-1
> <PUBCHEM_COORDINATE_TYPE>
1
5
255
> <PUBCHEM_BONDANNOTATIONS>
3  6  3
$$$$
