526154
  -OEChem-10302200292D
 93 93  0     1  0  0  0  0  0999 V2000
    2.7431   -2.6128    0.0000 Si  0  0  0  0  0  0  0  0  0  0  0  0
    6.9784    2.3351    0.0000 Si  0  0  0  0  0  0  0  0  0  0  0  0
   13.7832   -3.3841    0.0000 Si  0  0  0  0  0  0  0  0  0  0  0  0
    3.4863   -1.9436    0.0000 O   0  0  0  0  0  0  0  0  0  0  0  0
    6.3342   -4.0127    0.0000 O   0  0  0  0  0  0  0  0  0  0  0  0
    6.9784    1.3351    0.0000 O   0  0  0  0  0  0  0  0  0  0  0  0
   12.8322   -3.6931    0.0000 O   0  0  0  0  0  0  0  0  0  0  0  0
   12.2970   -2.0458    0.0000 O   0  0  0  0  0  0  0  0  0  0  0  0
    5.2464   -1.6649    0.0000 C   0  0  3  0  0  0  0  0  0  0  0  0
    6.0554   -2.2526    0.0000 C   0  0  3  0  0  0  0  0  0  0  0  0
    4.4374   -2.2526    0.0000 C   0  0  3  0  0  0  0  0  0  0  0  0
    4.7464   -3.2037    0.0000 C   0  0  0  0  0  0  0  0  0  0  0  0
    5.7464   -3.2037    0.0000 C   0  0  0  0  0  0  0  0  0  0  0  0
    7.0064   -1.9436    0.0000 C   0  0  0  0  0  0  0  0  0  0  0  0
    5.2464   -0.6649    0.0000 C   0  0  0  0  0  0  0  0  0  0  0  0
    6.1124   -0.1649    0.0000 C   0  0  0  0  0  0  0  0  0  0  0  0
    7.7496   -2.6128    0.0000 C   0  0  0  0  0  0  0  0  0  0  0  0
    6.1124    0.8351    0.0000 C   0  0  3  0  0  0  0  0  0  0  0  0
    2.0000   -3.2819    0.0000 C   0  0  0  0  0  0  0  0  0  0  0  0
    2.0740   -1.8696    0.0000 C   0  0  0  0  0  0  0  0  0  0  0  0
    3.4123   -3.3559    0.0000 C   0  0  0  0  0  0  0  0  0  0  0  0
    5.2464    1.3351    0.0000 C   0  0  0  0  0  0  0  0  0  0  0  0
    8.7006   -2.3037    0.0000 C   0  0  0  0  0  0  0  0  0  0  0  0
    5.2464    2.3351    0.0000 C   0  0  0  0  0  0  0  0  0  0  0  0
    9.4438   -2.9729    0.0000 C   0  0  0  0  0  0  0  0  0  0  0  0
    4.3803    2.8351    0.0000 C   0  0  0  0  0  0  0  0  0  0  0  0
    6.9784    3.3351    0.0000 C   0  0  0  0  0  0  0  0  0  0  0  0
    7.9784    2.3351    0.0000 C   0  0  0  0  0  0  0  0  0  0  0  0
    5.9784    2.3351    0.0000 C   0  0  0  0  0  0  0  0  0  0  0  0
   10.3948   -2.6639    0.0000 C   0  0  0  0  0  0  0  0  0  0  0  0
    4.3803    3.8351    0.0000 C   0  0  0  0  0  0  0  0  0  0  0  0
   11.1380   -3.3330    0.0000 C   0  0  0  0  0  0  0  0  0  0  0  0
    3.5143    4.3351    0.0000 C   0  0  0  0  0  0  0  0  0  0  0  0
   12.0890   -3.0240    0.0000 C   0  0  0  0  0  0  0  0  0  0  0  0
   14.7343   -3.0751    0.0000 C   0  0  0  0  0  0  0  0  0  0  0  0
   14.0923   -4.3351    0.0000 C   0  0  0  0  0  0  0  0  0  0  0  0
   13.4742   -2.4330    0.0000 C   0  0  0  0  0  0  0  0  0  0  0  0
    5.7988   -1.3834    0.0000 H   0  0  0  0  0  0  0  0  0  0  0  0
    6.4938   -2.6910    0.0000 H   0  0  0  0  0  0  0  0  0  0  0  0
    3.9989   -2.6910    0.0000 H   0  0  0  0  0  0  0  0  0  0  0  0
    4.1399   -3.3326    0.0000 H   0  0  0  0  0  0  0  0  0  0  0  0
    4.8112   -3.8203    0.0000 H   0  0  0  0  0  0  0  0  0  0  0  0
    7.4950   -1.5619    0.0000 H   0  0  0  0  0  0  0  0  0  0  0  0
    6.7154   -1.3962    0.0000 H   0  0  0  0  0  0  0  0  0  0  0  0
    4.7094   -0.3549    0.0000 H   0  0  0  0  0  0  0  0  0  0  0  0
    6.6493   -0.4749    0.0000 H   0  0  0  0  0  0  0  0  0  0  0  0
    7.6207   -3.2192    0.0000 H   0  0  0  0  0  0  0  0  0  0  0  0
    6.1124    1.4551    0.0000 H   0  0  0  0  0  0  0  0  0  0  0  0
    1.5851   -2.8211    0.0000 H   0  0  0  0  0  0  0  0  0  0  0  0
    1.5392   -3.6968    0.0000 H   0  0  0  0  0  0  0  0  0  0  0  0
    2.4149   -3.7426    0.0000 H   0  0  0  0  0  0  0  0  0  0  0  0
    2.5348   -1.4548    0.0000 H   0  0  0  0  0  0  0  0  0  0  0  0
    1.6592   -1.4089    0.0000 H   0  0  0  0  0  0  0  0  0  0  0  0
    1.6133   -2.2845    0.0000 H   0  0  0  0  0  0  0  0  0  0  0  0
    2.9515   -3.7708    0.0000 H   0  0  0  0  0  0  0  0  0  0  0  0
    3.8271   -3.8166    0.0000 H   0  0  0  0  0  0  0  0  0  0  0  0
    3.8730   -2.9410    0.0000 H   0  0  0  0  0  0  0  0  0  0  0  0
    4.6358    1.4428    0.0000 H   0  0  0  0  0  0  0  0  0  0  0  0
    5.0343    0.7525    0.0000 H   0  0  0  0  0  0  0  0  0  0  0  0
    8.8295   -1.6973    0.0000 H   0  0  0  0  0  0  0  0  0  0  0  0
    5.8569    2.2275    0.0000 H   0  0  0  0  0  0  0  0  0  0  0  0
    5.4584    2.9178    0.0000 H   0  0  0  0  0  0  0  0  0  0  0  0
    8.9552   -3.3546    0.0000 H   0  0  0  0  0  0  0  0  0  0  0  0
    9.7349   -3.5203    0.0000 H   0  0  0  0  0  0  0  0  0  0  0  0
    3.7698    2.9428    0.0000 H   0  0  0  0  0  0  0  0  0  0  0  0
    4.1683    2.2525    0.0000 H   0  0  0  0  0  0  0  0  0  0  0  0
    7.5984    3.3351    0.0000 H   0  0  0  0  0  0  0  0  0  0  0  0
    6.9784    3.9551    0.0000 H   0  0  0  0  0  0  0  0  0  0  0  0
    6.3584    3.3351    0.0000 H   0  0  0  0  0  0  0  0  0  0  0  0
    7.9784    1.7151    0.0000 H   0  0  0  0  0  0  0  0  0  0  0  0
    8.5984    2.3351    0.0000 H   0  0  0  0  0  0  0  0  0  0  0  0
    7.9784    2.9551    0.0000 H   0  0  0  0  0  0  0  0  0  0  0  0
    5.9784    2.9551    0.0000 H   0  0  0  0  0  0  0  0  0  0  0  0
    5.3584    2.3351    0.0000 H   0  0  0  0  0  0  0  0  0  0  0  0
    5.9784    1.7151    0.0000 H   0  0  0  0  0  0  0  0  0  0  0  0
   10.8834   -2.2822    0.0000 H   0  0  0  0  0  0  0  0  0  0  0  0
   10.1038   -2.1164    0.0000 H   0  0  0  0  0  0  0  0  0  0  0  0
    4.9909    3.7275    0.0000 H   0  0  0  0  0  0  0  0  0  0  0  0
    4.5924    4.4178    0.0000 H   0  0  0  0  0  0  0  0  0  0  0  0
   10.6494   -3.7147    0.0000 H   0  0  0  0  0  0  0  0  0  0  0  0
   11.4291   -3.8804    0.0000 H   0  0  0  0  0  0  0  0  0  0  0  0
    3.8243    4.8721    0.0000 H   0  0  0  0  0  0  0  0  0  0  0  0
    2.9774    4.6451    0.0000 H   0  0  0  0  0  0  0  0  0  0  0  0
    3.2043    3.7982    0.0000 H   0  0  0  0  0  0  0  0  0  0  0  0
   14.9259   -3.6647    0.0000 H   0  0  0  0  0  0  0  0  0  0  0  0
   15.3240   -2.8835    0.0000 H   0  0  0  0  0  0  0  0  0  0  0  0
   14.5427   -2.4854    0.0000 H   0  0  0  0  0  0  0  0  0  0  0  0
   13.5026   -4.5267    0.0000 H   0  0  0  0  0  0  0  0  0  0  0  0
   14.2838   -4.9248    0.0000 H   0  0  0  0  0  0  0  0  0  0  0  0
   14.6819   -4.1436    0.0000 H   0  0  0  0  0  0  0  0  0  0  0  0
   14.0639   -2.2414    0.0000 H   0  0  0  0  0  0  0  0  0  0  0  0
   13.2826   -1.8434    0.0000 H   0  0  0  0  0  0  0  0  0  0  0  0
   12.8846   -2.6246    0.0000 H   0  0  0  0  0  0  0  0  0  0  0  0
  1  4  1  0  0  0  0
  1 19  1  0  0  0  0
  1 20  1  0  0  0  0
  1 21  1  0  0  0  0
  2  6  1  0  0  0  0
  2 27  1  0  0  0  0
  2 28  1  0  0  0  0
  2 29  1  0  0  0  0
  3  7  1  0  0  0  0
  3 35  1  0  0  0  0
  3 36  1  0  0  0  0
  3 37  1  0  0  0  0
  4 11  1  0  0  0  0
  5 13  2  0  0  0  0
  6 18  1  0  0  0  0
  7 34  1  0  0  0  0
  8 34  2  0  0  0  0
  9 10  1  0  0  0  0
  9 11  1  0  0  0  0
  9 15  1  0  0  0  0
  9 38  1  0  0  0  0
 10 13  1  0  0  0  0
 10 14  1  0  0  0  0
 10 39  1  0  0  0  0
 11 12  1  0  0  0  0
 11 40  1  0  0  0  0
 12 13  1  0  0  0  0
 12 41  1  0  0  0  0
 12 42  1  0  0  0  0
 14 17  1  0  0  0  0
 14 43  1  0  0  0  0
 14 44  1  0  0  0  0
 15 16  2  3  0  0  0
 15 45  1  0  0  0  0
 16 18  1  0  0  0  0
 16 46  1  0  0  0  0
 17 23  2  3  0  0  0
 17 47  1  0  0  0  0
 18 22  1  0  0  0  0
 18 48  1  0  0  0  0
 19 49  1  0  0  0  0
 19 50  1  0  0  0  0
 19 51  1  0  0  0  0
 20 52  1  0  0  0  0
 20 53  1  0  0  0  0
 20 54  1  0  0  0  0
 21 55  1  0  0  0  0
 21 56  1  0  0  0  0
 21 57  1  0  0  0  0
 22 24  1  0  0  0  0
 22 58  1  0  0  0  0
 22 59  1  0  0  0  0
 23 25  1  0  0  0  0
 23 60  1  0  0  0  0
 24 26  1  0  0  0  0
 24 61  1  0  0  0  0
 24 62  1  0  0  0  0
 25 30  1  0  0  0  0
 25 63  1  0  0  0  0
 25 64  1  0  0  0  0
 26 31  1  0  0  0  0
 26 65  1  0  0  0  0
 26 66  1  0  0  0  0
 27 67  1  0  0  0  0
 27 68  1  0  0  0  0
 27 69  1  0  0  0  0
 28 70  1  0  0  0  0
 28 71  1  0  0  0  0
 28 72  1  0  0  0  0
 29 73  1  0  0  0  0
 29 74  1  0  0  0  0
 29 75  1  0  0  0  0
 30 32  1  0  0  0  0
 30 76  1  0  0  0  0
 30 77  1  0  0  0  0
 31 33  1  0  0  0  0
 31 78  1  0  0  0  0
 31 79  1  0  0  0  0
 32 34  1  0  0  0  0
 32 80  1  0  0  0  0
 32 81  1  0  0  0  0
 33 82  1  0  0  0  0
 33 83  1  0  0  0  0
 33 84  1  0  0  0  0
 35 85  1  0  0  0  0
 35 86  1  0  0  0  0
 35 87  1  0  0  0  0
 36 88  1  0  0  0  0
 36 89  1  0  0  0  0
 36 90  1  0  0  0  0
 37 91  1  0  0  0  0
 37 92  1  0  0  0  0
 37 93  1  0  0  0  0
M  END
> <PUBCHEM_COMPOUND_CID>
526154
> <PUBCHEM_COMPOUND_CANONICALIZED>
1
> <PUBCHEM_CACTVS_COMPLEXITY>
759
> <PUBCHEM_CACTVS_HBOND_ACCEPTOR>
5
> <PUBCHEM_CACTVS_HBOND_DONOR>
0
> <PUBCHEM_CACTVS_ROTATABLE_BOND>
18
> <PUBCHEM_CACTVS_SUBSKEYS>
AAADcfB4OAwAAAAAAAAAAAAAAAAAAYAAAAAAAAAAAAAAAAAAAAAAGhAAAEAADRSggAJCCAAAAAGIAKDSCAAAAAAgAAAICAEAAAgABBYAAQAAEAAE4AAIAAOKyICOgAAAAAAAAAAAAAAAAAAAAIAADAAAAA==
> <PUBCHEM_IUPAC_OPENEYE_NAME>
trimethylsilyl 7-[5-oxo-3-trimethylsilyloxy-2-(3-trimethylsilyloxyoct-1-enyl)cyclopentyl]hept-5-enoate
> <PUBCHEM_IUPAC_CAS_NAME>
7-[5-oxo-3-trimethylsilyloxy-2-(3-trimethylsilyloxyoct-1-enyl)cyclopentyl]-5-heptenoic acid trimethylsilyl ester
> <PUBCHEM_IUPAC_NAME_MARKUP>
trimethylsilyl 7-[5-oxo-3-trimethylsilyloxy-2-(3-trimethylsilyloxyoct-1-enyl)cyclopentyl]hept-5-enoate
> <PUBCHEM_IUPAC_NAME>
trimethylsilyl 7-[5-oxo-3-trimethylsilyloxy-2-(3-trimethylsilyloxyoct-1-enyl)cyclopentyl]hept-5-enoate
> <PUBCHEM_IUPAC_SYSTEMATIC_NAME>
trimethylsilyl 7-[5-oxidanylidene-3-trimethylsilyloxy-2-(3-trimethylsilyloxyoct-1-enyl)cyclopentyl]hept-5-enoate
> <PUBCHEM_IUPAC_TRADITIONAL_NAME>
7-[5-keto-3-trimethylsilyloxy-2-(3-trimethylsilyloxyoct-1-enyl)cyclopentyl]hept-5-enoic acid trimethylsilyl ester
> <PUBCHEM_IUPAC_INCHI>
InChI=1S/C29H56O5Si3/c1-11-12-15-18-24(32-35(2,3)4)21-22-26-25(27(30)23-28(26)33-36(5,6)7)19-16-13-14-17-20-29(31)34-37(8,9)10/h13,16,21-22,24-26,28H,11-12,14-15,17-20,23H2,1-10H3
> <PUBCHEM_IUPAC_INCHIKEY>
UHIZANMZAQLJAR-UHFFFAOYSA-N
> <PUBCHEM_EXACT_MASS>
568.34355449
> <PUBCHEM_MOLECULAR_FORMULA>
C29H56O5Si3
> <PUBCHEM_MOLECULAR_WEIGHT>
569.0
> <PUBCHEM_OPENEYE_CAN_SMILES>
CCCCCC(C=CC1C(CC(=O)C1CC=CCCCC(=O)O[Si](C)(C)C)O[Si](C)(C)C)O[Si](C)(C)C
> <PUBCHEM_OPENEYE_ISO_SMILES>
CCCCCC(C=CC1C(CC(=O)C1CC=CCCCC(=O)O[Si](C)(C)C)O[Si](C)(C)C)O[Si](C)(C)C
> <PUBCHEM_CACTVS_TPSA>
61.8
> <PUBCHEM_MONOISOTOPIC_WEIGHT>
568.34355449
> <PUBCHEM_TOTAL_CHARGE>
0
> <PUBCHEM_HEAVY_ATOM_COUNT>
37
> <PUBCHEM_ATOM_DEF_STEREO_COUNT>
0
> <PUBCHEM_ATOM_UDEF_STEREO_COUNT>
4
> <PUBCHEM_BOND_DEF_STEREO_COUNT>
0
> <PUBCHEM_BOND_UDEF_STEREO_COUNT>
2
> <PUBCHEM_ISOTOPIC_ATOM_COUNT>
0
> <PUBCHEM_COMPONENT_COUNT>
1
> <PUBCHEM_CACTVS_TAUTO_COUNT>
-1
> <PUBCHEM_COORDINATE_TYPE>
1
5
255
> <PUBCHEM_BONDANNOTATIONS>
10  14  3
15  16  1
17  23  1
18  22  3
11  4  3
9  15  3
$$$$
