526191
  -OEChem-10302200292D
 14 14  0     1  0  0  0  0  0999 V2000
    2.8090   -0.6056    0.0000 S   0  0  0  0  0  0  0  0  0  0  0  0
    4.5691   -0.3268    0.0000 S   0  0  0  0  0  0  0  0  0  0  0  0
    3.3090    0.9333    0.0000 C   0  0  0  0  0  0  0  0  0  0  0  0
    2.3090    0.9333    0.0000 C   0  0  0  0  0  0  0  0  0  0  0  0
    3.6180   -0.0178    0.0000 C   0  0  3  0  0  0  0  0  0  0  0  0
    2.0000   -0.0178    0.0000 C   0  0  0  0  0  0  0  0  0  0  0  0
    3.9155    1.0622    0.0000 H   0  0  0  0  0  0  0  0  0  0  0  0
    3.2442    1.5499    0.0000 H   0  0  0  0  0  0  0  0  0  0  0  0
    2.3738    1.5499    0.0000 H   0  0  0  0  0  0  0  0  0  0  0  0
    1.7026    1.0622    0.0000 H   0  0  0  0  0  0  0  0  0  0  0  0
    3.7150   -0.6302    0.0000 H   0  0  0  0  0  0  0  0  0  0  0  0
    1.4336    0.2344    0.0000 H   0  0  0  0  0  0  0  0  0  0  0  0
    1.6900   -0.5547    0.0000 H   0  0  0  0  0  0  0  0  0  0  0  0
    4.6980   -0.9333    0.0000 H   0  0  0  0  0  0  0  0  0  0  0  0
  1  5  1  0  0  0  0
  1  6  1  0  0  0  0
  2  5  1  0  0  0  0
  2 14  1  0  0  0  0
  3  4  1  0  0  0  0
  3  5  1  0  0  0  0
  3  7  1  0  0  0  0
  3  8  1  0  0  0  0
  4  6  1  0  0  0  0
  4  9  1  0  0  0  0
  4 10  1  0  0  0  0
  5 11  1  0  0  0  0
  6 12  1  0  0  0  0
  6 13  1  0  0  0  0
M  END
> <PUBCHEM_COMPOUND_CID>
526191
> <PUBCHEM_COMPOUND_CANONICALIZED>
1
> <PUBCHEM_CACTVS_COMPLEXITY>
44.8
> <PUBCHEM_CACTVS_HBOND_ACCEPTOR>
2
> <PUBCHEM_CACTVS_HBOND_DONOR>
1
> <PUBCHEM_CACTVS_ROTATABLE_BOND>
0
> <PUBCHEM_CACTVS_SUBSKEYS>
AAADccBgAABgAAAAAAAAAAAAAAAAASAAAAAAAAAAAAAAAAAAAAAAGAQAAAAACACEQACAAAAAAAwAAAAAAAAAAQAAABAAAAAAAAAAAAAgAAAAAAAAAAAgAAAAAAAAAAAAAAAAAAAAAAAAAAAAAAAAAAAAAA==
> <PUBCHEM_IUPAC_OPENEYE_NAME>
tetrahydrothiophene-2-thiol
> <PUBCHEM_IUPAC_CAS_NAME>
2-thiolanethiol
> <PUBCHEM_IUPAC_NAME_MARKUP>
thiolane-2-thiol
> <PUBCHEM_IUPAC_NAME>
thiolane-2-thiol
> <PUBCHEM_IUPAC_SYSTEMATIC_NAME>
thiolane-2-thiol
> <PUBCHEM_IUPAC_TRADITIONAL_NAME>
tetrahydrothiophene-2-thiol
> <PUBCHEM_IUPAC_INCHI>
InChI=1S/C4H8S2/c5-4-2-1-3-6-4/h4-5H,1-3H2
> <PUBCHEM_IUPAC_INCHIKEY>
MBURDTXKYKCZEZ-UHFFFAOYSA-N
> <PUBCHEM_XLOGP3_AA>
1.8
> <PUBCHEM_EXACT_MASS>
120.00674260
> <PUBCHEM_MOLECULAR_FORMULA>
C4H8S2
> <PUBCHEM_MOLECULAR_WEIGHT>
120.2
> <PUBCHEM_OPENEYE_CAN_SMILES>
C1CC(SC1)S
> <PUBCHEM_OPENEYE_ISO_SMILES>
C1CC(SC1)S
> <PUBCHEM_CACTVS_TPSA>
26.3
> <PUBCHEM_MONOISOTOPIC_WEIGHT>
120.00674260
> <PUBCHEM_TOTAL_CHARGE>
0
> <PUBCHEM_HEAVY_ATOM_COUNT>
6
> <PUBCHEM_ATOM_DEF_STEREO_COUNT>
0
> <PUBCHEM_ATOM_UDEF_STEREO_COUNT>
1
> <PUBCHEM_BOND_DEF_STEREO_COUNT>
0
> <PUBCHEM_BOND_UDEF_STEREO_COUNT>
0
> <PUBCHEM_ISOTOPIC_ATOM_COUNT>
0
> <PUBCHEM_COMPONENT_COUNT>
1
> <PUBCHEM_CACTVS_TAUTO_COUNT>
-1
> <PUBCHEM_COORDINATE_TYPE>
1
5
255
> <PUBCHEM_BONDANNOTATIONS>
5  2  3
$$$$
