526205
  -OEChem-10302200292D
 42 42  0     1  0  0  0  0  0999 V2000
    2.8660    1.0600    0.0000 O   0  0  0  0  0  0  0  0  0  0  0  0
    2.8660   -1.9400    0.0000 O   0  0  0  0  0  0  0  0  0  0  0  0
    2.0000   -2.4400    0.0000 O   0  0  0  0  0  0  0  0  0  0  0  0
    4.5981    2.0600    0.0000 C   0  0  0  0  0  0  0  0  0  0  0  0
    4.5981    1.0600    0.0000 C   0  0  0  0  0  0  0  0  0  0  0  0
    6.3301   -0.9400    0.0000 C   0  0  3  0  0  0  0  0  0  0  0  0
    5.4641   -0.4400    0.0000 C   0  0  0  0  0  0  0  0  0  0  0  0
    5.4641    0.5600    0.0000 C   0  0  0  0  0  0  0  0  0  0  0  0
    3.7320    0.5600    0.0000 C   0  0  0  0  0  0  0  0  0  0  0  0
    4.5981    3.0600    0.0000 C   0  0  0  0  0  0  0  0  0  0  0  0
    5.5981    2.0600    0.0000 C   0  0  0  0  0  0  0  0  0  0  0  0
    3.5981    2.0600    0.0000 C   0  0  0  0  0  0  0  0  0  0  0  0
    6.3301   -1.9400    0.0000 C   0  0  0  0  0  0  0  0  0  0  0  0
    3.7320   -0.4400    0.0000 C   0  0  0  0  0  0  0  0  0  0  0  0
    4.5981   -0.9400    0.0000 C   0  0  0  0  0  0  0  0  0  0  0  0
    7.1962   -0.4400    0.0000 C   0  0  0  0  0  0  0  0  0  0  0  0
    2.8660   -0.9400    0.0000 C   0  0  0  0  0  0  0  0  0  0  0  0
    7.1962   -2.4400    0.0000 C   0  0  0  0  0  0  0  0  0  0  0  0
    6.8671   -1.2500    0.0000 H   0  0  0  0  0  0  0  0  0  0  0  0
    6.0010    0.8700    0.0000 H   0  0  0  0  0  0  0  0  0  0  0  0
    5.2181    3.0600    0.0000 H   0  0  0  0  0  0  0  0  0  0  0  0
    4.5981    3.6800    0.0000 H   0  0  0  0  0  0  0  0  0  0  0  0
    3.9781    3.0600    0.0000 H   0  0  0  0  0  0  0  0  0  0  0  0
    5.5981    1.4400    0.0000 H   0  0  0  0  0  0  0  0  0  0  0  0
    6.2181    2.0600    0.0000 H   0  0  0  0  0  0  0  0  0  0  0  0
    5.5981    2.6800    0.0000 H   0  0  0  0  0  0  0  0  0  0  0  0
    3.5981    2.6800    0.0000 H   0  0  0  0  0  0  0  0  0  0  0  0
    2.9781    2.0600    0.0000 H   0  0  0  0  0  0  0  0  0  0  0  0
    3.5981    1.4400    0.0000 H   0  0  0  0  0  0  0  0  0  0  0  0
    5.7196   -1.8323    0.0000 H   0  0  0  0  0  0  0  0  0  0  0  0
    6.1181   -2.5226    0.0000 H   0  0  0  0  0  0  0  0  0  0  0  0
    4.5981   -1.5600    0.0000 H   0  0  0  0  0  0  0  0  0  0  0  0
    7.5062   -0.9769    0.0000 H   0  0  0  0  0  0  0  0  0  0  0  0
    7.7331   -0.1300    0.0000 H   0  0  0  0  0  0  0  0  0  0  0  0
    6.8862    0.0969    0.0000 H   0  0  0  0  0  0  0  0  0  0  0  0
    2.6540   -0.3574    0.0000 H   0  0  0  0  0  0  0  0  0  0  0  0
    2.2554   -1.0477    0.0000 H   0  0  0  0  0  0  0  0  0  0  0  0
    6.8862   -2.9769    0.0000 H   0  0  0  0  0  0  0  0  0  0  0  0
    7.7331   -2.7500    0.0000 H   0  0  0  0  0  0  0  0  0  0  0  0
    7.5062   -1.9031    0.0000 H   0  0  0  0  0  0  0  0  0  0  0  0
    2.3291    0.7500    0.0000 H   0  0  0  0  0  0  0  0  0  0  0  0
    2.0000   -3.0600    0.0000 H   0  0  0  0  0  0  0  0  0  0  0  0
  1  9  1  0  0  0  0
  1 41  1  0  0  0  0
  2  3  1  0  0  0  0
  2 17  1  0  0  0  0
  3 42  1  0  0  0  0
  4  5  1  0  0  0  0
  4 10  1  0  0  0  0
  4 11  1  0  0  0  0
  4 12  1  0  0  0  0
  5  8  2  0  0  0  0
  5  9  1  0  0  0  0
  6  7  1  0  0  0  0
  6 13  1  0  0  0  0
  6 16  1  0  0  0  0
  6 19  1  0  0  0  0
  7  8  1  0  0  0  0
  7 15  2  0  0  0  0
  8 20  1  0  0  0  0
  9 14  2  0  0  0  0
 10 21  1  0  0  0  0
 10 22  1  0  0  0  0
 10 23  1  0  0  0  0
 11 24  1  0  0  0  0
 11 25  1  0  0  0  0
 11 26  1  0  0  0  0
 12 27  1  0  0  0  0
 12 28  1  0  0  0  0
 12 29  1  0  0  0  0
 13 18  1  0  0  0  0
 13 30  1  0  0  0  0
 13 31  1  0  0  0  0
 14 15  1  0  0  0  0
 14 17  1  0  0  0  0
 15 32  1  0  0  0  0
 16 33  1  0  0  0  0
 16 34  1  0  0  0  0
 16 35  1  0  0  0  0
 17 36  1  0  0  0  0
 17 37  1  0  0  0  0
 18 38  1  0  0  0  0
 18 39  1  0  0  0  0
 18 40  1  0  0  0  0
M  END
> <PUBCHEM_COMPOUND_CID>
526205
> <PUBCHEM_COMPOUND_CANONICALIZED>
1
> <PUBCHEM_CACTVS_COMPLEXITY>
247
> <PUBCHEM_CACTVS_HBOND_ACCEPTOR>
3
> <PUBCHEM_CACTVS_HBOND_DONOR>
2
> <PUBCHEM_CACTVS_ROTATABLE_BOND>
5
> <PUBCHEM_CACTVS_SUBSKEYS>
AAADceBwMAAAAAAAAAAAAAAAAAAAAAAAAAAwAAAAAAAAAAABAAAAGgAADAAADwSgmAIyBoAAAgCAAiBCAAACAAAgIAAAiAAECIgIJyKCERKAcAAlwBEImAeAwPAPoAACAAAIAABAAAQAABAAAAAAAAAAAA==
> <PUBCHEM_IUPAC_OPENEYE_NAME>
2-tert-butyl-6-(hydroperoxymethyl)-4-sec-butyl-phenol
> <PUBCHEM_IUPAC_CAS_NAME>
4-butan-2-yl-2-tert-butyl-6-(hydroperoxymethyl)phenol
> <PUBCHEM_IUPAC_NAME_MARKUP>
4-butan-2-yl-2-<I>tert</I>-butyl-6-(hydroperoxymethyl)phenol
> <PUBCHEM_IUPAC_NAME>
4-butan-2-yl-2-tert-butyl-6-(hydroperoxymethyl)phenol
> <PUBCHEM_IUPAC_SYSTEMATIC_NAME>
4-butan-2-yl-2-tert-butyl-6-(dioxidanylmethyl)phenol
> <PUBCHEM_IUPAC_TRADITIONAL_NAME>
2-tert-butyl-6-(hydroperoxymethyl)-4-sec-butyl-phenol
> <PUBCHEM_IUPAC_INCHI>
InChI=1S/C15H24O3/c1-6-10(2)11-7-12(9-18-17)14(16)13(8-11)15(3,4)5/h7-8,10,16-17H,6,9H2,1-5H3
> <PUBCHEM_IUPAC_INCHIKEY>
HVMLPRKOWGHNKO-UHFFFAOYSA-N
> <PUBCHEM_XLOGP3_AA>
4.1
> <PUBCHEM_EXACT_MASS>
252.17254462
> <PUBCHEM_MOLECULAR_FORMULA>
C15H24O3
> <PUBCHEM_MOLECULAR_WEIGHT>
252.35
> <PUBCHEM_OPENEYE_CAN_SMILES>
CCC(C)C1=CC(=C(C(=C1)C(C)(C)C)O)COO
> <PUBCHEM_OPENEYE_ISO_SMILES>
CCC(C)C1=CC(=C(C(=C1)C(C)(C)C)O)COO
> <PUBCHEM_CACTVS_TPSA>
49.7
> <PUBCHEM_MONOISOTOPIC_WEIGHT>
252.17254462
> <PUBCHEM_TOTAL_CHARGE>
0
> <PUBCHEM_HEAVY_ATOM_COUNT>
18
> <PUBCHEM_ATOM_DEF_STEREO_COUNT>
0
> <PUBCHEM_ATOM_UDEF_STEREO_COUNT>
1
> <PUBCHEM_BOND_DEF_STEREO_COUNT>
0
> <PUBCHEM_BOND_UDEF_STEREO_COUNT>
0
> <PUBCHEM_ISOTOPIC_ATOM_COUNT>
0
> <PUBCHEM_COMPONENT_COUNT>
1
> <PUBCHEM_CACTVS_TAUTO_COUNT>
-1
> <PUBCHEM_COORDINATE_TYPE>
1
5
255
> <PUBCHEM_BONDANNOTATIONS>
14  15  8
5  8  8
5  9  8
6  16  3
7  15  8
7  8  8
9  14  8
$$$$
