526206
  -OEChem-10302200292D
 41 41  0     1  0  0  0  0  0999 V2000
    2.5369    0.7500    0.0000 O   0  0  0  0  0  0  0  0  0  0  0  0
    2.5369   -2.2500    0.0000 O   0  0  0  0  0  0  0  0  0  0  0  0
    4.2690    1.7500    0.0000 C   0  0  0  0  0  0  0  0  0  0  0  0
    4.2690    0.7500    0.0000 C   0  0  0  0  0  0  0  0  0  0  0  0
    6.0010   -1.2500    0.0000 C   0  0  3  0  0  0  0  0  0  0  0  0
    5.1350   -0.7500    0.0000 C   0  0  0  0  0  0  0  0  0  0  0  0
    5.1350    0.2500    0.0000 C   0  0  0  0  0  0  0  0  0  0  0  0
    3.4030    0.2500    0.0000 C   0  0  0  0  0  0  0  0  0  0  0  0
    4.2690    2.7500    0.0000 C   0  0  0  0  0  0  0  0  0  0  0  0
    5.2690    1.7500    0.0000 C   0  0  0  0  0  0  0  0  0  0  0  0
    3.2690    1.7500    0.0000 C   0  0  0  0  0  0  0  0  0  0  0  0
    6.0010   -2.2500    0.0000 C   0  0  0  0  0  0  0  0  0  0  0  0
    3.4030   -0.7500    0.0000 C   0  0  0  0  0  0  0  0  0  0  0  0
    4.2690   -1.2500    0.0000 C   0  0  0  0  0  0  0  0  0  0  0  0
    6.8671   -0.7500    0.0000 C   0  0  0  0  0  0  0  0  0  0  0  0
    2.5369   -1.2500    0.0000 C   0  0  0  0  0  0  0  0  0  0  0  0
    6.8671   -2.7500    0.0000 C   0  0  0  0  0  0  0  0  0  0  0  0
    6.5380   -1.5600    0.0000 H   0  0  0  0  0  0  0  0  0  0  0  0
    5.6720    0.5600    0.0000 H   0  0  0  0  0  0  0  0  0  0  0  0
    4.8890    2.7500    0.0000 H   0  0  0  0  0  0  0  0  0  0  0  0
    4.2690    3.3700    0.0000 H   0  0  0  0  0  0  0  0  0  0  0  0
    3.6490    2.7500    0.0000 H   0  0  0  0  0  0  0  0  0  0  0  0
    5.2690    1.1300    0.0000 H   0  0  0  0  0  0  0  0  0  0  0  0
    5.8890    1.7500    0.0000 H   0  0  0  0  0  0  0  0  0  0  0  0
    5.2690    2.3700    0.0000 H   0  0  0  0  0  0  0  0  0  0  0  0
    3.2690    2.3700    0.0000 H   0  0  0  0  0  0  0  0  0  0  0  0
    2.6490    1.7500    0.0000 H   0  0  0  0  0  0  0  0  0  0  0  0
    3.2690    1.1300    0.0000 H   0  0  0  0  0  0  0  0  0  0  0  0
    5.3905   -2.1423    0.0000 H   0  0  0  0  0  0  0  0  0  0  0  0
    5.7890   -2.8326    0.0000 H   0  0  0  0  0  0  0  0  0  0  0  0
    4.2690   -1.8700    0.0000 H   0  0  0  0  0  0  0  0  0  0  0  0
    7.1771   -1.2869    0.0000 H   0  0  0  0  0  0  0  0  0  0  0  0
    7.4040   -0.4400    0.0000 H   0  0  0  0  0  0  0  0  0  0  0  0
    6.5571   -0.2131    0.0000 H   0  0  0  0  0  0  0  0  0  0  0  0
    2.3249   -0.6674    0.0000 H   0  0  0  0  0  0  0  0  0  0  0  0
    1.9264   -1.3577    0.0000 H   0  0  0  0  0  0  0  0  0  0  0  0
    6.5571   -3.2869    0.0000 H   0  0  0  0  0  0  0  0  0  0  0  0
    7.4040   -3.0600    0.0000 H   0  0  0  0  0  0  0  0  0  0  0  0
    7.1771   -2.2131    0.0000 H   0  0  0  0  0  0  0  0  0  0  0  0
    2.0000    0.4400    0.0000 H   0  0  0  0  0  0  0  0  0  0  0  0
    2.0000   -2.5600    0.0000 H   0  0  0  0  0  0  0  0  0  0  0  0
  1  8  1  0  0  0  0
  1 40  1  0  0  0  0
  2 16  1  0  0  0  0
  2 41  1  0  0  0  0
  3  4  1  0  0  0  0
  3  9  1  0  0  0  0
  3 10  1  0  0  0  0
  3 11  1  0  0  0  0
  4  7  2  0  0  0  0
  4  8  1  0  0  0  0
  5  6  1  0  0  0  0
  5 12  1  0  0  0  0
  5 15  1  0  0  0  0
  5 18  1  0  0  0  0
  6  7  1  0  0  0  0
  6 14  2  0  0  0  0
  7 19  1  0  0  0  0
  8 13  2  0  0  0  0
  9 20  1  0  0  0  0
  9 21  1  0  0  0  0
  9 22  1  0  0  0  0
 10 23  1  0  0  0  0
 10 24  1  0  0  0  0
 10 25  1  0  0  0  0
 11 26  1  0  0  0  0
 11 27  1  0  0  0  0
 11 28  1  0  0  0  0
 12 17  1  0  0  0  0
 12 29  1  0  0  0  0
 12 30  1  0  0  0  0
 13 14  1  0  0  0  0
 13 16  1  0  0  0  0
 14 31  1  0  0  0  0
 15 32  1  0  0  0  0
 15 33  1  0  0  0  0
 15 34  1  0  0  0  0
 16 35  1  0  0  0  0
 16 36  1  0  0  0  0
 17 37  1  0  0  0  0
 17 38  1  0  0  0  0
 17 39  1  0  0  0  0
M  END
> <PUBCHEM_COMPOUND_CID>
526206
> <PUBCHEM_COMPOUND_CANONICALIZED>
1
> <PUBCHEM_CACTVS_COMPLEXITY>
232
> <PUBCHEM_CACTVS_HBOND_ACCEPTOR>
2
> <PUBCHEM_CACTVS_HBOND_DONOR>
2
> <PUBCHEM_CACTVS_ROTATABLE_BOND>
4
> <PUBCHEM_CACTVS_SUBSKEYS>
AAADceBwMAAAAAAAAAAAAAAAAAAAAAAAAAAwAAAAAAAAAAABAAAAGgAACAAADwSgmAIyBoAAAgCAAiBCAAACAAAgIAAAiAAECIgINyKCERKAcAAlwBEImAeAwPAPoAACAAAIAABAAAQAABAAAAAAAAAAAA==
> <PUBCHEM_IUPAC_OPENEYE_NAME>
2-tert-butyl-6-(hydroxymethyl)-4-sec-butyl-phenol
> <PUBCHEM_IUPAC_CAS_NAME>
4-butan-2-yl-2-tert-butyl-6-(hydroxymethyl)phenol
> <PUBCHEM_IUPAC_NAME_MARKUP>
4-butan-2-yl-2-<I>tert</I>-butyl-6-(hydroxymethyl)phenol
> <PUBCHEM_IUPAC_NAME>
4-butan-2-yl-2-tert-butyl-6-(hydroxymethyl)phenol
> <PUBCHEM_IUPAC_SYSTEMATIC_NAME>
4-butan-2-yl-2-tert-butyl-6-(hydroxymethyl)phenol
> <PUBCHEM_IUPAC_TRADITIONAL_NAME>
2-tert-butyl-6-methylol-4-sec-butyl-phenol
> <PUBCHEM_IUPAC_INCHI>
InChI=1S/C15H24O2/c1-6-10(2)11-7-12(9-16)14(17)13(8-11)15(3,4)5/h7-8,10,16-17H,6,9H2,1-5H3
> <PUBCHEM_IUPAC_INCHIKEY>
YSDSUIRQJMIZFL-UHFFFAOYSA-N
> <PUBCHEM_XLOGP3_AA>
4.6
> <PUBCHEM_EXACT_MASS>
236.177630004
> <PUBCHEM_MOLECULAR_FORMULA>
C15H24O2
> <PUBCHEM_MOLECULAR_WEIGHT>
236.35
> <PUBCHEM_OPENEYE_CAN_SMILES>
CCC(C)C1=CC(=C(C(=C1)C(C)(C)C)O)CO
> <PUBCHEM_OPENEYE_ISO_SMILES>
CCC(C)C1=CC(=C(C(=C1)C(C)(C)C)O)CO
> <PUBCHEM_CACTVS_TPSA>
40.5
> <PUBCHEM_MONOISOTOPIC_WEIGHT>
236.177630004
> <PUBCHEM_TOTAL_CHARGE>
0
> <PUBCHEM_HEAVY_ATOM_COUNT>
17
> <PUBCHEM_ATOM_DEF_STEREO_COUNT>
0
> <PUBCHEM_ATOM_UDEF_STEREO_COUNT>
1
> <PUBCHEM_BOND_DEF_STEREO_COUNT>
0
> <PUBCHEM_BOND_UDEF_STEREO_COUNT>
0
> <PUBCHEM_ISOTOPIC_ATOM_COUNT>
0
> <PUBCHEM_COMPONENT_COUNT>
1
> <PUBCHEM_CACTVS_TAUTO_COUNT>
-1
> <PUBCHEM_COORDINATE_TYPE>
1
5
255
> <PUBCHEM_BONDANNOTATIONS>
13  14  8
4  7  8
4  8  8
5  15  3
6  14  8
6  7  8
8  13  8
$$$$
