526200
  -OEChem-10302200292D
 55 55  0     1  0  0  0  0  0999 V2000
   10.6028   -0.3120    0.0000 O   0  0  0  0  0  0  0  0  0  0  0  0
    6.5474   -1.9593    0.0000 O   0  0  0  0  0  0  0  0  0  0  0  0
    2.9511   -1.7014    0.0000 O   0  0  0  0  0  0  0  0  0  0  0  0
    3.4863   -0.0541    0.0000 O   0  0  0  0  0  0  0  0  0  0  0  0
    5.3884   -0.6722    0.0000 N   0  0  0  0  0  0  0  0  0  0  0  0
    8.0337   -0.6211    0.0000 C   0  0  3  0  0  0  0  0  0  0  0  0
    8.8427   -0.0333    0.0000 C   0  0  3  0  0  0  0  0  0  0  0  0
    8.3427   -1.5721    0.0000 C   0  0  0  0  0  0  0  0  0  0  0  0
    9.3427   -1.5721    0.0000 C   0  0  0  0  0  0  0  0  0  0  0  0
    9.6517   -0.6211    0.0000 C   0  0  0  0  0  0  0  0  0  0  0  0
    7.0826   -0.3120    0.0000 C   0  0  0  0  0  0  0  0  0  0  0  0
    8.8427    0.9667    0.0000 C   0  0  0  0  0  0  0  0  0  0  0  0
    6.3395   -0.9812    0.0000 C   0  0  0  0  0  0  0  0  0  0  0  0
    9.7087    1.4667    0.0000 C   0  0  0  0  0  0  0  0  0  0  0  0
    4.6453   -1.3413    0.0000 C   0  0  3  0  0  0  0  0  0  0  0  0
    4.8532   -2.3194    0.0000 C   0  0  0  0  0  0  0  0  0  0  0  0
    4.1100   -2.9886    0.0000 C   0  0  0  0  0  0  0  0  0  0  0  0
    9.7087    2.4667    0.0000 C   0  0  0  0  0  0  0  0  0  0  0  0
    3.6942   -1.0323    0.0000 C   0  0  0  0  0  0  0  0  0  0  0  0
    4.3179   -3.9667    0.0000 C   0  0  0  0  0  0  0  0  0  0  0  0
    3.1590   -2.6796    0.0000 C   0  0  0  0  0  0  0  0  0  0  0  0
   10.5747    2.9667    0.0000 C   0  0  0  0  0  0  0  0  0  0  0  0
   10.5747    3.9667    0.0000 C   0  0  0  0  0  0  0  0  0  0  0  0
    2.0000   -1.3924    0.0000 C   0  0  0  0  0  0  0  0  0  0  0  0
    7.9367   -0.0087    0.0000 H   0  0  0  0  0  0  0  0  0  0  0  0
    8.2902    0.2482    0.0000 H   0  0  0  0  0  0  0  0  0  0  0  0
    7.7362   -1.7010    0.0000 H   0  0  0  0  0  0  0  0  0  0  0  0
    8.4075   -2.1887    0.0000 H   0  0  0  0  0  0  0  0  0  0  0  0
    9.2779   -2.1887    0.0000 H   0  0  0  0  0  0  0  0  0  0  0  0
    9.9491   -1.7010    0.0000 H   0  0  0  0  0  0  0  0  0  0  0  0
    7.3737    0.2354    0.0000 H   0  0  0  0  0  0  0  0  0  0  0  0
    6.5940    0.0697    0.0000 H   0  0  0  0  0  0  0  0  0  0  0  0
    8.6306    1.5493    0.0000 H   0  0  0  0  0  0  0  0  0  0  0  0
    8.2321    0.8591    0.0000 H   0  0  0  0  0  0  0  0  0  0  0  0
   10.2456    1.1567    0.0000 H   0  0  0  0  0  0  0  0  0  0  0  0
    5.2349   -1.5329    0.0000 H   0  0  0  0  0  0  0  0  0  0  0  0
    5.2595   -0.0657    0.0000 H   0  0  0  0  0  0  0  0  0  0  0  0
    5.1817   -2.8452    0.0000 H   0  0  0  0  0  0  0  0  0  0  0  0
    5.4280   -2.0872    0.0000 H   0  0  0  0  0  0  0  0  0  0  0  0
    4.6997   -3.1802    0.0000 H   0  0  0  0  0  0  0  0  0  0  0  0
    9.1718    2.7767    0.0000 H   0  0  0  0  0  0  0  0  0  0  0  0
    3.7115   -4.0956    0.0000 H   0  0  0  0  0  0  0  0  0  0  0  0
    4.4468   -4.5732    0.0000 H   0  0  0  0  0  0  0  0  0  0  0  0
    4.9244   -3.8378    0.0000 H   0  0  0  0  0  0  0  0  0  0  0  0
    3.3506   -2.0899    0.0000 H   0  0  0  0  0  0  0  0  0  0  0  0
    2.5693   -2.4880    0.0000 H   0  0  0  0  0  0  0  0  0  0  0  0
    2.9674   -3.2692    0.0000 H   0  0  0  0  0  0  0  0  0  0  0  0
   10.7868    2.3841    0.0000 H   0  0  0  0  0  0  0  0  0  0  0  0
   11.1853    3.0744    0.0000 H   0  0  0  0  0  0  0  0  0  0  0  0
   11.1947    3.9667    0.0000 H   0  0  0  0  0  0  0  0  0  0  0  0
   10.5747    4.5867    0.0000 H   0  0  0  0  0  0  0  0  0  0  0  0
    9.9547    3.9667    0.0000 H   0  0  0  0  0  0  0  0  0  0  0  0
    2.1916   -0.8027    0.0000 H   0  0  0  0  0  0  0  0  0  0  0  0
    1.4103   -1.2008    0.0000 H   0  0  0  0  0  0  0  0  0  0  0  0
    1.8084   -1.9820    0.0000 H   0  0  0  0  0  0  0  0  0  0  0  0
  1 10  2  0  0  0  0
  2 13  2  0  0  0  0
  3 19  1  0  0  0  0
  3 24  1  0  0  0  0
  4 19  2  0  0  0  0
  5 13  1  0  0  0  0
  5 15  1  0  0  0  0
  5 37  1  0  0  0  0
  6  7  1  0  0  0  0
  6  8  1  0  0  0  0
  6 11  1  0  0  0  0
  6 25  1  0  0  0  0
  7 10  1  0  0  0  0
  7 12  1  0  0  0  0
  7 26  1  0  0  0  0
  8  9  1  0  0  0  0
  8 27  1  0  0  0  0
  8 28  1  0  0  0  0
  9 10  1  0  0  0  0
  9 29  1  0  0  0  0
  9 30  1  0  0  0  0
 11 13  1  0  0  0  0
 11 31  1  0  0  0  0
 11 32  1  0  0  0  0
 12 14  1  0  0  0  0
 12 33  1  0  0  0  0
 12 34  1  0  0  0  0
 14 18  2  3  0  0  0
 14 35  1  0  0  0  0
 15 16  1  0  0  0  0
 15 19  1  0  0  0  0
 15 36  1  0  0  0  0
 16 17  1  0  0  0  0
 16 38  1  0  0  0  0
 16 39  1  0  0  0  0
 17 20  1  0  0  0  0
 17 21  1  0  0  0  0
 17 40  1  0  0  0  0
 18 22  1  0  0  0  0
 18 41  1  0  0  0  0
 20 42  1  0  0  0  0
 20 43  1  0  0  0  0
 20 44  1  0  0  0  0
 21 45  1  0  0  0  0
 21 46  1  0  0  0  0
 21 47  1  0  0  0  0
 22 23  1  0  0  0  0
 22 48  1  0  0  0  0
 22 49  1  0  0  0  0
 23 50  1  0  0  0  0
 23 51  1  0  0  0  0
 23 52  1  0  0  0  0
 24 53  1  0  0  0  0
 24 54  1  0  0  0  0
 24 55  1  0  0  0  0
M  END
> <PUBCHEM_COMPOUND_CID>
526200
> <PUBCHEM_COMPOUND_CANONICALIZED>
1
> <PUBCHEM_CACTVS_COMPLEXITY>
470
> <PUBCHEM_CACTVS_HBOND_ACCEPTOR>
4
> <PUBCHEM_CACTVS_HBOND_DONOR>
1
> <PUBCHEM_CACTVS_ROTATABLE_BOND>
10
> <PUBCHEM_CACTVS_SUBSKEYS>
AAADceB6OAAAAAAAAAAAAAAAAAAAAYAAAAAAAAAAAAAAAAAAAAAAHgAQAAAADSzBgAYCCALABACIAKHSGAAAAAAgAAAICIGIAAgCABIAgSAFAAAElgCYAAOYi4CugAAAAAAAAAAAAAAAAAAAAAAACAAAAA==
> <PUBCHEM_IUPAC_OPENEYE_NAME>
methyl 4-methyl-2-[[2-(3-oxo-2-pent-2-enyl-cyclopentyl)acetyl]amino]pentanoate
> <PUBCHEM_IUPAC_CAS_NAME>
4-methyl-2-[[1-oxo-2-(3-oxo-2-pent-2-enylcyclopentyl)ethyl]amino]pentanoic acid methyl ester
> <PUBCHEM_IUPAC_NAME_MARKUP>
methyl 4-methyl-2-[[2-(3-oxo-2-pent-2-enylcyclopentyl)acetyl]amino]pentanoate
> <PUBCHEM_IUPAC_NAME>
methyl 4-methyl-2-[[2-(3-oxo-2-pent-2-enylcyclopentyl)acetyl]amino]pentanoate
> <PUBCHEM_IUPAC_SYSTEMATIC_NAME>
methyl 4-methyl-2-[2-(3-oxidanylidene-2-pent-2-enyl-cyclopentyl)ethanoylamino]pentanoate
> <PUBCHEM_IUPAC_TRADITIONAL_NAME>
2-[[2-(3-keto-2-pent-2-enyl-cyclopentyl)acetyl]amino]-4-methyl-valeric acid methyl ester
> <PUBCHEM_IUPAC_INCHI>
InChI=1S/C19H31NO4/c1-5-6-7-8-15-14(9-10-17(15)21)12-18(22)20-16(11-13(2)3)19(23)24-4/h6-7,13-16H,5,8-12H2,1-4H3,(H,20,22)
> <PUBCHEM_IUPAC_INCHIKEY>
ZSVUCLYVTTWYBD-UHFFFAOYSA-N
> <PUBCHEM_XLOGP3_AA>
3
> <PUBCHEM_EXACT_MASS>
337.22530847
> <PUBCHEM_MOLECULAR_FORMULA>
C19H31NO4
> <PUBCHEM_MOLECULAR_WEIGHT>
337.5
> <PUBCHEM_OPENEYE_CAN_SMILES>
CCC=CCC1C(CCC1=O)CC(=O)NC(CC(C)C)C(=O)OC
> <PUBCHEM_OPENEYE_ISO_SMILES>
CCC=CCC1C(CCC1=O)CC(=O)NC(CC(C)C)C(=O)OC
> <PUBCHEM_CACTVS_TPSA>
72.5
> <PUBCHEM_MONOISOTOPIC_WEIGHT>
337.22530847
> <PUBCHEM_TOTAL_CHARGE>
0
> <PUBCHEM_HEAVY_ATOM_COUNT>
24
> <PUBCHEM_ATOM_DEF_STEREO_COUNT>
0
> <PUBCHEM_ATOM_UDEF_STEREO_COUNT>
3
> <PUBCHEM_BOND_DEF_STEREO_COUNT>
0
> <PUBCHEM_BOND_UDEF_STEREO_COUNT>
1
> <PUBCHEM_ISOTOPIC_ATOM_COUNT>
0
> <PUBCHEM_COMPONENT_COUNT>
1
> <PUBCHEM_CACTVS_TAUTO_COUNT>
-1
> <PUBCHEM_COORDINATE_TYPE>
1
5
255
> <PUBCHEM_BONDANNOTATIONS>
14  18  1
15  16  3
6  11  3
7  12  3
$$$$
