526480
  -OEChem-10302200292D
 68 69  0     1  0  0  0  0  0999 V2000
    6.4638    1.8073    0.0000 Si  0  0  0  0  0  0  0  0  0  0  0  0
    2.0000    1.8589    0.0000 F   0  0  0  0  0  0  0  0  0  0  0  0
    3.9999    1.8358    0.0000 F   0  0  0  0  0  0  0  0  0  0  0  0
    2.0116    2.8588    0.0000 F   0  0  0  0  0  0  0  0  0  0  0  0
    4.0114    2.8357    0.0000 F   0  0  0  0  0  0  0  0  0  0  0  0
    3.0346    4.8471    0.0000 F   0  0  0  0  0  0  0  0  0  0  0  0
    2.0231    3.8588    0.0000 F   0  0  0  0  0  0  0  0  0  0  0  0
    4.0230    3.8356    0.0000 F   0  0  0  0  0  0  0  0  0  0  0  0
    6.4522    0.8073    0.0000 O   0  0  0  0  0  0  0  0  0  0  0  0
    6.4291   -1.1925    0.0000 O   0  0  0  0  0  0  0  0  0  0  0  0
    2.1166    0.3574    0.0000 O   0  0  0  0  0  0  0  0  0  0  0  0
    9.9096   -4.2271    0.0000 O   0  0  0  0  0  0  0  0  0  0  0  0
    3.8486    0.3374    0.0000 N   0  0  0  0  0  0  0  0  0  0  0  0
    8.1775   -4.2271    0.0000 N   0  0  0  0  0  0  0  0  0  0  0  0
    3.8370   -0.6625    0.0000 C   0  0  0  0  0  0  0  0  0  0  0  0
    4.7203    0.8274    0.0000 C   0  0  0  0  0  0  0  0  0  0  0  0
    5.5805    0.3174    0.0000 C   0  0  3  0  0  0  0  0  0  0  0  0
    2.8371   -0.6510    0.0000 C   0  0  0  0  0  0  0  0  0  0  0  0
    4.8369   -0.6741    0.0000 C   0  0  0  0  0  0  0  0  0  0  0  0
    3.8254   -1.6624    0.0000 C   0  0  0  0  0  0  0  0  0  0  0  0
    5.5689   -0.6826    0.0000 C   0  0  0  0  0  0  0  0  0  0  0  0
    2.9884    0.8474    0.0000 C   0  0  0  0  0  0  0  0  0  0  0  0
    2.9999    1.8473    0.0000 C   0  0  0  0  0  0  0  0  0  0  0  0
    7.4637    1.7957    0.0000 C   0  0  0  0  0  0  0  0  0  0  0  0
    6.4754    2.8072    0.0000 C   0  0  0  0  0  0  0  0  0  0  0  0
    5.4639    1.8188    0.0000 C   0  0  0  0  0  0  0  0  0  0  0  0
    3.0115    2.8473    0.0000 C   0  0  0  0  0  0  0  0  0  0  0  0
    6.4176   -2.1925    0.0000 C   0  0  0  0  0  0  0  0  0  0  0  0
    7.3115   -2.7271    0.0000 C   0  0  0  0  0  0  0  0  0  0  0  0
    8.1775   -2.2271    0.0000 C   0  0  0  0  0  0  0  0  0  0  0  0
    7.3115   -3.7271    0.0000 C   0  0  0  0  0  0  0  0  0  0  0  0
    9.0435   -2.7271    0.0000 C   0  0  0  0  0  0  0  0  0  0  0  0
    3.0231    3.8472    0.0000 C   0  0  0  0  0  0  0  0  0  0  0  0
    5.5115   -2.7063    0.0000 C   0  0  0  0  0  0  0  0  0  0  0  0
    9.0435   -3.7271    0.0000 C   0  0  0  0  0  0  0  0  0  0  0  0
    6.4176   -4.2618    0.0000 C   0  0  0  0  0  0  0  0  0  0  0  0
    5.5115   -3.7479    0.0000 C   0  0  0  0  0  0  0  0  0  0  0  0
    5.1243    1.2977    0.0000 H   0  0  0  0  0  0  0  0  0  0  0  0
    4.3273    1.3069    0.0000 H   0  0  0  0  0  0  0  0  0  0  0  0
    5.5877    0.9373    0.0000 H   0  0  0  0  0  0  0  0  0  0  0  0
    2.8442   -0.0310    0.0000 H   0  0  0  0  0  0  0  0  0  0  0  0
    2.2171   -0.6438    0.0000 H   0  0  0  0  0  0  0  0  0  0  0  0
    2.8299   -1.2709    0.0000 H   0  0  0  0  0  0  0  0  0  0  0  0
    4.8298   -1.2940    0.0000 H   0  0  0  0  0  0  0  0  0  0  0  0
    5.4569   -0.6813    0.0000 H   0  0  0  0  0  0  0  0  0  0  0  0
    4.8441   -0.0541    0.0000 H   0  0  0  0  0  0  0  0  0  0  0  0
    3.2055   -1.6553    0.0000 H   0  0  0  0  0  0  0  0  0  0  0  0
    3.8183   -2.2824    0.0000 H   0  0  0  0  0  0  0  0  0  0  0  0
    4.4454   -1.6696    0.0000 H   0  0  0  0  0  0  0  0  0  0  0  0
    4.9596   -0.5678    0.0000 H   0  0  0  0  0  0  0  0  0  0  0  0
    5.3502   -1.2627    0.0000 H   0  0  0  0  0  0  0  0  0  0  0  0
    7.4566    1.1758    0.0000 H   0  0  0  0  0  0  0  0  0  0  0  0
    8.0837    1.7885    0.0000 H   0  0  0  0  0  0  0  0  0  0  0  0
    7.4709    2.4157    0.0000 H   0  0  0  0  0  0  0  0  0  0  0  0
    7.0953    2.8000    0.0000 H   0  0  0  0  0  0  0  0  0  0  0  0
    6.4825    3.4272    0.0000 H   0  0  0  0  0  0  0  0  0  0  0  0
    5.8554    2.8144    0.0000 H   0  0  0  0  0  0  0  0  0  0  0  0
    5.4710    2.4388    0.0000 H   0  0  0  0  0  0  0  0  0  0  0  0
    4.8439    1.8260    0.0000 H   0  0  0  0  0  0  0  0  0  0  0  0
    5.4567    1.1989    0.0000 H   0  0  0  0  0  0  0  0  0  0  0  0
    8.5760   -1.7522    0.0000 H   0  0  0  0  0  0  0  0  0  0  0  0
    7.7790   -1.7522    0.0000 H   0  0  0  0  0  0  0  0  0  0  0  0
    9.6541   -2.8348    0.0000 H   0  0  0  0  0  0  0  0  0  0  0  0
    9.2556   -2.1445    0.0000 H   0  0  0  0  0  0  0  0  0  0  0  0
    4.9758   -2.3942    0.0000 H   0  0  0  0  0  0  0  0  0  0  0  0
    8.1775   -4.8471    0.0000 H   0  0  0  0  0  0  0  0  0  0  0  0
    6.4247   -4.8817    0.0000 H   0  0  0  0  0  0  0  0  0  0  0  0
    4.9758   -4.0600    0.0000 H   0  0  0  0  0  0  0  0  0  0  0  0
  1  9  1  0  0  0  0
  1 24  1  0  0  0  0
  1 25  1  0  0  0  0
  1 26  1  0  0  0  0
  2 23  1  0  0  0  0
  3 23  1  0  0  0  0
  4 27  1  0  0  0  0
  5 27  1  0  0  0  0
  6 33  1  0  0  0  0
  7 33  1  0  0  0  0
  8 33  1  0  0  0  0
  9 17  1  0  0  0  0
 10 21  1  0  0  0  0
 10 28  1  0  0  0  0
 11 22  2  0  0  0  0
 12 35  2  0  0  0  0
 13 15  1  0  0  0  0
 13 16  1  0  0  0  0
 13 22  1  0  0  0  0
 14 31  1  0  0  0  0
 14 35  1  0  0  0  0
 14 66  1  0  0  0  0
 15 18  1  0  0  0  0
 15 19  1  0  0  0  0
 15 20  1  0  0  0  0
 16 17  1  0  0  0  0
 16 38  1  0  0  0  0
 16 39  1  0  0  0  0
 17 21  1  0  0  0  0
 17 40  1  0  0  0  0
 18 41  1  0  0  0  0
 18 42  1  0  0  0  0
 18 43  1  0  0  0  0
 19 44  1  0  0  0  0
 19 45  1  0  0  0  0
 19 46  1  0  0  0  0
 20 47  1  0  0  0  0
 20 48  1  0  0  0  0
 20 49  1  0  0  0  0
 21 50  1  0  0  0  0
 21 51  1  0  0  0  0
 22 23  1  0  0  0  0
 23 27  1  0  0  0  0
 24 52  1  0  0  0  0
 24 53  1  0  0  0  0
 24 54  1  0  0  0  0
 25 55  1  0  0  0  0
 25 56  1  0  0  0  0
 25 57  1  0  0  0  0
 26 58  1  0  0  0  0
 26 59  1  0  0  0  0
 26 60  1  0  0  0  0
 27 33  1  0  0  0  0
 28 29  1  0  0  0  0
 28 34  2  0  0  0  0
 29 30  1  0  0  0  0
 29 31  2  0  0  0  0
 30 32  1  0  0  0  0
 30 61  1  0  0  0  0
 30 62  1  0  0  0  0
 31 36  1  0  0  0  0
 32 35  1  0  0  0  0
 32 63  1  0  0  0  0
 32 64  1  0  0  0  0
 34 37  1  0  0  0  0
 34 65  1  0  0  0  0
 36 37  2  0  0  0  0
 36 67  1  0  0  0  0
 37 68  1  0  0  0  0
M  END
> <PUBCHEM_COMPOUND_CID>
526480
> <PUBCHEM_COMPOUND_CANONICALIZED>
1
> <PUBCHEM_CACTVS_COMPLEXITY>
827
> <PUBCHEM_CACTVS_HBOND_ACCEPTOR>
11
> <PUBCHEM_CACTVS_HBOND_DONOR>
1
> <PUBCHEM_CACTVS_ROTATABLE_BOND>
10
> <PUBCHEM_CACTVS_SUBSKEYS>
AAADceB7OcgAAAAAAAAAAAAAAAAAAAAAAAA8QAAAAAAAAACxAAAAHxAQAEAADJzhmBZyxoPABAGIAiVSUACCCAAhIgAIiAEObIgPJjLEsZuGOCjm1hna6AeY3aPeAAAAAgAKAAAAAAAEABQAAAAAAAAAAA==
> <PUBCHEM_IUPAC_OPENEYE_NAME>
N-tert-butyl-2,2,3,3,4,4,4-heptafluoro-N-[3-[(2-oxo-3,4-dihydro-1H-quinolin-5-yl)oxy]-2-trimethylsilyloxy-propyl]butanamide
> <PUBCHEM_IUPAC_CAS_NAME>
N-tert-butyl-2,2,3,3,4,4,4-heptafluoro-N-[3-[(2-oxo-3,4-dihydro-1H-quinolin-5-yl)oxy]-2-trimethylsilyloxypropyl]butanamide
> <PUBCHEM_IUPAC_NAME_MARKUP>
<I>N</I>-<I>tert</I>-butyl-2,2,3,3,4,4,4-heptafluoro-<I>N</I>-[3-[(2-oxo-3,4-dihydro-1<I>H</I>-quinolin-5-yl)oxy]-2-trimethylsilyloxypropyl]butanamide
> <PUBCHEM_IUPAC_NAME>
N-tert-butyl-2,2,3,3,4,4,4-heptafluoro-N-[3-[(2-oxo-3,4-dihydro-1H-quinolin-5-yl)oxy]-2-trimethylsilyloxypropyl]butanamide
> <PUBCHEM_IUPAC_SYSTEMATIC_NAME>
N-tert-butyl-2,2,3,3,4,4,4-heptakis(fluoranyl)-N-[3-[(2-oxidanylidene-3,4-dihydro-1H-quinolin-5-yl)oxy]-2-trimethylsilyloxy-propyl]butanamide
> <PUBCHEM_IUPAC_TRADITIONAL_NAME>
N-tert-butyl-2,2,3,3,4,4,4-heptafluoro-N-[3-[(2-keto-3,4-dihydro-1H-quinolin-5-yl)oxy]-2-trimethylsilyloxy-propyl]butyramide
> <PUBCHEM_IUPAC_INCHI>
InChI=1S/C23H31F7N2O4Si/c1-20(2,3)32(19(34)21(24,25)22(26,27)23(28,29)30)12-14(36-37(4,5)6)13-35-17-9-7-8-16-15(17)10-11-18(33)31-16/h7-9,14H,10-13H2,1-6H3,(H,31,33)
> <PUBCHEM_IUPAC_INCHIKEY>
GIPYLOMCALTREM-UHFFFAOYSA-N
> <PUBCHEM_EXACT_MASS>
560.19413114
> <PUBCHEM_MOLECULAR_FORMULA>
C23H31F7N2O4Si
> <PUBCHEM_MOLECULAR_WEIGHT>
560.6
> <PUBCHEM_OPENEYE_CAN_SMILES>
CC(C)(C)N(CC(COC1=CC=CC2=C1CCC(=O)N2)O[Si](C)(C)C)C(=O)C(C(C(F)(F)F)(F)F)(F)F
> <PUBCHEM_OPENEYE_ISO_SMILES>
CC(C)(C)N(CC(COC1=CC=CC2=C1CCC(=O)N2)O[Si](C)(C)C)C(=O)C(C(C(F)(F)F)(F)F)(F)F
> <PUBCHEM_CACTVS_TPSA>
67.9
> <PUBCHEM_MONOISOTOPIC_WEIGHT>
560.19413114
> <PUBCHEM_TOTAL_CHARGE>
0
> <PUBCHEM_HEAVY_ATOM_COUNT>
37
> <PUBCHEM_ATOM_DEF_STEREO_COUNT>
0
> <PUBCHEM_ATOM_UDEF_STEREO_COUNT>
1
> <PUBCHEM_BOND_DEF_STEREO_COUNT>
0
> <PUBCHEM_BOND_UDEF_STEREO_COUNT>
0
> <PUBCHEM_ISOTOPIC_ATOM_COUNT>
0
> <PUBCHEM_COMPONENT_COUNT>
1
> <PUBCHEM_CACTVS_TAUTO_COUNT>
-1
> <PUBCHEM_COORDINATE_TYPE>
1
5
255
> <PUBCHEM_BONDANNOTATIONS>
17  16  3
28  29  8
28  34  8
29  31  8
31  36  8
34  37  8
36  37  8
$$$$
