526482
  -OEChem-10302200292D
 72 72  0     1  0  0  0  0  0999 V2000
    3.7320   -2.7500    0.0000 Si  0  0  0  0  0  0  0  0  0  0  0  0
    8.1962   -2.7500    0.0000 F   0  0  0  0  0  0  0  0  0  0  0  0
    6.1962   -2.7500    0.0000 F   0  0  0  0  0  0  0  0  0  0  0  0
    8.1962   -3.7500    0.0000 F   0  0  0  0  0  0  0  0  0  0  0  0
    6.1962   -3.7500    0.0000 F   0  0  0  0  0  0  0  0  0  0  0  0
    7.1962   -5.7500    0.0000 F   0  0  0  0  0  0  0  0  0  0  0  0
    8.1962   -4.7500    0.0000 F   0  0  0  0  0  0  0  0  0  0  0  0
    6.1962   -4.7500    0.0000 F   0  0  0  0  0  0  0  0  0  0  0  0
    3.7320   -1.7500    0.0000 O   0  0  0  0  0  0  0  0  0  0  0  0
    3.7320    0.2500    0.0000 O   0  0  0  0  0  0  0  0  0  0  0  0
    8.0622   -1.2500    0.0000 O   0  0  0  0  0  0  0  0  0  0  0  0
    3.7320    4.2500    0.0000 O   0  0  0  0  0  0  0  0  0  0  0  0
    5.4641    4.2500    0.0000 O   0  0  0  0  0  0  0  0  0  0  0  0
    6.3301   -1.2500    0.0000 N   0  0  0  0  0  0  0  0  0  0  0  0
    4.5981   -1.2500    0.0000 C   0  0  3  0  0  0  0  0  0  0  0  0
    5.4641   -1.7500    0.0000 C   0  0  0  0  0  0  0  0  0  0  0  0
    6.3301   -0.2500    0.0000 C   0  0  0  0  0  0  0  0  0  0  0  0
    4.5981   -0.2500    0.0000 C   0  0  0  0  0  0  0  0  0  0  0  0
    7.1962   -1.7500    0.0000 C   0  0  0  0  0  0  0  0  0  0  0  0
    2.7320   -2.7500    0.0000 C   0  0  0  0  0  0  0  0  0  0  0  0
    3.7320   -3.7500    0.0000 C   0  0  0  0  0  0  0  0  0  0  0  0
    4.7320   -2.7500    0.0000 C   0  0  0  0  0  0  0  0  0  0  0  0
    7.1962    0.2500    0.0000 C   0  0  0  0  0  0  0  0  0  0  0  0
    5.4641    0.2500    0.0000 C   0  0  0  0  0  0  0  0  0  0  0  0
    7.1962   -2.7500    0.0000 C   0  0  0  0  0  0  0  0  0  0  0  0
    7.1962   -3.7500    0.0000 C   0  0  0  0  0  0  0  0  0  0  0  0
    3.7320    1.2500    0.0000 C   0  0  0  0  0  0  0  0  0  0  0  0
    2.8660    1.7500    0.0000 C   0  0  0  0  0  0  0  0  0  0  0  0
    4.5981    1.7500    0.0000 C   0  0  0  0  0  0  0  0  0  0  0  0
    2.8660    2.7500    0.0000 C   0  0  0  0  0  0  0  0  0  0  0  0
    7.1962   -4.7500    0.0000 C   0  0  0  0  0  0  0  0  0  0  0  0
    4.5981    2.7500    0.0000 C   0  0  0  0  0  0  0  0  0  0  0  0
    3.7320    3.2500    0.0000 C   0  0  0  0  0  0  0  0  0  0  0  0
    2.0000    1.2500    0.0000 C   0  0  0  0  0  0  0  0  0  0  0  0
    2.0000    3.2500    0.0000 C   0  0  0  0  0  0  0  0  0  0  0  0
    5.4641    3.2500    0.0000 C   0  0  0  0  0  0  0  0  0  0  0  0
    4.5981    4.7500    0.0000 C   0  0  0  0  0  0  0  0  0  0  0  0
    4.5981    5.7500    0.0000 C   0  0  0  0  0  0  0  0  0  0  0  0
    4.5981   -1.8700    0.0000 H   0  0  0  0  0  0  0  0  0  0  0  0
    5.0656   -2.2250    0.0000 H   0  0  0  0  0  0  0  0  0  0  0  0
    5.8626   -2.2250    0.0000 H   0  0  0  0  0  0  0  0  0  0  0  0
    6.8671   -0.5600    0.0000 H   0  0  0  0  0  0  0  0  0  0  0  0
    5.2087   -0.3577    0.0000 H   0  0  0  0  0  0  0  0  0  0  0  0
    4.8101    0.3326    0.0000 H   0  0  0  0  0  0  0  0  0  0  0  0
    2.7320   -2.1300    0.0000 H   0  0  0  0  0  0  0  0  0  0  0  0
    2.1120   -2.7500    0.0000 H   0  0  0  0  0  0  0  0  0  0  0  0
    2.7320   -3.3700    0.0000 H   0  0  0  0  0  0  0  0  0  0  0  0
    3.1120   -3.7500    0.0000 H   0  0  0  0  0  0  0  0  0  0  0  0
    3.7320   -4.3700    0.0000 H   0  0  0  0  0  0  0  0  0  0  0  0
    4.3520   -3.7500    0.0000 H   0  0  0  0  0  0  0  0  0  0  0  0
    4.7320   -3.3700    0.0000 H   0  0  0  0  0  0  0  0  0  0  0  0
    5.3520   -2.7500    0.0000 H   0  0  0  0  0  0  0  0  0  0  0  0
    4.7320   -2.1300    0.0000 H   0  0  0  0  0  0  0  0  0  0  0  0
    7.5062   -0.2869    0.0000 H   0  0  0  0  0  0  0  0  0  0  0  0
    7.7331    0.5600    0.0000 H   0  0  0  0  0  0  0  0  0  0  0  0
    6.8862    0.7869    0.0000 H   0  0  0  0  0  0  0  0  0  0  0  0
    5.7741    0.7869    0.0000 H   0  0  0  0  0  0  0  0  0  0  0  0
    4.9272    0.5600    0.0000 H   0  0  0  0  0  0  0  0  0  0  0  0
    5.1541   -0.2869    0.0000 H   0  0  0  0  0  0  0  0  0  0  0  0
    5.1350    1.4400    0.0000 H   0  0  0  0  0  0  0  0  0  0  0  0
    1.6900    1.7869    0.0000 H   0  0  0  0  0  0  0  0  0  0  0  0
    1.4631    0.9400    0.0000 H   0  0  0  0  0  0  0  0  0  0  0  0
    2.3100    0.7131    0.0000 H   0  0  0  0  0  0  0  0  0  0  0  0
    2.3100    3.7869    0.0000 H   0  0  0  0  0  0  0  0  0  0  0  0
    1.4631    3.5600    0.0000 H   0  0  0  0  0  0  0  0  0  0  0  0
    1.6900    2.7131    0.0000 H   0  0  0  0  0  0  0  0  0  0  0  0
    5.7741    2.7131    0.0000 H   0  0  0  0  0  0  0  0  0  0  0  0
    6.0010    3.5600    0.0000 H   0  0  0  0  0  0  0  0  0  0  0  0
    5.1541    3.7869    0.0000 H   0  0  0  0  0  0  0  0  0  0  0  0
    5.2181    5.7500    0.0000 H   0  0  0  0  0  0  0  0  0  0  0  0
    4.5981    6.3700    0.0000 H   0  0  0  0  0  0  0  0  0  0  0  0
    3.9781    5.7500    0.0000 H   0  0  0  0  0  0  0  0  0  0  0  0
  1  9  1  0  0  0  0
  1 20  1  0  0  0  0
  1 21  1  0  0  0  0
  1 22  1  0  0  0  0
  2 25  1  0  0  0  0
  3 25  1  0  0  0  0
  4 26  1  0  0  0  0
  5 26  1  0  0  0  0
  6 31  1  0  0  0  0
  7 31  1  0  0  0  0
  8 31  1  0  0  0  0
  9 15  1  0  0  0  0
 10 18  1  0  0  0  0
 10 27  1  0  0  0  0
 11 19  2  0  0  0  0
 12 33  1  0  0  0  0
 12 37  1  0  0  0  0
 13 37  2  0  0  0  0
 14 16  1  0  0  0  0
 14 17  1  0  0  0  0
 14 19  1  0  0  0  0
 15 16  1  0  0  0  0
 15 18  1  0  0  0  0
 15 39  1  0  0  0  0
 16 40  1  0  0  0  0
 16 41  1  0  0  0  0
 17 23  1  0  0  0  0
 17 24  1  0  0  0  0
 17 42  1  0  0  0  0
 18 43  1  0  0  0  0
 18 44  1  0  0  0  0
 19 25  1  0  0  0  0
 20 45  1  0  0  0  0
 20 46  1  0  0  0  0
 20 47  1  0  0  0  0
 21 48  1  0  0  0  0
 21 49  1  0  0  0  0
 21 50  1  0  0  0  0
 22 51  1  0  0  0  0
 22 52  1  0  0  0  0
 22 53  1  0  0  0  0
 23 54  1  0  0  0  0
 23 55  1  0  0  0  0
 23 56  1  0  0  0  0
 24 57  1  0  0  0  0
 24 58  1  0  0  0  0
 24 59  1  0  0  0  0
 25 26  1  0  0  0  0
 26 31  1  0  0  0  0
 27 28  2  0  0  0  0
 27 29  1  0  0  0  0
 28 30  1  0  0  0  0
 28 34  1  0  0  0  0
 29 32  2  0  0  0  0
 29 60  1  0  0  0  0
 30 33  2  0  0  0  0
 30 35  1  0  0  0  0
 32 33  1  0  0  0  0
 32 36  1  0  0  0  0
 34 61  1  0  0  0  0
 34 62  1  0  0  0  0
 34 63  1  0  0  0  0
 35 64  1  0  0  0  0
 35 65  1  0  0  0  0
 35 66  1  0  0  0  0
 36 67  1  0  0  0  0
 36 68  1  0  0  0  0
 36 69  1  0  0  0  0
 37 38  1  0  0  0  0
 38 70  1  0  0  0  0
 38 71  1  0  0  0  0
 38 72  1  0  0  0  0
M  END
> <PUBCHEM_COMPOUND_CID>
526482
> <PUBCHEM_COMPOUND_CANONICALIZED>
1
> <PUBCHEM_CACTVS_COMPLEXITY>
819
> <PUBCHEM_CACTVS_HBOND_ACCEPTOR>
12
> <PUBCHEM_CACTVS_HBOND_DONOR>
0
> <PUBCHEM_CACTVS_ROTATABLE_BOND>
12
> <PUBCHEM_CACTVS_SUBSKEYS>
AAADcfB6OcgAAAAAAAAAAAAAAAAAAAAAAAAwAAAAAAAAAAABAAAAHxAAAEAADDzhmBZyDoMABAGIAiHSGAACCAAgIAAAiAEOCIgPJjKEsRqGOiCmxhGaqAfAwPAOwQADAAAYAACCAAYAADAAAAAAAAAAAA==
> <PUBCHEM_IUPAC_OPENEYE_NAME>
[4-[3-[2,2,3,3,4,4,4-heptafluorobutanoyl(isopropyl)amino]-2-trimethylsilyloxy-propoxy]-2,3,6-trimethyl-phenyl] acetate
> <PUBCHEM_IUPAC_CAS_NAME>
acetic acid [4-[3-[(2,2,3,3,4,4,4-heptafluoro-1-oxobutyl)-propan-2-ylamino]-2-trimethylsilyloxypropoxy]-2,3,6-trimethylphenyl] ester
> <PUBCHEM_IUPAC_NAME_MARKUP>
[4-[3-[2,2,3,3,4,4,4-heptafluorobutanoyl(propan-2-yl)amino]-2-trimethylsilyloxypropoxy]-2,3,6-trimethylphenyl] acetate
> <PUBCHEM_IUPAC_NAME>
[4-[3-[2,2,3,3,4,4,4-heptafluorobutanoyl(propan-2-yl)amino]-2-trimethylsilyloxypropoxy]-2,3,6-trimethylphenyl] acetate
> <PUBCHEM_IUPAC_SYSTEMATIC_NAME>
[4-[3-[2,2,3,3,4,4,4-heptakis(fluoranyl)butanoyl-propan-2-yl-amino]-2-trimethylsilyloxy-propoxy]-2,3,6-trimethyl-phenyl] ethanoate
> <PUBCHEM_IUPAC_TRADITIONAL_NAME>
acetic acid [4-[3-[2,2,3,3,4,4,4-heptafluorobutanoyl(isopropyl)amino]-2-trimethylsilyloxy-propoxy]-2,3,6-trimethyl-phenyl] ester
> <PUBCHEM_IUPAC_INCHI>
InChI=1S/C24H34F7NO5Si/c1-13(2)32(21(34)22(25,26)23(27,28)24(29,30)31)11-18(37-38(7,8)9)12-35-19-10-14(3)20(36-17(6)33)16(5)15(19)4/h10,13,18H,11-12H2,1-9H3
> <PUBCHEM_IUPAC_INCHIKEY>
QWRCNJVCJGKHNF-UHFFFAOYSA-N
> <PUBCHEM_EXACT_MASS>
577.20944685
> <PUBCHEM_MOLECULAR_FORMULA>
C24H34F7NO5Si
> <PUBCHEM_MOLECULAR_WEIGHT>
577.6
> <PUBCHEM_OPENEYE_CAN_SMILES>
CC1=CC(=C(C(=C1OC(=O)C)C)C)OCC(CN(C(C)C)C(=O)C(C(C(F)(F)F)(F)F)(F)F)O[Si](C)(C)C
> <PUBCHEM_OPENEYE_ISO_SMILES>
CC1=CC(=C(C(=C1OC(=O)C)C)C)OCC(CN(C(C)C)C(=O)C(C(C(F)(F)F)(F)F)(F)F)O[Si](C)(C)C
> <PUBCHEM_CACTVS_TPSA>
65.1
> <PUBCHEM_MONOISOTOPIC_WEIGHT>
577.20944685
> <PUBCHEM_TOTAL_CHARGE>
0
> <PUBCHEM_HEAVY_ATOM_COUNT>
38
> <PUBCHEM_ATOM_DEF_STEREO_COUNT>
0
> <PUBCHEM_ATOM_UDEF_STEREO_COUNT>
1
> <PUBCHEM_BOND_DEF_STEREO_COUNT>
0
> <PUBCHEM_BOND_UDEF_STEREO_COUNT>
0
> <PUBCHEM_ISOTOPIC_ATOM_COUNT>
0
> <PUBCHEM_COMPONENT_COUNT>
1
> <PUBCHEM_CACTVS_TAUTO_COUNT>
-1
> <PUBCHEM_COORDINATE_TYPE>
1
5
255
> <PUBCHEM_BONDANNOTATIONS>
15  16  3
27  28  8
27  29  8
28  30  8
29  32  8
30  33  8
32  33  8
$$$$
