526478
  -OEChem-10302200292D
 69 70  0     1  0  0  0  0  0999 V2000
    6.4641   -2.0173    0.0000 Si  0  0  0  0  0  0  0  0  0  0  0  0
    2.0000   -2.0173    0.0000 F   0  0  0  0  0  0  0  0  0  0  0  0
    4.0000   -2.0173    0.0000 F   0  0  0  0  0  0  0  0  0  0  0  0
    2.0000   -3.0173    0.0000 F   0  0  0  0  0  0  0  0  0  0  0  0
    4.0000   -3.0173    0.0000 F   0  0  0  0  0  0  0  0  0  0  0  0
    3.0000   -5.0173    0.0000 F   0  0  0  0  0  0  0  0  0  0  0  0
    2.0000   -4.0173    0.0000 F   0  0  0  0  0  0  0  0  0  0  0  0
    4.0000   -4.0173    0.0000 F   0  0  0  0  0  0  0  0  0  0  0  0
    6.4641   -1.0173    0.0000 O   0  0  0  0  0  0  0  0  0  0  0  0
    6.4641    0.9827    0.0000 O   0  0  0  0  0  0  0  0  0  0  0  0
    2.1340   -0.5173    0.0000 O   0  0  0  0  0  0  0  0  0  0  0  0
    8.2125    5.0173    0.0000 O   0  0  0  0  0  0  0  0  0  0  0  0
    3.8660   -0.5173    0.0000 N   0  0  0  0  0  0  0  0  0  0  0  0
    3.8660    0.4827    0.0000 C   0  0  0  0  0  0  0  0  0  0  0  0
    4.7320   -1.0173    0.0000 C   0  0  0  0  0  0  0  0  0  0  0  0
    5.5981   -0.5173    0.0000 C   0  0  3  0  0  0  0  0  0  0  0  0
    5.5981    0.4827    0.0000 C   0  0  0  0  0  0  0  0  0  0  0  0
    2.8660    0.4827    0.0000 C   0  0  0  0  0  0  0  0  0  0  0  0
    4.8660    0.4827    0.0000 C   0  0  0  0  0  0  0  0  0  0  0  0
    3.8660    1.4827    0.0000 C   0  0  0  0  0  0  0  0  0  0  0  0
    3.0000   -1.0173    0.0000 C   0  0  0  0  0  0  0  0  0  0  0  0
    3.0000   -2.0173    0.0000 C   0  0  0  0  0  0  0  0  0  0  0  0
    7.3301    2.4827    0.0000 C   0  0  0  0  0  0  0  0  0  0  0  0
    7.4641   -2.0173    0.0000 C   0  0  0  0  0  0  0  0  0  0  0  0
    6.4641   -3.0173    0.0000 C   0  0  0  0  0  0  0  0  0  0  0  0
    5.4641   -2.0173    0.0000 C   0  0  0  0  0  0  0  0  0  0  0  0
    8.2241    1.9480    0.0000 C   0  0  0  0  0  0  0  0  0  0  0  0
    6.4641    1.9827    0.0000 C   0  0  0  0  0  0  0  0  0  0  0  0
    9.1301    2.4619    0.0000 C   0  0  0  0  0  0  0  0  0  0  0  0
    7.3301    3.4827    0.0000 C   0  0  0  0  0  0  0  0  0  0  0  0
    3.0000   -3.0173    0.0000 C   0  0  0  0  0  0  0  0  0  0  0  0
    9.1301    3.5035    0.0000 C   0  0  0  0  0  0  0  0  0  0  0  0
    8.2241    4.0174    0.0000 C   0  0  0  0  0  0  0  0  0  0  0  0
    5.5981    2.4827    0.0000 C   0  0  0  0  0  0  0  0  0  0  0  0
    6.4641    3.9827    0.0000 C   0  0  0  0  0  0  0  0  0  0  0  0
    3.0000   -4.0173    0.0000 C   0  0  0  0  0  0  0  0  0  0  0  0
    5.5981    3.4827    0.0000 C   0  0  0  0  0  0  0  0  0  0  0  0
    4.3335   -1.4922    0.0000 H   0  0  0  0  0  0  0  0  0  0  0  0
    5.1306   -1.4922    0.0000 H   0  0  0  0  0  0  0  0  0  0  0  0
    6.1350   -0.2073    0.0000 H   0  0  0  0  0  0  0  0  0  0  0  0
    5.3860    1.0653    0.0000 H   0  0  0  0  0  0  0  0  0  0  0  0
    4.9875    0.3750    0.0000 H   0  0  0  0  0  0  0  0  0  0  0  0
    2.8660    1.1027    0.0000 H   0  0  0  0  0  0  0  0  0  0  0  0
    2.2460    0.4827    0.0000 H   0  0  0  0  0  0  0  0  0  0  0  0
    2.8660   -0.1373    0.0000 H   0  0  0  0  0  0  0  0  0  0  0  0
    4.8660   -0.1373    0.0000 H   0  0  0  0  0  0  0  0  0  0  0  0
    5.4860    0.4827    0.0000 H   0  0  0  0  0  0  0  0  0  0  0  0
    4.8660    1.1027    0.0000 H   0  0  0  0  0  0  0  0  0  0  0  0
    4.4860    1.4827    0.0000 H   0  0  0  0  0  0  0  0  0  0  0  0
    3.8660    2.1027    0.0000 H   0  0  0  0  0  0  0  0  0  0  0  0
    3.2460    1.4827    0.0000 H   0  0  0  0  0  0  0  0  0  0  0  0
    7.4641   -2.6373    0.0000 H   0  0  0  0  0  0  0  0  0  0  0  0
    8.0841   -2.0173    0.0000 H   0  0  0  0  0  0  0  0  0  0  0  0
    7.4641   -1.3973    0.0000 H   0  0  0  0  0  0  0  0  0  0  0  0
    5.8441   -3.0173    0.0000 H   0  0  0  0  0  0  0  0  0  0  0  0
    6.4641   -3.6373    0.0000 H   0  0  0  0  0  0  0  0  0  0  0  0
    7.0841   -3.0173    0.0000 H   0  0  0  0  0  0  0  0  0  0  0  0
    5.4641   -1.3973    0.0000 H   0  0  0  0  0  0  0  0  0  0  0  0
    4.8441   -2.0173    0.0000 H   0  0  0  0  0  0  0  0  0  0  0  0
    5.4641   -2.6373    0.0000 H   0  0  0  0  0  0  0  0  0  0  0  0
    7.8195    1.4782    0.0000 H   0  0  0  0  0  0  0  0  0  0  0  0
    8.6177    1.4690    0.0000 H   0  0  0  0  0  0  0  0  0  0  0  0
    9.3392    1.8782    0.0000 H   0  0  0  0  0  0  0  0  0  0  0  0
    9.7410    2.5680    0.0000 H   0  0  0  0  0  0  0  0  0  0  0  0
    9.7410    3.3974    0.0000 H   0  0  0  0  0  0  0  0  0  0  0  0
    9.3392    4.0872    0.0000 H   0  0  0  0  0  0  0  0  0  0  0  0
    5.0611    2.1727    0.0000 H   0  0  0  0  0  0  0  0  0  0  0  0
    6.4641    4.6027    0.0000 H   0  0  0  0  0  0  0  0  0  0  0  0
    5.0611    3.7927    0.0000 H   0  0  0  0  0  0  0  0  0  0  0  0
  1  9  1  0  0  0  0
  1 24  1  0  0  0  0
  1 25  1  0  0  0  0
  1 26  1  0  0  0  0
  2 22  1  0  0  0  0
  3 22  1  0  0  0  0
  4 31  1  0  0  0  0
  5 31  1  0  0  0  0
  6 36  1  0  0  0  0
  7 36  1  0  0  0  0
  8 36  1  0  0  0  0
  9 16  1  0  0  0  0
 10 17  1  0  0  0  0
 10 28  1  0  0  0  0
 11 21  2  0  0  0  0
 12 33  2  0  0  0  0
 13 14  1  0  0  0  0
 13 15  1  0  0  0  0
 13 21  1  0  0  0  0
 14 18  1  0  0  0  0
 14 19  1  0  0  0  0
 14 20  1  0  0  0  0
 15 16  1  0  0  0  0
 15 38  1  0  0  0  0
 15 39  1  0  0  0  0
 16 17  1  0  0  0  0
 16 40  1  0  0  0  0
 17 41  1  0  0  0  0
 17 42  1  0  0  0  0
 18 43  1  0  0  0  0
 18 44  1  0  0  0  0
 18 45  1  0  0  0  0
 19 46  1  0  0  0  0
 19 47  1  0  0  0  0
 19 48  1  0  0  0  0
 20 49  1  0  0  0  0
 20 50  1  0  0  0  0
 20 51  1  0  0  0  0
 21 22  1  0  0  0  0
 22 31  1  0  0  0  0
 23 27  1  0  0  0  0
 23 28  1  0  0  0  0
 23 30  2  0  0  0  0
 24 52  1  0  0  0  0
 24 53  1  0  0  0  0
 24 54  1  0  0  0  0
 25 55  1  0  0  0  0
 25 56  1  0  0  0  0
 25 57  1  0  0  0  0
 26 58  1  0  0  0  0
 26 59  1  0  0  0  0
 26 60  1  0  0  0  0
 27 29  1  0  0  0  0
 27 61  1  0  0  0  0
 27 62  1  0  0  0  0
 28 34  2  0  0  0  0
 29 32  1  0  0  0  0
 29 63  1  0  0  0  0
 29 64  1  0  0  0  0
 30 33  1  0  0  0  0
 30 35  1  0  0  0  0
 31 36  1  0  0  0  0
 32 33  1  0  0  0  0
 32 65  1  0  0  0  0
 32 66  1  0  0  0  0
 34 37  1  0  0  0  0
 34 67  1  0  0  0  0
 35 37  2  0  0  0  0
 35 68  1  0  0  0  0
 37 69  1  0  0  0  0
M  END
> <PUBCHEM_COMPOUND_CID>
526478
> <PUBCHEM_COMPOUND_CANONICALIZED>
1
> <PUBCHEM_CACTVS_COMPLEXITY>
823
> <PUBCHEM_CACTVS_HBOND_ACCEPTOR>
11
> <PUBCHEM_CACTVS_HBOND_DONOR>
0
> <PUBCHEM_CACTVS_ROTATABLE_BOND>
10
> <PUBCHEM_CACTVS_SUBSKEYS>
AAADcfB6OcgAAAAAAAAAAAAAAAAAAAAAAAAwYAAAAAAAAADBAAAAHxAAAEAADJzhmBZyBoMABAGIAqFSEAACCAAkIAAIiAEOCMgPJjKEtRqGOSCmxhGaqYeKyLCOgAABAAAYAAAAAAIAADAAAAAAAAAAAA==
> <PUBCHEM_IUPAC_OPENEYE_NAME>
N-tert-butyl-2,2,3,3,4,4,4-heptafluoro-N-[3-(1-oxotetralin-5-yl)oxy-2-trimethylsilyloxy-propyl]butanamide
> <PUBCHEM_IUPAC_CAS_NAME>
N-tert-butyl-2,2,3,3,4,4,4-heptafluoro-N-[3-[(5-oxo-7,8-dihydro-6H-naphthalen-1-yl)oxy]-2-trimethylsilyloxypropyl]butanamide
> <PUBCHEM_IUPAC_NAME_MARKUP>
<I>N</I>-<I>tert</I>-butyl-2,2,3,3,4,4,4-heptafluoro-<I>N</I>-[3-[(5-oxo-7,8-dihydro-6<I>H</I>-naphthalen-1-yl)oxy]-2-trimethylsilyloxypropyl]butanamide
> <PUBCHEM_IUPAC_NAME>
N-tert-butyl-2,2,3,3,4,4,4-heptafluoro-N-[3-[(5-oxo-7,8-dihydro-6H-naphthalen-1-yl)oxy]-2-trimethylsilyloxypropyl]butanamide
> <PUBCHEM_IUPAC_SYSTEMATIC_NAME>
N-tert-butyl-2,2,3,3,4,4,4-heptakis(fluoranyl)-N-[3-[(5-oxidanylidene-7,8-dihydro-6H-naphthalen-1-yl)oxy]-2-trimethylsilyloxy-propyl]butanamide
> <PUBCHEM_IUPAC_TRADITIONAL_NAME>
N-tert-butyl-2,2,3,3,4,4,4-heptafluoro-N-[3-(1-ketotetralin-5-yl)oxy-2-trimethylsilyloxy-propyl]butyramide
> <PUBCHEM_IUPAC_INCHI>
InChI=1S/C24H32F7NO4Si/c1-21(2,3)32(20(34)22(25,26)23(27,28)24(29,30)31)13-15(36-37(4,5)6)14-35-19-12-8-9-16-17(19)10-7-11-18(16)33/h8-9,12,15H,7,10-11,13-14H2,1-6H3
> <PUBCHEM_IUPAC_INCHIKEY>
HUEVZQQSYOVYFF-UHFFFAOYSA-N
> <PUBCHEM_EXACT_MASS>
559.19888217
> <PUBCHEM_MOLECULAR_FORMULA>
C24H32F7NO4Si
> <PUBCHEM_MOLECULAR_WEIGHT>
559.6
> <PUBCHEM_OPENEYE_CAN_SMILES>
CC(C)(C)N(CC(COC1=CC=CC2=C1CCCC2=O)O[Si](C)(C)C)C(=O)C(C(C(F)(F)F)(F)F)(F)F
> <PUBCHEM_OPENEYE_ISO_SMILES>
CC(C)(C)N(CC(COC1=CC=CC2=C1CCCC2=O)O[Si](C)(C)C)C(=O)C(C(C(F)(F)F)(F)F)(F)F
> <PUBCHEM_CACTVS_TPSA>
55.8
> <PUBCHEM_MONOISOTOPIC_WEIGHT>
559.19888217
> <PUBCHEM_TOTAL_CHARGE>
0
> <PUBCHEM_HEAVY_ATOM_COUNT>
37
> <PUBCHEM_ATOM_DEF_STEREO_COUNT>
0
> <PUBCHEM_ATOM_UDEF_STEREO_COUNT>
1
> <PUBCHEM_BOND_DEF_STEREO_COUNT>
0
> <PUBCHEM_BOND_UDEF_STEREO_COUNT>
0
> <PUBCHEM_ISOTOPIC_ATOM_COUNT>
0
> <PUBCHEM_COMPONENT_COUNT>
1
> <PUBCHEM_CACTVS_TAUTO_COUNT>
-1
> <PUBCHEM_COORDINATE_TYPE>
1
5
255
> <PUBCHEM_BONDANNOTATIONS>
16  15  3
23  28  8
23  30  8
28  34  8
30  35  8
34  37  8
35  37  8
$$$$
