526537
  -OEChem-10302200292D
 38 39  0     1  0  0  0  0  0999 V2000
    8.0694    0.0168    0.0000 O   0  0  0  0  0  0  0  0  0  0  0  0
    4.5743    0.2295    0.0000 O   0  0  0  0  0  0  0  0  0  0  0  0
    4.9344    1.9237    0.0000 O   0  0  0  0  0  0  0  0  0  0  0  0
    6.8126   -2.2384    0.0000 N   0  0  3  0  0  0  0  0  0  0  0  0
    6.8126   -1.2384    0.0000 C   0  0  3  0  0  0  0  0  0  0  0  0
    5.8615   -0.9294    0.0000 C   0  0  3  0  0  0  0  0  0  0  0  0
    7.7588   -0.9337    0.0000 C   0  0  3  0  0  0  0  0  0  0  0  0
    5.2737   -1.7384    0.0000 C   0  0  0  0  0  0  0  0  0  0  0  0
    5.8615   -2.5475    0.0000 C   0  0  0  0  0  0  0  0  0  0  0  0
    7.7588   -2.5432    0.0000 C   0  0  0  0  0  0  0  0  0  0  0  0
    8.3424   -1.7384    0.0000 C   0  0  0  0  0  0  0  0  0  0  0  0
    5.5525    0.0216    0.0000 C   0  0  0  0  0  0  0  0  0  0  0  0
    4.2653    1.1806    0.0000 C   0  0  0  0  0  0  0  0  0  0  0  0
    3.2872    1.3885    0.0000 C   0  0  0  0  0  0  0  0  0  0  0  0
    2.6180    0.6454    0.0000 C   0  0  0  0  0  0  0  0  0  0  0  0
    2.9782    2.3396    0.0000 C   0  0  0  0  0  0  0  0  0  0  0  0
    2.0000    2.5475    0.0000 C   0  0  0  0  0  0  0  0  0  0  0  0
    6.8134   -0.6185    0.0000 H   0  0  0  0  0  0  0  0  0  0  0  0
    5.2491   -0.8324    0.0000 H   0  0  0  0  0  0  0  0  0  0  0  0
    7.3213   -0.4944    0.0000 H   0  0  0  0  0  0  0  0  0  0  0  0
    4.8130   -1.3236    0.0000 H   0  0  0  0  0  0  0  0  0  0  0  0
    4.8130   -2.1533    0.0000 H   0  0  0  0  0  0  0  0  0  0  0  0
    5.3246   -2.8575    0.0000 H   0  0  0  0  0  0  0  0  0  0  0  0
    6.1137   -3.1139    0.0000 H   0  0  0  0  0  0  0  0  0  0  0  0
    7.5077   -3.1101    0.0000 H   0  0  0  0  0  0  0  0  0  0  0  0
    8.2962   -2.8524    0.0000 H   0  0  0  0  0  0  0  0  0  0  0  0
    8.8032   -2.1532    0.0000 H   0  0  0  0  0  0  0  0  0  0  0  0
    8.8032   -1.3237    0.0000 H   0  0  0  0  0  0  0  0  0  0  0  0
    6.1664    0.1079    0.0000 H   0  0  0  0  0  0  0  0  0  0  0  0
    5.5741    0.6412    0.0000 H   0  0  0  0  0  0  0  0  0  0  0  0
    8.6761    0.1447    0.0000 H   0  0  0  0  0  0  0  0  0  0  0  0
    2.1573    1.0602    0.0000 H   0  0  0  0  0  0  0  0  0  0  0  0
    2.2032    0.1846    0.0000 H   0  0  0  0  0  0  0  0  0  0  0  0
    3.0788    0.2305    0.0000 H   0  0  0  0  0  0  0  0  0  0  0  0
    3.3930    2.8003    0.0000 H   0  0  0  0  0  0  0  0  0  0  0  0
    2.1289    3.1539    0.0000 H   0  0  0  0  0  0  0  0  0  0  0  0
    1.3936    2.6764    0.0000 H   0  0  0  0  0  0  0  0  0  0  0  0
    1.8711    1.9410    0.0000 H   0  0  0  0  0  0  0  0  0  0  0  0
  1  7  1  0  0  0  0
  1 31  1  0  0  0  0
  2 12  1  0  0  0  0
  2 13  1  0  0  0  0
  3 13  2  0  0  0  0
  4  5  1  0  0  0  0
  4  9  1  0  0  0  0
  4 10  1  0  0  0  0
  5  6  1  0  0  0  0
  5  7  1  0  0  0  0
  5 18  1  0  0  0  0
  6  8  1  0  0  0  0
  6 12  1  0  0  0  0
  6 19  1  0  0  0  0
  7 11  1  0  0  0  0
  7 20  1  0  0  0  0
  8  9  1  0  0  0  0
  8 21  1  0  0  0  0
  8 22  1  0  0  0  0
  9 23  1  0  0  0  0
  9 24  1  0  0  0  0
 10 11  1  0  0  0  0
 10 25  1  0  0  0  0
 10 26  1  0  0  0  0
 11 27  1  0  0  0  0
 11 28  1  0  0  0  0
 12 29  1  0  0  0  0
 12 30  1  0  0  0  0
 13 14  1  0  0  0  0
 14 15  1  0  0  0  0
 14 16  2  3  0  0  0
 15 32  1  0  0  0  0
 15 33  1  0  0  0  0
 15 34  1  0  0  0  0
 16 17  1  0  0  0  0
 16 35  1  0  0  0  0
 17 36  1  0  0  0  0
 17 37  1  0  0  0  0
 17 38  1  0  0  0  0
M  END
> <PUBCHEM_COMPOUND_CID>
526537
> <PUBCHEM_COMPOUND_CANONICALIZED>
1
> <PUBCHEM_CACTVS_COMPLEXITY>
327
> <PUBCHEM_CACTVS_HBOND_ACCEPTOR>
4
> <PUBCHEM_CACTVS_HBOND_DONOR>
1
> <PUBCHEM_CACTVS_ROTATABLE_BOND>
4
> <PUBCHEM_CACTVS_SUBSKEYS>
AAADceByMAAAAAAAAAAAAAAAAAAAAWLAAAAAAAAAAAAWAAAAAAAAHgAACAAADTzhgAYCCAMABgCIAiDSCAAAAAAAAAAACAEIAEACFAIAoQAGUAAGAACQIYHw0AIOAAAAAAAAAAAAAAAAAAAAAAAAAAAAAA==
> <PUBCHEM_IUPAC_OPENEYE_NAME>
(7-hydroxy-2,3,5,6,7,8-hexahydro-1H-pyrrolizin-1-yl)methyl 2-methylbut-2-enoate
> <PUBCHEM_IUPAC_CAS_NAME>
2-methyl-2-butenoic acid (7-hydroxy-2,3,5,6,7,8-hexahydro-1H-pyrrolizin-1-yl)methyl ester
> <PUBCHEM_IUPAC_NAME_MARKUP>
(7-hydroxy-2,3,5,6,7,8-hexahydro-1<I>H</I>-pyrrolizin-1-yl)methyl 2-methylbut-2-enoate
> <PUBCHEM_IUPAC_NAME>
(7-hydroxy-2,3,5,6,7,8-hexahydro-1H-pyrrolizin-1-yl)methyl 2-methylbut-2-enoate
> <PUBCHEM_IUPAC_SYSTEMATIC_NAME>
(7-oxidanyl-2,3,5,6,7,8-hexahydro-1H-pyrrolizin-1-yl)methyl 2-methylbut-2-enoate
> <PUBCHEM_IUPAC_TRADITIONAL_NAME>
2-methylbut-2-enoic acid (7-hydroxypyrrolizidin-1-yl)methyl ester
> <PUBCHEM_IUPAC_INCHI>
InChI=1S/C13H21NO3/c1-3-9(2)13(16)17-8-10-4-6-14-7-5-11(15)12(10)14/h3,10-12,15H,4-8H2,1-2H3
> <PUBCHEM_IUPAC_INCHIKEY>
FOWFFDPFIJUTGG-UHFFFAOYSA-N
> <PUBCHEM_XLOGP3_AA>
1.3
> <PUBCHEM_EXACT_MASS>
239.15214353
> <PUBCHEM_MOLECULAR_FORMULA>
C13H21NO3
> <PUBCHEM_MOLECULAR_WEIGHT>
239.31
> <PUBCHEM_OPENEYE_CAN_SMILES>
CC=C(C)C(=O)OCC1CCN2C1C(CC2)O
> <PUBCHEM_OPENEYE_ISO_SMILES>
CC=C(C)C(=O)OCC1CCN2C1C(CC2)O
> <PUBCHEM_CACTVS_TPSA>
49.8
> <PUBCHEM_MONOISOTOPIC_WEIGHT>
239.15214353
> <PUBCHEM_TOTAL_CHARGE>
0
> <PUBCHEM_HEAVY_ATOM_COUNT>
17
> <PUBCHEM_ATOM_DEF_STEREO_COUNT>
0
> <PUBCHEM_ATOM_UDEF_STEREO_COUNT>
3
> <PUBCHEM_BOND_DEF_STEREO_COUNT>
0
> <PUBCHEM_BOND_UDEF_STEREO_COUNT>
1
> <PUBCHEM_ISOTOPIC_ATOM_COUNT>
0
> <PUBCHEM_COMPONENT_COUNT>
1
> <PUBCHEM_CACTVS_TAUTO_COUNT>
-1
> <PUBCHEM_COORDINATE_TYPE>
1
5
255
> <PUBCHEM_BONDANNOTATIONS>
7  1  3
14  16  1
5  4  3
6  12  3
$$$$
