526519
  -OEChem-10302200292D
110113  0     1  0  0  0  0  0999 V2000
    9.1546   -4.4708    0.0000 Si  0  0  0  0  0  0  0  0  0  0  0  0
    2.8641   -2.9884    0.0000 Si  0  0  0  0  0  0  0  0  0  0  0  0
   15.2242    4.4922    0.0000 Si  0  0  0  0  0  0  0  0  0  0  0  0
    9.1430   -3.4709    0.0000 O   0  0  0  0  0  0  0  0  0  0  0  0
    3.7282   -3.4918    0.0000 O   0  0  0  0  0  0  0  0  0  0  0  0
   14.2457    4.2860    0.0000 O   0  0  0  0  0  0  0  0  0  0  0  0
    9.1213   -0.4394    0.0000 C   0  0  3  0  0  0  0  0  0  0  0  0
    9.1213   -1.4394    0.0000 C   0  0  3  0  0  0  0  0  0  0  0  0
    8.2552   -1.9394    0.0000 C   0  0  3  0  0  0  0  0  0  0  0  0
    7.3892   -1.4394    0.0000 C   0  0  3  0  0  0  0  0  0  0  0  0
   10.0675   -0.1347    0.0000 C   0  0  3  0  0  0  0  0  0  0  0  0
    8.2552    0.0606    0.0000 C   0  0  0  0  0  0  0  0  0  0  0  0
   10.0675   -1.7442    0.0000 C   0  0  0  0  0  0  0  0  0  0  0  0
    6.4792   -1.9463    0.0000 C   0  0  3  0  0  0  0  0  0  0  0  0
    7.3892   -0.4394    0.0000 C   0  0  0  0  0  0  0  0  0  0  0  0
   10.6511   -0.9394    0.0000 C   0  0  0  0  0  0  0  0  0  0  0  0
    8.2713   -2.9809    0.0000 C   0  0  3  0  0  0  0  0  0  0  0  0
   10.3781    0.8158    0.0000 C   0  0  3  0  0  0  0  0  0  0  0  0
    9.1213    0.5606    0.0000 C   0  0  0  0  0  0  0  0  0  0  0  0
    7.3733   -3.5087    0.0000 C   0  0  0  0  0  0  0  0  0  0  0  0
    6.4712   -2.9879    0.0000 C   0  0  0  0  0  0  0  0  0  0  0  0
    5.5524   -1.3822    0.0000 C   0  0  0  0  0  0  0  0  0  0  0  0
    6.4869   -0.9463    0.0000 C   0  0  0  0  0  0  0  0  0  0  0  0
   11.3567    1.0220    0.0000 C   0  0  0  0  0  0  0  0  0  0  0  0
    9.7103    1.5601    0.0000 C   0  0  0  0  0  0  0  0  0  0  0  0
    5.5358   -3.5376    0.0000 C   0  0  0  0  0  0  0  0  0  0  0  0
    4.6045   -1.9101    0.0000 C   0  0  0  0  0  0  0  0  0  0  0  0
    4.5961   -2.9951    0.0000 C   0  0  0  0  0  0  0  0  0  0  0  0
   11.6673    1.9726    0.0000 C   0  0  0  0  0  0  0  0  0  0  0  0
   12.6458    2.1788    0.0000 C   0  0  0  0  0  0  0  0  0  0  0  0
    9.1662   -5.4708    0.0000 C   0  0  0  0  0  0  0  0  0  0  0  0
   10.1545   -4.4593    0.0000 C   0  0  0  0  0  0  0  0  0  0  0  0
    8.1547   -4.4824    0.0000 C   0  0  0  0  0  0  0  0  0  0  0  0
   12.9565    3.1293    0.0000 C   0  0  3  0  0  0  0  0  0  0  0  0
   13.9350    3.3355    0.0000 C   0  0  0  0  0  0  0  0  0  0  0  0
   12.2886    3.8736    0.0000 C   0  0  0  0  0  0  0  0  0  0  0  0
    2.0000   -2.4851    0.0000 C   0  0  0  0  0  0  0  0  0  0  0  0
    2.3608   -3.8525    0.0000 C   0  0  0  0  0  0  0  0  0  0  0  0
    3.3674   -2.1243    0.0000 C   0  0  0  0  0  0  0  0  0  0  0  0
   16.2027    4.6985    0.0000 C   0  0  0  0  0  0  0  0  0  0  0  0
   15.0179    5.4708    0.0000 C   0  0  0  0  0  0  0  0  0  0  0  0
   15.4304    3.5138    0.0000 C   0  0  0  0  0  0  0  0  0  0  0  0
    9.1869   -2.0560    0.0000 H   0  0  0  0  0  0  0  0  0  0  0  0
    8.7945   -2.2453    0.0000 H   0  0  0  0  0  0  0  0  0  0  0  0
    7.9262   -1.1294    0.0000 H   0  0  0  0  0  0  0  0  0  0  0  0
   10.6800   -0.0385    0.0000 H   0  0  0  0  0  0  0  0  0  0  0  0
    8.6538    0.5355    0.0000 H   0  0  0  0  0  0  0  0  0  0  0  0
    7.8567    0.5355    0.0000 H   0  0  0  0  0  0  0  0  0  0  0  0
    9.8164   -2.3111    0.0000 H   0  0  0  0  0  0  0  0  0  0  0  0
   10.6049   -2.0534    0.0000 H   0  0  0  0  0  0  0  0  0  0  0  0
    7.1772    0.1432    0.0000 H   0  0  0  0  0  0  0  0  0  0  0  0
    6.7786   -0.5471    0.0000 H   0  0  0  0  0  0  0  0  0  0  0  0
   11.1120   -1.3542    0.0000 H   0  0  0  0  0  0  0  0  0  0  0  0
   11.1120   -0.5247    0.0000 H   0  0  0  0  0  0  0  0  0  0  0  0
    8.2773   -3.6009    0.0000 H   0  0  0  0  0  0  0  0  0  0  0  0
   10.5708    1.4051    0.0000 H   0  0  0  0  0  0  0  0  0  0  0  0
    9.7413    0.5606    0.0000 H   0  0  0  0  0  0  0  0  0  0  0  0
    9.1213    1.1806    0.0000 H   0  0  0  0  0  0  0  0  0  0  0  0
    8.5013    0.5606    0.0000 H   0  0  0  0  0  0  0  0  0  0  0  0
    6.9760   -3.9847    0.0000 H   0  0  0  0  0  0  0  0  0  0  0  0
    7.7742   -3.9816    0.0000 H   0  0  0  0  0  0  0  0  0  0  0  0
    5.9606   -0.9155    0.0000 H   0  0  0  0  0  0  0  0  0  0  0  0
    5.1625   -0.9002    0.0000 H   0  0  0  0  0  0  0  0  0  0  0  0
    7.1069   -0.9511    0.0000 H   0  0  0  0  0  0  0  0  0  0  0  0
    6.4917   -0.3263    0.0000 H   0  0  0  0  0  0  0  0  0  0  0  0
    5.8669   -0.9415    0.0000 H   0  0  0  0  0  0  0  0  0  0  0  0
   11.3772    0.4024    0.0000 H   0  0  0  0  0  0  0  0  0  0  0  0
   11.9705    0.9347    0.0000 H   0  0  0  0  0  0  0  0  0  0  0  0
   10.1718    1.9742    0.0000 H   0  0  0  0  0  0  0  0  0  0  0  0
    9.2962    2.0216    0.0000 H   0  0  0  0  0  0  0  0  0  0  0  0
    9.2488    1.1461    0.0000 H   0  0  0  0  0  0  0  0  0  0  0  0
    5.5382   -4.1576    0.0000 H   0  0  0  0  0  0  0  0  0  0  0  0
    4.0712   -1.5940    0.0000 H   0  0  0  0  0  0  0  0  0  0  0  0
   11.6468    2.5922    0.0000 H   0  0  0  0  0  0  0  0  0  0  0  0
   11.0535    2.0599    0.0000 H   0  0  0  0  0  0  0  0  0  0  0  0
   12.6664    1.5591    0.0000 H   0  0  0  0  0  0  0  0  0  0  0  0
   13.2596    2.0914    0.0000 H   0  0  0  0  0  0  0  0  0  0  0  0
    8.5462   -5.4779    0.0000 H   0  0  0  0  0  0  0  0  0  0  0  0
    9.1733   -6.0907    0.0000 H   0  0  0  0  0  0  0  0  0  0  0  0
    9.7861   -5.4636    0.0000 H   0  0  0  0  0  0  0  0  0  0  0  0
   10.1617   -5.0792    0.0000 H   0  0  0  0  0  0  0  0  0  0  0  0
   10.7745   -4.4521    0.0000 H   0  0  0  0  0  0  0  0  0  0  0  0
   10.1474   -3.8393    0.0000 H   0  0  0  0  0  0  0  0  0  0  0  0
    8.1475   -3.8624    0.0000 H   0  0  0  0  0  0  0  0  0  0  0  0
    7.5347   -4.4896    0.0000 H   0  0  0  0  0  0  0  0  0  0  0  0
    8.1618   -5.1024    0.0000 H   0  0  0  0  0  0  0  0  0  0  0  0
   13.1491    3.7186    0.0000 H   0  0  0  0  0  0  0  0  0  0  0  0
   13.9556    2.7159    0.0000 H   0  0  0  0  0  0  0  0  0  0  0  0
   14.5488    3.2482    0.0000 H   0  0  0  0  0  0  0  0  0  0  0  0
   12.7501    4.2877    0.0000 H   0  0  0  0  0  0  0  0  0  0  0  0
   11.8746    4.3351    0.0000 H   0  0  0  0  0  0  0  0  0  0  0  0
   11.8272    3.4595    0.0000 H   0  0  0  0  0  0  0  0  0  0  0  0
    2.3121   -1.9494    0.0000 H   0  0  0  0  0  0  0  0  0  0  0  0
    1.4643   -2.1730    0.0000 H   0  0  0  0  0  0  0  0  0  0  0  0
    1.6879   -3.0208    0.0000 H   0  0  0  0  0  0  0  0  0  0  0  0
    1.8250   -3.5405    0.0000 H   0  0  0  0  0  0  0  0  0  0  0  0
    2.0487   -4.3883    0.0000 H   0  0  0  0  0  0  0  0  0  0  0  0
    2.8965   -4.1646    0.0000 H   0  0  0  0  0  0  0  0  0  0  0  0
    3.9032   -2.4364    0.0000 H   0  0  0  0  0  0  0  0  0  0  0  0
    3.6795   -1.5886    0.0000 H   0  0  0  0  0  0  0  0  0  0  0  0
    2.8317   -1.8123    0.0000 H   0  0  0  0  0  0  0  0  0  0  0  0
   16.3305    4.0918    0.0000 H   0  0  0  0  0  0  0  0  0  0  0  0
   16.8093    4.8263    0.0000 H   0  0  0  0  0  0  0  0  0  0  0  0
   16.0748    5.3052    0.0000 H   0  0  0  0  0  0  0  0  0  0  0  0
   15.6246    5.5986    0.0000 H   0  0  0  0  0  0  0  0  0  0  0  0
   14.8901    6.0774    0.0000 H   0  0  0  0  0  0  0  0  0  0  0  0
   14.4113    5.3429    0.0000 H   0  0  0  0  0  0  0  0  0  0  0  0
   14.8237    3.3859    0.0000 H   0  0  0  0  0  0  0  0  0  0  0  0
   15.5582    2.9071    0.0000 H   0  0  0  0  0  0  0  0  0  0  0  0
   16.0371    3.6416    0.0000 H   0  0  0  0  0  0  0  0  0  0  0  0
  1  4  1  0  0  0  0
  1 31  1  0  0  0  0
  1 32  1  0  0  0  0
  1 33  1  0  0  0  0
  2  5  1  0  0  0  0
  2 37  1  0  0  0  0
  2 38  1  0  0  0  0
  2 39  1  0  0  0  0
  3  6  1  0  0  0  0
  3 40  1  0  0  0  0
  3 41  1  0  0  0  0
  3 42  1  0  0  0  0
  4 17  1  0  0  0  0
  5 28  1  0  0  0  0
  6 35  1  0  0  0  0
  7  8  1  0  0  0  0
  7 11  1  0  0  0  0
  7 12  1  0  0  0  0
  7 19  1  0  0  0  0
  8  9  1  0  0  0  0
  8 13  1  0  0  0  0
  8 43  1  0  0  0  0
  9 10  1  0  0  0  0
  9 17  1  0  0  0  0
  9 44  1  0  0  0  0
 10 14  1  0  0  0  0
 10 15  1  0  0  0  0
 10 45  1  0  0  0  0
 11 16  1  0  0  0  0
 11 18  1  0  0  0  0
 11 46  1  0  0  0  0
 12 15  1  0  0  0  0
 12 47  1  0  0  0  0
 12 48  1  0  0  0  0
 13 16  1  0  0  0  0
 13 49  1  0  0  0  0
 13 50  1  0  0  0  0
 14 21  1  0  0  0  0
 14 22  1  0  0  0  0
 14 23  1  0  0  0  0
 15 51  1  0  0  0  0
 15 52  1  0  0  0  0
 16 53  1  0  0  0  0
 16 54  1  0  0  0  0
 17 20  1  0  0  0  0
 17 55  1  0  0  0  0
 18 24  1  0  0  0  0
 18 25  1  0  0  0  0
 18 56  1  0  0  0  0
 19 57  1  0  0  0  0
 19 58  1  0  0  0  0
 19 59  1  0  0  0  0
 20 21  1  0  0  0  0
 20 60  1  0  0  0  0
 20 61  1  0  0  0  0
 21 26  2  0  0  0  0
 22 27  1  0  0  0  0
 22 62  1  0  0  0  0
 22 63  1  0  0  0  0
 23 64  1  0  0  0  0
 23 65  1  0  0  0  0
 23 66  1  0  0  0  0
 24 29  1  0  0  0  0
 24 67  1  0  0  0  0
 24 68  1  0  0  0  0
 25 69  1  0  0  0  0
 25 70  1  0  0  0  0
 25 71  1  0  0  0  0
 26 28  1  0  0  0  0
 26 72  1  0  0  0  0
 27 28  2  0  0  0  0
 27 73  1  0  0  0  0
 29 30  1  0  0  0  0
 29 74  1  0  0  0  0
 29 75  1  0  0  0  0
 30 34  1  0  0  0  0
 30 76  1  0  0  0  0
 30 77  1  0  0  0  0
 31 78  1  0  0  0  0
 31 79  1  0  0  0  0
 31 80  1  0  0  0  0
 32 81  1  0  0  0  0
 32 82  1  0  0  0  0
 32 83  1  0  0  0  0
 33 84  1  0  0  0  0
 33 85  1  0  0  0  0
 33 86  1  0  0  0  0
 34 35  1  0  0  0  0
 34 36  1  0  0  0  0
 34 87  1  0  0  0  0
 35 88  1  0  0  0  0
 35 89  1  0  0  0  0
 36 90  1  0  0  0  0
 36 91  1  0  0  0  0
 36 92  1  0  0  0  0
 37 93  1  0  0  0  0
 37 94  1  0  0  0  0
 37 95  1  0  0  0  0
 38 96  1  0  0  0  0
 38 97  1  0  0  0  0
 38 98  1  0  0  0  0
 39 99  1  0  0  0  0
 39100  1  0  0  0  0
 39101  1  0  0  0  0
 40102  1  0  0  0  0
 40103  1  0  0  0  0
 40104  1  0  0  0  0
 41105  1  0  0  0  0
 41106  1  0  0  0  0
 41107  1  0  0  0  0
 42108  1  0  0  0  0
 42109  1  0  0  0  0
 42110  1  0  0  0  0
M  END
> <PUBCHEM_COMPOUND_CID>
526519
> <PUBCHEM_COMPOUND_CANONICALIZED>
1
> <PUBCHEM_CACTVS_COMPLEXITY>
1000
> <PUBCHEM_CACTVS_HBOND_ACCEPTOR>
3
> <PUBCHEM_CACTVS_HBOND_DONOR>
0
> <PUBCHEM_CACTVS_ROTATABLE_BOND>
12
> <PUBCHEM_CACTVS_SUBSKEYS>
AAADcfB8MAwAAAAAAAAAAAAAAAAAAYAAAAAwYIAAAAAAAGDAAAAAGhAAAEAADxSggAJCAAAAAAGAAiBCAAAAAAAgIAAACAAAAAgIBAIAAQAAEAAEwAAIgAOAwPAPgAAAAAAAAADAAAYAADAAAQAACAAAAA==
> <PUBCHEM_IUPAC_OPENEYE_NAME>
[6-[10,13-dimethyl-3,7-bis(trimethylsilyloxy)-6,7,8,9,11,12,14,15,16,17-decahydro-1H-cyclopenta[a]phenanthren-17-yl]-2-methyl-heptoxy]-trimethyl-silane
> <PUBCHEM_IUPAC_CAS_NAME>
[6-[10,13-dimethyl-3,7-bis(trimethylsilyloxy)-6,7,8,9,11,12,14,15,16,17-decahydro-1H-cyclopenta[a]phenanthren-17-yl]-2-methylheptoxy]-trimethylsilane
> <PUBCHEM_IUPAC_NAME_MARKUP>
[6-[10,13-dimethyl-3,7-bis(trimethylsilyloxy)-6,7,8,9,11,12,14,15,16,17-decahydro-1<I>H</I>-cyclopenta[a]phenanthren-17-yl]-2-methylheptoxy]-trimethylsilane
> <PUBCHEM_IUPAC_NAME>
[6-[10,13-dimethyl-3,7-bis(trimethylsilyloxy)-6,7,8,9,11,12,14,15,16,17-decahydro-1H-cyclopenta[a]phenanthren-17-yl]-2-methylheptoxy]-trimethylsilane
> <PUBCHEM_IUPAC_SYSTEMATIC_NAME>
[6-[10,13-dimethyl-3,7-bis(trimethylsilyloxy)-6,7,8,9,11,12,14,15,16,17-decahydro-1H-cyclopenta[a]phenanthren-17-yl]-2-methyl-heptoxy]-trimethyl-silane
> <PUBCHEM_IUPAC_TRADITIONAL_NAME>
[6-[10,13-dimethyl-3,7-bis(trimethylsilyloxy)-6,7,8,9,11,12,14,15,16,17-decahydro-1H-cyclopenta[a]phenanthren-17-yl]-2-methyl-heptoxy]-trimethyl-silane
> <PUBCHEM_IUPAC_INCHI>
InChI=1S/C36H68O3Si3/c1-26(25-37-40(5,6)7)15-14-16-27(2)30-17-18-31-34-32(20-22-36(30,31)4)35(3)21-19-29(38-41(8,9)10)23-28(35)24-33(34)39-42(11,12)13/h19,23,26-27,30-34H,14-18,20-22,24-25H2,1-13H3
> <PUBCHEM_IUPAC_INCHIKEY>
LVBALRWAXSVALG-UHFFFAOYSA-N
> <PUBCHEM_EXACT_MASS>
632.44762563
> <PUBCHEM_MOLECULAR_FORMULA>
C36H68O3Si3
> <PUBCHEM_MOLECULAR_WEIGHT>
633.2
> <PUBCHEM_OPENEYE_CAN_SMILES>
CC(CCCC(C)C1CCC2C1(CCC3C2C(CC4=CC(=CCC34C)O[Si](C)(C)C)O[Si](C)(C)C)C)CO[Si](C)(C)C
> <PUBCHEM_OPENEYE_ISO_SMILES>
CC(CCCC(C)C1CCC2C1(CCC3C2C(CC4=CC(=CCC34C)O[Si](C)(C)C)O[Si](C)(C)C)C)CO[Si](C)(C)C
> <PUBCHEM_CACTVS_TPSA>
27.7
> <PUBCHEM_MONOISOTOPIC_WEIGHT>
632.44762563
> <PUBCHEM_TOTAL_CHARGE>
0
> <PUBCHEM_HEAVY_ATOM_COUNT>
42
> <PUBCHEM_ATOM_DEF_STEREO_COUNT>
0
> <PUBCHEM_ATOM_UDEF_STEREO_COUNT>
9
> <PUBCHEM_BOND_DEF_STEREO_COUNT>
0
> <PUBCHEM_BOND_UDEF_STEREO_COUNT>
0
> <PUBCHEM_ISOTOPIC_ATOM_COUNT>
0
> <PUBCHEM_COMPONENT_COUNT>
1
> <PUBCHEM_CACTVS_TAUTO_COUNT>
-1
> <PUBCHEM_COORDINATE_TYPE>
1
5
255
> <PUBCHEM_BONDANNOTATIONS>
10  15  3
11  16  3
14  23  3
18  25  3
34  36  3
17  4  3
7  19  3
8  13  3
9  17  3
$$$$
