526534
  -OEChem-10302200292D
 36 37  0     1  0  0  0  0  0999 V2000
    5.0000   -0.4094    0.0000 O   0  0  0  0  0  0  0  0  0  0  0  0
    9.7742    1.5521    0.0000 O   0  0  0  0  0  0  0  0  0  0  0  0
    5.0000   -2.1414    0.0000 O   0  0  0  0  0  0  0  0  0  0  0  0
    7.5388   -0.9094    0.0000 N   0  0  3  0  0  0  0  0  0  0  0  0
    7.5388    0.0906    0.0000 C   0  0  3  0  0  0  0  0  0  0  0  0
    6.5878    0.3996    0.0000 C   0  0  0  0  0  0  0  0  0  0  0  0
    6.0000   -0.4094    0.0000 C   0  0  3  0  0  0  0  0  0  0  0  0
    6.5878   -1.2184    0.0000 C   0  0  0  0  0  0  0  0  0  0  0  0
    8.4851    0.3954    0.0000 C   0  0  0  0  0  0  0  0  0  0  0  0
    8.4851   -1.2141    0.0000 C   0  0  0  0  0  0  0  0  0  0  0  0
    9.0687   -0.4094    0.0000 C   0  0  0  0  0  0  0  0  0  0  0  0
    8.7957    1.3459    0.0000 C   0  0  0  0  0  0  0  0  0  0  0  0
    4.5000   -1.2754    0.0000 C   0  0  0  0  0  0  0  0  0  0  0  0
    3.5000   -1.2754    0.0000 C   0  0  0  0  0  0  0  0  0  0  0  0
    3.0000   -0.4094    0.0000 C   0  0  0  0  0  0  0  0  0  0  0  0
    3.0000   -2.1414    0.0000 C   0  0  0  0  0  0  0  0  0  0  0  0
    2.0000   -2.1414    0.0000 C   0  0  0  0  0  0  0  0  0  0  0  0
    7.5396    0.7106    0.0000 H   0  0  0  0  0  0  0  0  0  0  0  0
    6.8400    0.9660    0.0000 H   0  0  0  0  0  0  0  0  0  0  0  0
    6.0508    0.7096    0.0000 H   0  0  0  0  0  0  0  0  0  0  0  0
    5.7185    0.1431    0.0000 H   0  0  0  0  0  0  0  0  0  0  0  0
    6.0508   -1.5284    0.0000 H   0  0  0  0  0  0  0  0  0  0  0  0
    6.8400   -1.7848    0.0000 H   0  0  0  0  0  0  0  0  0  0  0  0
    8.2340   -1.7810    0.0000 H   0  0  0  0  0  0  0  0  0  0  0  0
    9.0224   -1.5233    0.0000 H   0  0  0  0  0  0  0  0  0  0  0  0
    9.6887   -0.4094    0.0000 H   0  0  0  0  0  0  0  0  0  0  0  0
    8.7752    1.9655    0.0000 H   0  0  0  0  0  0  0  0  0  0  0  0
    8.1819    1.4332    0.0000 H   0  0  0  0  0  0  0  0  0  0  0  0
    9.9668    2.1414    0.0000 H   0  0  0  0  0  0  0  0  0  0  0  0
    3.5369   -0.0994    0.0000 H   0  0  0  0  0  0  0  0  0  0  0  0
    2.6900    0.1276    0.0000 H   0  0  0  0  0  0  0  0  0  0  0  0
    2.4631   -0.7194    0.0000 H   0  0  0  0  0  0  0  0  0  0  0  0
    3.3100   -2.6784    0.0000 H   0  0  0  0  0  0  0  0  0  0  0  0
    2.0000   -1.5214    0.0000 H   0  0  0  0  0  0  0  0  0  0  0  0
    1.3800   -2.1414    0.0000 H   0  0  0  0  0  0  0  0  0  0  0  0
    2.0000   -2.7614    0.0000 H   0  0  0  0  0  0  0  0  0  0  0  0
  1  7  1  0  0  0  0
  1 13  1  0  0  0  0
  2 12  1  0  0  0  0
  2 29  1  0  0  0  0
  3 13  2  0  0  0  0
  4  5  1  0  0  0  0
  4  8  1  0  0  0  0
  4 10  1  0  0  0  0
  5  6  1  0  0  0  0
  5  9  1  0  0  0  0
  5 18  1  0  0  0  0
  6  7  1  0  0  0  0
  6 19  1  0  0  0  0
  6 20  1  0  0  0  0
  7  8  1  0  0  0  0
  7 21  1  0  0  0  0
  8 22  1  0  0  0  0
  8 23  1  0  0  0  0
  9 11  2  0  0  0  0
  9 12  1  0  0  0  0
 10 11  1  0  0  0  0
 10 24  1  0  0  0  0
 10 25  1  0  0  0  0
 11 26  1  0  0  0  0
 12 27  1  0  0  0  0
 12 28  1  0  0  0  0
 13 14  1  0  0  0  0
 14 15  1  0  0  0  0
 14 16  2  3  0  0  0
 15 30  1  0  0  0  0
 15 31  1  0  0  0  0
 15 32  1  0  0  0  0
 16 17  1  0  0  0  0
 16 33  1  0  0  0  0
 17 34  1  0  0  0  0
 17 35  1  0  0  0  0
 17 36  1  0  0  0  0
M  END
> <PUBCHEM_COMPOUND_CID>
526534
> <PUBCHEM_COMPOUND_CANONICALIZED>
1
> <PUBCHEM_CACTVS_COMPLEXITY>
373
> <PUBCHEM_CACTVS_HBOND_ACCEPTOR>
4
> <PUBCHEM_CACTVS_HBOND_DONOR>
1
> <PUBCHEM_CACTVS_ROTATABLE_BOND>
4
> <PUBCHEM_CACTVS_SUBSKEYS>
AAADceByMAAAAAAAAAAAAAAAAAAAAWIAAAAAAAAAAAAQAAAAAAAAHgAACAAADDzhgAYCCAMABgCIAiDSCACAAAAgAAAACAEIAEgCFAIAoQAHUAAGgACYMYOQYAwAAAAAAAAAAAAAAAAAAAAAAAAAAAAAAA==
> <PUBCHEM_IUPAC_OPENEYE_NAME>
[7-(hydroxymethyl)-2,3,5,8-tetrahydro-1H-pyrrolizin-2-yl] 2-methylbut-2-enoate
> <PUBCHEM_IUPAC_CAS_NAME>
2-methyl-2-butenoic acid [7-(hydroxymethyl)-2,3,5,8-tetrahydro-1H-pyrrolizin-2-yl] ester
> <PUBCHEM_IUPAC_NAME_MARKUP>
[7-(hydroxymethyl)-2,3,5,8-tetrahydro-1<I>H</I>-pyrrolizin-2-yl] 2-methylbut-2-enoate
> <PUBCHEM_IUPAC_NAME>
[7-(hydroxymethyl)-2,3,5,8-tetrahydro-1H-pyrrolizin-2-yl] 2-methylbut-2-enoate
> <PUBCHEM_IUPAC_SYSTEMATIC_NAME>
[7-(hydroxymethyl)-2,3,5,8-tetrahydro-1H-pyrrolizin-2-yl] 2-methylbut-2-enoate
> <PUBCHEM_IUPAC_TRADITIONAL_NAME>
2-methylbut-2-enoic acid (7-methylol-2,3,5,8-tetrahydro-1H-pyrrolizin-2-yl) ester
> <PUBCHEM_IUPAC_INCHI>
InChI=1S/C13H19NO3/c1-3-9(2)13(16)17-11-6-12-10(8-15)4-5-14(12)7-11/h3-4,11-12,15H,5-8H2,1-2H3
> <PUBCHEM_IUPAC_INCHIKEY>
NTPPHLOCCPNXRD-UHFFFAOYSA-N
> <PUBCHEM_XLOGP3_AA>
0.5
> <PUBCHEM_EXACT_MASS>
237.13649347
> <PUBCHEM_MOLECULAR_FORMULA>
C13H19NO3
> <PUBCHEM_MOLECULAR_WEIGHT>
237.29
> <PUBCHEM_OPENEYE_CAN_SMILES>
CC=C(C)C(=O)OC1CC2C(=CCN2C1)CO
> <PUBCHEM_OPENEYE_ISO_SMILES>
CC=C(C)C(=O)OC1CC2C(=CCN2C1)CO
> <PUBCHEM_CACTVS_TPSA>
49.8
> <PUBCHEM_MONOISOTOPIC_WEIGHT>
237.13649347
> <PUBCHEM_TOTAL_CHARGE>
0
> <PUBCHEM_HEAVY_ATOM_COUNT>
17
> <PUBCHEM_ATOM_DEF_STEREO_COUNT>
0
> <PUBCHEM_ATOM_UDEF_STEREO_COUNT>
2
> <PUBCHEM_BOND_DEF_STEREO_COUNT>
0
> <PUBCHEM_BOND_UDEF_STEREO_COUNT>
1
> <PUBCHEM_ISOTOPIC_ATOM_COUNT>
0
> <PUBCHEM_COMPONENT_COUNT>
1
> <PUBCHEM_CACTVS_TAUTO_COUNT>
-1
> <PUBCHEM_COORDINATE_TYPE>
1
5
255
> <PUBCHEM_BONDANNOTATIONS>
7  1  3
14  16  1
5  6  3
$$$$
