526536
  -OEChem-10302200292D
 38 39  0     1  0  0  0  0  0999 V2000
    4.5743    0.1256    0.0000 O   0  0  0  0  0  0  0  0  0  0  0  0
    8.0698    0.3270    0.0000 O   0  0  0  0  0  0  0  0  0  0  0  0
    2.9270   -0.4097    0.0000 O   0  0  0  0  0  0  0  0  0  0  0  0
    5.8344   -2.1345    0.0000 N   0  0  3  0  0  0  0  0  0  0  0  0
    5.8344   -1.1345    0.0000 C   0  0  3  0  0  0  0  0  0  0  0  0
    6.7806   -0.8298    0.0000 C   0  0  3  0  0  0  0  0  0  0  0  0
    4.8834   -0.8255    0.0000 C   0  0  3  0  0  0  0  0  0  0  0  0
    7.3642   -1.6345    0.0000 C   0  0  0  0  0  0  0  0  0  0  0  0
    6.7806   -2.4392    0.0000 C   0  0  0  0  0  0  0  0  0  0  0  0
    4.8834   -2.4435    0.0000 C   0  0  0  0  0  0  0  0  0  0  0  0
    4.2956   -1.6345    0.0000 C   0  0  0  0  0  0  0  0  0  0  0  0
    7.0913    0.1208    0.0000 C   0  0  0  0  0  0  0  0  0  0  0  0
    3.5962    0.3335    0.0000 C   0  0  0  0  0  0  0  0  0  0  0  0
    3.2872    1.2846    0.0000 C   0  0  0  0  0  0  0  0  0  0  0  0
    3.9563    2.0277    0.0000 C   0  0  0  0  0  0  0  0  0  0  0  0
    2.3090    1.4925    0.0000 C   0  0  0  0  0  0  0  0  0  0  0  0
    2.0000    2.4435    0.0000 C   0  0  0  0  0  0  0  0  0  0  0  0
    5.8352   -0.5145    0.0000 H   0  0  0  0  0  0  0  0  0  0  0  0
    7.3931   -0.7336    0.0000 H   0  0  0  0  0  0  0  0  0  0  0  0
    4.2710   -0.7285    0.0000 H   0  0  0  0  0  0  0  0  0  0  0  0
    7.8251   -2.0492    0.0000 H   0  0  0  0  0  0  0  0  0  0  0  0
    7.8251   -1.2198    0.0000 H   0  0  0  0  0  0  0  0  0  0  0  0
    6.5296   -3.0061    0.0000 H   0  0  0  0  0  0  0  0  0  0  0  0
    7.3180   -2.7484    0.0000 H   0  0  0  0  0  0  0  0  0  0  0  0
    4.3464   -2.7535    0.0000 H   0  0  0  0  0  0  0  0  0  0  0  0
    5.1355   -3.0099    0.0000 H   0  0  0  0  0  0  0  0  0  0  0  0
    3.8348   -1.2196    0.0000 H   0  0  0  0  0  0  0  0  0  0  0  0
    3.8348   -2.0494    0.0000 H   0  0  0  0  0  0  0  0  0  0  0  0
    7.0707    0.7404    0.0000 H   0  0  0  0  0  0  0  0  0  0  0  0
    6.4775    0.2081    0.0000 H   0  0  0  0  0  0  0  0  0  0  0  0
    8.2624    0.9163    0.0000 H   0  0  0  0  0  0  0  0  0  0  0  0
    4.4170    1.6128    0.0000 H   0  0  0  0  0  0  0  0  0  0  0  0
    4.3712    2.4884    0.0000 H   0  0  0  0  0  0  0  0  0  0  0  0
    3.4956    2.4426    0.0000 H   0  0  0  0  0  0  0  0  0  0  0  0
    1.8942    1.0317    0.0000 H   0  0  0  0  0  0  0  0  0  0  0  0
    2.5897    2.6351    0.0000 H   0  0  0  0  0  0  0  0  0  0  0  0
    1.8084    3.0332    0.0000 H   0  0  0  0  0  0  0  0  0  0  0  0
    1.4103    2.2519    0.0000 H   0  0  0  0  0  0  0  0  0  0  0  0
  1  7  1  0  0  0  0
  1 13  1  0  0  0  0
  2 12  1  0  0  0  0
  2 31  1  0  0  0  0
  3 13  2  0  0  0  0
  4  5  1  0  0  0  0
  4  9  1  0  0  0  0
  4 10  1  0  0  0  0
  5  6  1  0  0  0  0
  5  7  1  0  0  0  0
  5 18  1  0  0  0  0
  6  8  1  0  0  0  0
  6 12  1  0  0  0  0
  6 19  1  0  0  0  0
  7 11  1  0  0  0  0
  7 20  1  0  0  0  0
  8  9  1  0  0  0  0
  8 21  1  0  0  0  0
  8 22  1  0  0  0  0
  9 23  1  0  0  0  0
  9 24  1  0  0  0  0
 10 11  1  0  0  0  0
 10 25  1  0  0  0  0
 10 26  1  0  0  0  0
 11 27  1  0  0  0  0
 11 28  1  0  0  0  0
 12 29  1  0  0  0  0
 12 30  1  0  0  0  0
 13 14  1  0  0  0  0
 14 15  1  0  0  0  0
 14 16  2  3  0  0  0
 15 32  1  0  0  0  0
 15 33  1  0  0  0  0
 15 34  1  0  0  0  0
 16 17  1  0  0  0  0
 16 35  1  0  0  0  0
 17 36  1  0  0  0  0
 17 37  1  0  0  0  0
 17 38  1  0  0  0  0
M  END
> <PUBCHEM_COMPOUND_CID>
526536
> <PUBCHEM_COMPOUND_CANONICALIZED>
1
> <PUBCHEM_CACTVS_COMPLEXITY>
327
> <PUBCHEM_CACTVS_HBOND_ACCEPTOR>
4
> <PUBCHEM_CACTVS_HBOND_DONOR>
1
> <PUBCHEM_CACTVS_ROTATABLE_BOND>
4
> <PUBCHEM_CACTVS_SUBSKEYS>
AAADceByMAAAAAAAAAAAAAAAAAAAAWLAAAAAAAAAAAAWAAAAAAAAHgAACAAADTzhgAYCCAMABgCIAiDSCAAAAAAAAAAACAEIAEACFAIAoQAHUAAGAACQIYHw0AIOAAAAAAAAAAAAAAAAAAAAAAAAAAAAAA==
> <PUBCHEM_IUPAC_OPENEYE_NAME>
[7-(hydroxymethyl)-2,3,5,6,7,8-hexahydro-1H-pyrrolizin-1-yl] 2-methylbut-2-enoate
> <PUBCHEM_IUPAC_CAS_NAME>
2-methyl-2-butenoic acid [7-(hydroxymethyl)-2,3,5,6,7,8-hexahydro-1H-pyrrolizin-1-yl] ester
> <PUBCHEM_IUPAC_NAME_MARKUP>
[7-(hydroxymethyl)-2,3,5,6,7,8-hexahydro-1<I>H</I>-pyrrolizin-1-yl] 2-methylbut-2-enoate
> <PUBCHEM_IUPAC_NAME>
[7-(hydroxymethyl)-2,3,5,6,7,8-hexahydro-1H-pyrrolizin-1-yl] 2-methylbut-2-enoate
> <PUBCHEM_IUPAC_SYSTEMATIC_NAME>
[7-(hydroxymethyl)-2,3,5,6,7,8-hexahydro-1H-pyrrolizin-1-yl] 2-methylbut-2-enoate
> <PUBCHEM_IUPAC_TRADITIONAL_NAME>
2-methylbut-2-enoic acid (7-methylolpyrrolizidin-1-yl) ester
> <PUBCHEM_IUPAC_INCHI>
InChI=1S/C13H21NO3/c1-3-9(2)13(16)17-11-5-7-14-6-4-10(8-15)12(11)14/h3,10-12,15H,4-8H2,1-2H3
> <PUBCHEM_IUPAC_INCHIKEY>
JVBOUYIVPAHNGB-UHFFFAOYSA-N
> <PUBCHEM_XLOGP3_AA>
1.3
> <PUBCHEM_EXACT_MASS>
239.15214353
> <PUBCHEM_MOLECULAR_FORMULA>
C13H21NO3
> <PUBCHEM_MOLECULAR_WEIGHT>
239.31
> <PUBCHEM_OPENEYE_CAN_SMILES>
CC=C(C)C(=O)OC1CCN2C1C(CC2)CO
> <PUBCHEM_OPENEYE_ISO_SMILES>
CC=C(C)C(=O)OC1CCN2C1C(CC2)CO
> <PUBCHEM_CACTVS_TPSA>
49.8
> <PUBCHEM_MONOISOTOPIC_WEIGHT>
239.15214353
> <PUBCHEM_TOTAL_CHARGE>
0
> <PUBCHEM_HEAVY_ATOM_COUNT>
17
> <PUBCHEM_ATOM_DEF_STEREO_COUNT>
0
> <PUBCHEM_ATOM_UDEF_STEREO_COUNT>
3
> <PUBCHEM_BOND_DEF_STEREO_COUNT>
0
> <PUBCHEM_BOND_UDEF_STEREO_COUNT>
1
> <PUBCHEM_ISOTOPIC_ATOM_COUNT>
0
> <PUBCHEM_COMPONENT_COUNT>
1
> <PUBCHEM_CACTVS_TAUTO_COUNT>
-1
> <PUBCHEM_COORDINATE_TYPE>
1
5
255
> <PUBCHEM_BONDANNOTATIONS>
7  1  3
14  16  1
5  4  3
6  12  3
$$$$
