526666
  -OEChem-10302200292D
 73 76  0     1  0  0  0  0  0999 V2000
    3.7320   -3.3907    0.0000 O   0  0  0  0  0  0  0  0  0  0  0  0
   12.9603    3.2303    0.0000 O   0  0  0  0  0  0  0  0  0  0  0  0
   13.3175    1.5355    0.0000 O   0  0  0  0  0  0  0  0  0  0  0  0
    2.8718   -1.8874    0.0000 O   0  0  0  0  0  0  0  0  0  0  0  0
    9.1251   -0.3384    0.0000 C   0  0  3  0  0  0  0  0  0  0  0  0
    9.1251   -1.3384    0.0000 C   0  0  3  0  0  0  0  0  0  0  0  0
    7.3931   -1.3384    0.0000 C   0  0  3  0  0  0  0  0  0  0  0  0
    8.2591   -1.8384    0.0000 C   0  0  3  0  0  0  0  0  0  0  0  0
   10.0713   -0.0337    0.0000 C   0  0  3  0  0  0  0  0  0  0  0  0
    6.4831   -1.8452    0.0000 C   0  0  3  0  0  0  0  0  0  0  0  0
    8.2591    0.1616    0.0000 C   0  0  0  0  0  0  0  0  0  0  0  0
    7.3931   -0.3384    0.0000 C   0  0  0  0  0  0  0  0  0  0  0  0
   10.0713   -1.6431    0.0000 C   0  0  0  0  0  0  0  0  0  0  0  0
   10.6550   -0.8384    0.0000 C   0  0  0  0  0  0  0  0  0  0  0  0
    6.4750   -2.8868    0.0000 C   0  0  3  0  0  0  0  0  0  0  0  0
    9.1251    0.6616    0.0000 C   0  0  0  0  0  0  0  0  0  0  0  0
   10.3820    0.9169    0.0000 C   0  0  3  0  0  0  0  0  0  0  0  0
    5.5562   -1.2812    0.0000 C   0  0  0  0  0  0  0  0  0  0  0  0
    8.2752   -2.8799    0.0000 C   0  0  0  0  0  0  0  0  0  0  0  0
    7.3771   -3.4076    0.0000 C   0  0  0  0  0  0  0  0  0  0  0  0
    5.5396   -3.4366    0.0000 C   0  0  0  0  0  0  0  0  0  0  0  0
    6.4908   -0.8453    0.0000 C   0  0  0  0  0  0  0  0  0  0  0  0
    4.6084   -1.8091    0.0000 C   0  0  0  0  0  0  0  0  0  0  0  0
    4.6000   -2.8941    0.0000 C   0  0  3  0  0  0  0  0  0  0  0  0
   11.3605    1.1231    0.0000 C   0  0  0  0  0  0  0  0  0  0  0  0
    9.7142    1.6612    0.0000 C   0  0  0  0  0  0  0  0  0  0  0  0
   11.6712    2.0736    0.0000 C   0  0  0  0  0  0  0  0  0  0  0  0
   12.6497    2.2798    0.0000 C   0  0  0  0  0  0  0  0  0  0  0  0
    2.8680   -2.8874    0.0000 C   0  0  0  0  0  0  0  0  0  0  0  0
    2.0000   -3.3840    0.0000 C   0  0  0  0  0  0  0  0  0  0  0  0
   13.9388    3.4366    0.0000 C   0  0  0  0  0  0  0  0  0  0  0  0
    9.1907   -1.9549    0.0000 H   0  0  0  0  0  0  0  0  0  0  0  0
    7.9300   -1.0284    0.0000 H   0  0  0  0  0  0  0  0  0  0  0  0
    8.7984   -2.1442    0.0000 H   0  0  0  0  0  0  0  0  0  0  0  0
   10.6838    0.0625    0.0000 H   0  0  0  0  0  0  0  0  0  0  0  0
    8.6576    0.6366    0.0000 H   0  0  0  0  0  0  0  0  0  0  0  0
    7.8606    0.6366    0.0000 H   0  0  0  0  0  0  0  0  0  0  0  0
    7.1810    0.2442    0.0000 H   0  0  0  0  0  0  0  0  0  0  0  0
    6.7825   -0.4461    0.0000 H   0  0  0  0  0  0  0  0  0  0  0  0
    9.8203   -2.2100    0.0000 H   0  0  0  0  0  0  0  0  0  0  0  0
   10.6087   -1.9524    0.0000 H   0  0  0  0  0  0  0  0  0  0  0  0
   11.1158   -1.2531    0.0000 H   0  0  0  0  0  0  0  0  0  0  0  0
   11.1158   -0.4237    0.0000 H   0  0  0  0  0  0  0  0  0  0  0  0
    6.4774   -3.5068    0.0000 H   0  0  0  0  0  0  0  0  0  0  0  0
    9.7451    0.6616    0.0000 H   0  0  0  0  0  0  0  0  0  0  0  0
    9.1251    1.2816    0.0000 H   0  0  0  0  0  0  0  0  0  0  0  0
    8.5051    0.6616    0.0000 H   0  0  0  0  0  0  0  0  0  0  0  0
   10.5746    1.5062    0.0000 H   0  0  0  0  0  0  0  0  0  0  0  0
    5.9644   -0.8145    0.0000 H   0  0  0  0  0  0  0  0  0  0  0  0
    5.1663   -0.7991    0.0000 H   0  0  0  0  0  0  0  0  0  0  0  0
    8.8156   -3.1837    0.0000 H   0  0  0  0  0  0  0  0  0  0  0  0
    7.3795   -4.0277    0.0000 H   0  0  0  0  0  0  0  0  0  0  0  0
    5.1423   -3.9125    0.0000 H   0  0  0  0  0  0  0  0  0  0  0  0
    5.9406   -3.9094    0.0000 H   0  0  0  0  0  0  0  0  0  0  0  0
    7.1108   -0.8500    0.0000 H   0  0  0  0  0  0  0  0  0  0  0  0
    6.4956   -0.2253    0.0000 H   0  0  0  0  0  0  0  0  0  0  0  0
    5.8708   -0.8405    0.0000 H   0  0  0  0  0  0  0  0  0  0  0  0
    4.4038   -1.2238    0.0000 H   0  0  0  0  0  0  0  0  0  0  0  0
    3.9967   -1.9105    0.0000 H   0  0  0  0  0  0  0  0  0  0  0  0
    4.0648   -2.5810    0.0000 H   0  0  0  0  0  0  0  0  0  0  0  0
   11.3811    0.5034    0.0000 H   0  0  0  0  0  0  0  0  0  0  0  0
   11.9743    1.0357    0.0000 H   0  0  0  0  0  0  0  0  0  0  0  0
   10.1756    2.0752    0.0000 H   0  0  0  0  0  0  0  0  0  0  0  0
    9.3001    2.1226    0.0000 H   0  0  0  0  0  0  0  0  0  0  0  0
    9.2527    1.2471    0.0000 H   0  0  0  0  0  0  0  0  0  0  0  0
   11.6506    2.6933    0.0000 H   0  0  0  0  0  0  0  0  0  0  0  0
   11.0574    2.1610    0.0000 H   0  0  0  0  0  0  0  0  0  0  0  0
    1.6921   -2.8459    0.0000 H   0  0  0  0  0  0  0  0  0  0  0  0
    1.4619   -3.6920    0.0000 H   0  0  0  0  0  0  0  0  0  0  0  0
    2.3079   -3.9222    0.0000 H   0  0  0  0  0  0  0  0  0  0  0  0
   14.0667    2.8299    0.0000 H   0  0  0  0  0  0  0  0  0  0  0  0
   14.5455    3.5644    0.0000 H   0  0  0  0  0  0  0  0  0  0  0  0
   13.8110    4.0432    0.0000 H   0  0  0  0  0  0  0  0  0  0  0  0
  1 24  1  0  0  0  0
  1 29  1  0  0  0  0
  2 28  1  0  0  0  0
  2 31  1  0  0  0  0
  3 28  2  0  0  0  0
  4 29  2  0  0  0  0
  5  6  1  0  0  0  0
  5  9  1  0  0  0  0
  5 11  1  0  0  0  0
  5 16  1  0  0  0  0
  6  8  1  0  0  0  0
  6 13  1  0  0  0  0
  6 32  1  0  0  0  0
  7  8  1  0  0  0  0
  7 10  1  0  0  0  0
  7 12  1  0  0  0  0
  7 33  1  0  0  0  0
  8 19  1  0  0  0  0
  8 34  1  0  0  0  0
  9 14  1  0  0  0  0
  9 17  1  0  0  0  0
  9 35  1  0  0  0  0
 10 15  1  0  0  0  0
 10 18  1  0  0  0  0
 10 22  1  0  0  0  0
 11 12  1  0  0  0  0
 11 36  1  0  0  0  0
 11 37  1  0  0  0  0
 12 38  1  0  0  0  0
 12 39  1  0  0  0  0
 13 14  1  0  0  0  0
 13 40  1  0  0  0  0
 13 41  1  0  0  0  0
 14 42  1  0  0  0  0
 14 43  1  0  0  0  0
 15 20  1  0  0  0  0
 15 21  1  0  0  0  0
 15 44  1  0  0  0  0
 16 45  1  0  0  0  0
 16 46  1  0  0  0  0
 16 47  1  0  0  0  0
 17 25  1  0  0  0  0
 17 26  1  0  0  0  0
 17 48  1  0  0  0  0
 18 23  1  0  0  0  0
 18 49  1  0  0  0  0
 18 50  1  0  0  0  0
 19 20  2  0  0  0  0
 19 51  1  0  0  0  0
 20 52  1  0  0  0  0
 21 24  1  0  0  0  0
 21 53  1  0  0  0  0
 21 54  1  0  0  0  0
 22 55  1  0  0  0  0
 22 56  1  0  0  0  0
 22 57  1  0  0  0  0
 23 24  1  0  0  0  0
 23 58  1  0  0  0  0
 23 59  1  0  0  0  0
 24 60  1  0  0  0  0
 25 27  1  0  0  0  0
 25 61  1  0  0  0  0
 25 62  1  0  0  0  0
 26 63  1  0  0  0  0
 26 64  1  0  0  0  0
 26 65  1  0  0  0  0
 27 28  1  0  0  0  0
 27 66  1  0  0  0  0
 27 67  1  0  0  0  0
 29 30  1  0  0  0  0
 30 68  1  0  0  0  0
 30 69  1  0  0  0  0
 30 70  1  0  0  0  0
 31 71  1  0  0  0  0
 31 72  1  0  0  0  0
 31 73  1  0  0  0  0
M  END
> <PUBCHEM_COMPOUND_CID>
526666
> <PUBCHEM_COMPOUND_CANONICALIZED>
1
> <PUBCHEM_CACTVS_COMPLEXITY>
729
> <PUBCHEM_CACTVS_HBOND_ACCEPTOR>
4
> <PUBCHEM_CACTVS_HBOND_DONOR>
0
> <PUBCHEM_CACTVS_ROTATABLE_BOND>
7
> <PUBCHEM_CACTVS_SUBSKEYS>
AAADcfB4OAAAAAAAAAAAAAAAAAAAAYAAAAAwYIAAAAAAAGCAAAAAGgAAAAAADxSggAICCAAABACIACDSCAAAAAAgAAAICAEAAAgAABIAAQACAAAEgAAIAAOIyPCPgAAAAAAAAADAAAYAACAAAQAACAAAAA==
> <PUBCHEM_IUPAC_OPENEYE_NAME>
methyl 4-(3-acetoxy-10,13-dimethyl-2,3,4,5,8,9,11,12,14,15,16,17-dodecahydro-1H-cyclopenta[a]phenanthren-17-yl)pentanoate
> <PUBCHEM_IUPAC_CAS_NAME>
4-(3-acetyloxy-10,13-dimethyl-2,3,4,5,8,9,11,12,14,15,16,17-dodecahydro-1H-cyclopenta[a]phenanthren-17-yl)pentanoic acid methyl ester
> <PUBCHEM_IUPAC_NAME_MARKUP>
methyl 4-(3-acetyloxy-10,13-dimethyl-2,3,4,5,8,9,11,12,14,15,16,17-dodecahydro-1<I>H</I>-cyclopenta[a]phenanthren-17-yl)pentanoate
> <PUBCHEM_IUPAC_NAME>
methyl 4-(3-acetyloxy-10,13-dimethyl-2,3,4,5,8,9,11,12,14,15,16,17-dodecahydro-1H-cyclopenta[a]phenanthren-17-yl)pentanoate
> <PUBCHEM_IUPAC_SYSTEMATIC_NAME>
methyl 4-(3-acetyloxy-10,13-dimethyl-2,3,4,5,8,9,11,12,14,15,16,17-dodecahydro-1H-cyclopenta[a]phenanthren-17-yl)pentanoate
> <PUBCHEM_IUPAC_TRADITIONAL_NAME>
4-(3-acetoxy-10,13-dimethyl-2,3,4,5,8,9,11,12,14,15,16,17-dodecahydro-1H-cyclopenta[a]phenanthren-17-yl)valeric acid methyl ester
> <PUBCHEM_IUPAC_INCHI>
InChI=1S/C27H42O4/c1-17(6-11-25(29)30-5)22-9-10-23-21-8-7-19-16-20(31-18(2)28)12-14-26(19,3)24(21)13-15-27(22,23)4/h7-8,17,19-24H,6,9-16H2,1-5H3
> <PUBCHEM_IUPAC_INCHIKEY>
ZUXCJTMUJNGXDG-UHFFFAOYSA-N
> <PUBCHEM_XLOGP3_AA>
6.5
> <PUBCHEM_EXACT_MASS>
430.30830982
> <PUBCHEM_MOLECULAR_FORMULA>
C27H42O4
> <PUBCHEM_MOLECULAR_WEIGHT>
430.6
> <PUBCHEM_OPENEYE_CAN_SMILES>
CC(CCC(=O)OC)C1CCC2C1(CCC3C2C=CC4C3(CCC(C4)OC(=O)C)C)C
> <PUBCHEM_OPENEYE_ISO_SMILES>
CC(CCC(=O)OC)C1CCC2C1(CCC3C2C=CC4C3(CCC(C4)OC(=O)C)C)C
> <PUBCHEM_CACTVS_TPSA>
52.6
> <PUBCHEM_MONOISOTOPIC_WEIGHT>
430.30830982
> <PUBCHEM_TOTAL_CHARGE>
0
> <PUBCHEM_HEAVY_ATOM_COUNT>
31
> <PUBCHEM_ATOM_DEF_STEREO_COUNT>
0
> <PUBCHEM_ATOM_UDEF_STEREO_COUNT>
9
> <PUBCHEM_BOND_DEF_STEREO_COUNT>
0
> <PUBCHEM_BOND_UDEF_STEREO_COUNT>
0
> <PUBCHEM_ISOTOPIC_ATOM_COUNT>
0
> <PUBCHEM_COMPONENT_COUNT>
1
> <PUBCHEM_CACTVS_TAUTO_COUNT>
-1
> <PUBCHEM_COORDINATE_TYPE>
1
5
255
> <PUBCHEM_BONDANNOTATIONS>
24  1  3
10  22  3
15  21  3
17  26  3
5  16  3
6  13  3
7  12  3
8  19  3
9  14  3
$$$$
