526677
  -OEChem-10302200292D
 81 84  0     1  0  0  0  0  0999 V2000
    7.3810   -3.1738    0.0000 O   0  0  0  0  0  0  0  0  0  0  0  0
    3.7320   -2.1568    0.0000 O   0  0  0  0  0  0  0  0  0  0  0  0
    9.1130   -3.1671    0.0000 O   0  0  0  0  0  0  0  0  0  0  0  0
   12.9603    4.4642    0.0000 O   0  0  0  0  0  0  0  0  0  0  0  0
    2.8718   -0.6535    0.0000 O   0  0  0  0  0  0  0  0  0  0  0  0
   13.3175    2.7694    0.0000 O   0  0  0  0  0  0  0  0  0  0  0  0
    9.1251   -0.1045    0.0000 C   0  0  3  0  0  0  0  0  0  0  0  0
    9.1251    0.8955    0.0000 C   0  0  3  0  0  0  0  0  0  0  0  0
    8.2591   -0.6045    0.0000 C   0  0  3  0  0  0  0  0  0  0  0  0
    7.3931   -0.1045    0.0000 C   0  0  3  0  0  0  0  0  0  0  0  0
    6.4831   -0.6114    0.0000 C   0  0  3  0  0  0  0  0  0  0  0  0
   10.0713    1.2002    0.0000 C   0  0  3  0  0  0  0  0  0  0  0  0
    6.4750   -1.6530    0.0000 C   0  0  3  0  0  0  0  0  0  0  0  0
    8.2591    1.3955    0.0000 C   0  0  0  0  0  0  0  0  0  0  0  0
    7.3931    0.8955    0.0000 C   0  0  0  0  0  0  0  0  0  0  0  0
    8.2752   -1.6460    0.0000 C   0  0  0  0  0  0  0  0  0  0  0  0
   10.0713   -0.4093    0.0000 C   0  0  0  0  0  0  0  0  0  0  0  0
    7.3771   -2.1738    0.0000 C   0  0  3  0  0  0  0  0  0  0  0  0
   10.6550    0.3955    0.0000 C   0  0  0  0  0  0  0  0  0  0  0  0
    5.5562   -0.0473    0.0000 C   0  0  0  0  0  0  0  0  0  0  0  0
    9.1251    1.8955    0.0000 C   0  0  0  0  0  0  0  0  0  0  0  0
    5.5396   -2.2027    0.0000 C   0  0  0  0  0  0  0  0  0  0  0  0
   10.3820    2.1507    0.0000 C   0  0  3  0  0  0  0  0  0  0  0  0
    6.4908    0.3886    0.0000 C   0  0  0  0  0  0  0  0  0  0  0  0
    4.6084   -0.5752    0.0000 C   0  0  0  0  0  0  0  0  0  0  0  0
    4.6000   -1.6602    0.0000 C   0  0  3  0  0  0  0  0  0  0  0  0
   11.3605    2.3570    0.0000 C   0  0  0  0  0  0  0  0  0  0  0  0
    9.7142    2.8950    0.0000 C   0  0  0  0  0  0  0  0  0  0  0  0
   11.6712    3.3075    0.0000 C   0  0  0  0  0  0  0  0  0  0  0  0
    8.2489   -3.6704    0.0000 C   0  0  0  0  0  0  0  0  0  0  0  0
    2.8680   -1.6535    0.0000 C   0  0  0  0  0  0  0  0  0  0  0  0
   12.6497    3.5137    0.0000 C   0  0  0  0  0  0  0  0  0  0  0  0
    8.2528   -4.6704    0.0000 C   0  0  0  0  0  0  0  0  0  0  0  0
    2.0000   -2.1502    0.0000 C   0  0  0  0  0  0  0  0  0  0  0  0
   13.9388    4.6704    0.0000 C   0  0  0  0  0  0  0  0  0  0  0  0
    9.1907   -0.7210    0.0000 H   0  0  0  0  0  0  0  0  0  0  0  0
    8.7984   -0.9104    0.0000 H   0  0  0  0  0  0  0  0  0  0  0  0
    7.9300    0.2055    0.0000 H   0  0  0  0  0  0  0  0  0  0  0  0
   10.6838    1.2964    0.0000 H   0  0  0  0  0  0  0  0  0  0  0  0
    6.4774   -2.2730    0.0000 H   0  0  0  0  0  0  0  0  0  0  0  0
    8.6576    1.8704    0.0000 H   0  0  0  0  0  0  0  0  0  0  0  0
    7.8606    1.8704    0.0000 H   0  0  0  0  0  0  0  0  0  0  0  0
    7.1810    1.4781    0.0000 H   0  0  0  0  0  0  0  0  0  0  0  0
    6.7825    0.7878    0.0000 H   0  0  0  0  0  0  0  0  0  0  0  0
    8.4932   -2.2264    0.0000 H   0  0  0  0  0  0  0  0  0  0  0  0
    8.8843   -1.5305    0.0000 H   0  0  0  0  0  0  0  0  0  0  0  0
    9.8203   -0.9762    0.0000 H   0  0  0  0  0  0  0  0  0  0  0  0
   10.6087   -0.7185    0.0000 H   0  0  0  0  0  0  0  0  0  0  0  0
    7.9158   -2.4807    0.0000 H   0  0  0  0  0  0  0  0  0  0  0  0
   11.1158   -0.0193    0.0000 H   0  0  0  0  0  0  0  0  0  0  0  0
   11.1158    0.8102    0.0000 H   0  0  0  0  0  0  0  0  0  0  0  0
    5.9644    0.4194    0.0000 H   0  0  0  0  0  0  0  0  0  0  0  0
    5.1663    0.4348    0.0000 H   0  0  0  0  0  0  0  0  0  0  0  0
    9.7451    1.8955    0.0000 H   0  0  0  0  0  0  0  0  0  0  0  0
    9.1251    2.5155    0.0000 H   0  0  0  0  0  0  0  0  0  0  0  0
    8.5051    1.8955    0.0000 H   0  0  0  0  0  0  0  0  0  0  0  0
    5.1423   -2.6787    0.0000 H   0  0  0  0  0  0  0  0  0  0  0  0
    5.9406   -2.6756    0.0000 H   0  0  0  0  0  0  0  0  0  0  0  0
   10.5746    2.7400    0.0000 H   0  0  0  0  0  0  0  0  0  0  0  0
    7.1108    0.3838    0.0000 H   0  0  0  0  0  0  0  0  0  0  0  0
    6.4956    1.0086    0.0000 H   0  0  0  0  0  0  0  0  0  0  0  0
    5.8708    0.3934    0.0000 H   0  0  0  0  0  0  0  0  0  0  0  0
    4.4038    0.0101    0.0000 H   0  0  0  0  0  0  0  0  0  0  0  0
    3.9967   -0.6766    0.0000 H   0  0  0  0  0  0  0  0  0  0  0  0
    4.0648   -1.3471    0.0000 H   0  0  0  0  0  0  0  0  0  0  0  0
   11.3811    1.7373    0.0000 H   0  0  0  0  0  0  0  0  0  0  0  0
   11.9743    2.2696    0.0000 H   0  0  0  0  0  0  0  0  0  0  0  0
   10.1756    3.3091    0.0000 H   0  0  0  0  0  0  0  0  0  0  0  0
    9.3001    3.3565    0.0000 H   0  0  0  0  0  0  0  0  0  0  0  0
    9.2527    2.4810    0.0000 H   0  0  0  0  0  0  0  0  0  0  0  0
   11.6506    3.9271    0.0000 H   0  0  0  0  0  0  0  0  0  0  0  0
   11.0574    3.3948    0.0000 H   0  0  0  0  0  0  0  0  0  0  0  0
    7.6328   -4.6728    0.0000 H   0  0  0  0  0  0  0  0  0  0  0  0
    8.2552   -5.2904    0.0000 H   0  0  0  0  0  0  0  0  0  0  0  0
    8.8728   -4.6680    0.0000 H   0  0  0  0  0  0  0  0  0  0  0  0
    1.6921   -1.6120    0.0000 H   0  0  0  0  0  0  0  0  0  0  0  0
    1.4619   -2.4581    0.0000 H   0  0  0  0  0  0  0  0  0  0  0  0
    2.3079   -2.6883    0.0000 H   0  0  0  0  0  0  0  0  0  0  0  0
   14.0667    4.0638    0.0000 H   0  0  0  0  0  0  0  0  0  0  0  0
   14.5455    4.7983    0.0000 H   0  0  0  0  0  0  0  0  0  0  0  0
   13.8110    5.2771    0.0000 H   0  0  0  0  0  0  0  0  0  0  0  0
  1 18  1  0  0  0  0
  1 30  1  0  0  0  0
  2 26  1  0  0  0  0
  2 31  1  0  0  0  0
  3 30  2  0  0  0  0
  4 32  1  0  0  0  0
  4 35  1  0  0  0  0
  5 31  2  0  0  0  0
  6 32  2  0  0  0  0
  7  8  1  0  0  0  0
  7  9  1  0  0  0  0
  7 17  1  0  0  0  0
  7 36  1  0  0  0  0
  8 12  1  0  0  0  0
  8 14  1  0  0  0  0
  8 21  1  0  0  0  0
  9 10  1  0  0  0  0
  9 16  1  0  0  0  0
  9 37  1  0  0  0  0
 10 11  1  0  0  0  0
 10 15  1  0  0  0  0
 10 38  1  0  0  0  0
 11 13  1  0  0  0  0
 11 20  1  0  0  0  0
 11 24  1  0  0  0  0
 12 19  1  0  0  0  0
 12 23  1  0  0  0  0
 12 39  1  0  0  0  0
 13 18  1  0  0  0  0
 13 22  1  0  0  0  0
 13 40  1  0  0  0  0
 14 15  1  0  0  0  0
 14 41  1  0  0  0  0
 14 42  1  0  0  0  0
 15 43  1  0  0  0  0
 15 44  1  0  0  0  0
 16 18  1  0  0  0  0
 16 45  1  0  0  0  0
 16 46  1  0  0  0  0
 17 19  1  0  0  0  0
 17 47  1  0  0  0  0
 17 48  1  0  0  0  0
 18 49  1  0  0  0  0
 19 50  1  0  0  0  0
 19 51  1  0  0  0  0
 20 25  1  0  0  0  0
 20 52  1  0  0  0  0
 20 53  1  0  0  0  0
 21 54  1  0  0  0  0
 21 55  1  0  0  0  0
 21 56  1  0  0  0  0
 22 26  1  0  0  0  0
 22 57  1  0  0  0  0
 22 58  1  0  0  0  0
 23 27  1  0  0  0  0
 23 28  1  0  0  0  0
 23 59  1  0  0  0  0
 24 60  1  0  0  0  0
 24 61  1  0  0  0  0
 24 62  1  0  0  0  0
 25 26  1  0  0  0  0
 25 63  1  0  0  0  0
 25 64  1  0  0  0  0
 26 65  1  0  0  0  0
 27 29  1  0  0  0  0
 27 66  1  0  0  0  0
 27 67  1  0  0  0  0
 28 68  1  0  0  0  0
 28 69  1  0  0  0  0
 28 70  1  0  0  0  0
 29 32  1  0  0  0  0
 29 71  1  0  0  0  0
 29 72  1  0  0  0  0
 30 33  1  0  0  0  0
 31 34  1  0  0  0  0
 33 73  1  0  0  0  0
 33 74  1  0  0  0  0
 33 75  1  0  0  0  0
 34 76  1  0  0  0  0
 34 77  1  0  0  0  0
 34 78  1  0  0  0  0
 35 79  1  0  0  0  0
 35 80  1  0  0  0  0
 35 81  1  0  0  0  0
M  END
> <PUBCHEM_COMPOUND_CID>
526677
> <PUBCHEM_COMPOUND_CANONICALIZED>
1
> <PUBCHEM_CACTVS_COMPLEXITY>
824
> <PUBCHEM_CACTVS_HBOND_ACCEPTOR>
6
> <PUBCHEM_CACTVS_HBOND_DONOR>
0
> <PUBCHEM_CACTVS_ROTATABLE_BOND>
9
> <PUBCHEM_CACTVS_SUBSKEYS>
AAADcfB4OAAAAAAAAAAAAAAAAAAAAYAAAAAwYMAAAAAAAGDAAAAAGgAAAAAADxSggAICCAAABAAIAACQCAAAAAAAAAAAAAEAAAAAABIAAAACAAAEAAAAAAHIyPCPgAAAAAAAAADAAAYAADAAAQAACAAAAA==
> <PUBCHEM_IUPAC_OPENEYE_NAME>
methyl 4-(3,6-diacetoxy-10,13-dimethyl-2,3,4,5,6,7,8,9,11,12,14,15,16,17-tetradecahydro-1H-cyclopenta[a]phenanthren-17-yl)pentanoate
> <PUBCHEM_IUPAC_CAS_NAME>
4-(3,6-diacetyloxy-10,13-dimethyl-2,3,4,5,6,7,8,9,11,12,14,15,16,17-tetradecahydro-1H-cyclopenta[a]phenanthren-17-yl)pentanoic acid methyl ester
> <PUBCHEM_IUPAC_NAME_MARKUP>
methyl 4-(3,6-diacetyloxy-10,13-dimethyl-2,3,4,5,6,7,8,9,11,12,14,15,16,17-tetradecahydro-1<I>H</I>-cyclopenta[a]phenanthren-17-yl)pentanoate
> <PUBCHEM_IUPAC_NAME>
methyl 4-(3,6-diacetyloxy-10,13-dimethyl-2,3,4,5,6,7,8,9,11,12,14,15,16,17-tetradecahydro-1H-cyclopenta[a]phenanthren-17-yl)pentanoate
> <PUBCHEM_IUPAC_SYSTEMATIC_NAME>
methyl 4-(3,6-diacetyloxy-10,13-dimethyl-2,3,4,5,6,7,8,9,11,12,14,15,16,17-tetradecahydro-1H-cyclopenta[a]phenanthren-17-yl)pentanoate
> <PUBCHEM_IUPAC_TRADITIONAL_NAME>
4-(3,6-diacetoxy-10,13-dimethyl-2,3,4,5,6,7,8,9,11,12,14,15,16,17-tetradecahydro-1H-cyclopenta[a]phenanthren-17-yl)valeric acid methyl ester
> <PUBCHEM_IUPAC_INCHI>
InChI=1S/C29H46O6/c1-17(7-10-27(32)33-6)22-8-9-23-21-16-26(35-19(3)31)25-15-20(34-18(2)30)11-13-29(25,5)24(21)12-14-28(22,23)4/h17,20-26H,7-16H2,1-6H3
> <PUBCHEM_IUPAC_INCHIKEY>
WNTBZUNELXADHT-UHFFFAOYSA-N
> <PUBCHEM_XLOGP3_AA>
6.4
> <PUBCHEM_EXACT_MASS>
490.32943918
> <PUBCHEM_MOLECULAR_FORMULA>
C29H46O6
> <PUBCHEM_MOLECULAR_WEIGHT>
490.7
> <PUBCHEM_OPENEYE_CAN_SMILES>
CC(CCC(=O)OC)C1CCC2C1(CCC3C2CC(C4C3(CCC(C4)OC(=O)C)C)OC(=O)C)C
> <PUBCHEM_OPENEYE_ISO_SMILES>
CC(CCC(=O)OC)C1CCC2C1(CCC3C2CC(C4C3(CCC(C4)OC(=O)C)C)OC(=O)C)C
> <PUBCHEM_CACTVS_TPSA>
78.9
> <PUBCHEM_MONOISOTOPIC_WEIGHT>
490.32943918
> <PUBCHEM_TOTAL_CHARGE>
0
> <PUBCHEM_HEAVY_ATOM_COUNT>
35
> <PUBCHEM_ATOM_DEF_STEREO_COUNT>
0
> <PUBCHEM_ATOM_UDEF_STEREO_COUNT>
10
> <PUBCHEM_BOND_DEF_STEREO_COUNT>
0
> <PUBCHEM_BOND_UDEF_STEREO_COUNT>
0
> <PUBCHEM_ISOTOPIC_ATOM_COUNT>
0
> <PUBCHEM_COMPONENT_COUNT>
1
> <PUBCHEM_CACTVS_TAUTO_COUNT>
-1
> <PUBCHEM_COORDINATE_TYPE>
1
5
255
> <PUBCHEM_BONDANNOTATIONS>
18  1  3
10  15  3
11  24  3
12  19  3
13  22  3
26  2  3
23  28  3
7  17  3
8  21  3
9  16  3
$$$$
