526660
  -OEChem-10302200292D
 95 97  0     1  0  0  0  0  0999 V2000
    8.9981    2.7306    0.0000 Si  0  0  0  0  0  0  0  0  0  0  0  0
    4.6574    3.2752    0.0000 Si  0  0  0  0  0  0  0  0  0  0  0  0
    2.8680    0.2031    0.0000 Si  0  0  0  0  0  0  0  0  0  0  0  0
   10.7301   -3.2694    0.0000 Si  0  0  0  0  0  0  0  0  0  0  0  0
   12.4622   -1.2694    0.0000 Si  0  0  0  0  0  0  0  0  0  0  0  0
    8.9981    1.7306    0.0000 O   0  0  0  0  0  0  0  0  0  0  0  0
    7.2660   -0.2694    0.0000 O   0  0  0  0  0  0  0  0  0  0  0  0
    5.5176    2.7652    0.0000 O   0  0  0  0  0  0  0  0  0  0  0  0
    3.7359   -0.2935    0.0000 O   0  0  0  0  0  0  0  0  0  0  0  0
    9.8641   -2.7694    0.0000 O   0  0  0  0  0  0  0  0  0  0  0  0
   11.5961   -1.7694    0.0000 O   0  0  0  0  0  0  0  0  0  0  0  0
    8.1320    1.2306    0.0000 C   0  0  3  0  0  0  0  0  0  0  0  0
    8.1320    0.2306    0.0000 C   0  0  3  0  0  0  0  0  0  0  0  0
    7.2660    1.7306    0.0000 C   0  0  0  0  0  0  0  0  0  0  0  0
    6.4000    1.2306    0.0000 C   0  0  0  0  0  0  0  0  0  0  0  0
    6.4000    0.2306    0.0000 C   0  0  0  0  0  0  0  0  0  0  0  0
    8.9981   -0.2694    0.0000 C   0  0  0  0  0  0  0  0  0  0  0  0
    5.5060    1.7653    0.0000 C   0  0  0  0  0  0  0  0  0  0  0  0
    5.5060   -0.3040    0.0000 C   0  0  0  0  0  0  0  0  0  0  0  0
    8.9981   -1.2694    0.0000 C   0  0  0  0  0  0  0  0  0  0  0  0
    8.9981    3.7306    0.0000 C   0  0  0  0  0  0  0  0  0  0  0  0
    9.9981    2.7306    0.0000 C   0  0  0  0  0  0  0  0  0  0  0  0
    7.9981    2.7306    0.0000 C   0  0  0  0  0  0  0  0  0  0  0  0
    9.8641    0.2306    0.0000 C   0  0  0  0  0  0  0  0  0  0  0  0
    4.6000    1.2514    0.0000 C   0  0  0  0  0  0  0  0  0  0  0  0
    4.6000    0.2098    0.0000 C   0  0  0  0  0  0  0  0  0  0  0  0
    9.8641   -1.7694    0.0000 C   0  0  0  0  0  0  0  0  0  0  0  0
   10.7301   -1.2694    0.0000 C   0  0  0  0  0  0  0  0  0  0  0  0
   10.7301   -0.2694    0.0000 C   0  0  0  0  0  0  0  0  0  0  0  0
    3.7972    3.7852    0.0000 C   0  0  0  0  0  0  0  0  0  0  0  0
    5.1674    4.1354    0.0000 C   0  0  0  0  0  0  0  0  0  0  0  0
    4.1474    2.4150    0.0000 C   0  0  0  0  0  0  0  0  0  0  0  0
    2.0000    0.6998    0.0000 C   0  0  0  0  0  0  0  0  0  0  0  0
    2.3713   -0.6648    0.0000 C   0  0  0  0  0  0  0  0  0  0  0  0
    3.3646    1.0711    0.0000 C   0  0  0  0  0  0  0  0  0  0  0  0
   11.5961   -3.7694    0.0000 C   0  0  0  0  0  0  0  0  0  0  0  0
   10.2301   -4.1354    0.0000 C   0  0  0  0  0  0  0  0  0  0  0  0
   11.2301   -2.4033    0.0000 C   0  0  0  0  0  0  0  0  0  0  0  0
   13.3282   -0.7694    0.0000 C   0  0  0  0  0  0  0  0  0  0  0  0
   12.9622   -2.1354    0.0000 C   0  0  0  0  0  0  0  0  0  0  0  0
   11.9622   -0.4033    0.0000 C   0  0  0  0  0  0  0  0  0  0  0  0
    8.6690    0.9206    0.0000 H   0  0  0  0  0  0  0  0  0  0  0  0
    8.1320   -0.3894    0.0000 H   0  0  0  0  0  0  0  0  0  0  0  0
    7.6646    2.2056    0.0000 H   0  0  0  0  0  0  0  0  0  0  0  0
    6.8675    2.2056    0.0000 H   0  0  0  0  0  0  0  0  0  0  0  0
    5.5132   -0.9240    0.0000 H   0  0  0  0  0  0  0  0  0  0  0  0
    8.4611   -1.5794    0.0000 H   0  0  0  0  0  0  0  0  0  0  0  0
    9.6181    3.7306    0.0000 H   0  0  0  0  0  0  0  0  0  0  0  0
    8.9981    4.3506    0.0000 H   0  0  0  0  0  0  0  0  0  0  0  0
    8.3781    3.7306    0.0000 H   0  0  0  0  0  0  0  0  0  0  0  0
    9.9981    2.1106    0.0000 H   0  0  0  0  0  0  0  0  0  0  0  0
   10.6181    2.7306    0.0000 H   0  0  0  0  0  0  0  0  0  0  0  0
    9.9981    3.3506    0.0000 H   0  0  0  0  0  0  0  0  0  0  0  0
    7.9981    3.3506    0.0000 H   0  0  0  0  0  0  0  0  0  0  0  0
    7.3781    2.7306    0.0000 H   0  0  0  0  0  0  0  0  0  0  0  0
    7.9981    2.1106    0.0000 H   0  0  0  0  0  0  0  0  0  0  0  0
    9.8641    0.8506    0.0000 H   0  0  0  0  0  0  0  0  0  0  0  0
    4.0642    1.5635    0.0000 H   0  0  0  0  0  0  0  0  0  0  0  0
   11.2671    0.0406    0.0000 H   0  0  0  0  0  0  0  0  0  0  0  0
    4.1134    4.3185    0.0000 H   0  0  0  0  0  0  0  0  0  0  0  0
    3.2639    4.1014    0.0000 H   0  0  0  0  0  0  0  0  0  0  0  0
    3.4810    3.2519    0.0000 H   0  0  0  0  0  0  0  0  0  0  0  0
    5.7007    3.8192    0.0000 H   0  0  0  0  0  0  0  0  0  0  0  0
    5.4836    4.6687    0.0000 H   0  0  0  0  0  0  0  0  0  0  0  0
    4.6341    4.4516    0.0000 H   0  0  0  0  0  0  0  0  0  0  0  0
    3.6141    2.7312    0.0000 H   0  0  0  0  0  0  0  0  0  0  0  0
    3.8313    1.8817    0.0000 H   0  0  0  0  0  0  0  0  0  0  0  0
    4.6808    2.0988    0.0000 H   0  0  0  0  0  0  0  0  0  0  0  0
    2.3079    1.2379    0.0000 H   0  0  0  0  0  0  0  0  0  0  0  0
    1.4619    1.0077    0.0000 H   0  0  0  0  0  0  0  0  0  0  0  0
    1.6921    0.1617    0.0000 H   0  0  0  0  0  0  0  0  0  0  0  0
    1.8332   -0.3569    0.0000 H   0  0  0  0  0  0  0  0  0  0  0  0
    2.0634   -1.2029    0.0000 H   0  0  0  0  0  0  0  0  0  0  0  0
    2.9094   -0.9727    0.0000 H   0  0  0  0  0  0  0  0  0  0  0  0
    3.9027    0.7632    0.0000 H   0  0  0  0  0  0  0  0  0  0  0  0
    3.6725    1.6092    0.0000 H   0  0  0  0  0  0  0  0  0  0  0  0
    2.8265    1.3790    0.0000 H   0  0  0  0  0  0  0  0  0  0  0  0
   11.2861   -4.3063    0.0000 H   0  0  0  0  0  0  0  0  0  0  0  0
   12.1331   -4.0794    0.0000 H   0  0  0  0  0  0  0  0  0  0  0  0
   11.9061   -3.2324    0.0000 H   0  0  0  0  0  0  0  0  0  0  0  0
    9.6932   -3.8254    0.0000 H   0  0  0  0  0  0  0  0  0  0  0  0
    9.9201   -4.6723    0.0000 H   0  0  0  0  0  0  0  0  0  0  0  0
   10.7671   -4.4454    0.0000 H   0  0  0  0  0  0  0  0  0  0  0  0
   11.7671   -2.7133    0.0000 H   0  0  0  0  0  0  0  0  0  0  0  0
   11.5401   -1.8664    0.0000 H   0  0  0  0  0  0  0  0  0  0  0  0
   10.6932   -2.0933    0.0000 H   0  0  0  0  0  0  0  0  0  0  0  0
   13.6382   -1.3063    0.0000 H   0  0  0  0  0  0  0  0  0  0  0  0
   13.8651   -0.4594    0.0000 H   0  0  0  0  0  0  0  0  0  0  0  0
   13.0182   -0.2324    0.0000 H   0  0  0  0  0  0  0  0  0  0  0  0
   12.4252   -2.4454    0.0000 H   0  0  0  0  0  0  0  0  0  0  0  0
   13.2722   -2.6723    0.0000 H   0  0  0  0  0  0  0  0  0  0  0  0
   13.4991   -1.8254    0.0000 H   0  0  0  0  0  0  0  0  0  0  0  0
   12.4991   -0.0933    0.0000 H   0  0  0  0  0  0  0  0  0  0  0  0
   11.6522    0.1336    0.0000 H   0  0  0  0  0  0  0  0  0  0  0  0
   11.4252   -0.7133    0.0000 H   0  0  0  0  0  0  0  0  0  0  0  0
  1  6  1  0  0  0  0
  1 21  1  0  0  0  0
  1 22  1  0  0  0  0
  1 23  1  0  0  0  0
  2  8  1  0  0  0  0
  2 30  1  0  0  0  0
  2 31  1  0  0  0  0
  2 32  1  0  0  0  0
  3  9  1  0  0  0  0
  3 33  1  0  0  0  0
  3 34  1  0  0  0  0
  3 35  1  0  0  0  0
  4 10  1  0  0  0  0
  4 36  1  0  0  0  0
  4 37  1  0  0  0  0
  4 38  1  0  0  0  0
  5 11  1  0  0  0  0
  5 39  1  0  0  0  0
  5 40  1  0  0  0  0
  5 41  1  0  0  0  0
  6 12  1  0  0  0  0
  7 13  1  0  0  0  0
  7 16  1  0  0  0  0
  8 18  1  0  0  0  0
  9 26  1  0  0  0  0
 10 27  1  0  0  0  0
 11 28  1  0  0  0  0
 12 13  1  0  0  0  0
 12 14  1  0  0  0  0
 12 42  1  0  0  0  0
 13 17  1  0  0  0  0
 13 43  1  0  0  0  0
 14 15  1  0  0  0  0
 14 44  1  0  0  0  0
 14 45  1  0  0  0  0
 15 16  2  0  0  0  0
 15 18  1  0  0  0  0
 16 19  1  0  0  0  0
 17 20  2  0  0  0  0
 17 24  1  0  0  0  0
 18 25  2  0  0  0  0
 19 26  2  0  0  0  0
 19 46  1  0  0  0  0
 20 27  1  0  0  0  0
 20 47  1  0  0  0  0
 21 48  1  0  0  0  0
 21 49  1  0  0  0  0
 21 50  1  0  0  0  0
 22 51  1  0  0  0  0
 22 52  1  0  0  0  0
 22 53  1  0  0  0  0
 23 54  1  0  0  0  0
 23 55  1  0  0  0  0
 23 56  1  0  0  0  0
 24 29  2  0  0  0  0
 24 57  1  0  0  0  0
 25 26  1  0  0  0  0
 25 58  1  0  0  0  0
 27 28  2  0  0  0  0
 28 29  1  0  0  0  0
 29 59  1  0  0  0  0
 30 60  1  0  0  0  0
 30 61  1  0  0  0  0
 30 62  1  0  0  0  0
 31 63  1  0  0  0  0
 31 64  1  0  0  0  0
 31 65  1  0  0  0  0
 32 66  1  0  0  0  0
 32 67  1  0  0  0  0
 32 68  1  0  0  0  0
 33 69  1  0  0  0  0
 33 70  1  0  0  0  0
 33 71  1  0  0  0  0
 34 72  1  0  0  0  0
 34 73  1  0  0  0  0
 34 74  1  0  0  0  0
 35 75  1  0  0  0  0
 35 76  1  0  0  0  0
 35 77  1  0  0  0  0
 36 78  1  0  0  0  0
 36 79  1  0  0  0  0
 36 80  1  0  0  0  0
 37 81  1  0  0  0  0
 37 82  1  0  0  0  0
 37 83  1  0  0  0  0
 38 84  1  0  0  0  0
 38 85  1  0  0  0  0
 38 86  1  0  0  0  0
 39 87  1  0  0  0  0
 39 88  1  0  0  0  0
 39 89  1  0  0  0  0
 40 90  1  0  0  0  0
 40 91  1  0  0  0  0
 40 92  1  0  0  0  0
 41 93  1  0  0  0  0
 41 94  1  0  0  0  0
 41 95  1  0  0  0  0
M  END
> <PUBCHEM_COMPOUND_CID>
526660
> <PUBCHEM_COMPOUND_CANONICALIZED>
1
> <PUBCHEM_CACTVS_COMPLEXITY>
841
> <PUBCHEM_CACTVS_HBOND_ACCEPTOR>
6
> <PUBCHEM_CACTVS_HBOND_DONOR>
0
> <PUBCHEM_CACTVS_ROTATABLE_BOND>
11
> <PUBCHEM_CACTVS_SUBSKEYS>
AAADcfB4OAwAAAAAAAAAAAAAAAAAAAAAAAA0YIAAAAAAAACRQAAAGhAAAEAADBSgmAJyBoAABAGAAiBCAAACCAAgIAAIiAAGiIgNJyKEMRqCOCClwBUKqAfA4PwOIAABCAAIQABAAAIQABCAAAAAAAAAAA==
> <PUBCHEM_IUPAC_OPENEYE_NAME>
trimethyl-[2-trimethylsilyloxy-4-[3,5,7-tris(trimethylsilyloxy)chroman-2-yl]phenoxy]silane
> <PUBCHEM_IUPAC_CAS_NAME>
trimethyl-[2-trimethylsilyloxy-4-[3,5,7-tris(trimethylsilyloxy)-3,4-dihydro-2H-1-benzopyran-2-yl]phenoxy]silane
> <PUBCHEM_IUPAC_NAME_MARKUP>
trimethyl-[2-trimethylsilyloxy-4-[3,5,7-tris(trimethylsilyloxy)-3,4-dihydro-2<I>H</I>-chromen-2-yl]phenoxy]silane
> <PUBCHEM_IUPAC_NAME>
trimethyl-[2-trimethylsilyloxy-4-[3,5,7-tris(trimethylsilyloxy)-3,4-dihydro-2H-chromen-2-yl]phenoxy]silane
> <PUBCHEM_IUPAC_SYSTEMATIC_NAME>
trimethyl-[2-trimethylsilyloxy-4-[3,5,7-tris(trimethylsilyloxy)-3,4-dihydro-2H-chromen-2-yl]phenoxy]silane
> <PUBCHEM_IUPAC_TRADITIONAL_NAME>
trimethyl-[2-trimethylsilyloxy-4-[3,5,7-tris(trimethylsilyloxy)chroman-2-yl]phenoxy]silane
> <PUBCHEM_IUPAC_INCHI>
InChI=1S/C30H54O6Si5/c1-37(2,3)32-23-19-26-24(27(20-23)34-39(7,8)9)21-29(36-41(13,14)15)30(31-26)22-16-17-25(33-38(4,5)6)28(18-22)35-40(10,11)12/h16-20,29-30H,21H2,1-15H3
> <PUBCHEM_IUPAC_INCHIKEY>
QKMSLFRFGOTVEJ-UHFFFAOYSA-N
> <PUBCHEM_EXACT_MASS>
650.27667211
> <PUBCHEM_MOLECULAR_FORMULA>
C30H54O6Si5
> <PUBCHEM_MOLECULAR_WEIGHT>
651.2
> <PUBCHEM_OPENEYE_CAN_SMILES>
C[Si](C)(C)OC1CC2=C(C=C(C=C2O[Si](C)(C)C)O[Si](C)(C)C)OC1C3=CC(=C(C=C3)O[Si](C)(C)C)O[Si](C)(C)C
> <PUBCHEM_OPENEYE_ISO_SMILES>
C[Si](C)(C)OC1CC2=C(C=C(C=C2O[Si](C)(C)C)O[Si](C)(C)C)OC1C3=CC(=C(C=C3)O[Si](C)(C)C)O[Si](C)(C)C
> <PUBCHEM_CACTVS_TPSA>
55.4
> <PUBCHEM_MONOISOTOPIC_WEIGHT>
650.27667211
> <PUBCHEM_TOTAL_CHARGE>
0
> <PUBCHEM_HEAVY_ATOM_COUNT>
41
> <PUBCHEM_ATOM_DEF_STEREO_COUNT>
0
> <PUBCHEM_ATOM_UDEF_STEREO_COUNT>
2
> <PUBCHEM_BOND_DEF_STEREO_COUNT>
0
> <PUBCHEM_BOND_UDEF_STEREO_COUNT>
0
> <PUBCHEM_ISOTOPIC_ATOM_COUNT>
0
> <PUBCHEM_COMPONENT_COUNT>
1
> <PUBCHEM_CACTVS_TAUTO_COUNT>
-1
> <PUBCHEM_COORDINATE_TYPE>
1
5
255
> <PUBCHEM_BONDANNOTATIONS>
13  17  3
15  16  8
15  18  8
16  19  8
17  20  8
17  24  8
18  25  8
19  26  8
20  27  8
24  29  8
25  26  8
27  28  8
28  29  8
12  6  3
$$$$
