526683
  -OEChem-10302200292D
 84 87  0     1  0  0  0  0  0999 V2000
    8.2591    1.9863    0.0000 O   0  0  0  0  0  0  0  0  0  0  0  0
    9.1469   -2.5451    0.0000 O   0  0  0  0  0  0  0  0  0  0  0  0
    3.7320   -2.5660    0.0000 O   0  0  0  0  0  0  0  0  0  0  0  0
    6.5270    1.9863    0.0000 O   0  0  0  0  0  0  0  0  0  0  0  0
   12.6497    3.1045    0.0000 O   0  0  0  0  0  0  0  0  0  0  0  0
    8.2983   -4.0550    0.0000 O   0  0  0  0  0  0  0  0  0  0  0  0
   11.0033    3.6426    0.0000 O   0  0  0  0  0  0  0  0  0  0  0  0
    2.8718   -1.0627    0.0000 O   0  0  0  0  0  0  0  0  0  0  0  0
    9.1251    0.4863    0.0000 C   0  0  3  0  0  0  0  0  0  0  0  0
    9.1251   -0.5137    0.0000 C   0  0  3  0  0  0  0  0  0  0  0  0
    8.2591   -1.0137    0.0000 C   0  0  3  0  0  0  0  0  0  0  0  0
    7.3931   -0.5137    0.0000 C   0  0  3  0  0  0  0  0  0  0  0  0
    6.4831   -1.0205    0.0000 C   0  0  3  0  0  0  0  0  0  0  0  0
   10.0713    0.7911    0.0000 C   0  0  3  0  0  0  0  0  0  0  0  0
    8.2591    0.9863    0.0000 C   0  0  3  0  0  0  0  0  0  0  0  0
    7.3931    0.4863    0.0000 C   0  0  0  0  0  0  0  0  0  0  0  0
    6.4750   -2.0621    0.0000 C   0  0  3  0  0  0  0  0  0  0  0  0
    8.2752   -2.0552    0.0000 C   0  0  3  0  0  0  0  0  0  0  0  0
   10.0713   -0.8184    0.0000 C   0  0  0  0  0  0  0  0  0  0  0  0
   10.6550   -0.0137    0.0000 C   0  0  0  0  0  0  0  0  0  0  0  0
    7.3771   -2.5829    0.0000 C   0  0  0  0  0  0  0  0  0  0  0  0
    5.5562   -0.4564    0.0000 C   0  0  0  0  0  0  0  0  0  0  0  0
    9.1251    1.4863    0.0000 C   0  0  0  0  0  0  0  0  0  0  0  0
    5.5396   -2.6118    0.0000 C   0  0  0  0  0  0  0  0  0  0  0  0
   10.3820    1.7416    0.0000 C   0  0  3  0  0  0  0  0  0  0  0  0
    6.4908   -0.0206    0.0000 C   0  0  0  0  0  0  0  0  0  0  0  0
    4.6084   -0.9844    0.0000 C   0  0  0  0  0  0  0  0  0  0  0  0
    4.6000   -2.0694    0.0000 C   0  0  3  0  0  0  0  0  0  0  0  0
   11.3605    1.9478    0.0000 C   0  0  0  0  0  0  0  0  0  0  0  0
    9.7142    2.4859    0.0000 C   0  0  0  0  0  0  0  0  0  0  0  0
    7.3931    2.4863    0.0000 C   0  0  0  0  0  0  0  0  0  0  0  0
    9.1585   -3.5451    0.0000 C   0  0  0  0  0  0  0  0  0  0  0  0
   11.6712    2.8983    0.0000 C   0  0  0  0  0  0  0  0  0  0  0  0
    2.8680   -2.0627    0.0000 C   0  0  0  0  0  0  0  0  0  0  0  0
    7.3931    3.4863    0.0000 C   0  0  0  0  0  0  0  0  0  0  0  0
   10.0302   -4.0350    0.0000 C   0  0  0  0  0  0  0  0  0  0  0  0
    2.0000   -2.5593    0.0000 C   0  0  0  0  0  0  0  0  0  0  0  0
   12.9603    4.0550    0.0000 C   0  0  0  0  0  0  0  0  0  0  0  0
    9.1907   -1.1302    0.0000 H   0  0  0  0  0  0  0  0  0  0  0  0
    8.7984   -1.3195    0.0000 H   0  0  0  0  0  0  0  0  0  0  0  0
    7.9300   -0.2037    0.0000 H   0  0  0  0  0  0  0  0  0  0  0  0
   10.6838    0.8872    0.0000 H   0  0  0  0  0  0  0  0  0  0  0  0
    7.7222    1.2963    0.0000 H   0  0  0  0  0  0  0  0  0  0  0  0
    7.1810    1.0689    0.0000 H   0  0  0  0  0  0  0  0  0  0  0  0
    6.7825    0.3787    0.0000 H   0  0  0  0  0  0  0  0  0  0  0  0
    6.4774   -2.6821    0.0000 H   0  0  0  0  0  0  0  0  0  0  0  0
    8.2811   -2.6752    0.0000 H   0  0  0  0  0  0  0  0  0  0  0  0
    9.8203   -1.3853    0.0000 H   0  0  0  0  0  0  0  0  0  0  0  0
   10.6087   -1.1276    0.0000 H   0  0  0  0  0  0  0  0  0  0  0  0
   11.1158   -0.4284    0.0000 H   0  0  0  0  0  0  0  0  0  0  0  0
   11.1158    0.4010    0.0000 H   0  0  0  0  0  0  0  0  0  0  0  0
    6.9798   -3.0589    0.0000 H   0  0  0  0  0  0  0  0  0  0  0  0
    7.7781   -3.0558    0.0000 H   0  0  0  0  0  0  0  0  0  0  0  0
    5.9644    0.0102    0.0000 H   0  0  0  0  0  0  0  0  0  0  0  0
    5.1663    0.0256    0.0000 H   0  0  0  0  0  0  0  0  0  0  0  0
    9.7451    1.4863    0.0000 H   0  0  0  0  0  0  0  0  0  0  0  0
    9.1251    2.1063    0.0000 H   0  0  0  0  0  0  0  0  0  0  0  0
    8.5051    1.4863    0.0000 H   0  0  0  0  0  0  0  0  0  0  0  0
    5.1423   -3.0878    0.0000 H   0  0  0  0  0  0  0  0  0  0  0  0
    5.9406   -3.0847    0.0000 H   0  0  0  0  0  0  0  0  0  0  0  0
   10.5746    2.3309    0.0000 H   0  0  0  0  0  0  0  0  0  0  0  0
    7.1108   -0.0253    0.0000 H   0  0  0  0  0  0  0  0  0  0  0  0
    6.4956    0.5994    0.0000 H   0  0  0  0  0  0  0  0  0  0  0  0
    5.8708   -0.0158    0.0000 H   0  0  0  0  0  0  0  0  0  0  0  0
    4.4038   -0.3991    0.0000 H   0  0  0  0  0  0  0  0  0  0  0  0
    3.9967   -1.0858    0.0000 H   0  0  0  0  0  0  0  0  0  0  0  0
    4.0648   -1.7562    0.0000 H   0  0  0  0  0  0  0  0  0  0  0  0
   11.3811    1.3281    0.0000 H   0  0  0  0  0  0  0  0  0  0  0  0
   11.9743    1.8604    0.0000 H   0  0  0  0  0  0  0  0  0  0  0  0
   10.1756    2.8999    0.0000 H   0  0  0  0  0  0  0  0  0  0  0  0
    9.3001    2.9473    0.0000 H   0  0  0  0  0  0  0  0  0  0  0  0
    9.2527    2.0718    0.0000 H   0  0  0  0  0  0  0  0  0  0  0  0
    8.0131    3.4863    0.0000 H   0  0  0  0  0  0  0  0  0  0  0  0
    7.3931    4.1063    0.0000 H   0  0  0  0  0  0  0  0  0  0  0  0
    6.7731    3.4863    0.0000 H   0  0  0  0  0  0  0  0  0  0  0  0
    9.7264   -4.5755    0.0000 H   0  0  0  0  0  0  0  0  0  0  0  0
   10.5707   -4.3388    0.0000 H   0  0  0  0  0  0  0  0  0  0  0  0
   10.3340   -3.4945    0.0000 H   0  0  0  0  0  0  0  0  0  0  0  0
    1.6921   -2.0212    0.0000 H   0  0  0  0  0  0  0  0  0  0  0  0
    1.4619   -2.8673    0.0000 H   0  0  0  0  0  0  0  0  0  0  0  0
    2.3079   -3.0975    0.0000 H   0  0  0  0  0  0  0  0  0  0  0  0
   13.5497    3.8624    0.0000 H   0  0  0  0  0  0  0  0  0  0  0  0
   13.1530    4.6444    0.0000 H   0  0  0  0  0  0  0  0  0  0  0  0
   12.3710    4.2477    0.0000 H   0  0  0  0  0  0  0  0  0  0  0  0
  1 15  1  0  0  0  0
  1 31  1  0  0  0  0
  2 18  1  0  0  0  0
  2 32  1  0  0  0  0
  3 28  1  0  0  0  0
  3 34  1  0  0  0  0
  4 31  2  0  0  0  0
  5 33  1  0  0  0  0
  5 38  1  0  0  0  0
  6 32  2  0  0  0  0
  7 33  2  0  0  0  0
  8 34  2  0  0  0  0
  9 10  1  0  0  0  0
  9 14  1  0  0  0  0
  9 15  1  0  0  0  0
  9 23  1  0  0  0  0
 10 11  1  0  0  0  0
 10 19  1  0  0  0  0
 10 39  1  0  0  0  0
 11 12  1  0  0  0  0
 11 18  1  0  0  0  0
 11 40  1  0  0  0  0
 12 13  1  0  0  0  0
 12 16  1  0  0  0  0
 12 41  1  0  0  0  0
 13 17  1  0  0  0  0
 13 22  1  0  0  0  0
 13 26  1  0  0  0  0
 14 20  1  0  0  0  0
 14 25  1  0  0  0  0
 14 42  1  0  0  0  0
 15 16  1  0  0  0  0
 15 43  1  0  0  0  0
 16 44  1  0  0  0  0
 16 45  1  0  0  0  0
 17 21  1  0  0  0  0
 17 24  1  0  0  0  0
 17 46  1  0  0  0  0
 18 21  1  0  0  0  0
 18 47  1  0  0  0  0
 19 20  1  0  0  0  0
 19 48  1  0  0  0  0
 19 49  1  0  0  0  0
 20 50  1  0  0  0  0
 20 51  1  0  0  0  0
 21 52  1  0  0  0  0
 21 53  1  0  0  0  0
 22 27  1  0  0  0  0
 22 54  1  0  0  0  0
 22 55  1  0  0  0  0
 23 56  1  0  0  0  0
 23 57  1  0  0  0  0
 23 58  1  0  0  0  0
 24 28  1  0  0  0  0
 24 59  1  0  0  0  0
 24 60  1  0  0  0  0
 25 29  1  0  0  0  0
 25 30  1  0  0  0  0
 25 61  1  0  0  0  0
 26 62  1  0  0  0  0
 26 63  1  0  0  0  0
 26 64  1  0  0  0  0
 27 28  1  0  0  0  0
 27 65  1  0  0  0  0
 27 66  1  0  0  0  0
 28 67  1  0  0  0  0
 29 33  1  0  0  0  0
 29 68  1  0  0  0  0
 29 69  1  0  0  0  0
 30 70  1  0  0  0  0
 30 71  1  0  0  0  0
 30 72  1  0  0  0  0
 31 35  1  0  0  0  0
 32 36  1  0  0  0  0
 34 37  1  0  0  0  0
 35 73  1  0  0  0  0
 35 74  1  0  0  0  0
 35 75  1  0  0  0  0
 36 76  1  0  0  0  0
 36 77  1  0  0  0  0
 36 78  1  0  0  0  0
 37 79  1  0  0  0  0
 37 80  1  0  0  0  0
 37 81  1  0  0  0  0
 38 82  1  0  0  0  0
 38 83  1  0  0  0  0
 38 84  1  0  0  0  0
M  END
> <PUBCHEM_COMPOUND_CID>
526683
> <PUBCHEM_COMPOUND_CANONICALIZED>
1
> <PUBCHEM_CACTVS_COMPLEXITY>
947
> <PUBCHEM_CACTVS_HBOND_ACCEPTOR>
8
> <PUBCHEM_CACTVS_HBOND_DONOR>
0
> <PUBCHEM_CACTVS_ROTATABLE_BOND>
10
> <PUBCHEM_CACTVS_SUBSKEYS>
AAADcfB4PAAAAAAAAAAAAAAAAAAAAYAAAAAwYMAAAAAAAGDAAAAAGgAAAAAADxSggAICCAAABAAIAACQCAAAAAAAAAAAAAEAAAAAABIAAAACAAAEAAAAAAGI6PyPgAAAAAAAAADAAAYAADAAAQAACAAAAA==
> <PUBCHEM_IUPAC_OPENEYE_NAME>
methyl 3-(3,7,12-triacetoxy-10,13-dimethyl-2,3,4,5,6,7,8,9,11,12,14,15,16,17-tetradecahydro-1H-cyclopenta[a]phenanthren-17-yl)butanoate
> <PUBCHEM_IUPAC_CAS_NAME>
3-(3,7,12-triacetyloxy-10,13-dimethyl-2,3,4,5,6,7,8,9,11,12,14,15,16,17-tetradecahydro-1H-cyclopenta[a]phenanthren-17-yl)butanoic acid methyl ester
> <PUBCHEM_IUPAC_NAME_MARKUP>
methyl 3-(3,7,12-triacetyloxy-10,13-dimethyl-2,3,4,5,6,7,8,9,11,12,14,15,16,17-tetradecahydro-1<I>H</I>-cyclopenta[a]phenanthren-17-yl)butanoate
> <PUBCHEM_IUPAC_NAME>
methyl 3-(3,7,12-triacetyloxy-10,13-dimethyl-2,3,4,5,6,7,8,9,11,12,14,15,16,17-tetradecahydro-1H-cyclopenta[a]phenanthren-17-yl)butanoate
> <PUBCHEM_IUPAC_SYSTEMATIC_NAME>
methyl 3-(3,7,12-triacetyloxy-10,13-dimethyl-2,3,4,5,6,7,8,9,11,12,14,15,16,17-tetradecahydro-1H-cyclopenta[a]phenanthren-17-yl)butanoate
> <PUBCHEM_IUPAC_TRADITIONAL_NAME>
3-(3,7,12-triacetoxy-10,13-dimethyl-2,3,4,5,6,7,8,9,11,12,14,15,16,17-tetradecahydro-1H-cyclopenta[a]phenanthren-17-yl)butyric acid methyl ester
> <PUBCHEM_IUPAC_INCHI>
InChI=1S/C30H46O8/c1-16(12-27(34)35-7)22-8-9-23-28-24(15-26(30(22,23)6)38-19(4)33)29(5)11-10-21(36-17(2)31)13-20(29)14-25(28)37-18(3)32/h16,20-26,28H,8-15H2,1-7H3
> <PUBCHEM_IUPAC_INCHIKEY>
ACMPEIVMCVNWOD-UHFFFAOYSA-N
> <PUBCHEM_XLOGP3_AA>
5.3
> <PUBCHEM_EXACT_MASS>
534.31926842
> <PUBCHEM_MOLECULAR_FORMULA>
C30H46O8
> <PUBCHEM_MOLECULAR_WEIGHT>
534.7
> <PUBCHEM_OPENEYE_CAN_SMILES>
CC(CC(=O)OC)C1CCC2C1(C(CC3C2C(CC4C3(CCC(C4)OC(=O)C)C)OC(=O)C)OC(=O)C)C
> <PUBCHEM_OPENEYE_ISO_SMILES>
CC(CC(=O)OC)C1CCC2C1(C(CC3C2C(CC4C3(CCC(C4)OC(=O)C)C)OC(=O)C)OC(=O)C)C
> <PUBCHEM_CACTVS_TPSA>
105
> <PUBCHEM_MONOISOTOPIC_WEIGHT>
534.31926842
> <PUBCHEM_TOTAL_CHARGE>
0
> <PUBCHEM_HEAVY_ATOM_COUNT>
38
> <PUBCHEM_ATOM_DEF_STEREO_COUNT>
0
> <PUBCHEM_ATOM_UDEF_STEREO_COUNT>
11
> <PUBCHEM_BOND_DEF_STEREO_COUNT>
0
> <PUBCHEM_BOND_UDEF_STEREO_COUNT>
0
> <PUBCHEM_ISOTOPIC_ATOM_COUNT>
0
> <PUBCHEM_COMPONENT_COUNT>
1
> <PUBCHEM_CACTVS_TAUTO_COUNT>
-1
> <PUBCHEM_COORDINATE_TYPE>
1
5
255
> <PUBCHEM_BONDANNOTATIONS>
15  1  3
10  19  3
11  18  3
12  16  3
13  26  3
14  20  3
17  24  3
18  2  3
25  30  3
28  3  3
9  23  3
$$$$
