526637
  -OEChem-10302200292D
 31 31  0     1  0  0  0  0  0999 V2000
    5.3122   -0.2071    0.0000 O   0  0  0  0  0  0  0  0  0  0  0  0
    2.7431    0.1019    0.0000 O   0  0  0  0  0  0  0  0  0  0  0  0
    3.4154   -1.9672    0.0000 O   0  0  0  0  0  0  0  0  0  0  0  0
    5.3692    1.8807    0.0000 O   0  0  0  0  0  0  0  0  0  0  0  0
    4.5032    0.3807    0.0000 C   0  0  3  0  0  0  0  0  0  0  0  0
    3.6942   -0.2071    0.0000 C   0  0  3  0  0  0  0  0  0  0  0  0
    4.0032   -1.1581    0.0000 C   0  0  3  0  0  0  0  0  0  0  0  0
    5.0032   -1.1581    0.0000 C   0  0  0  0  0  0  0  0  0  0  0  0
    4.5032    1.3807    0.0000 C   0  0  3  0  0  0  0  0  0  0  0  0
    3.6372    1.8807    0.0000 C   0  0  0  0  0  0  0  0  0  0  0  0
    2.0000   -0.5672    0.0000 C   0  0  0  0  0  0  0  0  0  0  0  0
    3.8222   -2.8807    0.0000 C   0  0  0  0  0  0  0  0  0  0  0  0
    5.3692    2.8807    0.0000 C   0  0  0  0  0  0  0  0  0  0  0  0
    5.0556    0.6622    0.0000 H   0  0  0  0  0  0  0  0  0  0  0  0
    3.5972    0.4053    0.0000 H   0  0  0  0  0  0  0  0  0  0  0  0
    3.3908   -1.0612    0.0000 H   0  0  0  0  0  0  0  0  0  0  0  0
    4.9384   -1.7747    0.0000 H   0  0  0  0  0  0  0  0  0  0  0  0
    5.6097   -1.2870    0.0000 H   0  0  0  0  0  0  0  0  0  0  0  0
    5.0402    1.0707    0.0000 H   0  0  0  0  0  0  0  0  0  0  0  0
    3.9472    2.4176    0.0000 H   0  0  0  0  0  0  0  0  0  0  0  0
    3.1003    2.1907    0.0000 H   0  0  0  0  0  0  0  0  0  0  0  0
    3.3272    1.3438    0.0000 H   0  0  0  0  0  0  0  0  0  0  0  0
    1.5851   -0.1064    0.0000 H   0  0  0  0  0  0  0  0  0  0  0  0
    1.5392   -0.9821    0.0000 H   0  0  0  0  0  0  0  0  0  0  0  0
    2.4149   -1.0280    0.0000 H   0  0  0  0  0  0  0  0  0  0  0  0
    3.2558   -3.1329    0.0000 H   0  0  0  0  0  0  0  0  0  0  0  0
    4.0744   -3.4471    0.0000 H   0  0  0  0  0  0  0  0  0  0  0  0
    4.3886   -2.6285    0.0000 H   0  0  0  0  0  0  0  0  0  0  0  0
    5.9892    2.8807    0.0000 H   0  0  0  0  0  0  0  0  0  0  0  0
    5.3692    3.5007    0.0000 H   0  0  0  0  0  0  0  0  0  0  0  0
    4.7492    2.8807    0.0000 H   0  0  0  0  0  0  0  0  0  0  0  0
  1  5  1  0  0  0  0
  1  8  1  0  0  0  0
  2  6  1  0  0  0  0
  2 11  1  0  0  0  0
  3  7  1  0  0  0  0
  3 12  1  0  0  0  0
  4  9  1  0  0  0  0
  4 13  1  0  0  0  0
  5  6  1  0  0  0  0
  5  9  1  0  0  0  0
  5 14  1  0  0  0  0
  6  7  1  0  0  0  0
  6 15  1  0  0  0  0
  7  8  1  0  0  0  0
  7 16  1  0  0  0  0
  8 17  1  0  0  0  0
  8 18  1  0  0  0  0
  9 10  1  0  0  0  0
  9 19  1  0  0  0  0
 10 20  1  0  0  0  0
 10 21  1  0  0  0  0
 10 22  1  0  0  0  0
 11 23  1  0  0  0  0
 11 24  1  0  0  0  0
 11 25  1  0  0  0  0
 12 26  1  0  0  0  0
 12 27  1  0  0  0  0
 12 28  1  0  0  0  0
 13 29  1  0  0  0  0
 13 30  1  0  0  0  0
 13 31  1  0  0  0  0
M  END
> <PUBCHEM_COMPOUND_CID>
526637
> <PUBCHEM_COMPOUND_CANONICALIZED>
1
> <PUBCHEM_CACTVS_COMPLEXITY>
151
> <PUBCHEM_CACTVS_HBOND_ACCEPTOR>
4
> <PUBCHEM_CACTVS_HBOND_DONOR>
0
> <PUBCHEM_CACTVS_ROTATABLE_BOND>
4
> <PUBCHEM_CACTVS_SUBSKEYS>
AAADceBwOAAAAAAAAAAAAAAAAAAAASAAAAAAAAAAAAAAAAAAAAAAGgAAAAAACBSggAICAAAABAAAAAAAAAAAAAAAAAAAAAAAAAABAAIAAAACAAAFAAACAAHAYAwAAAAAAAAAAAAAAAAAAAAAAAAAAAAAAA==
> <PUBCHEM_IUPAC_OPENEYE_NAME>
3,4-dimethoxy-2-(1-methoxyethyl)tetrahydrofuran
> <PUBCHEM_IUPAC_CAS_NAME>
3,4-dimethoxy-2-(1-methoxyethyl)oxolane
> <PUBCHEM_IUPAC_NAME_MARKUP>
3,4-dimethoxy-2-(1-methoxyethyl)oxolane
> <PUBCHEM_IUPAC_NAME>
3,4-dimethoxy-2-(1-methoxyethyl)oxolane
> <PUBCHEM_IUPAC_SYSTEMATIC_NAME>
3,4-dimethoxy-2-(1-methoxyethyl)oxolane
> <PUBCHEM_IUPAC_TRADITIONAL_NAME>
3,4-dimethoxy-2-(1-methoxyethyl)tetrahydrofuran
> <PUBCHEM_IUPAC_INCHI>
InChI=1S/C9H18O4/c1-6(10-2)8-9(12-4)7(11-3)5-13-8/h6-9H,5H2,1-4H3
> <PUBCHEM_IUPAC_INCHIKEY>
VYYXUPGWUOGQQX-UHFFFAOYSA-N
> <PUBCHEM_XLOGP3_AA>
0
> <PUBCHEM_EXACT_MASS>
190.12050905
> <PUBCHEM_MOLECULAR_FORMULA>
C9H18O4
> <PUBCHEM_MOLECULAR_WEIGHT>
190.24
> <PUBCHEM_OPENEYE_CAN_SMILES>
CC(C1C(C(CO1)OC)OC)OC
> <PUBCHEM_OPENEYE_ISO_SMILES>
CC(C1C(C(CO1)OC)OC)OC
> <PUBCHEM_CACTVS_TPSA>
36.9
> <PUBCHEM_MONOISOTOPIC_WEIGHT>
190.12050905
> <PUBCHEM_TOTAL_CHARGE>
0
> <PUBCHEM_HEAVY_ATOM_COUNT>
13
> <PUBCHEM_ATOM_DEF_STEREO_COUNT>
0
> <PUBCHEM_ATOM_UDEF_STEREO_COUNT>
4
> <PUBCHEM_BOND_DEF_STEREO_COUNT>
0
> <PUBCHEM_BOND_UDEF_STEREO_COUNT>
0
> <PUBCHEM_ISOTOPIC_ATOM_COUNT>
0
> <PUBCHEM_COMPONENT_COUNT>
1
> <PUBCHEM_CACTVS_TAUTO_COUNT>
-1
> <PUBCHEM_COORDINATE_TYPE>
1
5
255
> <PUBCHEM_BONDANNOTATIONS>
5  1  3
6  2  3
7  3  3
9  10  3
$$$$
