526671
  -OEChem-10302200292D
108111  0     1  0  0  0  0  0999 V2000
    7.3892    2.6282    0.0000 Si  0  0  0  0  0  0  0  0  0  0  0  0
    9.1546   -3.4032    0.0000 Si  0  0  0  0  0  0  0  0  0  0  0  0
    2.8641   -1.9208    0.0000 Si  0  0  0  0  0  0  0  0  0  0  0  0
    8.2552    2.1282    0.0000 O   0  0  0  0  0  0  0  0  0  0  0  0
    9.1430   -2.4033    0.0000 O   0  0  0  0  0  0  0  0  0  0  0  0
    3.7282   -2.4241    0.0000 O   0  0  0  0  0  0  0  0  0  0  0  0
   12.9565    4.1969    0.0000 O   0  0  0  0  0  0  0  0  0  0  0  0
   13.3137    2.5021    0.0000 O   0  0  0  0  0  0  0  0  0  0  0  0
    9.1213    0.6282    0.0000 C   0  0  3  0  0  0  0  0  0  0  0  0
    9.1213   -0.3718    0.0000 C   0  0  3  0  0  0  0  0  0  0  0  0
    8.2552   -0.8718    0.0000 C   0  0  3  0  0  0  0  0  0  0  0  0
    7.3892   -0.3718    0.0000 C   0  0  3  0  0  0  0  0  0  0  0  0
    6.4792   -0.8787    0.0000 C   0  0  3  0  0  0  0  0  0  0  0  0
   10.0675    0.9329    0.0000 C   0  0  3  0  0  0  0  0  0  0  0  0
    8.2552    1.1282    0.0000 C   0  0  3  0  0  0  0  0  0  0  0  0
    7.3892    0.6282    0.0000 C   0  0  0  0  0  0  0  0  0  0  0  0
    6.4712   -1.9203    0.0000 C   0  0  3  0  0  0  0  0  0  0  0  0
    8.2713   -1.9133    0.0000 C   0  0  3  0  0  0  0  0  0  0  0  0
   10.0675   -0.6765    0.0000 C   0  0  0  0  0  0  0  0  0  0  0  0
   10.6511    0.1282    0.0000 C   0  0  0  0  0  0  0  0  0  0  0  0
    7.3733   -2.4411    0.0000 C   0  0  0  0  0  0  0  0  0  0  0  0
    5.5524   -0.3146    0.0000 C   0  0  0  0  0  0  0  0  0  0  0  0
    9.1213    1.6282    0.0000 C   0  0  0  0  0  0  0  0  0  0  0  0
   10.3781    1.8834    0.0000 C   0  0  3  0  0  0  0  0  0  0  0  0
    5.5358   -2.4700    0.0000 C   0  0  0  0  0  0  0  0  0  0  0  0
    6.4869    0.1213    0.0000 C   0  0  0  0  0  0  0  0  0  0  0  0
    4.6045   -0.8425    0.0000 C   0  0  0  0  0  0  0  0  0  0  0  0
    4.5961   -1.9275    0.0000 C   0  0  3  0  0  0  0  0  0  0  0  0
   11.3567    2.0897    0.0000 C   0  0  0  0  0  0  0  0  0  0  0  0
    9.7103    2.6277    0.0000 C   0  0  0  0  0  0  0  0  0  0  0  0
   11.6673    3.0402    0.0000 C   0  0  0  0  0  0  0  0  0  0  0  0
    6.5232    3.1282    0.0000 C   0  0  0  0  0  0  0  0  0  0  0  0
    7.8892    3.4942    0.0000 C   0  0  0  0  0  0  0  0  0  0  0  0
    6.8892    1.7622    0.0000 C   0  0  0  0  0  0  0  0  0  0  0  0
    9.1662   -4.4031    0.0000 C   0  0  0  0  0  0  0  0  0  0  0  0
   10.1545   -3.3916    0.0000 C   0  0  0  0  0  0  0  0  0  0  0  0
    8.1547   -3.4148    0.0000 C   0  0  0  0  0  0  0  0  0  0  0  0
   12.6458    3.2464    0.0000 C   0  0  0  0  0  0  0  0  0  0  0  0
    2.0000   -1.4175    0.0000 C   0  0  0  0  0  0  0  0  0  0  0  0
    2.3608   -2.7849    0.0000 C   0  0  0  0  0  0  0  0  0  0  0  0
    3.3674   -1.0567    0.0000 C   0  0  0  0  0  0  0  0  0  0  0  0
   13.9350    4.4031    0.0000 C   0  0  0  0  0  0  0  0  0  0  0  0
    9.1869   -0.9883    0.0000 H   0  0  0  0  0  0  0  0  0  0  0  0
    8.7945   -1.1777    0.0000 H   0  0  0  0  0  0  0  0  0  0  0  0
    7.9262   -0.0618    0.0000 H   0  0  0  0  0  0  0  0  0  0  0  0
   10.6800    1.0291    0.0000 H   0  0  0  0  0  0  0  0  0  0  0  0
    7.7183    1.4382    0.0000 H   0  0  0  0  0  0  0  0  0  0  0  0
    7.1772    1.2108    0.0000 H   0  0  0  0  0  0  0  0  0  0  0  0
    6.7786    0.5205    0.0000 H   0  0  0  0  0  0  0  0  0  0  0  0
    6.4736   -2.5402    0.0000 H   0  0  0  0  0  0  0  0  0  0  0  0
    8.2773   -2.5333    0.0000 H   0  0  0  0  0  0  0  0  0  0  0  0
    9.8164   -1.2434    0.0000 H   0  0  0  0  0  0  0  0  0  0  0  0
   10.6049   -0.9858    0.0000 H   0  0  0  0  0  0  0  0  0  0  0  0
   11.1120   -0.2865    0.0000 H   0  0  0  0  0  0  0  0  0  0  0  0
   11.1120    0.5429    0.0000 H   0  0  0  0  0  0  0  0  0  0  0  0
    6.9760   -2.9170    0.0000 H   0  0  0  0  0  0  0  0  0  0  0  0
    7.7742   -2.9140    0.0000 H   0  0  0  0  0  0  0  0  0  0  0  0
    5.9606    0.1521    0.0000 H   0  0  0  0  0  0  0  0  0  0  0  0
    5.1625    0.1675    0.0000 H   0  0  0  0  0  0  0  0  0  0  0  0
    9.7413    1.6282    0.0000 H   0  0  0  0  0  0  0  0  0  0  0  0
    9.1213    2.2482    0.0000 H   0  0  0  0  0  0  0  0  0  0  0  0
    8.5013    1.6282    0.0000 H   0  0  0  0  0  0  0  0  0  0  0  0
   10.5708    2.4728    0.0000 H   0  0  0  0  0  0  0  0  0  0  0  0
    5.1385   -2.9460    0.0000 H   0  0  0  0  0  0  0  0  0  0  0  0
    5.9367   -2.9429    0.0000 H   0  0  0  0  0  0  0  0  0  0  0  0
    7.1069    0.1165    0.0000 H   0  0  0  0  0  0  0  0  0  0  0  0
    6.4917    0.7413    0.0000 H   0  0  0  0  0  0  0  0  0  0  0  0
    5.8669    0.1261    0.0000 H   0  0  0  0  0  0  0  0  0  0  0  0
    4.3999   -0.2572    0.0000 H   0  0  0  0  0  0  0  0  0  0  0  0
    3.9928   -0.9439    0.0000 H   0  0  0  0  0  0  0  0  0  0  0  0
    4.5949   -2.5475    0.0000 H   0  0  0  0  0  0  0  0  0  0  0  0
   11.3772    1.4700    0.0000 H   0  0  0  0  0  0  0  0  0  0  0  0
   11.9705    2.0023    0.0000 H   0  0  0  0  0  0  0  0  0  0  0  0
   10.1718    3.0418    0.0000 H   0  0  0  0  0  0  0  0  0  0  0  0
    9.2962    3.0892    0.0000 H   0  0  0  0  0  0  0  0  0  0  0  0
    9.2488    2.2137    0.0000 H   0  0  0  0  0  0  0  0  0  0  0  0
   11.6468    3.6598    0.0000 H   0  0  0  0  0  0  0  0  0  0  0  0
   11.0535    3.1275    0.0000 H   0  0  0  0  0  0  0  0  0  0  0  0
    6.8332    3.6651    0.0000 H   0  0  0  0  0  0  0  0  0  0  0  0
    5.9863    3.4382    0.0000 H   0  0  0  0  0  0  0  0  0  0  0  0
    6.2132    2.5912    0.0000 H   0  0  0  0  0  0  0  0  0  0  0  0
    8.4262    3.1842    0.0000 H   0  0  0  0  0  0  0  0  0  0  0  0
    8.1992    4.0312    0.0000 H   0  0  0  0  0  0  0  0  0  0  0  0
    7.3523    3.8042    0.0000 H   0  0  0  0  0  0  0  0  0  0  0  0
    6.3523    2.0722    0.0000 H   0  0  0  0  0  0  0  0  0  0  0  0
    6.5792    1.2252    0.0000 H   0  0  0  0  0  0  0  0  0  0  0  0
    7.4262    1.4522    0.0000 H   0  0  0  0  0  0  0  0  0  0  0  0
    8.5462   -4.4103    0.0000 H   0  0  0  0  0  0  0  0  0  0  0  0
    9.1733   -5.0231    0.0000 H   0  0  0  0  0  0  0  0  0  0  0  0
    9.7861   -4.3960    0.0000 H   0  0  0  0  0  0  0  0  0  0  0  0
   10.1617   -4.0116    0.0000 H   0  0  0  0  0  0  0  0  0  0  0  0
   10.7745   -3.3845    0.0000 H   0  0  0  0  0  0  0  0  0  0  0  0
   10.1474   -2.7717    0.0000 H   0  0  0  0  0  0  0  0  0  0  0  0
    8.1475   -2.7948    0.0000 H   0  0  0  0  0  0  0  0  0  0  0  0
    7.5347   -3.4219    0.0000 H   0  0  0  0  0  0  0  0  0  0  0  0
    8.1618   -4.0347    0.0000 H   0  0  0  0  0  0  0  0  0  0  0  0
    2.3121   -0.8817    0.0000 H   0  0  0  0  0  0  0  0  0  0  0  0
    1.4643   -1.1054    0.0000 H   0  0  0  0  0  0  0  0  0  0  0  0
    1.6879   -1.9532    0.0000 H   0  0  0  0  0  0  0  0  0  0  0  0
    1.8250   -2.4728    0.0000 H   0  0  0  0  0  0  0  0  0  0  0  0
    2.0487   -3.3206    0.0000 H   0  0  0  0  0  0  0  0  0  0  0  0
    2.8965   -3.0970    0.0000 H   0  0  0  0  0  0  0  0  0  0  0  0
    3.9032   -1.3688    0.0000 H   0  0  0  0  0  0  0  0  0  0  0  0
    3.6795   -0.5210    0.0000 H   0  0  0  0  0  0  0  0  0  0  0  0
    2.8317   -0.7446    0.0000 H   0  0  0  0  0  0  0  0  0  0  0  0
   14.0628    3.7965    0.0000 H   0  0  0  0  0  0  0  0  0  0  0  0
   14.5417    4.5310    0.0000 H   0  0  0  0  0  0  0  0  0  0  0  0
   13.8071    5.0098    0.0000 H   0  0  0  0  0  0  0  0  0  0  0  0
  1  4  1  0  0  0  0
  1 32  1  0  0  0  0
  1 33  1  0  0  0  0
  1 34  1  0  0  0  0
  2  5  1  0  0  0  0
  2 35  1  0  0  0  0
  2 36  1  0  0  0  0
  2 37  1  0  0  0  0
  3  6  1  0  0  0  0
  3 39  1  0  0  0  0
  3 40  1  0  0  0  0
  3 41  1  0  0  0  0
  4 15  1  0  0  0  0
  5 18  1  0  0  0  0
  6 28  1  0  0  0  0
  7 38  1  0  0  0  0
  7 42  1  0  0  0  0
  8 38  2  0  0  0  0
  9 10  1  0  0  0  0
  9 14  1  0  0  0  0
  9 15  1  0  0  0  0
  9 23  1  0  0  0  0
 10 11  1  0  0  0  0
 10 19  1  0  0  0  0
 10 43  1  0  0  0  0
 11 12  1  0  0  0  0
 11 18  1  0  0  0  0
 11 44  1  0  0  0  0
 12 13  1  0  0  0  0
 12 16  1  0  0  0  0
 12 45  1  0  0  0  0
 13 17  1  0  0  0  0
 13 22  1  0  0  0  0
 13 26  1  0  0  0  0
 14 20  1  0  0  0  0
 14 24  1  0  0  0  0
 14 46  1  0  0  0  0
 15 16  1  0  0  0  0
 15 47  1  0  0  0  0
 16 48  1  0  0  0  0
 16 49  1  0  0  0  0
 17 21  1  0  0  0  0
 17 25  1  0  0  0  0
 17 50  1  0  0  0  0
 18 21  1  0  0  0  0
 18 51  1  0  0  0  0
 19 20  1  0  0  0  0
 19 52  1  0  0  0  0
 19 53  1  0  0  0  0
 20 54  1  0  0  0  0
 20 55  1  0  0  0  0
 21 56  1  0  0  0  0
 21 57  1  0  0  0  0
 22 27  1  0  0  0  0
 22 58  1  0  0  0  0
 22 59  1  0  0  0  0
 23 60  1  0  0  0  0
 23 61  1  0  0  0  0
 23 62  1  0  0  0  0
 24 29  1  0  0  0  0
 24 30  1  0  0  0  0
 24 63  1  0  0  0  0
 25 28  1  0  0  0  0
 25 64  1  0  0  0  0
 25 65  1  0  0  0  0
 26 66  1  0  0  0  0
 26 67  1  0  0  0  0
 26 68  1  0  0  0  0
 27 28  1  0  0  0  0
 27 69  1  0  0  0  0
 27 70  1  0  0  0  0
 28 71  1  0  0  0  0
 29 31  1  0  0  0  0
 29 72  1  0  0  0  0
 29 73  1  0  0  0  0
 30 74  1  0  0  0  0
 30 75  1  0  0  0  0
 30 76  1  0  0  0  0
 31 38  1  0  0  0  0
 31 77  1  0  0  0  0
 31 78  1  0  0  0  0
 32 79  1  0  0  0  0
 32 80  1  0  0  0  0
 32 81  1  0  0  0  0
 33 82  1  0  0  0  0
 33 83  1  0  0  0  0
 33 84  1  0  0  0  0
 34 85  1  0  0  0  0
 34 86  1  0  0  0  0
 34 87  1  0  0  0  0
 35 88  1  0  0  0  0
 35 89  1  0  0  0  0
 35 90  1  0  0  0  0
 36 91  1  0  0  0  0
 36 92  1  0  0  0  0
 36 93  1  0  0  0  0
 37 94  1  0  0  0  0
 37 95  1  0  0  0  0
 37 96  1  0  0  0  0
 39 97  1  0  0  0  0
 39 98  1  0  0  0  0
 39 99  1  0  0  0  0
 40100  1  0  0  0  0
 40101  1  0  0  0  0
 40102  1  0  0  0  0
 41103  1  0  0  0  0
 41104  1  0  0  0  0
 41105  1  0  0  0  0
 42106  1  0  0  0  0
 42107  1  0  0  0  0
 42108  1  0  0  0  0
M  END
> <PUBCHEM_COMPOUND_CID>
526671
> <PUBCHEM_COMPOUND_CANONICALIZED>
1
> <PUBCHEM_CACTVS_COMPLEXITY>
954
> <PUBCHEM_CACTVS_HBOND_ACCEPTOR>
5
> <PUBCHEM_CACTVS_HBOND_DONOR>
0
> <PUBCHEM_CACTVS_ROTATABLE_BOND>
11
> <PUBCHEM_CACTVS_SUBSKEYS>
AAADcfB8OAwAAAAAAAAAAAAAAAAAAYAAAAAwYMAAAAAAAGDAAAAAGhAAAEAADxSggAJCCAAABAEIAACQCAAAAAAAAAAAAAEAAAAAABIAAAAAAAAEAAAAAAGI6PSPgAAAAAAAAADAAAYAADAAAQAACAAAAA==
> <PUBCHEM_IUPAC_OPENEYE_NAME>
methyl 4-[10,13-dimethyl-3,7,12-tris(trimethylsilyloxy)-2,3,4,5,6,7,8,9,11,12,14,15,16,17-tetradecahydro-1H-cyclopenta[a]phenanthren-17-yl]pentanoate
> <PUBCHEM_IUPAC_CAS_NAME>
4-[10,13-dimethyl-3,7,12-tris(trimethylsilyloxy)-2,3,4,5,6,7,8,9,11,12,14,15,16,17-tetradecahydro-1H-cyclopenta[a]phenanthren-17-yl]pentanoic acid methyl ester
> <PUBCHEM_IUPAC_NAME_MARKUP>
methyl 4-[10,13-dimethyl-3,7,12-tris(trimethylsilyloxy)-2,3,4,5,6,7,8,9,11,12,14,15,16,17-tetradecahydro-1<I>H</I>-cyclopenta[a]phenanthren-17-yl]pentanoate
> <PUBCHEM_IUPAC_NAME>
methyl 4-[10,13-dimethyl-3,7,12-tris(trimethylsilyloxy)-2,3,4,5,6,7,8,9,11,12,14,15,16,17-tetradecahydro-1H-cyclopenta[a]phenanthren-17-yl]pentanoate
> <PUBCHEM_IUPAC_SYSTEMATIC_NAME>
methyl 4-[10,13-dimethyl-3,7,12-tris(trimethylsilyloxy)-2,3,4,5,6,7,8,9,11,12,14,15,16,17-tetradecahydro-1H-cyclopenta[a]phenanthren-17-yl]pentanoate
> <PUBCHEM_IUPAC_TRADITIONAL_NAME>
4-[10,13-dimethyl-3,7,12-tris(trimethylsilyloxy)-2,3,4,5,6,7,8,9,11,12,14,15,16,17-tetradecahydro-1H-cyclopenta[a]phenanthren-17-yl]valeric acid methyl ester
> <PUBCHEM_IUPAC_INCHI>
InChI=1S/C34H66O5Si3/c1-23(14-17-31(35)36-4)26-15-16-27-32-28(22-30(34(26,27)3)39-42(11,12)13)33(2)19-18-25(37-40(5,6)7)20-24(33)21-29(32)38-41(8,9)10/h23-30,32H,14-22H2,1-13H3
> <PUBCHEM_IUPAC_INCHIKEY>
DQKFOBXAKZGIPX-UHFFFAOYSA-N
> <PUBCHEM_EXACT_MASS>
638.42180480
> <PUBCHEM_MOLECULAR_FORMULA>
C34H66O5Si3
> <PUBCHEM_MOLECULAR_WEIGHT>
639.1
> <PUBCHEM_OPENEYE_CAN_SMILES>
CC(CCC(=O)OC)C1CCC2C1(C(CC3C2C(CC4C3(CCC(C4)O[Si](C)(C)C)C)O[Si](C)(C)C)O[Si](C)(C)C)C
> <PUBCHEM_OPENEYE_ISO_SMILES>
CC(CCC(=O)OC)C1CCC2C1(C(CC3C2C(CC4C3(CCC(C4)O[Si](C)(C)C)C)O[Si](C)(C)C)O[Si](C)(C)C)C
> <PUBCHEM_CACTVS_TPSA>
54
> <PUBCHEM_MONOISOTOPIC_WEIGHT>
638.42180480
> <PUBCHEM_TOTAL_CHARGE>
0
> <PUBCHEM_HEAVY_ATOM_COUNT>
42
> <PUBCHEM_ATOM_DEF_STEREO_COUNT>
0
> <PUBCHEM_ATOM_UDEF_STEREO_COUNT>
11
> <PUBCHEM_BOND_DEF_STEREO_COUNT>
0
> <PUBCHEM_BOND_UDEF_STEREO_COUNT>
0
> <PUBCHEM_ISOTOPIC_ATOM_COUNT>
0
> <PUBCHEM_COMPONENT_COUNT>
1
> <PUBCHEM_CACTVS_TAUTO_COUNT>
-1
> <PUBCHEM_COORDINATE_TYPE>
1
5
255
> <PUBCHEM_BONDANNOTATIONS>
10  19  3
11  18  3
12  16  3
13  26  3
14  20  3
17  25  3
24  30  3
15  4  3
18  5  3
28  6  3
9  23  3
$$$$
