526664
  -OEChem-10302200292D
 87 90  0     1  0  0  0  0  0999 V2000
    9.1469   -2.1326    0.0000 O   0  0  0  0  0  0  0  0  0  0  0  0
    7.3810   -3.1704    0.0000 O   0  0  0  0  0  0  0  0  0  0  0  0
    3.7320   -2.1535    0.0000 O   0  0  0  0  0  0  0  0  0  0  0  0
    8.2983   -3.6426    0.0000 O   0  0  0  0  0  0  0  0  0  0  0  0
    5.6489   -3.1771    0.0000 O   0  0  0  0  0  0  0  0  0  0  0  0
   12.9603    4.4676    0.0000 O   0  0  0  0  0  0  0  0  0  0  0  0
    2.8718   -0.6502    0.0000 O   0  0  0  0  0  0  0  0  0  0  0  0
   13.3175    2.7727    0.0000 O   0  0  0  0  0  0  0  0  0  0  0  0
    8.2591   -0.6012    0.0000 C   0  0  3  0  0  0  0  0  0  0  0  0
    9.1251   -0.1012    0.0000 C   0  0  3  0  0  0  0  0  0  0  0  0
    9.1251    0.8988    0.0000 C   0  0  3  0  0  0  0  0  0  0  0  0
    7.3931   -0.1012    0.0000 C   0  0  3  0  0  0  0  0  0  0  0  0
    6.4831   -0.6080    0.0000 C   0  0  3  0  0  0  0  0  0  0  0  0
   10.0713    1.2035    0.0000 C   0  0  3  0  0  0  0  0  0  0  0  0
    6.4750   -1.6496    0.0000 C   0  0  3  0  0  0  0  0  0  0  0  0
    8.2591    1.3988    0.0000 C   0  0  0  0  0  0  0  0  0  0  0  0
    7.3931    0.8988    0.0000 C   0  0  0  0  0  0  0  0  0  0  0  0
    8.2752   -1.6427    0.0000 C   0  0  3  0  0  0  0  0  0  0  0  0
   10.0713   -0.4059    0.0000 C   0  0  0  0  0  0  0  0  0  0  0  0
    7.3771   -2.1705    0.0000 C   0  0  3  0  0  0  0  0  0  0  0  0
   10.6550    0.3988    0.0000 C   0  0  0  0  0  0  0  0  0  0  0  0
    5.5562   -0.0439    0.0000 C   0  0  0  0  0  0  0  0  0  0  0  0
    9.1251    1.8988    0.0000 C   0  0  0  0  0  0  0  0  0  0  0  0
    5.5396   -2.1994    0.0000 C   0  0  0  0  0  0  0  0  0  0  0  0
   10.3820    2.1541    0.0000 C   0  0  3  0  0  0  0  0  0  0  0  0
    6.4908    0.3919    0.0000 C   0  0  0  0  0  0  0  0  0  0  0  0
    4.6084   -0.5719    0.0000 C   0  0  0  0  0  0  0  0  0  0  0  0
    4.6000   -1.6569    0.0000 C   0  0  3  0  0  0  0  0  0  0  0  0
   11.3605    2.3603    0.0000 C   0  0  0  0  0  0  0  0  0  0  0  0
    9.7142    2.8984    0.0000 C   0  0  0  0  0  0  0  0  0  0  0  0
   11.6712    3.3108    0.0000 C   0  0  0  0  0  0  0  0  0  0  0  0
    9.1585   -3.1326    0.0000 C   0  0  0  0  0  0  0  0  0  0  0  0
    6.5169   -3.6738    0.0000 C   0  0  0  0  0  0  0  0  0  0  0  0
    2.8680   -1.6502    0.0000 C   0  0  0  0  0  0  0  0  0  0  0  0
   10.0302   -3.6225    0.0000 C   0  0  0  0  0  0  0  0  0  0  0  0
   12.6497    3.5170    0.0000 C   0  0  0  0  0  0  0  0  0  0  0  0
    6.5207   -4.6738    0.0000 C   0  0  0  0  0  0  0  0  0  0  0  0
    2.0000   -2.1468    0.0000 C   0  0  0  0  0  0  0  0  0  0  0  0
   13.9388    4.6738    0.0000 C   0  0  0  0  0  0  0  0  0  0  0  0
    8.7984   -0.9070    0.0000 H   0  0  0  0  0  0  0  0  0  0  0  0
    9.1907   -0.7177    0.0000 H   0  0  0  0  0  0  0  0  0  0  0  0
    7.9300    0.2088    0.0000 H   0  0  0  0  0  0  0  0  0  0  0  0
   10.6838    1.2997    0.0000 H   0  0  0  0  0  0  0  0  0  0  0  0
    6.4774   -2.2696    0.0000 H   0  0  0  0  0  0  0  0  0  0  0  0
    8.6576    1.8738    0.0000 H   0  0  0  0  0  0  0  0  0  0  0  0
    7.8606    1.8738    0.0000 H   0  0  0  0  0  0  0  0  0  0  0  0
    7.1810    1.4814    0.0000 H   0  0  0  0  0  0  0  0  0  0  0  0
    6.7825    0.7912    0.0000 H   0  0  0  0  0  0  0  0  0  0  0  0
    8.2811   -2.2627    0.0000 H   0  0  0  0  0  0  0  0  0  0  0  0
    9.8203   -0.9728    0.0000 H   0  0  0  0  0  0  0  0  0  0  0  0
   10.6087   -0.7151    0.0000 H   0  0  0  0  0  0  0  0  0  0  0  0
    7.9158   -2.4773    0.0000 H   0  0  0  0  0  0  0  0  0  0  0  0
   11.1158   -0.0159    0.0000 H   0  0  0  0  0  0  0  0  0  0  0  0
   11.1158    0.8135    0.0000 H   0  0  0  0  0  0  0  0  0  0  0  0
    5.9644    0.4227    0.0000 H   0  0  0  0  0  0  0  0  0  0  0  0
    5.1663    0.4381    0.0000 H   0  0  0  0  0  0  0  0  0  0  0  0
    9.7451    1.8988    0.0000 H   0  0  0  0  0  0  0  0  0  0  0  0
    9.1251    2.5188    0.0000 H   0  0  0  0  0  0  0  0  0  0  0  0
    8.5051    1.8988    0.0000 H   0  0  0  0  0  0  0  0  0  0  0  0
    5.1423   -2.6753    0.0000 H   0  0  0  0  0  0  0  0  0  0  0  0
    5.9406   -2.6722    0.0000 H   0  0  0  0  0  0  0  0  0  0  0  0
   10.5746    2.7434    0.0000 H   0  0  0  0  0  0  0  0  0  0  0  0
    7.1108    0.3872    0.0000 H   0  0  0  0  0  0  0  0  0  0  0  0
    6.4956    1.0119    0.0000 H   0  0  0  0  0  0  0  0  0  0  0  0
    5.8708    0.3967    0.0000 H   0  0  0  0  0  0  0  0  0  0  0  0
    4.4038    0.0134    0.0000 H   0  0  0  0  0  0  0  0  0  0  0  0
    3.9967   -0.6733    0.0000 H   0  0  0  0  0  0  0  0  0  0  0  0
    4.0648   -1.3438    0.0000 H   0  0  0  0  0  0  0  0  0  0  0  0
   11.3811    1.7406    0.0000 H   0  0  0  0  0  0  0  0  0  0  0  0
   11.9743    2.2729    0.0000 H   0  0  0  0  0  0  0  0  0  0  0  0
   10.1756    3.3124    0.0000 H   0  0  0  0  0  0  0  0  0  0  0  0
    9.3001    3.3598    0.0000 H   0  0  0  0  0  0  0  0  0  0  0  0
    9.2527    2.4843    0.0000 H   0  0  0  0  0  0  0  0  0  0  0  0
   11.6506    3.9305    0.0000 H   0  0  0  0  0  0  0  0  0  0  0  0
   11.0574    3.3982    0.0000 H   0  0  0  0  0  0  0  0  0  0  0  0
    9.7264   -4.1630    0.0000 H   0  0  0  0  0  0  0  0  0  0  0  0
   10.5707   -3.9263    0.0000 H   0  0  0  0  0  0  0  0  0  0  0  0
   10.3340   -3.0820    0.0000 H   0  0  0  0  0  0  0  0  0  0  0  0
    5.9007   -4.6762    0.0000 H   0  0  0  0  0  0  0  0  0  0  0  0
    6.5231   -5.2938    0.0000 H   0  0  0  0  0  0  0  0  0  0  0  0
    7.1407   -4.6714    0.0000 H   0  0  0  0  0  0  0  0  0  0  0  0
    1.6921   -1.6087    0.0000 H   0  0  0  0  0  0  0  0  0  0  0  0
    1.4619   -2.4548    0.0000 H   0  0  0  0  0  0  0  0  0  0  0  0
    2.3079   -2.6850    0.0000 H   0  0  0  0  0  0  0  0  0  0  0  0
   14.0667    4.0671    0.0000 H   0  0  0  0  0  0  0  0  0  0  0  0
   14.5455    4.8016    0.0000 H   0  0  0  0  0  0  0  0  0  0  0  0
   13.8110    5.2804    0.0000 H   0  0  0  0  0  0  0  0  0  0  0  0
  1 18  1  0  0  0  0
  1 32  1  0  0  0  0
  2 20  1  0  0  0  0
  2 33  1  0  0  0  0
  3 28  1  0  0  0  0
  3 34  1  0  0  0  0
  4 32  2  0  0  0  0
  5 33  2  0  0  0  0
  6 36  1  0  0  0  0
  6 39  1  0  0  0  0
  7 34  2  0  0  0  0
  8 36  2  0  0  0  0
  9 10  1  0  0  0  0
  9 12  1  0  0  0  0
  9 18  1  0  0  0  0
  9 40  1  0  0  0  0
 10 11  1  0  0  0  0
 10 19  1  0  0  0  0
 10 41  1  0  0  0  0
 11 14  1  0  0  0  0
 11 16  1  0  0  0  0
 11 23  1  0  0  0  0
 12 13  1  0  0  0  0
 12 17  1  0  0  0  0
 12 42  1  0  0  0  0
 13 15  1  0  0  0  0
 13 22  1  0  0  0  0
 13 26  1  0  0  0  0
 14 21  1  0  0  0  0
 14 25  1  0  0  0  0
 14 43  1  0  0  0  0
 15 20  1  0  0  0  0
 15 24  1  0  0  0  0
 15 44  1  0  0  0  0
 16 17  1  0  0  0  0
 16 45  1  0  0  0  0
 16 46  1  0  0  0  0
 17 47  1  0  0  0  0
 17 48  1  0  0  0  0
 18 20  1  0  0  0  0
 18 49  1  0  0  0  0
 19 21  1  0  0  0  0
 19 50  1  0  0  0  0
 19 51  1  0  0  0  0
 20 52  1  0  0  0  0
 21 53  1  0  0  0  0
 21 54  1  0  0  0  0
 22 27  1  0  0  0  0
 22 55  1  0  0  0  0
 22 56  1  0  0  0  0
 23 57  1  0  0  0  0
 23 58  1  0  0  0  0
 23 59  1  0  0  0  0
 24 28  1  0  0  0  0
 24 60  1  0  0  0  0
 24 61  1  0  0  0  0
 25 29  1  0  0  0  0
 25 30  1  0  0  0  0
 25 62  1  0  0  0  0
 26 63  1  0  0  0  0
 26 64  1  0  0  0  0
 26 65  1  0  0  0  0
 27 28  1  0  0  0  0
 27 66  1  0  0  0  0
 27 67  1  0  0  0  0
 28 68  1  0  0  0  0
 29 31  1  0  0  0  0
 29 69  1  0  0  0  0
 29 70  1  0  0  0  0
 30 71  1  0  0  0  0
 30 72  1  0  0  0  0
 30 73  1  0  0  0  0
 31 36  1  0  0  0  0
 31 74  1  0  0  0  0
 31 75  1  0  0  0  0
 32 35  1  0  0  0  0
 33 37  1  0  0  0  0
 34 38  1  0  0  0  0
 35 76  1  0  0  0  0
 35 77  1  0  0  0  0
 35 78  1  0  0  0  0
 37 79  1  0  0  0  0
 37 80  1  0  0  0  0
 37 81  1  0  0  0  0
 38 82  1  0  0  0  0
 38 83  1  0  0  0  0
 38 84  1  0  0  0  0
 39 85  1  0  0  0  0
 39 86  1  0  0  0  0
 39 87  1  0  0  0  0
M  END
> <PUBCHEM_COMPOUND_CID>
526664
> <PUBCHEM_COMPOUND_CANONICALIZED>
1
> <PUBCHEM_CACTVS_COMPLEXITY>
962
> <PUBCHEM_CACTVS_HBOND_ACCEPTOR>
8
> <PUBCHEM_CACTVS_HBOND_DONOR>
0
> <PUBCHEM_CACTVS_ROTATABLE_BOND>
11
> <PUBCHEM_CACTVS_SUBSKEYS>
AAADcfB4PAAAAAAAAAAAAAAAAAAAAYAAAAAwYMAAAAAAAGDAAAAAGgAAAAAADxSggAICCAAABAAIAACQCAAAAAAAAAAAAAEAAAABABIAAAACAAAEAAACAAHI6PyPgAAAAAAAAADAAAYAADCAAQAACAAAAA==
> <PUBCHEM_IUPAC_OPENEYE_NAME>
methyl 4-(3,6,7-triacetoxy-10,13-dimethyl-2,3,4,5,6,7,8,9,11,12,14,15,16,17-tetradecahydro-1H-cyclopenta[a]phenanthren-17-yl)pentanoate
> <PUBCHEM_IUPAC_CAS_NAME>
4-(3,6,7-triacetyloxy-10,13-dimethyl-2,3,4,5,6,7,8,9,11,12,14,15,16,17-tetradecahydro-1H-cyclopenta[a]phenanthren-17-yl)pentanoic acid methyl ester
> <PUBCHEM_IUPAC_NAME_MARKUP>
methyl 4-(3,6,7-triacetyloxy-10,13-dimethyl-2,3,4,5,6,7,8,9,11,12,14,15,16,17-tetradecahydro-1<I>H</I>-cyclopenta[a]phenanthren-17-yl)pentanoate
> <PUBCHEM_IUPAC_NAME>
methyl 4-(3,6,7-triacetyloxy-10,13-dimethyl-2,3,4,5,6,7,8,9,11,12,14,15,16,17-tetradecahydro-1H-cyclopenta[a]phenanthren-17-yl)pentanoate
> <PUBCHEM_IUPAC_SYSTEMATIC_NAME>
methyl 4-(3,6,7-triacetyloxy-10,13-dimethyl-2,3,4,5,6,7,8,9,11,12,14,15,16,17-tetradecahydro-1H-cyclopenta[a]phenanthren-17-yl)pentanoate
> <PUBCHEM_IUPAC_TRADITIONAL_NAME>
4-(3,6,7-triacetoxy-10,13-dimethyl-2,3,4,5,6,7,8,9,11,12,14,15,16,17-tetradecahydro-1H-cyclopenta[a]phenanthren-17-yl)valeric acid methyl ester
> <PUBCHEM_IUPAC_INCHI>
InChI=1S/C31H48O8/c1-17(8-11-26(35)36-7)22-9-10-23-27-24(13-15-30(22,23)5)31(6)14-12-21(37-18(2)32)16-25(31)28(38-19(3)33)29(27)39-20(4)34/h17,21-25,27-29H,8-16H2,1-7H3
> <PUBCHEM_IUPAC_INCHIKEY>
SCZJGLWPRVUGAT-UHFFFAOYSA-N
> <PUBCHEM_XLOGP3_AA>
6
> <PUBCHEM_EXACT_MASS>
548.33491849
> <PUBCHEM_MOLECULAR_FORMULA>
C31H48O8
> <PUBCHEM_MOLECULAR_WEIGHT>
548.7
> <PUBCHEM_OPENEYE_CAN_SMILES>
CC(CCC(=O)OC)C1CCC2C1(CCC3C2C(C(C4C3(CCC(C4)OC(=O)C)C)OC(=O)C)OC(=O)C)C
> <PUBCHEM_OPENEYE_ISO_SMILES>
CC(CCC(=O)OC)C1CCC2C1(CCC3C2C(C(C4C3(CCC(C4)OC(=O)C)C)OC(=O)C)OC(=O)C)C
> <PUBCHEM_CACTVS_TPSA>
105
> <PUBCHEM_MONOISOTOPIC_WEIGHT>
548.33491849
> <PUBCHEM_TOTAL_CHARGE>
0
> <PUBCHEM_HEAVY_ATOM_COUNT>
39
> <PUBCHEM_ATOM_DEF_STEREO_COUNT>
0
> <PUBCHEM_ATOM_UDEF_STEREO_COUNT>
11
> <PUBCHEM_BOND_DEF_STEREO_COUNT>
0
> <PUBCHEM_BOND_UDEF_STEREO_COUNT>
0
> <PUBCHEM_ISOTOPIC_ATOM_COUNT>
0
> <PUBCHEM_COMPONENT_COUNT>
1
> <PUBCHEM_CACTVS_TAUTO_COUNT>
-1
> <PUBCHEM_COORDINATE_TYPE>
1
5
255
> <PUBCHEM_BONDANNOTATIONS>
18  1  3
10  19  3
11  23  3
12  17  3
13  26  3
14  21  3
15  24  3
20  2  3
25  30  3
28  3  3
9  18  3
$$$$
