526630
  -OEChem-10302200292D
 34 34  0     1  0  0  0  0  0999 V2000
    5.9543   -1.8258    0.0000 O   0  0  0  0  0  0  0  0  0  0  0  0
    5.4543    0.7130    0.0000 O   0  0  0  0  0  0  0  0  0  0  0  0
    3.6942   -0.5657    0.0000 O   0  0  0  0  0  0  0  0  0  0  0  0
    7.9575   -1.2349    0.0000 O   0  0  0  0  0  0  0  0  0  0  0  0
    7.1863    0.7130    0.0000 O   0  0  0  0  0  0  0  0  0  0  0  0
    3.1590   -2.2130    0.0000 O   0  0  0  0  0  0  0  0  0  0  0  0
    9.1165    0.0523    0.0000 O   0  0  0  0  0  0  0  0  0  0  0  0
    5.4543   -0.2870    0.0000 C   0  0  3  0  0  0  0  0  0  0  0  0
    6.2633   -0.8748    0.0000 C   0  0  3  0  0  0  0  0  0  0  0  0
    4.6453   -0.8748    0.0000 C   0  0  3  0  0  0  0  0  0  0  0  0
    4.9543   -1.8258    0.0000 C   0  0  0  0  0  0  0  0  0  0  0  0
    7.2144   -0.5657    0.0000 C   0  0  0  0  0  0  0  0  0  0  0  0
    6.3203    1.2130    0.0000 C   0  0  0  0  0  0  0  0  0  0  0  0
    2.9511   -1.2349    0.0000 C   0  0  0  0  0  0  0  0  0  0  0  0
    8.9086   -0.9259    0.0000 C   0  0  0  0  0  0  0  0  0  0  0  0
    6.3203    2.2130    0.0000 C   0  0  0  0  0  0  0  0  0  0  0  0
    2.0000   -0.9259    0.0000 C   0  0  0  0  0  0  0  0  0  0  0  0
    9.6517   -1.5950    0.0000 C   0  0  0  0  0  0  0  0  0  0  0  0
    4.9018   -0.0055    0.0000 H   0  0  0  0  0  0  0  0  0  0  0  0
    6.7017   -1.3132    0.0000 H   0  0  0  0  0  0  0  0  0  0  0  0
    4.5483   -0.2624    0.0000 H   0  0  0  0  0  0  0  0  0  0  0  0
    4.3478   -1.9547    0.0000 H   0  0  0  0  0  0  0  0  0  0  0  0
    5.0191   -2.4424    0.0000 H   0  0  0  0  0  0  0  0  0  0  0  0
    7.7029   -0.1840    0.0000 H   0  0  0  0  0  0  0  0  0  0  0  0
    6.9233   -0.0183    0.0000 H   0  0  0  0  0  0  0  0  0  0  0  0
    6.9403    2.2130    0.0000 H   0  0  0  0  0  0  0  0  0  0  0  0
    6.3203    2.8330    0.0000 H   0  0  0  0  0  0  0  0  0  0  0  0
    5.7003    2.2130    0.0000 H   0  0  0  0  0  0  0  0  0  0  0  0
    2.1916   -0.3362    0.0000 H   0  0  0  0  0  0  0  0  0  0  0  0
    1.4103   -0.7343    0.0000 H   0  0  0  0  0  0  0  0  0  0  0  0
    1.8084   -1.5155    0.0000 H   0  0  0  0  0  0  0  0  0  0  0  0
    9.2368   -2.0557    0.0000 H   0  0  0  0  0  0  0  0  0  0  0  0
   10.1124   -2.0098    0.0000 H   0  0  0  0  0  0  0  0  0  0  0  0
   10.0666   -1.1342    0.0000 H   0  0  0  0  0  0  0  0  0  0  0  0
  1  9  1  0  0  0  0
  1 11  1  0  0  0  0
  2  8  1  0  0  0  0
  2 13  1  0  0  0  0
  3 10  1  0  0  0  0
  3 14  1  0  0  0  0
  4 12  1  0  0  0  0
  4 15  1  0  0  0  0
  5 13  2  0  0  0  0
  6 14  2  0  0  0  0
  7 15  2  0  0  0  0
  8  9  1  0  0  0  0
  8 10  1  0  0  0  0
  8 19  1  0  0  0  0
  9 12  1  0  0  0  0
  9 20  1  0  0  0  0
 10 11  1  0  0  0  0
 10 21  1  0  0  0  0
 11 22  1  0  0  0  0
 11 23  1  0  0  0  0
 12 24  1  0  0  0  0
 12 25  1  0  0  0  0
 13 16  1  0  0  0  0
 14 17  1  0  0  0  0
 15 18  1  0  0  0  0
 16 26  1  0  0  0  0
 16 27  1  0  0  0  0
 16 28  1  0  0  0  0
 17 29  1  0  0  0  0
 17 30  1  0  0  0  0
 17 31  1  0  0  0  0
 18 32  1  0  0  0  0
 18 33  1  0  0  0  0
 18 34  1  0  0  0  0
M  END
> <PUBCHEM_COMPOUND_CID>
526630
> <PUBCHEM_COMPOUND_CANONICALIZED>
1
> <PUBCHEM_CACTVS_COMPLEXITY>
338
> <PUBCHEM_CACTVS_HBOND_ACCEPTOR>
7
> <PUBCHEM_CACTVS_HBOND_DONOR>
0
> <PUBCHEM_CACTVS_ROTATABLE_BOND>
7
> <PUBCHEM_CACTVS_SUBSKEYS>
AAADceBwOAAAAAAAAAAAAAAAAAAAASAAAAAAAAAAAAAAAAAAAAAAGgAAAAAACBSggAICCAAABAAIAACQCAAAAAAAAAAAAAAAAAABAAIAAAACAAAFAAACAADAIAgAAAAAAAAAAAAAAAAAAAAAAAAAAAAAAA==
> <PUBCHEM_IUPAC_OPENEYE_NAME>
(3,4-diacetoxytetrahydrofuran-2-yl)methyl acetate
> <PUBCHEM_IUPAC_CAS_NAME>
acetic acid (3,4-diacetyloxy-2-oxolanyl)methyl ester
> <PUBCHEM_IUPAC_NAME_MARKUP>
(3,4-diacetyloxyoxolan-2-yl)methyl acetate
> <PUBCHEM_IUPAC_NAME>
(3,4-diacetyloxyoxolan-2-yl)methyl acetate
> <PUBCHEM_IUPAC_SYSTEMATIC_NAME>
(3,4-diacetyloxyoxolan-2-yl)methyl ethanoate
> <PUBCHEM_IUPAC_TRADITIONAL_NAME>
acetic acid (3,4-diacetoxytetrahydrofuran-2-yl)methyl ester
> <PUBCHEM_IUPAC_INCHI>
InChI=1S/C11H16O7/c1-6(12)15-4-9-11(18-8(3)14)10(5-16-9)17-7(2)13/h9-11H,4-5H2,1-3H3
> <PUBCHEM_IUPAC_INCHIKEY>
AGTSQJAVJCFOSJ-UHFFFAOYSA-N
> <PUBCHEM_XLOGP3_AA>
-0.3
> <PUBCHEM_EXACT_MASS>
260.08960285
> <PUBCHEM_MOLECULAR_FORMULA>
C11H16O7
> <PUBCHEM_MOLECULAR_WEIGHT>
260.24
> <PUBCHEM_OPENEYE_CAN_SMILES>
CC(=O)OCC1C(C(CO1)OC(=O)C)OC(=O)C
> <PUBCHEM_OPENEYE_ISO_SMILES>
CC(=O)OCC1C(C(CO1)OC(=O)C)OC(=O)C
> <PUBCHEM_CACTVS_TPSA>
88.1
> <PUBCHEM_MONOISOTOPIC_WEIGHT>
260.08960285
> <PUBCHEM_TOTAL_CHARGE>
0
> <PUBCHEM_HEAVY_ATOM_COUNT>
18
> <PUBCHEM_ATOM_DEF_STEREO_COUNT>
0
> <PUBCHEM_ATOM_UDEF_STEREO_COUNT>
3
> <PUBCHEM_BOND_DEF_STEREO_COUNT>
0
> <PUBCHEM_BOND_UDEF_STEREO_COUNT>
0
> <PUBCHEM_ISOTOPIC_ATOM_COUNT>
0
> <PUBCHEM_COMPONENT_COUNT>
1
> <PUBCHEM_CACTVS_TAUTO_COUNT>
-1
> <PUBCHEM_COORDINATE_TYPE>
1
5
255
> <PUBCHEM_BONDANNOTATIONS>
8  2  3
10  3  3
9  12  3
$$$$
