526776
  -OEChem-10302200292D
 78 77  0     1  0  0  0  0  0999 V2000
   10.6603   -3.3170    0.0000 Si  0  0  0  0  0  0  0  0  0  0  0  0
    9.7942   -3.8170    0.0000 O   0  0  0  0  0  0  0  0  0  0  0  0
    2.8660   -3.8170    0.0000 O   0  0  0  0  0  0  0  0  0  0  0  0
    3.7320   -2.3170    0.0000 O   0  0  0  0  0  0  0  0  0  0  0  0
   11.5263   -2.8170    0.0000 C   0  0  0  0  0  0  0  0  0  0  0  0
    8.9282   -3.3170    0.0000 C   0  0  3  0  0  0  0  0  0  0  0  0
    8.9282   -2.3170    0.0000 C   0  0  0  0  0  0  0  0  0  0  0  0
    8.0622   -3.8170    0.0000 C   0  0  0  0  0  0  0  0  0  0  0  0
   10.1603   -2.4510    0.0000 C   0  0  0  0  0  0  0  0  0  0  0  0
   11.1603   -4.1830    0.0000 C   0  0  0  0  0  0  0  0  0  0  0  0
   12.3923   -2.3170    0.0000 C   0  0  0  0  0  0  0  0  0  0  0  0
   11.0263   -1.9510    0.0000 C   0  0  0  0  0  0  0  0  0  0  0  0
   12.0263   -3.6830    0.0000 C   0  0  0  0  0  0  0  0  0  0  0  0
    8.0622   -1.8170    0.0000 C   0  0  0  0  0  0  0  0  0  0  0  0
    7.1962   -3.3170    0.0000 C   0  0  0  0  0  0  0  0  0  0  0  0
    8.0622   -0.8170    0.0000 C   0  0  0  0  0  0  0  0  0  0  0  0
    6.3301   -3.8170    0.0000 C   0  0  0  0  0  0  0  0  0  0  0  0
    7.1962   -0.3170    0.0000 C   0  0  0  0  0  0  0  0  0  0  0  0
    7.1962    0.6830    0.0000 C   0  0  0  0  0  0  0  0  0  0  0  0
    5.4641   -3.3170    0.0000 C   0  0  0  0  0  0  0  0  0  0  0  0
    6.3301    1.1830    0.0000 C   0  0  0  0  0  0  0  0  0  0  0  0
    6.3301    2.1830    0.0000 C   0  0  0  0  0  0  0  0  0  0  0  0
    4.5981   -3.8170    0.0000 C   0  0  0  0  0  0  0  0  0  0  0  0
    5.4641    2.6830    0.0000 C   0  0  0  0  0  0  0  0  0  0  0  0
    5.4641    3.6830    0.0000 C   0  0  0  0  0  0  0  0  0  0  0  0
    3.7320   -3.3170    0.0000 C   0  0  0  0  0  0  0  0  0  0  0  0
    4.5981    4.1830    0.0000 C   0  0  0  0  0  0  0  0  0  0  0  0
    2.0000   -3.3170    0.0000 C   0  0  0  0  0  0  0  0  0  0  0  0
    9.4651   -3.0070    0.0000 H   0  0  0  0  0  0  0  0  0  0  0  0
    9.5388   -2.4247    0.0000 H   0  0  0  0  0  0  0  0  0  0  0  0
    9.1403   -1.7344    0.0000 H   0  0  0  0  0  0  0  0  0  0  0  0
    7.6636   -4.2919    0.0000 H   0  0  0  0  0  0  0  0  0  0  0  0
    8.4607   -4.2919    0.0000 H   0  0  0  0  0  0  0  0  0  0  0  0
   10.6972   -2.1410    0.0000 H   0  0  0  0  0  0  0  0  0  0  0  0
    9.8503   -1.9140    0.0000 H   0  0  0  0  0  0  0  0  0  0  0  0
    9.6233   -2.7610    0.0000 H   0  0  0  0  0  0  0  0  0  0  0  0
   10.6233   -4.4930    0.0000 H   0  0  0  0  0  0  0  0  0  0  0  0
   11.4703   -4.7200    0.0000 H   0  0  0  0  0  0  0  0  0  0  0  0
   11.6972   -3.8730    0.0000 H   0  0  0  0  0  0  0  0  0  0  0  0
   12.7023   -2.8539    0.0000 H   0  0  0  0  0  0  0  0  0  0  0  0
   12.9292   -2.0070    0.0000 H   0  0  0  0  0  0  0  0  0  0  0  0
   12.0823   -1.7800    0.0000 H   0  0  0  0  0  0  0  0  0  0  0  0
   11.5632   -1.6410    0.0000 H   0  0  0  0  0  0  0  0  0  0  0  0
   10.7163   -1.4140    0.0000 H   0  0  0  0  0  0  0  0  0  0  0  0
   10.4893   -2.2610    0.0000 H   0  0  0  0  0  0  0  0  0  0  0  0
   11.4893   -3.9930    0.0000 H   0  0  0  0  0  0  0  0  0  0  0  0
   12.3363   -4.2200    0.0000 H   0  0  0  0  0  0  0  0  0  0  0  0
   12.5632   -3.3730    0.0000 H   0  0  0  0  0  0  0  0  0  0  0  0
    7.4516   -1.7093    0.0000 H   0  0  0  0  0  0  0  0  0  0  0  0
    7.8501   -2.3996    0.0000 H   0  0  0  0  0  0  0  0  0  0  0  0
    7.5947   -2.8420    0.0000 H   0  0  0  0  0  0  0  0  0  0  0  0
    6.7976   -2.8420    0.0000 H   0  0  0  0  0  0  0  0  0  0  0  0
    8.6728   -0.9246    0.0000 H   0  0  0  0  0  0  0  0  0  0  0  0
    8.2742   -0.2344    0.0000 H   0  0  0  0  0  0  0  0  0  0  0  0
    5.9316   -4.2919    0.0000 H   0  0  0  0  0  0  0  0  0  0  0  0
    6.7287   -4.2919    0.0000 H   0  0  0  0  0  0  0  0  0  0  0  0
    6.5856   -0.2093    0.0000 H   0  0  0  0  0  0  0  0  0  0  0  0
    6.9841   -0.8996    0.0000 H   0  0  0  0  0  0  0  0  0  0  0  0
    7.8067    0.5754    0.0000 H   0  0  0  0  0  0  0  0  0  0  0  0
    7.4082    1.2656    0.0000 H   0  0  0  0  0  0  0  0  0  0  0  0
    5.8626   -2.8420    0.0000 H   0  0  0  0  0  0  0  0  0  0  0  0
    5.0656   -2.8420    0.0000 H   0  0  0  0  0  0  0  0  0  0  0  0
    5.7196    1.2907    0.0000 H   0  0  0  0  0  0  0  0  0  0  0  0
    6.1181    0.6004    0.0000 H   0  0  0  0  0  0  0  0  0  0  0  0
    6.9407    2.0753    0.0000 H   0  0  0  0  0  0  0  0  0  0  0  0
    6.5422    2.7656    0.0000 H   0  0  0  0  0  0  0  0  0  0  0  0
    4.1996   -4.2919    0.0000 H   0  0  0  0  0  0  0  0  0  0  0  0
    4.9966   -4.2919    0.0000 H   0  0  0  0  0  0  0  0  0  0  0  0
    4.8535    2.7907    0.0000 H   0  0  0  0  0  0  0  0  0  0  0  0
    5.2520    2.1004    0.0000 H   0  0  0  0  0  0  0  0  0  0  0  0
    6.0747    3.5754    0.0000 H   0  0  0  0  0  0  0  0  0  0  0  0
    5.6762    4.2656    0.0000 H   0  0  0  0  0  0  0  0  0  0  0  0
    4.9081    4.7200    0.0000 H   0  0  0  0  0  0  0  0  0  0  0  0
    4.0611    4.4930    0.0000 H   0  0  0  0  0  0  0  0  0  0  0  0
    4.2881    3.6461    0.0000 H   0  0  0  0  0  0  0  0  0  0  0  0
    2.3100   -2.7800    0.0000 H   0  0  0  0  0  0  0  0  0  0  0  0
    1.4631   -3.0070    0.0000 H   0  0  0  0  0  0  0  0  0  0  0  0
    1.6900   -3.8539    0.0000 H   0  0  0  0  0  0  0  0  0  0  0  0
  1  2  1  0  0  0  0
  1  5  1  0  0  0  0
  1  9  1  0  0  0  0
  1 10  1  0  0  0  0
  2  6  1  0  0  0  0
  3 26  1  0  0  0  0
  3 28  1  0  0  0  0
  4 26  2  0  0  0  0
  5 11  1  0  0  0  0
  5 12  1  0  0  0  0
  5 13  1  0  0  0  0
  6  7  1  0  0  0  0
  6  8  1  0  0  0  0
  6 29  1  0  0  0  0
  7 14  1  0  0  0  0
  7 30  1  0  0  0  0
  7 31  1  0  0  0  0
  8 15  1  0  0  0  0
  8 32  1  0  0  0  0
  8 33  1  0  0  0  0
  9 34  1  0  0  0  0
  9 35  1  0  0  0  0
  9 36  1  0  0  0  0
 10 37  1  0  0  0  0
 10 38  1  0  0  0  0
 10 39  1  0  0  0  0
 11 40  1  0  0  0  0
 11 41  1  0  0  0  0
 11 42  1  0  0  0  0
 12 43  1  0  0  0  0
 12 44  1  0  0  0  0
 12 45  1  0  0  0  0
 13 46  1  0  0  0  0
 13 47  1  0  0  0  0
 13 48  1  0  0  0  0
 14 16  1  0  0  0  0
 14 49  1  0  0  0  0
 14 50  1  0  0  0  0
 15 17  1  0  0  0  0
 15 51  1  0  0  0  0
 15 52  1  0  0  0  0
 16 18  1  0  0  0  0
 16 53  1  0  0  0  0
 16 54  1  0  0  0  0
 17 20  1  0  0  0  0
 17 55  1  0  0  0  0
 17 56  1  0  0  0  0
 18 19  1  0  0  0  0
 18 57  1  0  0  0  0
 18 58  1  0  0  0  0
 19 21  1  0  0  0  0
 19 59  1  0  0  0  0
 19 60  1  0  0  0  0
 20 23  1  0  0  0  0
 20 61  1  0  0  0  0
 20 62  1  0  0  0  0
 21 22  1  0  0  0  0
 21 63  1  0  0  0  0
 21 64  1  0  0  0  0
 22 24  1  0  0  0  0
 22 65  1  0  0  0  0
 22 66  1  0  0  0  0
 23 26  1  0  0  0  0
 23 67  1  0  0  0  0
 23 68  1  0  0  0  0
 24 25  1  0  0  0  0
 24 69  1  0  0  0  0
 24 70  1  0  0  0  0
 25 27  1  0  0  0  0
 25 71  1  0  0  0  0
 25 72  1  0  0  0  0
 27 73  1  0  0  0  0
 27 74  1  0  0  0  0
 27 75  1  0  0  0  0
 28 76  1  0  0  0  0
 28 77  1  0  0  0  0
 28 78  1  0  0  0  0
M  END
> <PUBCHEM_COMPOUND_CID>
526776
> <PUBCHEM_COMPOUND_CANONICALIZED>
1
> <PUBCHEM_CACTVS_COMPLEXITY>
388
> <PUBCHEM_CACTVS_HBOND_ACCEPTOR>
3
> <PUBCHEM_CACTVS_HBOND_DONOR>
0
> <PUBCHEM_CACTVS_ROTATABLE_BOND>
19
> <PUBCHEM_CACTVS_SUBSKEYS>
AAADcfB4MAgAAAAAAAAAAAAAAAAAAAAAAAAAAAAAAAAAAAAAAAAAGhAAAEAADBSgoAJCCAAABAEIAACQCAAAAAAAAAAAAAEAAAAAABIAAAAAAAAEAAAAAAGIyKCAAAAAAAAAAAAAAAAAAAAAAAAAAAAAAA==
> <PUBCHEM_IUPAC_OPENEYE_NAME>
methyl 7-[tert-butyl(dimethyl)silyl]oxyheptadecanoate
> <PUBCHEM_IUPAC_CAS_NAME>
7-[tert-butyl(dimethyl)silyl]oxyheptadecanoic acid methyl ester
> <PUBCHEM_IUPAC_NAME_MARKUP>
methyl 7-[<I>tert</I>-butyl(dimethyl)silyl]oxyheptadecanoate
> <PUBCHEM_IUPAC_NAME>
methyl 7-[tert-butyl(dimethyl)silyl]oxyheptadecanoate
> <PUBCHEM_IUPAC_SYSTEMATIC_NAME>
methyl 7-[tert-butyl(dimethyl)silyl]oxyheptadecanoate
> <PUBCHEM_IUPAC_TRADITIONAL_NAME>
7-[tert-butyl(dimethyl)silyl]oxyheptadecanoic acid methyl ester
> <PUBCHEM_IUPAC_INCHI>
InChI=1S/C24H50O3Si/c1-8-9-10-11-12-13-14-16-19-22(27-28(6,7)24(2,3)4)20-17-15-18-21-23(25)26-5/h22H,8-21H2,1-7H3
> <PUBCHEM_IUPAC_INCHIKEY>
FTFYVNVTEKCROR-UHFFFAOYSA-N
> <PUBCHEM_EXACT_MASS>
414.35292199
> <PUBCHEM_MOLECULAR_FORMULA>
C24H50O3Si
> <PUBCHEM_MOLECULAR_WEIGHT>
414.7
> <PUBCHEM_OPENEYE_CAN_SMILES>
CCCCCCCCCCC(CCCCCC(=O)OC)O[Si](C)(C)C(C)(C)C
> <PUBCHEM_OPENEYE_ISO_SMILES>
CCCCCCCCCCC(CCCCCC(=O)OC)O[Si](C)(C)C(C)(C)C
> <PUBCHEM_CACTVS_TPSA>
35.5
> <PUBCHEM_MONOISOTOPIC_WEIGHT>
414.35292199
> <PUBCHEM_TOTAL_CHARGE>
0
> <PUBCHEM_HEAVY_ATOM_COUNT>
28
> <PUBCHEM_ATOM_DEF_STEREO_COUNT>
0
> <PUBCHEM_ATOM_UDEF_STEREO_COUNT>
1
> <PUBCHEM_BOND_DEF_STEREO_COUNT>
0
> <PUBCHEM_BOND_UDEF_STEREO_COUNT>
0
> <PUBCHEM_ISOTOPIC_ATOM_COUNT>
0
> <PUBCHEM_COMPONENT_COUNT>
1
> <PUBCHEM_CACTVS_TAUTO_COUNT>
-1
> <PUBCHEM_COORDINATE_TYPE>
1
5
255
> <PUBCHEM_BONDANNOTATIONS>
6  7  3
$$$$
