526784
  -OEChem-10302200292D
 87 86  0     1  0  0  0  0  0999 V2000
   11.5263   -3.7500    0.0000 Si  0  0  0  0  0  0  0  0  0  0  0  0
   10.6603   -4.2500    0.0000 O   0  0  0  0  0  0  0  0  0  0  0  0
    2.8660   -3.7500    0.0000 O   0  0  0  0  0  0  0  0  0  0  0  0
    3.7320   -5.2500    0.0000 O   0  0  0  0  0  0  0  0  0  0  0  0
   12.3923   -3.2500    0.0000 C   0  0  0  0  0  0  0  0  0  0  0  0
    9.7942   -3.7500    0.0000 C   0  0  3  0  0  0  0  0  0  0  0  0
    9.7942   -2.7500    0.0000 C   0  0  0  0  0  0  0  0  0  0  0  0
    8.9282   -4.2500    0.0000 C   0  0  0  0  0  0  0  0  0  0  0  0
   11.0263   -2.8840    0.0000 C   0  0  0  0  0  0  0  0  0  0  0  0
   12.0263   -4.6160    0.0000 C   0  0  0  0  0  0  0  0  0  0  0  0
   13.2583   -2.7500    0.0000 C   0  0  0  0  0  0  0  0  0  0  0  0
   11.8923   -2.3840    0.0000 C   0  0  0  0  0  0  0  0  0  0  0  0
   12.8923   -4.1160    0.0000 C   0  0  0  0  0  0  0  0  0  0  0  0
    8.9282   -2.2500    0.0000 C   0  0  0  0  0  0  0  0  0  0  0  0
    8.0622   -3.7500    0.0000 C   0  0  0  0  0  0  0  0  0  0  0  0
    8.9282   -1.2500    0.0000 C   0  0  0  0  0  0  0  0  0  0  0  0
    7.1962   -4.2500    0.0000 C   0  0  0  0  0  0  0  0  0  0  0  0
    8.0622   -0.7500    0.0000 C   0  0  0  0  0  0  0  0  0  0  0  0
    8.0622    0.2500    0.0000 C   0  0  0  0  0  0  0  0  0  0  0  0
    6.3301   -3.7500    0.0000 C   0  0  0  0  0  0  0  0  0  0  0  0
    7.1962    0.7500    0.0000 C   0  0  0  0  0  0  0  0  0  0  0  0
    7.1962    1.7500    0.0000 C   0  0  0  0  0  0  0  0  0  0  0  0
    5.4641   -4.2500    0.0000 C   0  0  0  0  0  0  0  0  0  0  0  0
    6.3301    2.2500    0.0000 C   0  0  0  0  0  0  0  0  0  0  0  0
    6.3301    3.2500    0.0000 C   0  0  0  0  0  0  0  0  0  0  0  0
    4.5981   -3.7500    0.0000 C   0  0  0  0  0  0  0  0  0  0  0  0
    5.4641    3.7500    0.0000 C   0  0  0  0  0  0  0  0  0  0  0  0
    5.4641    4.7500    0.0000 C   0  0  0  0  0  0  0  0  0  0  0  0
    3.7320   -4.2500    0.0000 C   0  0  0  0  0  0  0  0  0  0  0  0
    4.5981    5.2500    0.0000 C   0  0  0  0  0  0  0  0  0  0  0  0
    2.0000   -4.2500    0.0000 C   0  0  0  0  0  0  0  0  0  0  0  0
    9.7942   -4.3700    0.0000 H   0  0  0  0  0  0  0  0  0  0  0  0
   10.4048   -2.8577    0.0000 H   0  0  0  0  0  0  0  0  0  0  0  0
   10.0063   -2.1674    0.0000 H   0  0  0  0  0  0  0  0  0  0  0  0
    8.5297   -4.7250    0.0000 H   0  0  0  0  0  0  0  0  0  0  0  0
    9.3267   -4.7250    0.0000 H   0  0  0  0  0  0  0  0  0  0  0  0
   11.5632   -2.5740    0.0000 H   0  0  0  0  0  0  0  0  0  0  0  0
   10.7163   -2.3470    0.0000 H   0  0  0  0  0  0  0  0  0  0  0  0
   10.4893   -3.1940    0.0000 H   0  0  0  0  0  0  0  0  0  0  0  0
   11.4893   -4.9260    0.0000 H   0  0  0  0  0  0  0  0  0  0  0  0
   12.3363   -5.1530    0.0000 H   0  0  0  0  0  0  0  0  0  0  0  0
   12.5632   -4.3060    0.0000 H   0  0  0  0  0  0  0  0  0  0  0  0
   13.5683   -3.2869    0.0000 H   0  0  0  0  0  0  0  0  0  0  0  0
   13.7953   -2.4400    0.0000 H   0  0  0  0  0  0  0  0  0  0  0  0
   12.9483   -2.2131    0.0000 H   0  0  0  0  0  0  0  0  0  0  0  0
   12.4292   -2.0740    0.0000 H   0  0  0  0  0  0  0  0  0  0  0  0
   11.5823   -1.8470    0.0000 H   0  0  0  0  0  0  0  0  0  0  0  0
   11.3554   -2.6940    0.0000 H   0  0  0  0  0  0  0  0  0  0  0  0
   12.3554   -4.4260    0.0000 H   0  0  0  0  0  0  0  0  0  0  0  0
   13.2023   -4.6530    0.0000 H   0  0  0  0  0  0  0  0  0  0  0  0
   13.4292   -3.8060    0.0000 H   0  0  0  0  0  0  0  0  0  0  0  0
    8.3176   -2.1423    0.0000 H   0  0  0  0  0  0  0  0  0  0  0  0
    8.7162   -2.8326    0.0000 H   0  0  0  0  0  0  0  0  0  0  0  0
    8.4607   -3.2750    0.0000 H   0  0  0  0  0  0  0  0  0  0  0  0
    7.6636   -3.2750    0.0000 H   0  0  0  0  0  0  0  0  0  0  0  0
    9.5388   -1.3577    0.0000 H   0  0  0  0  0  0  0  0  0  0  0  0
    9.1403   -0.6674    0.0000 H   0  0  0  0  0  0  0  0  0  0  0  0
    6.7976   -4.7250    0.0000 H   0  0  0  0  0  0  0  0  0  0  0  0
    7.5947   -4.7250    0.0000 H   0  0  0  0  0  0  0  0  0  0  0  0
    7.4516   -0.6423    0.0000 H   0  0  0  0  0  0  0  0  0  0  0  0
    7.8501   -1.3326    0.0000 H   0  0  0  0  0  0  0  0  0  0  0  0
    8.6728    0.1423    0.0000 H   0  0  0  0  0  0  0  0  0  0  0  0
    8.2742    0.8326    0.0000 H   0  0  0  0  0  0  0  0  0  0  0  0
    6.7287   -3.2750    0.0000 H   0  0  0  0  0  0  0  0  0  0  0  0
    5.9316   -3.2750    0.0000 H   0  0  0  0  0  0  0  0  0  0  0  0
    6.5856    0.8577    0.0000 H   0  0  0  0  0  0  0  0  0  0  0  0
    6.9841    0.1674    0.0000 H   0  0  0  0  0  0  0  0  0  0  0  0
    7.8067    1.6423    0.0000 H   0  0  0  0  0  0  0  0  0  0  0  0
    7.4082    2.3326    0.0000 H   0  0  0  0  0  0  0  0  0  0  0  0
    5.0656   -4.7250    0.0000 H   0  0  0  0  0  0  0  0  0  0  0  0
    5.8626   -4.7250    0.0000 H   0  0  0  0  0  0  0  0  0  0  0  0
    5.7196    2.3577    0.0000 H   0  0  0  0  0  0  0  0  0  0  0  0
    6.1181    1.6674    0.0000 H   0  0  0  0  0  0  0  0  0  0  0  0
    6.9407    3.1423    0.0000 H   0  0  0  0  0  0  0  0  0  0  0  0
    6.5422    3.8326    0.0000 H   0  0  0  0  0  0  0  0  0  0  0  0
    4.9966   -3.2750    0.0000 H   0  0  0  0  0  0  0  0  0  0  0  0
    4.1996   -3.2750    0.0000 H   0  0  0  0  0  0  0  0  0  0  0  0
    4.8535    3.8577    0.0000 H   0  0  0  0  0  0  0  0  0  0  0  0
    5.2520    3.1674    0.0000 H   0  0  0  0  0  0  0  0  0  0  0  0
    6.0747    4.6423    0.0000 H   0  0  0  0  0  0  0  0  0  0  0  0
    5.6762    5.3326    0.0000 H   0  0  0  0  0  0  0  0  0  0  0  0
    4.9081    5.7869    0.0000 H   0  0  0  0  0  0  0  0  0  0  0  0
    4.0611    5.5600    0.0000 H   0  0  0  0  0  0  0  0  0  0  0  0
    4.2881    4.7131    0.0000 H   0  0  0  0  0  0  0  0  0  0  0  0
    1.6900   -3.7131    0.0000 H   0  0  0  0  0  0  0  0  0  0  0  0
    1.4631   -4.5600    0.0000 H   0  0  0  0  0  0  0  0  0  0  0  0
    2.3100   -4.7869    0.0000 H   0  0  0  0  0  0  0  0  0  0  0  0
  1  2  1  0  0  0  0
  1  5  1  0  0  0  0
  1  9  1  0  0  0  0
  1 10  1  0  0  0  0
  2  6  1  0  0  0  0
  3 29  1  0  0  0  0
  3 31  1  0  0  0  0
  4 29  2  0  0  0  0
  5 11  1  0  0  0  0
  5 12  1  0  0  0  0
  5 13  1  0  0  0  0
  6  7  1  0  0  0  0
  6  8  1  0  0  0  0
  6 32  1  0  0  0  0
  7 14  1  0  0  0  0
  7 33  1  0  0  0  0
  7 34  1  0  0  0  0
  8 15  1  0  0  0  0
  8 35  1  0  0  0  0
  8 36  1  0  0  0  0
  9 37  1  0  0  0  0
  9 38  1  0  0  0  0
  9 39  1  0  0  0  0
 10 40  1  0  0  0  0
 10 41  1  0  0  0  0
 10 42  1  0  0  0  0
 11 43  1  0  0  0  0
 11 44  1  0  0  0  0
 11 45  1  0  0  0  0
 12 46  1  0  0  0  0
 12 47  1  0  0  0  0
 12 48  1  0  0  0  0
 13 49  1  0  0  0  0
 13 50  1  0  0  0  0
 13 51  1  0  0  0  0
 14 16  1  0  0  0  0
 14 52  1  0  0  0  0
 14 53  1  0  0  0  0
 15 17  1  0  0  0  0
 15 54  1  0  0  0  0
 15 55  1  0  0  0  0
 16 18  1  0  0  0  0
 16 56  1  0  0  0  0
 16 57  1  0  0  0  0
 17 20  1  0  0  0  0
 17 58  1  0  0  0  0
 17 59  1  0  0  0  0
 18 19  1  0  0  0  0
 18 60  1  0  0  0  0
 18 61  1  0  0  0  0
 19 21  1  0  0  0  0
 19 62  1  0  0  0  0
 19 63  1  0  0  0  0
 20 23  1  0  0  0  0
 20 64  1  0  0  0  0
 20 65  1  0  0  0  0
 21 22  1  0  0  0  0
 21 66  1  0  0  0  0
 21 67  1  0  0  0  0
 22 24  1  0  0  0  0
 22 68  1  0  0  0  0
 22 69  1  0  0  0  0
 23 26  1  0  0  0  0
 23 70  1  0  0  0  0
 23 71  1  0  0  0  0
 24 25  1  0  0  0  0
 24 72  1  0  0  0  0
 24 73  1  0  0  0  0
 25 27  1  0  0  0  0
 25 74  1  0  0  0  0
 25 75  1  0  0  0  0
 26 29  1  0  0  0  0
 26 76  1  0  0  0  0
 26 77  1  0  0  0  0
 27 28  1  0  0  0  0
 27 78  1  0  0  0  0
 27 79  1  0  0  0  0
 28 30  1  0  0  0  0
 28 80  1  0  0  0  0
 28 81  1  0  0  0  0
 30 82  1  0  0  0  0
 30 83  1  0  0  0  0
 30 84  1  0  0  0  0
 31 85  1  0  0  0  0
 31 86  1  0  0  0  0
 31 87  1  0  0  0  0
M  END
> <PUBCHEM_COMPOUND_CID>
526784
> <PUBCHEM_COMPOUND_CANONICALIZED>
1
> <PUBCHEM_CACTVS_COMPLEXITY>
429
> <PUBCHEM_CACTVS_HBOND_ACCEPTOR>
3
> <PUBCHEM_CACTVS_HBOND_DONOR>
0
> <PUBCHEM_CACTVS_ROTATABLE_BOND>
22
> <PUBCHEM_CACTVS_SUBSKEYS>
AAADcfB4MAgAAAAAAAAAAAAAAAAAAAAAAAAAAAAAAAAAAAAAAAAAGhAAAEAADBSgoAJCCAAABAEIAACQCAAAAAAAAAAAAAEAAAAAABIAAAAAAAAEAAAAAAGIyKCAAAAAAAAAAAAAAAAAAAAAAAAAAAAAAA==
> <PUBCHEM_IUPAC_OPENEYE_NAME>
methyl 8-[tert-butyl(dimethyl)silyl]oxyicosanoate
> <PUBCHEM_IUPAC_CAS_NAME>
8-[tert-butyl(dimethyl)silyl]oxyeicosanoic acid methyl ester
> <PUBCHEM_IUPAC_NAME_MARKUP>
methyl 8-[<I>tert</I>-butyl(dimethyl)silyl]oxyicosanoate
> <PUBCHEM_IUPAC_NAME>
methyl 8-[tert-butyl(dimethyl)silyl]oxyicosanoate
> <PUBCHEM_IUPAC_SYSTEMATIC_NAME>
methyl 8-[tert-butyl(dimethyl)silyl]oxyicosanoate
> <PUBCHEM_IUPAC_TRADITIONAL_NAME>
8-[tert-butyl(dimethyl)silyl]oxyarachidic acid methyl ester
> <PUBCHEM_IUPAC_INCHI>
InChI=1S/C27H56O3Si/c1-8-9-10-11-12-13-14-15-16-19-22-25(30-31(6,7)27(2,3)4)23-20-17-18-21-24-26(28)29-5/h25H,8-24H2,1-7H3
> <PUBCHEM_IUPAC_INCHIKEY>
FZBGOCYMRHGTNQ-UHFFFAOYSA-N
> <PUBCHEM_EXACT_MASS>
456.39987218
> <PUBCHEM_MOLECULAR_FORMULA>
C27H56O3Si
> <PUBCHEM_MOLECULAR_WEIGHT>
456.8
> <PUBCHEM_OPENEYE_CAN_SMILES>
CCCCCCCCCCCCC(CCCCCCC(=O)OC)O[Si](C)(C)C(C)(C)C
> <PUBCHEM_OPENEYE_ISO_SMILES>
CCCCCCCCCCCCC(CCCCCCC(=O)OC)O[Si](C)(C)C(C)(C)C
> <PUBCHEM_CACTVS_TPSA>
35.5
> <PUBCHEM_MONOISOTOPIC_WEIGHT>
456.39987218
> <PUBCHEM_TOTAL_CHARGE>
0
> <PUBCHEM_HEAVY_ATOM_COUNT>
31
> <PUBCHEM_ATOM_DEF_STEREO_COUNT>
0
> <PUBCHEM_ATOM_UDEF_STEREO_COUNT>
1
> <PUBCHEM_BOND_DEF_STEREO_COUNT>
0
> <PUBCHEM_BOND_UDEF_STEREO_COUNT>
0
> <PUBCHEM_ISOTOPIC_ATOM_COUNT>
0
> <PUBCHEM_COMPONENT_COUNT>
1
> <PUBCHEM_CACTVS_TAUTO_COUNT>
-1
> <PUBCHEM_COORDINATE_TYPE>
1
5
255
> <PUBCHEM_BONDANNOTATIONS>
6  7  3
$$$$
