526811
  -OEChem-10302200292D
 78 77  0     1  0  0  0  0  0999 V2000
   17.5885   -0.3170    0.0000 Si  0  0  0  0  0  0  0  0  0  0  0  0
   16.7224   -0.8170    0.0000 O   0  0  0  0  0  0  0  0  0  0  0  0
    2.8660   -0.8170    0.0000 O   0  0  0  0  0  0  0  0  0  0  0  0
    3.7320    0.6830    0.0000 O   0  0  0  0  0  0  0  0  0  0  0  0
   18.4545    0.1830    0.0000 C   0  0  0  0  0  0  0  0  0  0  0  0
   15.8564   -0.3170    0.0000 C   0  0  3  0  0  0  0  0  0  0  0  0
   17.0885    0.5490    0.0000 C   0  0  0  0  0  0  0  0  0  0  0  0
   18.0885   -1.1830    0.0000 C   0  0  0  0  0  0  0  0  0  0  0  0
   19.3205    0.6830    0.0000 C   0  0  0  0  0  0  0  0  0  0  0  0
   17.9545    1.0490    0.0000 C   0  0  0  0  0  0  0  0  0  0  0  0
   18.9545   -0.6830    0.0000 C   0  0  0  0  0  0  0  0  0  0  0  0
   14.9904   -0.8170    0.0000 C   0  0  0  0  0  0  0  0  0  0  0  0
   14.1244   -0.3170    0.0000 C   0  0  0  0  0  0  0  0  0  0  0  0
   15.8564    0.6830    0.0000 C   0  0  0  0  0  0  0  0  0  0  0  0
   13.2583   -0.8170    0.0000 C   0  0  0  0  0  0  0  0  0  0  0  0
   12.3923   -0.3170    0.0000 C   0  0  0  0  0  0  0  0  0  0  0  0
   11.5263   -0.8170    0.0000 C   0  0  0  0  0  0  0  0  0  0  0  0
   10.6603   -0.3170    0.0000 C   0  0  0  0  0  0  0  0  0  0  0  0
   14.9904    1.1830    0.0000 C   0  0  0  0  0  0  0  0  0  0  0  0
    9.7942   -0.8170    0.0000 C   0  0  0  0  0  0  0  0  0  0  0  0
    8.9282   -0.3170    0.0000 C   0  0  0  0  0  0  0  0  0  0  0  0
    8.0622   -0.8170    0.0000 C   0  0  0  0  0  0  0  0  0  0  0  0
    7.1962   -0.3170    0.0000 C   0  0  0  0  0  0  0  0  0  0  0  0
    6.3301   -0.8170    0.0000 C   0  0  0  0  0  0  0  0  0  0  0  0
    5.4641   -0.3170    0.0000 C   0  0  0  0  0  0  0  0  0  0  0  0
    4.5981   -0.8170    0.0000 C   0  0  0  0  0  0  0  0  0  0  0  0
    3.7320   -0.3170    0.0000 C   0  0  0  0  0  0  0  0  0  0  0  0
    2.0000   -0.3170    0.0000 C   0  0  0  0  0  0  0  0  0  0  0  0
   16.3933   -0.0070    0.0000 H   0  0  0  0  0  0  0  0  0  0  0  0
   17.6254    0.8590    0.0000 H   0  0  0  0  0  0  0  0  0  0  0  0
   16.7785    1.0860    0.0000 H   0  0  0  0  0  0  0  0  0  0  0  0
   16.5515    0.2390    0.0000 H   0  0  0  0  0  0  0  0  0  0  0  0
   17.5515   -1.4930    0.0000 H   0  0  0  0  0  0  0  0  0  0  0  0
   18.3985   -1.7200    0.0000 H   0  0  0  0  0  0  0  0  0  0  0  0
   18.6254   -0.8730    0.0000 H   0  0  0  0  0  0  0  0  0  0  0  0
   19.6305    0.1461    0.0000 H   0  0  0  0  0  0  0  0  0  0  0  0
   19.8574    0.9930    0.0000 H   0  0  0  0  0  0  0  0  0  0  0  0
   19.0105    1.2200    0.0000 H   0  0  0  0  0  0  0  0  0  0  0  0
   18.4914    1.3590    0.0000 H   0  0  0  0  0  0  0  0  0  0  0  0
   17.6445    1.5860    0.0000 H   0  0  0  0  0  0  0  0  0  0  0  0
   17.4175    0.7390    0.0000 H   0  0  0  0  0  0  0  0  0  0  0  0
   18.4175   -0.9930    0.0000 H   0  0  0  0  0  0  0  0  0  0  0  0
   19.2645   -1.2200    0.0000 H   0  0  0  0  0  0  0  0  0  0  0  0
   19.4914   -0.3730    0.0000 H   0  0  0  0  0  0  0  0  0  0  0  0
   14.5919   -1.2919    0.0000 H   0  0  0  0  0  0  0  0  0  0  0  0
   15.3889   -1.2919    0.0000 H   0  0  0  0  0  0  0  0  0  0  0  0
   14.5229    0.1580    0.0000 H   0  0  0  0  0  0  0  0  0  0  0  0
   13.7258    0.1580    0.0000 H   0  0  0  0  0  0  0  0  0  0  0  0
   16.4670    0.5754    0.0000 H   0  0  0  0  0  0  0  0  0  0  0  0
   16.0685    1.2656    0.0000 H   0  0  0  0  0  0  0  0  0  0  0  0
   12.8598   -1.2919    0.0000 H   0  0  0  0  0  0  0  0  0  0  0  0
   13.6569   -1.2919    0.0000 H   0  0  0  0  0  0  0  0  0  0  0  0
   12.7908    0.1580    0.0000 H   0  0  0  0  0  0  0  0  0  0  0  0
   11.9938    0.1580    0.0000 H   0  0  0  0  0  0  0  0  0  0  0  0
   11.1278   -1.2919    0.0000 H   0  0  0  0  0  0  0  0  0  0  0  0
   11.9248   -1.2919    0.0000 H   0  0  0  0  0  0  0  0  0  0  0  0
   11.0588    0.1580    0.0000 H   0  0  0  0  0  0  0  0  0  0  0  0
   10.2617    0.1580    0.0000 H   0  0  0  0  0  0  0  0  0  0  0  0
   15.3004    1.7200    0.0000 H   0  0  0  0  0  0  0  0  0  0  0  0
   14.4534    1.4930    0.0000 H   0  0  0  0  0  0  0  0  0  0  0  0
   14.6804    0.6461    0.0000 H   0  0  0  0  0  0  0  0  0  0  0  0
    9.3957   -1.2919    0.0000 H   0  0  0  0  0  0  0  0  0  0  0  0
   10.1928   -1.2919    0.0000 H   0  0  0  0  0  0  0  0  0  0  0  0
    9.3267    0.1580    0.0000 H   0  0  0  0  0  0  0  0  0  0  0  0
    8.5297    0.1580    0.0000 H   0  0  0  0  0  0  0  0  0  0  0  0
    7.6636   -1.2919    0.0000 H   0  0  0  0  0  0  0  0  0  0  0  0
    8.4607   -1.2919    0.0000 H   0  0  0  0  0  0  0  0  0  0  0  0
    7.5947    0.1580    0.0000 H   0  0  0  0  0  0  0  0  0  0  0  0
    6.7976    0.1580    0.0000 H   0  0  0  0  0  0  0  0  0  0  0  0
    5.9316   -1.2919    0.0000 H   0  0  0  0  0  0  0  0  0  0  0  0
    6.7287   -1.2919    0.0000 H   0  0  0  0  0  0  0  0  0  0  0  0
    5.8626    0.1580    0.0000 H   0  0  0  0  0  0  0  0  0  0  0  0
    5.0656    0.1580    0.0000 H   0  0  0  0  0  0  0  0  0  0  0  0
    4.1996   -1.2919    0.0000 H   0  0  0  0  0  0  0  0  0  0  0  0
    4.9966   -1.2919    0.0000 H   0  0  0  0  0  0  0  0  0  0  0  0
    2.3100    0.2199    0.0000 H   0  0  0  0  0  0  0  0  0  0  0  0
    1.4631   -0.0070    0.0000 H   0  0  0  0  0  0  0  0  0  0  0  0
    1.6900   -0.8539    0.0000 H   0  0  0  0  0  0  0  0  0  0  0  0
  1  2  1  0  0  0  0
  1  5  1  0  0  0  0
  1  7  1  0  0  0  0
  1  8  1  0  0  0  0
  2  6  1  0  0  0  0
  3 27  1  0  0  0  0
  3 28  1  0  0  0  0
  4 27  2  0  0  0  0
  5  9  1  0  0  0  0
  5 10  1  0  0  0  0
  5 11  1  0  0  0  0
  6 12  1  0  0  0  0
  6 14  1  0  0  0  0
  6 29  1  0  0  0  0
  7 30  1  0  0  0  0
  7 31  1  0  0  0  0
  7 32  1  0  0  0  0
  8 33  1  0  0  0  0
  8 34  1  0  0  0  0
  8 35  1  0  0  0  0
  9 36  1  0  0  0  0
  9 37  1  0  0  0  0
  9 38  1  0  0  0  0
 10 39  1  0  0  0  0
 10 40  1  0  0  0  0
 10 41  1  0  0  0  0
 11 42  1  0  0  0  0
 11 43  1  0  0  0  0
 11 44  1  0  0  0  0
 12 13  1  0  0  0  0
 12 45  1  0  0  0  0
 12 46  1  0  0  0  0
 13 15  1  0  0  0  0
 13 47  1  0  0  0  0
 13 48  1  0  0  0  0
 14 19  1  0  0  0  0
 14 49  1  0  0  0  0
 14 50  1  0  0  0  0
 15 16  1  0  0  0  0
 15 51  1  0  0  0  0
 15 52  1  0  0  0  0
 16 17  1  0  0  0  0
 16 53  1  0  0  0  0
 16 54  1  0  0  0  0
 17 18  1  0  0  0  0
 17 55  1  0  0  0  0
 17 56  1  0  0  0  0
 18 20  1  0  0  0  0
 18 57  1  0  0  0  0
 18 58  1  0  0  0  0
 19 59  1  0  0  0  0
 19 60  1  0  0  0  0
 19 61  1  0  0  0  0
 20 21  1  0  0  0  0
 20 62  1  0  0  0  0
 20 63  1  0  0  0  0
 21 22  1  0  0  0  0
 21 64  1  0  0  0  0
 21 65  1  0  0  0  0
 22 23  1  0  0  0  0
 22 66  1  0  0  0  0
 22 67  1  0  0  0  0
 23 24  1  0  0  0  0
 23 68  1  0  0  0  0
 23 69  1  0  0  0  0
 24 25  1  0  0  0  0
 24 70  1  0  0  0  0
 24 71  1  0  0  0  0
 25 26  1  0  0  0  0
 25 72  1  0  0  0  0
 25 73  1  0  0  0  0
 26 27  1  0  0  0  0
 26 74  1  0  0  0  0
 26 75  1  0  0  0  0
 28 76  1  0  0  0  0
 28 77  1  0  0  0  0
 28 78  1  0  0  0  0
M  END
> <PUBCHEM_COMPOUND_CID>
526811
> <PUBCHEM_COMPOUND_CANONICALIZED>
1
> <PUBCHEM_CACTVS_COMPLEXITY>
388
> <PUBCHEM_CACTVS_HBOND_ACCEPTOR>
3
> <PUBCHEM_CACTVS_HBOND_DONOR>
0
> <PUBCHEM_CACTVS_ROTATABLE_BOND>
19
> <PUBCHEM_CACTVS_SUBSKEYS>
AAADcfB4MAgAAAAAAAAAAAAAAAAAAAAAAAAAAAAAAAAAAAAAAAAAGhAAAEAADBSgoAJCCAAABAEIAACQCAAAAAAAAAAAAAEAAAAAABIAAAAAAAAEAAAAAAGIyKCAAAAAAAAAAAAAAAAAAAAAAAAAAAAAAA==
> <PUBCHEM_IUPAC_OPENEYE_NAME>
methyl 15-[tert-butyl(dimethyl)silyl]oxyheptadecanoate
> <PUBCHEM_IUPAC_CAS_NAME>
15-[tert-butyl(dimethyl)silyl]oxyheptadecanoic acid methyl ester
> <PUBCHEM_IUPAC_NAME_MARKUP>
methyl 15-[<I>tert</I>-butyl(dimethyl)silyl]oxyheptadecanoate
> <PUBCHEM_IUPAC_NAME>
methyl 15-[tert-butyl(dimethyl)silyl]oxyheptadecanoate
> <PUBCHEM_IUPAC_SYSTEMATIC_NAME>
methyl 15-[tert-butyl(dimethyl)silyl]oxyheptadecanoate
> <PUBCHEM_IUPAC_TRADITIONAL_NAME>
15-[tert-butyl(dimethyl)silyl]oxyheptadecanoic acid methyl ester
> <PUBCHEM_IUPAC_INCHI>
InChI=1S/C24H50O3Si/c1-8-22(27-28(6,7)24(2,3)4)20-18-16-14-12-10-9-11-13-15-17-19-21-23(25)26-5/h22H,8-21H2,1-7H3
> <PUBCHEM_IUPAC_INCHIKEY>
DWYVBOYCTHKEGM-UHFFFAOYSA-N
> <PUBCHEM_EXACT_MASS>
414.35292199
> <PUBCHEM_MOLECULAR_FORMULA>
C24H50O3Si
> <PUBCHEM_MOLECULAR_WEIGHT>
414.7
> <PUBCHEM_OPENEYE_CAN_SMILES>
CCC(CCCCCCCCCCCCCC(=O)OC)O[Si](C)(C)C(C)(C)C
> <PUBCHEM_OPENEYE_ISO_SMILES>
CCC(CCCCCCCCCCCCCC(=O)OC)O[Si](C)(C)C(C)(C)C
> <PUBCHEM_CACTVS_TPSA>
35.5
> <PUBCHEM_MONOISOTOPIC_WEIGHT>
414.35292199
> <PUBCHEM_TOTAL_CHARGE>
0
> <PUBCHEM_HEAVY_ATOM_COUNT>
28
> <PUBCHEM_ATOM_DEF_STEREO_COUNT>
0
> <PUBCHEM_ATOM_UDEF_STEREO_COUNT>
1
> <PUBCHEM_BOND_DEF_STEREO_COUNT>
0
> <PUBCHEM_BOND_UDEF_STEREO_COUNT>
0
> <PUBCHEM_ISOTOPIC_ATOM_COUNT>
0
> <PUBCHEM_COMPONENT_COUNT>
1
> <PUBCHEM_CACTVS_TAUTO_COUNT>
-1
> <PUBCHEM_COORDINATE_TYPE>
1
5
255
> <PUBCHEM_BONDANNOTATIONS>
6  14  3
$$$$
