526825
  -OEChem-10302200292D
 87 86  0     1  0  0  0  0  0999 V2000
   17.5885   -1.5670    0.0000 Si  0  0  0  0  0  0  0  0  0  0  0  0
   16.7224   -2.0670    0.0000 O   0  0  0  0  0  0  0  0  0  0  0  0
    2.8660   -2.0670    0.0000 O   0  0  0  0  0  0  0  0  0  0  0  0
    3.7320   -0.5670    0.0000 O   0  0  0  0  0  0  0  0  0  0  0  0
   18.4545   -1.0670    0.0000 C   0  0  0  0  0  0  0  0  0  0  0  0
   15.8564   -1.5670    0.0000 C   0  0  3  0  0  0  0  0  0  0  0  0
   14.9904   -2.0670    0.0000 C   0  0  0  0  0  0  0  0  0  0  0  0
   17.0885   -0.7010    0.0000 C   0  0  0  0  0  0  0  0  0  0  0  0
   18.0885   -2.4330    0.0000 C   0  0  0  0  0  0  0  0  0  0  0  0
   15.8564   -0.5670    0.0000 C   0  0  0  0  0  0  0  0  0  0  0  0
   19.3205   -0.5670    0.0000 C   0  0  0  0  0  0  0  0  0  0  0  0
   17.9545   -0.2010    0.0000 C   0  0  0  0  0  0  0  0  0  0  0  0
   18.9545   -1.9330    0.0000 C   0  0  0  0  0  0  0  0  0  0  0  0
   14.1244   -1.5670    0.0000 C   0  0  0  0  0  0  0  0  0  0  0  0
   14.9904   -0.0670    0.0000 C   0  0  0  0  0  0  0  0  0  0  0  0
   13.2583   -2.0670    0.0000 C   0  0  0  0  0  0  0  0  0  0  0  0
   12.3923   -1.5670    0.0000 C   0  0  0  0  0  0  0  0  0  0  0  0
   14.9904    0.9330    0.0000 C   0  0  0  0  0  0  0  0  0  0  0  0
   11.5263   -2.0670    0.0000 C   0  0  0  0  0  0  0  0  0  0  0  0
   10.6603   -1.5670    0.0000 C   0  0  0  0  0  0  0  0  0  0  0  0
    9.7942   -2.0670    0.0000 C   0  0  0  0  0  0  0  0  0  0  0  0
   14.1244    1.4330    0.0000 C   0  0  0  0  0  0  0  0  0  0  0  0
    8.9282   -1.5670    0.0000 C   0  0  0  0  0  0  0  0  0  0  0  0
    8.0622   -2.0670    0.0000 C   0  0  0  0  0  0  0  0  0  0  0  0
    7.1962   -1.5670    0.0000 C   0  0  0  0  0  0  0  0  0  0  0  0
   14.1244    2.4330    0.0000 C   0  0  0  0  0  0  0  0  0  0  0  0
    6.3301   -2.0670    0.0000 C   0  0  0  0  0  0  0  0  0  0  0  0
    5.4641   -1.5670    0.0000 C   0  0  0  0  0  0  0  0  0  0  0  0
    4.5981   -2.0670    0.0000 C   0  0  0  0  0  0  0  0  0  0  0  0
    3.7320   -1.5670    0.0000 C   0  0  0  0  0  0  0  0  0  0  0  0
    2.0000   -1.5670    0.0000 C   0  0  0  0  0  0  0  0  0  0  0  0
   16.3933   -1.2570    0.0000 H   0  0  0  0  0  0  0  0  0  0  0  0
   14.5919   -2.5419    0.0000 H   0  0  0  0  0  0  0  0  0  0  0  0
   15.3889   -2.5419    0.0000 H   0  0  0  0  0  0  0  0  0  0  0  0
   17.6254   -0.3910    0.0000 H   0  0  0  0  0  0  0  0  0  0  0  0
   16.7785   -0.1640    0.0000 H   0  0  0  0  0  0  0  0  0  0  0  0
   16.5515   -1.0110    0.0000 H   0  0  0  0  0  0  0  0  0  0  0  0
   17.5515   -2.7430    0.0000 H   0  0  0  0  0  0  0  0  0  0  0  0
   18.3985   -2.9700    0.0000 H   0  0  0  0  0  0  0  0  0  0  0  0
   18.6254   -2.1230    0.0000 H   0  0  0  0  0  0  0  0  0  0  0  0
   16.4670   -0.6746    0.0000 H   0  0  0  0  0  0  0  0  0  0  0  0
   16.0685    0.0156    0.0000 H   0  0  0  0  0  0  0  0  0  0  0  0
   19.6305   -1.1039    0.0000 H   0  0  0  0  0  0  0  0  0  0  0  0
   19.8574   -0.2570    0.0000 H   0  0  0  0  0  0  0  0  0  0  0  0
   19.0105   -0.0301    0.0000 H   0  0  0  0  0  0  0  0  0  0  0  0
   18.4914    0.1090    0.0000 H   0  0  0  0  0  0  0  0  0  0  0  0
   17.6445    0.3360    0.0000 H   0  0  0  0  0  0  0  0  0  0  0  0
   17.4175   -0.5110    0.0000 H   0  0  0  0  0  0  0  0  0  0  0  0
   18.4175   -2.2430    0.0000 H   0  0  0  0  0  0  0  0  0  0  0  0
   19.2645   -2.4700    0.0000 H   0  0  0  0  0  0  0  0  0  0  0  0
   19.4914   -1.6230    0.0000 H   0  0  0  0  0  0  0  0  0  0  0  0
   14.5229   -1.0920    0.0000 H   0  0  0  0  0  0  0  0  0  0  0  0
   13.7258   -1.0920    0.0000 H   0  0  0  0  0  0  0  0  0  0  0  0
   14.3798    0.0407    0.0000 H   0  0  0  0  0  0  0  0  0  0  0  0
   14.7783   -0.6496    0.0000 H   0  0  0  0  0  0  0  0  0  0  0  0
   12.8598   -2.5419    0.0000 H   0  0  0  0  0  0  0  0  0  0  0  0
   13.6569   -2.5419    0.0000 H   0  0  0  0  0  0  0  0  0  0  0  0
   12.7908   -1.0920    0.0000 H   0  0  0  0  0  0  0  0  0  0  0  0
   11.9938   -1.0920    0.0000 H   0  0  0  0  0  0  0  0  0  0  0  0
   15.6010    0.8254    0.0000 H   0  0  0  0  0  0  0  0  0  0  0  0
   15.2024    1.5156    0.0000 H   0  0  0  0  0  0  0  0  0  0  0  0
   11.1278   -2.5419    0.0000 H   0  0  0  0  0  0  0  0  0  0  0  0
   11.9248   -2.5419    0.0000 H   0  0  0  0  0  0  0  0  0  0  0  0
   11.0588   -1.0920    0.0000 H   0  0  0  0  0  0  0  0  0  0  0  0
   10.2617   -1.0920    0.0000 H   0  0  0  0  0  0  0  0  0  0  0  0
    9.3957   -2.5419    0.0000 H   0  0  0  0  0  0  0  0  0  0  0  0
   10.1928   -2.5419    0.0000 H   0  0  0  0  0  0  0  0  0  0  0  0
   13.5138    1.5407    0.0000 H   0  0  0  0  0  0  0  0  0  0  0  0
   13.9123    0.8504    0.0000 H   0  0  0  0  0  0  0  0  0  0  0  0
    9.3267   -1.0920    0.0000 H   0  0  0  0  0  0  0  0  0  0  0  0
    8.5297   -1.0920    0.0000 H   0  0  0  0  0  0  0  0  0  0  0  0
    7.6636   -2.5419    0.0000 H   0  0  0  0  0  0  0  0  0  0  0  0
    8.4607   -2.5419    0.0000 H   0  0  0  0  0  0  0  0  0  0  0  0
    7.5947   -1.0920    0.0000 H   0  0  0  0  0  0  0  0  0  0  0  0
    6.7976   -1.0920    0.0000 H   0  0  0  0  0  0  0  0  0  0  0  0
   14.7444    2.4330    0.0000 H   0  0  0  0  0  0  0  0  0  0  0  0
   14.1244    3.0530    0.0000 H   0  0  0  0  0  0  0  0  0  0  0  0
   13.5044    2.4330    0.0000 H   0  0  0  0  0  0  0  0  0  0  0  0
    5.9316   -2.5419    0.0000 H   0  0  0  0  0  0  0  0  0  0  0  0
    6.7287   -2.5419    0.0000 H   0  0  0  0  0  0  0  0  0  0  0  0
    5.8626   -1.0920    0.0000 H   0  0  0  0  0  0  0  0  0  0  0  0
    5.0656   -1.0920    0.0000 H   0  0  0  0  0  0  0  0  0  0  0  0
    4.1996   -2.5419    0.0000 H   0  0  0  0  0  0  0  0  0  0  0  0
    4.9966   -2.5419    0.0000 H   0  0  0  0  0  0  0  0  0  0  0  0
    2.3100   -1.0300    0.0000 H   0  0  0  0  0  0  0  0  0  0  0  0
    1.4631   -1.2570    0.0000 H   0  0  0  0  0  0  0  0  0  0  0  0
    1.6900   -2.1039    0.0000 H   0  0  0  0  0  0  0  0  0  0  0  0
  1  2  1  0  0  0  0
  1  5  1  0  0  0  0
  1  8  1  0  0  0  0
  1  9  1  0  0  0  0
  2  6  1  0  0  0  0
  3 30  1  0  0  0  0
  3 31  1  0  0  0  0
  4 30  2  0  0  0  0
  5 11  1  0  0  0  0
  5 12  1  0  0  0  0
  5 13  1  0  0  0  0
  6  7  1  0  0  0  0
  6 10  1  0  0  0  0
  6 32  1  0  0  0  0
  7 14  1  0  0  0  0
  7 33  1  0  0  0  0
  7 34  1  0  0  0  0
  8 35  1  0  0  0  0
  8 36  1  0  0  0  0
  8 37  1  0  0  0  0
  9 38  1  0  0  0  0
  9 39  1  0  0  0  0
  9 40  1  0  0  0  0
 10 15  1  0  0  0  0
 10 41  1  0  0  0  0
 10 42  1  0  0  0  0
 11 43  1  0  0  0  0
 11 44  1  0  0  0  0
 11 45  1  0  0  0  0
 12 46  1  0  0  0  0
 12 47  1  0  0  0  0
 12 48  1  0  0  0  0
 13 49  1  0  0  0  0
 13 50  1  0  0  0  0
 13 51  1  0  0  0  0
 14 16  1  0  0  0  0
 14 52  1  0  0  0  0
 14 53  1  0  0  0  0
 15 18  1  0  0  0  0
 15 54  1  0  0  0  0
 15 55  1  0  0  0  0
 16 17  1  0  0  0  0
 16 56  1  0  0  0  0
 16 57  1  0  0  0  0
 17 19  1  0  0  0  0
 17 58  1  0  0  0  0
 17 59  1  0  0  0  0
 18 22  1  0  0  0  0
 18 60  1  0  0  0  0
 18 61  1  0  0  0  0
 19 20  1  0  0  0  0
 19 62  1  0  0  0  0
 19 63  1  0  0  0  0
 20 21  1  0  0  0  0
 20 64  1  0  0  0  0
 20 65  1  0  0  0  0
 21 23  1  0  0  0  0
 21 66  1  0  0  0  0
 21 67  1  0  0  0  0
 22 26  1  0  0  0  0
 22 68  1  0  0  0  0
 22 69  1  0  0  0  0
 23 24  1  0  0  0  0
 23 70  1  0  0  0  0
 23 71  1  0  0  0  0
 24 25  1  0  0  0  0
 24 72  1  0  0  0  0
 24 73  1  0  0  0  0
 25 27  1  0  0  0  0
 25 74  1  0  0  0  0
 25 75  1  0  0  0  0
 26 76  1  0  0  0  0
 26 77  1  0  0  0  0
 26 78  1  0  0  0  0
 27 28  1  0  0  0  0
 27 79  1  0  0  0  0
 27 80  1  0  0  0  0
 28 29  1  0  0  0  0
 28 81  1  0  0  0  0
 28 82  1  0  0  0  0
 29 30  1  0  0  0  0
 29 83  1  0  0  0  0
 29 84  1  0  0  0  0
 31 85  1  0  0  0  0
 31 86  1  0  0  0  0
 31 87  1  0  0  0  0
M  END
> <PUBCHEM_COMPOUND_CID>
526825
> <PUBCHEM_COMPOUND_CANONICALIZED>
1
> <PUBCHEM_CACTVS_COMPLEXITY>
429
> <PUBCHEM_CACTVS_HBOND_ACCEPTOR>
3
> <PUBCHEM_CACTVS_HBOND_DONOR>
0
> <PUBCHEM_CACTVS_ROTATABLE_BOND>
22
> <PUBCHEM_CACTVS_SUBSKEYS>
AAADcfB4MAgAAAAAAAAAAAAAAAAAAAAAAAAAAAAAAAAAAAAAAAAAGhAAAEAADBSgoAJCCAAABAEIAACQCAAAAAAAAAAAAAEAAAAAABIAAAAAAAAEAAAAAAGIyKCAAAAAAAAAAAAAAAAAAAAAAAAAAAAAAA==
> <PUBCHEM_IUPAC_OPENEYE_NAME>
methyl 15-[tert-butyl(dimethyl)silyl]oxyicosanoate
> <PUBCHEM_IUPAC_CAS_NAME>
15-[tert-butyl(dimethyl)silyl]oxyeicosanoic acid methyl ester
> <PUBCHEM_IUPAC_NAME_MARKUP>
methyl 15-[<I>tert</I>-butyl(dimethyl)silyl]oxyicosanoate
> <PUBCHEM_IUPAC_NAME>
methyl 15-[tert-butyl(dimethyl)silyl]oxyicosanoate
> <PUBCHEM_IUPAC_SYSTEMATIC_NAME>
methyl 15-[tert-butyl(dimethyl)silyl]oxyicosanoate
> <PUBCHEM_IUPAC_TRADITIONAL_NAME>
15-[tert-butyl(dimethyl)silyl]oxyarachidic acid methyl ester
> <PUBCHEM_IUPAC_INCHI>
InChI=1S/C27H56O3Si/c1-8-9-19-22-25(30-31(6,7)27(2,3)4)23-20-17-15-13-11-10-12-14-16-18-21-24-26(28)29-5/h25H,8-24H2,1-7H3
> <PUBCHEM_IUPAC_INCHIKEY>
PBZYXVSZVCDKLI-UHFFFAOYSA-N
> <PUBCHEM_EXACT_MASS>
456.39987218
> <PUBCHEM_MOLECULAR_FORMULA>
C27H56O3Si
> <PUBCHEM_MOLECULAR_WEIGHT>
456.8
> <PUBCHEM_OPENEYE_CAN_SMILES>
CCCCCC(CCCCCCCCCCCCCC(=O)OC)O[Si](C)(C)C(C)(C)C
> <PUBCHEM_OPENEYE_ISO_SMILES>
CCCCCC(CCCCCCCCCCCCCC(=O)OC)O[Si](C)(C)C(C)(C)C
> <PUBCHEM_CACTVS_TPSA>
35.5
> <PUBCHEM_MONOISOTOPIC_WEIGHT>
456.39987218
> <PUBCHEM_TOTAL_CHARGE>
0
> <PUBCHEM_HEAVY_ATOM_COUNT>
31
> <PUBCHEM_ATOM_DEF_STEREO_COUNT>
0
> <PUBCHEM_ATOM_UDEF_STEREO_COUNT>
1
> <PUBCHEM_BOND_DEF_STEREO_COUNT>
0
> <PUBCHEM_BOND_UDEF_STEREO_COUNT>
0
> <PUBCHEM_ISOTOPIC_ATOM_COUNT>
0
> <PUBCHEM_COMPONENT_COUNT>
1
> <PUBCHEM_CACTVS_TAUTO_COUNT>
-1
> <PUBCHEM_COORDINATE_TYPE>
1
5
255
> <PUBCHEM_BONDANNOTATIONS>
6  10  3
$$$$
