526836
  -OEChem-10302200292D
 78 77  0     1  0  0  0  0  0999 V2000
   13.2583   -2.0000    0.0000 Si  0  0  0  0  0  0  0  0  0  0  0  0
   12.3923   -2.5000    0.0000 O   0  0  0  0  0  0  0  0  0  0  0  0
    2.8660   -2.0000    0.0000 O   0  0  0  0  0  0  0  0  0  0  0  0
    3.7320   -3.5000    0.0000 O   0  0  0  0  0  0  0  0  0  0  0  0
   14.1244   -1.5000    0.0000 C   0  0  0  0  0  0  0  0  0  0  0  0
   11.5263   -2.0000    0.0000 C   0  0  3  0  0  0  0  0  0  0  0  0
   10.6603   -2.5000    0.0000 C   0  0  0  0  0  0  0  0  0  0  0  0
   11.5263   -1.0000    0.0000 C   0  0  0  0  0  0  0  0  0  0  0  0
   12.7583   -1.1340    0.0000 C   0  0  0  0  0  0  0  0  0  0  0  0
   13.7583   -2.8660    0.0000 C   0  0  0  0  0  0  0  0  0  0  0  0
   14.9904   -1.0000    0.0000 C   0  0  0  0  0  0  0  0  0  0  0  0
   13.6244   -0.6340    0.0000 C   0  0  0  0  0  0  0  0  0  0  0  0
   14.6244   -2.3660    0.0000 C   0  0  0  0  0  0  0  0  0  0  0  0
    9.7942   -2.0000    0.0000 C   0  0  0  0  0  0  0  0  0  0  0  0
   10.6603   -0.5000    0.0000 C   0  0  0  0  0  0  0  0  0  0  0  0
    8.9282   -2.5000    0.0000 C   0  0  0  0  0  0  0  0  0  0  0  0
   10.6603    0.5000    0.0000 C   0  0  0  0  0  0  0  0  0  0  0  0
    8.0622   -2.0000    0.0000 C   0  0  0  0  0  0  0  0  0  0  0  0
    9.7942    1.0000    0.0000 C   0  0  0  0  0  0  0  0  0  0  0  0
    7.1962   -2.5000    0.0000 C   0  0  0  0  0  0  0  0  0  0  0  0
    9.7942    2.0000    0.0000 C   0  0  0  0  0  0  0  0  0  0  0  0
    6.3301   -2.0000    0.0000 C   0  0  0  0  0  0  0  0  0  0  0  0
    8.9282    2.5000    0.0000 C   0  0  0  0  0  0  0  0  0  0  0  0
    5.4641   -2.5000    0.0000 C   0  0  0  0  0  0  0  0  0  0  0  0
    4.5981   -2.0000    0.0000 C   0  0  0  0  0  0  0  0  0  0  0  0
    8.9282    3.5000    0.0000 C   0  0  0  0  0  0  0  0  0  0  0  0
    3.7320   -2.5000    0.0000 C   0  0  0  0  0  0  0  0  0  0  0  0
    2.0000   -2.5000    0.0000 C   0  0  0  0  0  0  0  0  0  0  0  0
   12.0632   -1.6900    0.0000 H   0  0  0  0  0  0  0  0  0  0  0  0
   10.2617   -2.9750    0.0000 H   0  0  0  0  0  0  0  0  0  0  0  0
   11.0588   -2.9750    0.0000 H   0  0  0  0  0  0  0  0  0  0  0  0
   12.1369   -1.1077    0.0000 H   0  0  0  0  0  0  0  0  0  0  0  0
   11.7383   -0.4174    0.0000 H   0  0  0  0  0  0  0  0  0  0  0  0
   13.2953   -0.8240    0.0000 H   0  0  0  0  0  0  0  0  0  0  0  0
   12.4483   -0.5970    0.0000 H   0  0  0  0  0  0  0  0  0  0  0  0
   12.2214   -1.4440    0.0000 H   0  0  0  0  0  0  0  0  0  0  0  0
   13.2214   -3.1760    0.0000 H   0  0  0  0  0  0  0  0  0  0  0  0
   14.0683   -3.4030    0.0000 H   0  0  0  0  0  0  0  0  0  0  0  0
   14.2953   -2.5560    0.0000 H   0  0  0  0  0  0  0  0  0  0  0  0
   15.3004   -1.5369    0.0000 H   0  0  0  0  0  0  0  0  0  0  0  0
   15.5273   -0.6900    0.0000 H   0  0  0  0  0  0  0  0  0  0  0  0
   14.6804   -0.4631    0.0000 H   0  0  0  0  0  0  0  0  0  0  0  0
   14.1613   -0.3240    0.0000 H   0  0  0  0  0  0  0  0  0  0  0  0
   13.3144   -0.0970    0.0000 H   0  0  0  0  0  0  0  0  0  0  0  0
   13.0874   -0.9440    0.0000 H   0  0  0  0  0  0  0  0  0  0  0  0
   14.0874   -2.6760    0.0000 H   0  0  0  0  0  0  0  0  0  0  0  0
   14.9344   -2.9030    0.0000 H   0  0  0  0  0  0  0  0  0  0  0  0
   15.1613   -2.0560    0.0000 H   0  0  0  0  0  0  0  0  0  0  0  0
   10.1928   -1.5250    0.0000 H   0  0  0  0  0  0  0  0  0  0  0  0
    9.3957   -1.5250    0.0000 H   0  0  0  0  0  0  0  0  0  0  0  0
   10.0497   -0.3923    0.0000 H   0  0  0  0  0  0  0  0  0  0  0  0
   10.4482   -1.0826    0.0000 H   0  0  0  0  0  0  0  0  0  0  0  0
    8.5297   -2.9750    0.0000 H   0  0  0  0  0  0  0  0  0  0  0  0
    9.3267   -2.9750    0.0000 H   0  0  0  0  0  0  0  0  0  0  0  0
   11.2708    0.3923    0.0000 H   0  0  0  0  0  0  0  0  0  0  0  0
   10.8723    1.0826    0.0000 H   0  0  0  0  0  0  0  0  0  0  0  0
    8.4607   -1.5250    0.0000 H   0  0  0  0  0  0  0  0  0  0  0  0
    7.6636   -1.5250    0.0000 H   0  0  0  0  0  0  0  0  0  0  0  0
    9.1836    1.1077    0.0000 H   0  0  0  0  0  0  0  0  0  0  0  0
    9.5822    0.4174    0.0000 H   0  0  0  0  0  0  0  0  0  0  0  0
    6.7976   -2.9750    0.0000 H   0  0  0  0  0  0  0  0  0  0  0  0
    7.5947   -2.9750    0.0000 H   0  0  0  0  0  0  0  0  0  0  0  0
   10.4048    1.8923    0.0000 H   0  0  0  0  0  0  0  0  0  0  0  0
   10.0063    2.5826    0.0000 H   0  0  0  0  0  0  0  0  0  0  0  0
    6.7287   -1.5250    0.0000 H   0  0  0  0  0  0  0  0  0  0  0  0
    5.9316   -1.5250    0.0000 H   0  0  0  0  0  0  0  0  0  0  0  0
    8.3176    2.6077    0.0000 H   0  0  0  0  0  0  0  0  0  0  0  0
    8.7162    1.9174    0.0000 H   0  0  0  0  0  0  0  0  0  0  0  0
    5.0656   -2.9750    0.0000 H   0  0  0  0  0  0  0  0  0  0  0  0
    5.8626   -2.9750    0.0000 H   0  0  0  0  0  0  0  0  0  0  0  0
    4.9966   -1.5250    0.0000 H   0  0  0  0  0  0  0  0  0  0  0  0
    4.1996   -1.5250    0.0000 H   0  0  0  0  0  0  0  0  0  0  0  0
    9.5482    3.5000    0.0000 H   0  0  0  0  0  0  0  0  0  0  0  0
    8.9282    4.1200    0.0000 H   0  0  0  0  0  0  0  0  0  0  0  0
    8.3082    3.5000    0.0000 H   0  0  0  0  0  0  0  0  0  0  0  0
    1.6900   -1.9631    0.0000 H   0  0  0  0  0  0  0  0  0  0  0  0
    1.4631   -2.8100    0.0000 H   0  0  0  0  0  0  0  0  0  0  0  0
    2.3100   -3.0369    0.0000 H   0  0  0  0  0  0  0  0  0  0  0  0
  1  2  1  0  0  0  0
  1  5  1  0  0  0  0
  1  9  1  0  0  0  0
  1 10  1  0  0  0  0
  2  6  1  0  0  0  0
  3 27  1  0  0  0  0
  3 28  1  0  0  0  0
  4 27  2  0  0  0  0
  5 11  1  0  0  0  0
  5 12  1  0  0  0  0
  5 13  1  0  0  0  0
  6  7  1  0  0  0  0
  6  8  1  0  0  0  0
  6 29  1  0  0  0  0
  7 14  1  0  0  0  0
  7 30  1  0  0  0  0
  7 31  1  0  0  0  0
  8 15  1  0  0  0  0
  8 32  1  0  0  0  0
  8 33  1  0  0  0  0
  9 34  1  0  0  0  0
  9 35  1  0  0  0  0
  9 36  1  0  0  0  0
 10 37  1  0  0  0  0
 10 38  1  0  0  0  0
 10 39  1  0  0  0  0
 11 40  1  0  0  0  0
 11 41  1  0  0  0  0
 11 42  1  0  0  0  0
 12 43  1  0  0  0  0
 12 44  1  0  0  0  0
 12 45  1  0  0  0  0
 13 46  1  0  0  0  0
 13 47  1  0  0  0  0
 13 48  1  0  0  0  0
 14 16  1  0  0  0  0
 14 49  1  0  0  0  0
 14 50  1  0  0  0  0
 15 17  1  0  0  0  0
 15 51  1  0  0  0  0
 15 52  1  0  0  0  0
 16 18  1  0  0  0  0
 16 53  1  0  0  0  0
 16 54  1  0  0  0  0
 17 19  1  0  0  0  0
 17 55  1  0  0  0  0
 17 56  1  0  0  0  0
 18 20  1  0  0  0  0
 18 57  1  0  0  0  0
 18 58  1  0  0  0  0
 19 21  1  0  0  0  0
 19 59  1  0  0  0  0
 19 60  1  0  0  0  0
 20 22  1  0  0  0  0
 20 61  1  0  0  0  0
 20 62  1  0  0  0  0
 21 23  1  0  0  0  0
 21 63  1  0  0  0  0
 21 64  1  0  0  0  0
 22 24  1  0  0  0  0
 22 65  1  0  0  0  0
 22 66  1  0  0  0  0
 23 26  1  0  0  0  0
 23 67  1  0  0  0  0
 23 68  1  0  0  0  0
 24 25  1  0  0  0  0
 24 69  1  0  0  0  0
 24 70  1  0  0  0  0
 25 27  1  0  0  0  0
 25 71  1  0  0  0  0
 25 72  1  0  0  0  0
 26 73  1  0  0  0  0
 26 74  1  0  0  0  0
 26 75  1  0  0  0  0
 28 76  1  0  0  0  0
 28 77  1  0  0  0  0
 28 78  1  0  0  0  0
M  END
> <PUBCHEM_COMPOUND_CID>
526836
> <PUBCHEM_COMPOUND_CANONICALIZED>
1
> <PUBCHEM_CACTVS_COMPLEXITY>
388
> <PUBCHEM_CACTVS_HBOND_ACCEPTOR>
3
> <PUBCHEM_CACTVS_HBOND_DONOR>
0
> <PUBCHEM_CACTVS_ROTATABLE_BOND>
19
> <PUBCHEM_CACTVS_SUBSKEYS>
AAADcfB4MAgAAAAAAAAAAAAAAAAAAAAAAAAAAAAAAAAAAAAAAAAAGhAAAEAADBSgoAJCCAAABAEIAACQCAAAAAAAAAAAAAEAAAAAABIAAAAAAAAEAAAAAAGIyKCAAAAAAAAAAAAAAAAAAAAAAAAAAAAAAA==
> <PUBCHEM_IUPAC_OPENEYE_NAME>
methyl 10-[tert-butyl(dimethyl)silyl]oxyheptadecanoate
> <PUBCHEM_IUPAC_CAS_NAME>
10-[tert-butyl(dimethyl)silyl]oxyheptadecanoic acid methyl ester
> <PUBCHEM_IUPAC_NAME_MARKUP>
methyl 10-[<I>tert</I>-butyl(dimethyl)silyl]oxyheptadecanoate
> <PUBCHEM_IUPAC_NAME>
methyl 10-[tert-butyl(dimethyl)silyl]oxyheptadecanoate
> <PUBCHEM_IUPAC_SYSTEMATIC_NAME>
methyl 10-[tert-butyl(dimethyl)silyl]oxyheptadecanoate
> <PUBCHEM_IUPAC_TRADITIONAL_NAME>
10-[tert-butyl(dimethyl)silyl]oxyheptadecanoic acid methyl ester
> <PUBCHEM_IUPAC_INCHI>
InChI=1S/C24H50O3Si/c1-8-9-10-13-16-19-22(27-28(6,7)24(2,3)4)20-17-14-11-12-15-18-21-23(25)26-5/h22H,8-21H2,1-7H3
> <PUBCHEM_IUPAC_INCHIKEY>
NQHGHQGRJSFAKX-UHFFFAOYSA-N
> <PUBCHEM_EXACT_MASS>
414.35292199
> <PUBCHEM_MOLECULAR_FORMULA>
C24H50O3Si
> <PUBCHEM_MOLECULAR_WEIGHT>
414.7
> <PUBCHEM_OPENEYE_CAN_SMILES>
CCCCCCCC(CCCCCCCCC(=O)OC)O[Si](C)(C)C(C)(C)C
> <PUBCHEM_OPENEYE_ISO_SMILES>
CCCCCCCC(CCCCCCCCC(=O)OC)O[Si](C)(C)C(C)(C)C
> <PUBCHEM_CACTVS_TPSA>
35.5
> <PUBCHEM_MONOISOTOPIC_WEIGHT>
414.35292199
> <PUBCHEM_TOTAL_CHARGE>
0
> <PUBCHEM_HEAVY_ATOM_COUNT>
28
> <PUBCHEM_ATOM_DEF_STEREO_COUNT>
0
> <PUBCHEM_ATOM_UDEF_STEREO_COUNT>
1
> <PUBCHEM_BOND_DEF_STEREO_COUNT>
0
> <PUBCHEM_BOND_UDEF_STEREO_COUNT>
0
> <PUBCHEM_ISOTOPIC_ATOM_COUNT>
0
> <PUBCHEM_COMPONENT_COUNT>
1
> <PUBCHEM_CACTVS_TAUTO_COUNT>
-1
> <PUBCHEM_COORDINATE_TYPE>
1
5
255
> <PUBCHEM_BONDANNOTATIONS>
6  8  3
$$$$
