526821
  -OEChem-10302200292D
 78 77  0     1  0  0  0  0  0999 V2000
   15.8564   -1.0670    0.0000 Si  0  0  0  0  0  0  0  0  0  0  0  0
   14.9904   -1.5670    0.0000 O   0  0  0  0  0  0  0  0  0  0  0  0
    2.8660   -1.5670    0.0000 O   0  0  0  0  0  0  0  0  0  0  0  0
    3.7320   -0.0670    0.0000 O   0  0  0  0  0  0  0  0  0  0  0  0
   16.7224   -0.5670    0.0000 C   0  0  0  0  0  0  0  0  0  0  0  0
   14.1244   -1.0670    0.0000 C   0  0  3  0  0  0  0  0  0  0  0  0
   13.2583   -1.5670    0.0000 C   0  0  0  0  0  0  0  0  0  0  0  0
   15.3564   -0.2010    0.0000 C   0  0  0  0  0  0  0  0  0  0  0  0
   16.3564   -1.9330    0.0000 C   0  0  0  0  0  0  0  0  0  0  0  0
   17.5885   -0.0670    0.0000 C   0  0  0  0  0  0  0  0  0  0  0  0
   16.2224    0.2990    0.0000 C   0  0  0  0  0  0  0  0  0  0  0  0
   17.2224   -1.4330    0.0000 C   0  0  0  0  0  0  0  0  0  0  0  0
   14.1244   -0.0670    0.0000 C   0  0  0  0  0  0  0  0  0  0  0  0
   12.3923   -1.0670    0.0000 C   0  0  0  0  0  0  0  0  0  0  0  0
   11.5263   -1.5670    0.0000 C   0  0  0  0  0  0  0  0  0  0  0  0
   13.2583    0.4330    0.0000 C   0  0  0  0  0  0  0  0  0  0  0  0
   10.6603   -1.0670    0.0000 C   0  0  0  0  0  0  0  0  0  0  0  0
    9.7942   -1.5670    0.0000 C   0  0  0  0  0  0  0  0  0  0  0  0
   13.2583    1.4330    0.0000 C   0  0  0  0  0  0  0  0  0  0  0  0
    8.9282   -1.0670    0.0000 C   0  0  0  0  0  0  0  0  0  0  0  0
    8.0622   -1.5670    0.0000 C   0  0  0  0  0  0  0  0  0  0  0  0
    7.1962   -1.0670    0.0000 C   0  0  0  0  0  0  0  0  0  0  0  0
   12.3923    1.9330    0.0000 C   0  0  0  0  0  0  0  0  0  0  0  0
    6.3301   -1.5670    0.0000 C   0  0  0  0  0  0  0  0  0  0  0  0
    5.4641   -1.0670    0.0000 C   0  0  0  0  0  0  0  0  0  0  0  0
    4.5981   -1.5670    0.0000 C   0  0  0  0  0  0  0  0  0  0  0  0
    3.7320   -1.0670    0.0000 C   0  0  0  0  0  0  0  0  0  0  0  0
    2.0000   -1.0670    0.0000 C   0  0  0  0  0  0  0  0  0  0  0  0
   14.1244   -1.6870    0.0000 H   0  0  0  0  0  0  0  0  0  0  0  0
   12.8598   -2.0419    0.0000 H   0  0  0  0  0  0  0  0  0  0  0  0
   13.6569   -2.0419    0.0000 H   0  0  0  0  0  0  0  0  0  0  0  0
   15.8933    0.1090    0.0000 H   0  0  0  0  0  0  0  0  0  0  0  0
   15.0464    0.3360    0.0000 H   0  0  0  0  0  0  0  0  0  0  0  0
   14.8195   -0.5110    0.0000 H   0  0  0  0  0  0  0  0  0  0  0  0
   15.8195   -2.2430    0.0000 H   0  0  0  0  0  0  0  0  0  0  0  0
   16.6664   -2.4700    0.0000 H   0  0  0  0  0  0  0  0  0  0  0  0
   16.8933   -1.6230    0.0000 H   0  0  0  0  0  0  0  0  0  0  0  0
   17.8985   -0.6039    0.0000 H   0  0  0  0  0  0  0  0  0  0  0  0
   18.1254    0.2430    0.0000 H   0  0  0  0  0  0  0  0  0  0  0  0
   17.2785    0.4699    0.0000 H   0  0  0  0  0  0  0  0  0  0  0  0
   16.7594    0.6090    0.0000 H   0  0  0  0  0  0  0  0  0  0  0  0
   15.9124    0.8360    0.0000 H   0  0  0  0  0  0  0  0  0  0  0  0
   15.6855   -0.0110    0.0000 H   0  0  0  0  0  0  0  0  0  0  0  0
   16.6855   -1.7430    0.0000 H   0  0  0  0  0  0  0  0  0  0  0  0
   17.5324   -1.9700    0.0000 H   0  0  0  0  0  0  0  0  0  0  0  0
   17.7594   -1.1230    0.0000 H   0  0  0  0  0  0  0  0  0  0  0  0
   14.7349   -0.1746    0.0000 H   0  0  0  0  0  0  0  0  0  0  0  0
   14.3364    0.5156    0.0000 H   0  0  0  0  0  0  0  0  0  0  0  0
   12.7908   -0.5920    0.0000 H   0  0  0  0  0  0  0  0  0  0  0  0
   11.9938   -0.5920    0.0000 H   0  0  0  0  0  0  0  0  0  0  0  0
   11.1278   -2.0419    0.0000 H   0  0  0  0  0  0  0  0  0  0  0  0
   11.9248   -2.0419    0.0000 H   0  0  0  0  0  0  0  0  0  0  0  0
   12.6477    0.5407    0.0000 H   0  0  0  0  0  0  0  0  0  0  0  0
   13.0463   -0.1496    0.0000 H   0  0  0  0  0  0  0  0  0  0  0  0
   11.0588   -0.5920    0.0000 H   0  0  0  0  0  0  0  0  0  0  0  0
   10.2617   -0.5920    0.0000 H   0  0  0  0  0  0  0  0  0  0  0  0
    9.3957   -2.0419    0.0000 H   0  0  0  0  0  0  0  0  0  0  0  0
   10.1928   -2.0419    0.0000 H   0  0  0  0  0  0  0  0  0  0  0  0
   13.8689    1.3254    0.0000 H   0  0  0  0  0  0  0  0  0  0  0  0
   13.4704    2.0156    0.0000 H   0  0  0  0  0  0  0  0  0  0  0  0
    9.3267   -0.5920    0.0000 H   0  0  0  0  0  0  0  0  0  0  0  0
    8.5297   -0.5920    0.0000 H   0  0  0  0  0  0  0  0  0  0  0  0
    7.6636   -2.0419    0.0000 H   0  0  0  0  0  0  0  0  0  0  0  0
    8.4607   -2.0419    0.0000 H   0  0  0  0  0  0  0  0  0  0  0  0
    7.5947   -0.5920    0.0000 H   0  0  0  0  0  0  0  0  0  0  0  0
    6.7976   -0.5920    0.0000 H   0  0  0  0  0  0  0  0  0  0  0  0
   12.7023    2.4700    0.0000 H   0  0  0  0  0  0  0  0  0  0  0  0
   11.8554    2.2430    0.0000 H   0  0  0  0  0  0  0  0  0  0  0  0
   12.0823    1.3961    0.0000 H   0  0  0  0  0  0  0  0  0  0  0  0
    5.9316   -2.0419    0.0000 H   0  0  0  0  0  0  0  0  0  0  0  0
    6.7287   -2.0419    0.0000 H   0  0  0  0  0  0  0  0  0  0  0  0
    5.8626   -0.5920    0.0000 H   0  0  0  0  0  0  0  0  0  0  0  0
    5.0656   -0.5920    0.0000 H   0  0  0  0  0  0  0  0  0  0  0  0
    4.1996   -2.0419    0.0000 H   0  0  0  0  0  0  0  0  0  0  0  0
    4.9966   -2.0419    0.0000 H   0  0  0  0  0  0  0  0  0  0  0  0
    2.3100   -0.5301    0.0000 H   0  0  0  0  0  0  0  0  0  0  0  0
    1.4631   -0.7570    0.0000 H   0  0  0  0  0  0  0  0  0  0  0  0
    1.6900   -1.6039    0.0000 H   0  0  0  0  0  0  0  0  0  0  0  0
  1  2  1  0  0  0  0
  1  5  1  0  0  0  0
  1  8  1  0  0  0  0
  1  9  1  0  0  0  0
  2  6  1  0  0  0  0
  3 27  1  0  0  0  0
  3 28  1  0  0  0  0
  4 27  2  0  0  0  0
  5 10  1  0  0  0  0
  5 11  1  0  0  0  0
  5 12  1  0  0  0  0
  6  7  1  0  0  0  0
  6 13  1  0  0  0  0
  6 29  1  0  0  0  0
  7 14  1  0  0  0  0
  7 30  1  0  0  0  0
  7 31  1  0  0  0  0
  8 32  1  0  0  0  0
  8 33  1  0  0  0  0
  8 34  1  0  0  0  0
  9 35  1  0  0  0  0
  9 36  1  0  0  0  0
  9 37  1  0  0  0  0
 10 38  1  0  0  0  0
 10 39  1  0  0  0  0
 10 40  1  0  0  0  0
 11 41  1  0  0  0  0
 11 42  1  0  0  0  0
 11 43  1  0  0  0  0
 12 44  1  0  0  0  0
 12 45  1  0  0  0  0
 12 46  1  0  0  0  0
 13 16  1  0  0  0  0
 13 47  1  0  0  0  0
 13 48  1  0  0  0  0
 14 15  1  0  0  0  0
 14 49  1  0  0  0  0
 14 50  1  0  0  0  0
 15 17  1  0  0  0  0
 15 51  1  0  0  0  0
 15 52  1  0  0  0  0
 16 19  1  0  0  0  0
 16 53  1  0  0  0  0
 16 54  1  0  0  0  0
 17 18  1  0  0  0  0
 17 55  1  0  0  0  0
 17 56  1  0  0  0  0
 18 20  1  0  0  0  0
 18 57  1  0  0  0  0
 18 58  1  0  0  0  0
 19 23  1  0  0  0  0
 19 59  1  0  0  0  0
 19 60  1  0  0  0  0
 20 21  1  0  0  0  0
 20 61  1  0  0  0  0
 20 62  1  0  0  0  0
 21 22  1  0  0  0  0
 21 63  1  0  0  0  0
 21 64  1  0  0  0  0
 22 24  1  0  0  0  0
 22 65  1  0  0  0  0
 22 66  1  0  0  0  0
 23 67  1  0  0  0  0
 23 68  1  0  0  0  0
 23 69  1  0  0  0  0
 24 25  1  0  0  0  0
 24 70  1  0  0  0  0
 24 71  1  0  0  0  0
 25 26  1  0  0  0  0
 25 72  1  0  0  0  0
 25 73  1  0  0  0  0
 26 27  1  0  0  0  0
 26 74  1  0  0  0  0
 26 75  1  0  0  0  0
 28 76  1  0  0  0  0
 28 77  1  0  0  0  0
 28 78  1  0  0  0  0
M  END
> <PUBCHEM_COMPOUND_CID>
526821
> <PUBCHEM_COMPOUND_CANONICALIZED>
1
> <PUBCHEM_CACTVS_COMPLEXITY>
388
> <PUBCHEM_CACTVS_HBOND_ACCEPTOR>
3
> <PUBCHEM_CACTVS_HBOND_DONOR>
0
> <PUBCHEM_CACTVS_ROTATABLE_BOND>
19
> <PUBCHEM_CACTVS_SUBSKEYS>
AAADcfB4MAgAAAAAAAAAAAAAAAAAAAAAAAAAAAAAAAAAAAAAAAAAGhAAAEAADBSgoAJCCAAABAEIAACQCAAAAAAAAAAAAAEAAAAAABIAAAAAAAAEAAAAAAGIyKCAAAAAAAAAAAAAAAAAAAAAAAAAAAAAAA==
> <PUBCHEM_IUPAC_OPENEYE_NAME>
methyl 13-[tert-butyl(dimethyl)silyl]oxyheptadecanoate
> <PUBCHEM_IUPAC_CAS_NAME>
13-[tert-butyl(dimethyl)silyl]oxyheptadecanoic acid methyl ester
> <PUBCHEM_IUPAC_NAME_MARKUP>
methyl 13-[<I>tert</I>-butyl(dimethyl)silyl]oxyheptadecanoate
> <PUBCHEM_IUPAC_NAME>
methyl 13-[tert-butyl(dimethyl)silyl]oxyheptadecanoate
> <PUBCHEM_IUPAC_SYSTEMATIC_NAME>
methyl 13-[tert-butyl(dimethyl)silyl]oxyheptadecanoate
> <PUBCHEM_IUPAC_TRADITIONAL_NAME>
13-[tert-butyl(dimethyl)silyl]oxyheptadecanoic acid methyl ester
> <PUBCHEM_IUPAC_INCHI>
InChI=1S/C24H50O3Si/c1-8-9-19-22(27-28(6,7)24(2,3)4)20-17-15-13-11-10-12-14-16-18-21-23(25)26-5/h22H,8-21H2,1-7H3
> <PUBCHEM_IUPAC_INCHIKEY>
CBULPDBFELPIJR-UHFFFAOYSA-N
> <PUBCHEM_EXACT_MASS>
414.35292199
> <PUBCHEM_MOLECULAR_FORMULA>
C24H50O3Si
> <PUBCHEM_MOLECULAR_WEIGHT>
414.7
> <PUBCHEM_OPENEYE_CAN_SMILES>
CCCCC(CCCCCCCCCCCC(=O)OC)O[Si](C)(C)C(C)(C)C
> <PUBCHEM_OPENEYE_ISO_SMILES>
CCCCC(CCCCCCCCCCCC(=O)OC)O[Si](C)(C)C(C)(C)C
> <PUBCHEM_CACTVS_TPSA>
35.5
> <PUBCHEM_MONOISOTOPIC_WEIGHT>
414.35292199
> <PUBCHEM_TOTAL_CHARGE>
0
> <PUBCHEM_HEAVY_ATOM_COUNT>
28
> <PUBCHEM_ATOM_DEF_STEREO_COUNT>
0
> <PUBCHEM_ATOM_UDEF_STEREO_COUNT>
1
> <PUBCHEM_BOND_DEF_STEREO_COUNT>
0
> <PUBCHEM_BOND_UDEF_STEREO_COUNT>
0
> <PUBCHEM_ISOTOPIC_ATOM_COUNT>
0
> <PUBCHEM_COMPONENT_COUNT>
1
> <PUBCHEM_CACTVS_TAUTO_COUNT>
-1
> <PUBCHEM_COORDINATE_TYPE>
1
5
255
> <PUBCHEM_BONDANNOTATIONS>
6  13  3
$$$$
