526839
  -OEChem-10302200292D
 81 80  0     1  0  0  0  0  0999 V2000
   14.1244   -2.3170    0.0000 Si  0  0  0  0  0  0  0  0  0  0  0  0
   13.2583   -2.8170    0.0000 O   0  0  0  0  0  0  0  0  0  0  0  0
    2.8660   -2.8170    0.0000 O   0  0  0  0  0  0  0  0  0  0  0  0
    3.7320   -1.3170    0.0000 O   0  0  0  0  0  0  0  0  0  0  0  0
   14.9904   -1.8170    0.0000 C   0  0  0  0  0  0  0  0  0  0  0  0
   12.3923   -2.3170    0.0000 C   0  0  3  0  0  0  0  0  0  0  0  0
   11.5263   -2.8170    0.0000 C   0  0  0  0  0  0  0  0  0  0  0  0
   12.3923   -1.3170    0.0000 C   0  0  0  0  0  0  0  0  0  0  0  0
   13.6244   -1.4510    0.0000 C   0  0  0  0  0  0  0  0  0  0  0  0
   14.6244   -3.1830    0.0000 C   0  0  0  0  0  0  0  0  0  0  0  0
   15.8564   -1.3170    0.0000 C   0  0  0  0  0  0  0  0  0  0  0  0
   14.4904   -0.9510    0.0000 C   0  0  0  0  0  0  0  0  0  0  0  0
   15.4904   -2.6830    0.0000 C   0  0  0  0  0  0  0  0  0  0  0  0
   10.6603   -2.3170    0.0000 C   0  0  0  0  0  0  0  0  0  0  0  0
   11.5263   -0.8170    0.0000 C   0  0  0  0  0  0  0  0  0  0  0  0
    9.7942   -2.8170    0.0000 C   0  0  0  0  0  0  0  0  0  0  0  0
   11.5263    0.1830    0.0000 C   0  0  0  0  0  0  0  0  0  0  0  0
    8.9282   -2.3170    0.0000 C   0  0  0  0  0  0  0  0  0  0  0  0
   10.6603    0.6830    0.0000 C   0  0  0  0  0  0  0  0  0  0  0  0
    8.0622   -2.8170    0.0000 C   0  0  0  0  0  0  0  0  0  0  0  0
    7.1962   -2.3170    0.0000 C   0  0  0  0  0  0  0  0  0  0  0  0
   10.6603    1.6830    0.0000 C   0  0  0  0  0  0  0  0  0  0  0  0
    6.3301   -2.8170    0.0000 C   0  0  0  0  0  0  0  0  0  0  0  0
    9.7942    2.1830    0.0000 C   0  0  0  0  0  0  0  0  0  0  0  0
    5.4641   -2.3170    0.0000 C   0  0  0  0  0  0  0  0  0  0  0  0
    9.7942    3.1830    0.0000 C   0  0  0  0  0  0  0  0  0  0  0  0
    4.5981   -2.8170    0.0000 C   0  0  0  0  0  0  0  0  0  0  0  0
    3.7320   -2.3170    0.0000 C   0  0  0  0  0  0  0  0  0  0  0  0
    2.0000   -2.3170    0.0000 C   0  0  0  0  0  0  0  0  0  0  0  0
   12.3923   -2.9370    0.0000 H   0  0  0  0  0  0  0  0  0  0  0  0
   11.1278   -3.2919    0.0000 H   0  0  0  0  0  0  0  0  0  0  0  0
   11.9248   -3.2919    0.0000 H   0  0  0  0  0  0  0  0  0  0  0  0
   13.0029   -1.4246    0.0000 H   0  0  0  0  0  0  0  0  0  0  0  0
   12.6044   -0.7344    0.0000 H   0  0  0  0  0  0  0  0  0  0  0  0
   14.1613   -1.1410    0.0000 H   0  0  0  0  0  0  0  0  0  0  0  0
   13.3144   -0.9140    0.0000 H   0  0  0  0  0  0  0  0  0  0  0  0
   13.0874   -1.7610    0.0000 H   0  0  0  0  0  0  0  0  0  0  0  0
   14.0874   -3.4930    0.0000 H   0  0  0  0  0  0  0  0  0  0  0  0
   14.9344   -3.7200    0.0000 H   0  0  0  0  0  0  0  0  0  0  0  0
   15.1613   -2.8730    0.0000 H   0  0  0  0  0  0  0  0  0  0  0  0
   16.1664   -1.8539    0.0000 H   0  0  0  0  0  0  0  0  0  0  0  0
   16.3933   -1.0070    0.0000 H   0  0  0  0  0  0  0  0  0  0  0  0
   15.5464   -0.7801    0.0000 H   0  0  0  0  0  0  0  0  0  0  0  0
   15.0273   -0.6410    0.0000 H   0  0  0  0  0  0  0  0  0  0  0  0
   14.1804   -0.4140    0.0000 H   0  0  0  0  0  0  0  0  0  0  0  0
   13.9534   -1.2610    0.0000 H   0  0  0  0  0  0  0  0  0  0  0  0
   14.9534   -2.9930    0.0000 H   0  0  0  0  0  0  0  0  0  0  0  0
   15.8004   -3.2200    0.0000 H   0  0  0  0  0  0  0  0  0  0  0  0
   16.0273   -2.3730    0.0000 H   0  0  0  0  0  0  0  0  0  0  0  0
   11.0588   -1.8420    0.0000 H   0  0  0  0  0  0  0  0  0  0  0  0
   10.2617   -1.8420    0.0000 H   0  0  0  0  0  0  0  0  0  0  0  0
   10.9157   -0.7093    0.0000 H   0  0  0  0  0  0  0  0  0  0  0  0
   11.3142   -1.3996    0.0000 H   0  0  0  0  0  0  0  0  0  0  0  0
    9.3957   -3.2919    0.0000 H   0  0  0  0  0  0  0  0  0  0  0  0
   10.1928   -3.2919    0.0000 H   0  0  0  0  0  0  0  0  0  0  0  0
   12.1369    0.0754    0.0000 H   0  0  0  0  0  0  0  0  0  0  0  0
   11.7383    0.7656    0.0000 H   0  0  0  0  0  0  0  0  0  0  0  0
    9.3267   -1.8420    0.0000 H   0  0  0  0  0  0  0  0  0  0  0  0
    8.5297   -1.8420    0.0000 H   0  0  0  0  0  0  0  0  0  0  0  0
   10.0497    0.7907    0.0000 H   0  0  0  0  0  0  0  0  0  0  0  0
   10.4482    0.1004    0.0000 H   0  0  0  0  0  0  0  0  0  0  0  0
    7.6636   -3.2919    0.0000 H   0  0  0  0  0  0  0  0  0  0  0  0
    8.4607   -3.2919    0.0000 H   0  0  0  0  0  0  0  0  0  0  0  0
    7.5947   -1.8420    0.0000 H   0  0  0  0  0  0  0  0  0  0  0  0
    6.7976   -1.8420    0.0000 H   0  0  0  0  0  0  0  0  0  0  0  0
   11.2708    1.5754    0.0000 H   0  0  0  0  0  0  0  0  0  0  0  0
   10.8723    2.2656    0.0000 H   0  0  0  0  0  0  0  0  0  0  0  0
    5.9316   -3.2919    0.0000 H   0  0  0  0  0  0  0  0  0  0  0  0
    6.7287   -3.2919    0.0000 H   0  0  0  0  0  0  0  0  0  0  0  0
    9.1836    2.2907    0.0000 H   0  0  0  0  0  0  0  0  0  0  0  0
    9.5822    1.6004    0.0000 H   0  0  0  0  0  0  0  0  0  0  0  0
    5.8626   -1.8420    0.0000 H   0  0  0  0  0  0  0  0  0  0  0  0
    5.0656   -1.8420    0.0000 H   0  0  0  0  0  0  0  0  0  0  0  0
   10.4142    3.1830    0.0000 H   0  0  0  0  0  0  0  0  0  0  0  0
    9.7942    3.8030    0.0000 H   0  0  0  0  0  0  0  0  0  0  0  0
    9.1742    3.1830    0.0000 H   0  0  0  0  0  0  0  0  0  0  0  0
    4.1996   -3.2919    0.0000 H   0  0  0  0  0  0  0  0  0  0  0  0
    4.9966   -3.2919    0.0000 H   0  0  0  0  0  0  0  0  0  0  0  0
    2.3100   -1.7800    0.0000 H   0  0  0  0  0  0  0  0  0  0  0  0
    1.4631   -2.0070    0.0000 H   0  0  0  0  0  0  0  0  0  0  0  0
    1.6900   -2.8539    0.0000 H   0  0  0  0  0  0  0  0  0  0  0  0
  1  2  1  0  0  0  0
  1  5  1  0  0  0  0
  1  9  1  0  0  0  0
  1 10  1  0  0  0  0
  2  6  1  0  0  0  0
  3 28  1  0  0  0  0
  3 29  1  0  0  0  0
  4 28  2  0  0  0  0
  5 11  1  0  0  0  0
  5 12  1  0  0  0  0
  5 13  1  0  0  0  0
  6  7  1  0  0  0  0
  6  8  1  0  0  0  0
  6 30  1  0  0  0  0
  7 14  1  0  0  0  0
  7 31  1  0  0  0  0
  7 32  1  0  0  0  0
  8 15  1  0  0  0  0
  8 33  1  0  0  0  0
  8 34  1  0  0  0  0
  9 35  1  0  0  0  0
  9 36  1  0  0  0  0
  9 37  1  0  0  0  0
 10 38  1  0  0  0  0
 10 39  1  0  0  0  0
 10 40  1  0  0  0  0
 11 41  1  0  0  0  0
 11 42  1  0  0  0  0
 11 43  1  0  0  0  0
 12 44  1  0  0  0  0
 12 45  1  0  0  0  0
 12 46  1  0  0  0  0
 13 47  1  0  0  0  0
 13 48  1  0  0  0  0
 13 49  1  0  0  0  0
 14 16  1  0  0  0  0
 14 50  1  0  0  0  0
 14 51  1  0  0  0  0
 15 17  1  0  0  0  0
 15 52  1  0  0  0  0
 15 53  1  0  0  0  0
 16 18  1  0  0  0  0
 16 54  1  0  0  0  0
 16 55  1  0  0  0  0
 17 19  1  0  0  0  0
 17 56  1  0  0  0  0
 17 57  1  0  0  0  0
 18 20  1  0  0  0  0
 18 58  1  0  0  0  0
 18 59  1  0  0  0  0
 19 22  1  0  0  0  0
 19 60  1  0  0  0  0
 19 61  1  0  0  0  0
 20 21  1  0  0  0  0
 20 62  1  0  0  0  0
 20 63  1  0  0  0  0
 21 23  1  0  0  0  0
 21 64  1  0  0  0  0
 21 65  1  0  0  0  0
 22 24  1  0  0  0  0
 22 66  1  0  0  0  0
 22 67  1  0  0  0  0
 23 25  1  0  0  0  0
 23 68  1  0  0  0  0
 23 69  1  0  0  0  0
 24 26  1  0  0  0  0
 24 70  1  0  0  0  0
 24 71  1  0  0  0  0
 25 27  1  0  0  0  0
 25 72  1  0  0  0  0
 25 73  1  0  0  0  0
 26 74  1  0  0  0  0
 26 75  1  0  0  0  0
 26 76  1  0  0  0  0
 27 28  1  0  0  0  0
 27 77  1  0  0  0  0
 27 78  1  0  0  0  0
 29 79  1  0  0  0  0
 29 80  1  0  0  0  0
 29 81  1  0  0  0  0
M  END
> <PUBCHEM_COMPOUND_CID>
526839
> <PUBCHEM_COMPOUND_CANONICALIZED>
1
> <PUBCHEM_CACTVS_COMPLEXITY>
401
> <PUBCHEM_CACTVS_HBOND_ACCEPTOR>
3
> <PUBCHEM_CACTVS_HBOND_DONOR>
0
> <PUBCHEM_CACTVS_ROTATABLE_BOND>
20
> <PUBCHEM_CACTVS_SUBSKEYS>
AAADcfB4MAgAAAAAAAAAAAAAAAAAAAAAAAAAAAAAAAAAAAAAAAAAGhAAAEAADBSgoAJCCAAABAEIAACQCAAAAAAAAAAAAAEAAAAAABIAAAAAAAAEAAAAAAGIyKCAAAAAAAAAAAAAAAAAAAAAAAAAAAAAAA==
> <PUBCHEM_IUPAC_OPENEYE_NAME>
methyl 11-[tert-butyl(dimethyl)silyl]oxyoctadecanoate
> <PUBCHEM_IUPAC_CAS_NAME>
11-[tert-butyl(dimethyl)silyl]oxyoctadecanoic acid methyl ester
> <PUBCHEM_IUPAC_NAME_MARKUP>
methyl 11-[<I>tert</I>-butyl(dimethyl)silyl]oxyoctadecanoate
> <PUBCHEM_IUPAC_NAME>
methyl 11-[tert-butyl(dimethyl)silyl]oxyoctadecanoate
> <PUBCHEM_IUPAC_SYSTEMATIC_NAME>
methyl 11-[tert-butyl(dimethyl)silyl]oxyoctadecanoate
> <PUBCHEM_IUPAC_TRADITIONAL_NAME>
11-[tert-butyl(dimethyl)silyl]oxystearic acid methyl ester
> <PUBCHEM_IUPAC_INCHI>
InChI=1S/C25H52O3Si/c1-8-9-10-14-17-20-23(28-29(6,7)25(2,3)4)21-18-15-12-11-13-16-19-22-24(26)27-5/h23H,8-22H2,1-7H3
> <PUBCHEM_IUPAC_INCHIKEY>
NVGFBGUWUAGFMA-UHFFFAOYSA-N
> <PUBCHEM_EXACT_MASS>
428.36857205
> <PUBCHEM_MOLECULAR_FORMULA>
C25H52O3Si
> <PUBCHEM_MOLECULAR_WEIGHT>
428.8
> <PUBCHEM_OPENEYE_CAN_SMILES>
CCCCCCCC(CCCCCCCCCC(=O)OC)O[Si](C)(C)C(C)(C)C
> <PUBCHEM_OPENEYE_ISO_SMILES>
CCCCCCCC(CCCCCCCCCC(=O)OC)O[Si](C)(C)C(C)(C)C
> <PUBCHEM_CACTVS_TPSA>
35.5
> <PUBCHEM_MONOISOTOPIC_WEIGHT>
428.36857205
> <PUBCHEM_TOTAL_CHARGE>
0
> <PUBCHEM_HEAVY_ATOM_COUNT>
29
> <PUBCHEM_ATOM_DEF_STEREO_COUNT>
0
> <PUBCHEM_ATOM_UDEF_STEREO_COUNT>
1
> <PUBCHEM_BOND_DEF_STEREO_COUNT>
0
> <PUBCHEM_BOND_UDEF_STEREO_COUNT>
0
> <PUBCHEM_ISOTOPIC_ATOM_COUNT>
0
> <PUBCHEM_COMPONENT_COUNT>
1
> <PUBCHEM_CACTVS_TAUTO_COUNT>
-1
> <PUBCHEM_COORDINATE_TYPE>
1
5
255
> <PUBCHEM_BONDANNOTATIONS>
6  8  3
$$$$
