526838
  -OEChem-10302200292D
 75 74  0     1  0  0  0  0  0999 V2000
   12.3923   -2.3170    0.0000 Si  0  0  0  0  0  0  0  0  0  0  0  0
   11.5263   -2.8170    0.0000 O   0  0  0  0  0  0  0  0  0  0  0  0
    2.8660   -2.8170    0.0000 O   0  0  0  0  0  0  0  0  0  0  0  0
    3.7320   -1.3170    0.0000 O   0  0  0  0  0  0  0  0  0  0  0  0
   13.2583   -1.8170    0.0000 C   0  0  0  0  0  0  0  0  0  0  0  0
   10.6603   -2.3170    0.0000 C   0  0  3  0  0  0  0  0  0  0  0  0
    9.7942   -2.8170    0.0000 C   0  0  0  0  0  0  0  0  0  0  0  0
   10.6603   -1.3170    0.0000 C   0  0  0  0  0  0  0  0  0  0  0  0
   11.8923   -1.4510    0.0000 C   0  0  0  0  0  0  0  0  0  0  0  0
   12.8923   -3.1830    0.0000 C   0  0  0  0  0  0  0  0  0  0  0  0
   14.1244   -1.3170    0.0000 C   0  0  0  0  0  0  0  0  0  0  0  0
   12.7583   -0.9510    0.0000 C   0  0  0  0  0  0  0  0  0  0  0  0
   13.7583   -2.6830    0.0000 C   0  0  0  0  0  0  0  0  0  0  0  0
    8.9282   -2.3170    0.0000 C   0  0  0  0  0  0  0  0  0  0  0  0
    9.7942   -0.8170    0.0000 C   0  0  0  0  0  0  0  0  0  0  0  0
    8.0622   -2.8170    0.0000 C   0  0  0  0  0  0  0  0  0  0  0  0
    9.7942    0.1830    0.0000 C   0  0  0  0  0  0  0  0  0  0  0  0
    7.1962   -2.3170    0.0000 C   0  0  0  0  0  0  0  0  0  0  0  0
    8.9282    0.6830    0.0000 C   0  0  0  0  0  0  0  0  0  0  0  0
    6.3301   -2.8170    0.0000 C   0  0  0  0  0  0  0  0  0  0  0  0
    8.9282    1.6830    0.0000 C   0  0  0  0  0  0  0  0  0  0  0  0
    5.4641   -2.3170    0.0000 C   0  0  0  0  0  0  0  0  0  0  0  0
    8.0622    2.1830    0.0000 C   0  0  0  0  0  0  0  0  0  0  0  0
    4.5981   -2.8170    0.0000 C   0  0  0  0  0  0  0  0  0  0  0  0
    8.0622    3.1830    0.0000 C   0  0  0  0  0  0  0  0  0  0  0  0
    3.7320   -2.3170    0.0000 C   0  0  0  0  0  0  0  0  0  0  0  0
    2.0000   -2.3170    0.0000 C   0  0  0  0  0  0  0  0  0  0  0  0
   11.1972   -2.0070    0.0000 H   0  0  0  0  0  0  0  0  0  0  0  0
    9.3957   -3.2919    0.0000 H   0  0  0  0  0  0  0  0  0  0  0  0
   10.1928   -3.2919    0.0000 H   0  0  0  0  0  0  0  0  0  0  0  0
   11.2708   -1.4246    0.0000 H   0  0  0  0  0  0  0  0  0  0  0  0
   10.8723   -0.7344    0.0000 H   0  0  0  0  0  0  0  0  0  0  0  0
   12.4292   -1.1410    0.0000 H   0  0  0  0  0  0  0  0  0  0  0  0
   11.5823   -0.9140    0.0000 H   0  0  0  0  0  0  0  0  0  0  0  0
   11.3554   -1.7610    0.0000 H   0  0  0  0  0  0  0  0  0  0  0  0
   12.3554   -3.4930    0.0000 H   0  0  0  0  0  0  0  0  0  0  0  0
   13.2023   -3.7200    0.0000 H   0  0  0  0  0  0  0  0  0  0  0  0
   13.4292   -2.8730    0.0000 H   0  0  0  0  0  0  0  0  0  0  0  0
   14.4344   -1.8539    0.0000 H   0  0  0  0  0  0  0  0  0  0  0  0
   14.6613   -1.0070    0.0000 H   0  0  0  0  0  0  0  0  0  0  0  0
   13.8144   -0.7801    0.0000 H   0  0  0  0  0  0  0  0  0  0  0  0
   13.2953   -0.6410    0.0000 H   0  0  0  0  0  0  0  0  0  0  0  0
   12.4483   -0.4140    0.0000 H   0  0  0  0  0  0  0  0  0  0  0  0
   12.2214   -1.2610    0.0000 H   0  0  0  0  0  0  0  0  0  0  0  0
   13.2214   -2.9930    0.0000 H   0  0  0  0  0  0  0  0  0  0  0  0
   14.0683   -3.2200    0.0000 H   0  0  0  0  0  0  0  0  0  0  0  0
   14.2953   -2.3730    0.0000 H   0  0  0  0  0  0  0  0  0  0  0  0
    9.3267   -1.8420    0.0000 H   0  0  0  0  0  0  0  0  0  0  0  0
    8.5297   -1.8420    0.0000 H   0  0  0  0  0  0  0  0  0  0  0  0
    9.1836   -0.7093    0.0000 H   0  0  0  0  0  0  0  0  0  0  0  0
    9.5822   -1.3996    0.0000 H   0  0  0  0  0  0  0  0  0  0  0  0
    7.6636   -3.2919    0.0000 H   0  0  0  0  0  0  0  0  0  0  0  0
    8.4607   -3.2919    0.0000 H   0  0  0  0  0  0  0  0  0  0  0  0
   10.4048    0.0754    0.0000 H   0  0  0  0  0  0  0  0  0  0  0  0
   10.0063    0.7656    0.0000 H   0  0  0  0  0  0  0  0  0  0  0  0
    7.5947   -1.8420    0.0000 H   0  0  0  0  0  0  0  0  0  0  0  0
    6.7976   -1.8420    0.0000 H   0  0  0  0  0  0  0  0  0  0  0  0
    8.3176    0.7907    0.0000 H   0  0  0  0  0  0  0  0  0  0  0  0
    8.7162    0.1004    0.0000 H   0  0  0  0  0  0  0  0  0  0  0  0
    5.9316   -3.2919    0.0000 H   0  0  0  0  0  0  0  0  0  0  0  0
    6.7287   -3.2919    0.0000 H   0  0  0  0  0  0  0  0  0  0  0  0
    9.5388    1.5754    0.0000 H   0  0  0  0  0  0  0  0  0  0  0  0
    9.1403    2.2656    0.0000 H   0  0  0  0  0  0  0  0  0  0  0  0
    5.8626   -1.8420    0.0000 H   0  0  0  0  0  0  0  0  0  0  0  0
    5.0656   -1.8420    0.0000 H   0  0  0  0  0  0  0  0  0  0  0  0
    7.4516    2.2907    0.0000 H   0  0  0  0  0  0  0  0  0  0  0  0
    7.8501    1.6004    0.0000 H   0  0  0  0  0  0  0  0  0  0  0  0
    4.1996   -3.2919    0.0000 H   0  0  0  0  0  0  0  0  0  0  0  0
    4.9966   -3.2919    0.0000 H   0  0  0  0  0  0  0  0  0  0  0  0
    8.6822    3.1830    0.0000 H   0  0  0  0  0  0  0  0  0  0  0  0
    8.0622    3.8030    0.0000 H   0  0  0  0  0  0  0  0  0  0  0  0
    7.4422    3.1830    0.0000 H   0  0  0  0  0  0  0  0  0  0  0  0
    2.3100   -1.7800    0.0000 H   0  0  0  0  0  0  0  0  0  0  0  0
    1.4631   -2.0070    0.0000 H   0  0  0  0  0  0  0  0  0  0  0  0
    1.6900   -2.8539    0.0000 H   0  0  0  0  0  0  0  0  0  0  0  0
  1  2  1  0  0  0  0
  1  5  1  0  0  0  0
  1  9  1  0  0  0  0
  1 10  1  0  0  0  0
  2  6  1  0  0  0  0
  3 26  1  0  0  0  0
  3 27  1  0  0  0  0
  4 26  2  0  0  0  0
  5 11  1  0  0  0  0
  5 12  1  0  0  0  0
  5 13  1  0  0  0  0
  6  7  1  0  0  0  0
  6  8  1  0  0  0  0
  6 28  1  0  0  0  0
  7 14  1  0  0  0  0
  7 29  1  0  0  0  0
  7 30  1  0  0  0  0
  8 15  1  0  0  0  0
  8 31  1  0  0  0  0
  8 32  1  0  0  0  0
  9 33  1  0  0  0  0
  9 34  1  0  0  0  0
  9 35  1  0  0  0  0
 10 36  1  0  0  0  0
 10 37  1  0  0  0  0
 10 38  1  0  0  0  0
 11 39  1  0  0  0  0
 11 40  1  0  0  0  0
 11 41  1  0  0  0  0
 12 42  1  0  0  0  0
 12 43  1  0  0  0  0
 12 44  1  0  0  0  0
 13 45  1  0  0  0  0
 13 46  1  0  0  0  0
 13 47  1  0  0  0  0
 14 16  1  0  0  0  0
 14 48  1  0  0  0  0
 14 49  1  0  0  0  0
 15 17  1  0  0  0  0
 15 50  1  0  0  0  0
 15 51  1  0  0  0  0
 16 18  1  0  0  0  0
 16 52  1  0  0  0  0
 16 53  1  0  0  0  0
 17 19  1  0  0  0  0
 17 54  1  0  0  0  0
 17 55  1  0  0  0  0
 18 20  1  0  0  0  0
 18 56  1  0  0  0  0
 18 57  1  0  0  0  0
 19 21  1  0  0  0  0
 19 58  1  0  0  0  0
 19 59  1  0  0  0  0
 20 22  1  0  0  0  0
 20 60  1  0  0  0  0
 20 61  1  0  0  0  0
 21 23  1  0  0  0  0
 21 62  1  0  0  0  0
 21 63  1  0  0  0  0
 22 24  1  0  0  0  0
 22 64  1  0  0  0  0
 22 65  1  0  0  0  0
 23 25  1  0  0  0  0
 23 66  1  0  0  0  0
 23 67  1  0  0  0  0
 24 26  1  0  0  0  0
 24 68  1  0  0  0  0
 24 69  1  0  0  0  0
 25 70  1  0  0  0  0
 25 71  1  0  0  0  0
 25 72  1  0  0  0  0
 27 73  1  0  0  0  0
 27 74  1  0  0  0  0
 27 75  1  0  0  0  0
M  END
> <PUBCHEM_COMPOUND_CID>
526838
> <PUBCHEM_COMPOUND_CANONICALIZED>
1
> <PUBCHEM_CACTVS_COMPLEXITY>
374
> <PUBCHEM_CACTVS_HBOND_ACCEPTOR>
3
> <PUBCHEM_CACTVS_HBOND_DONOR>
0
> <PUBCHEM_CACTVS_ROTATABLE_BOND>
18
> <PUBCHEM_CACTVS_SUBSKEYS>
AAADcfB4MAgAAAAAAAAAAAAAAAAAAAAAAAAAAAAAAAAAAAAAAAAAGhAAAEAADBSgoAJCCAAABAEIAACQCAAAAAAAAAAAAAEAAAAAABIAAAAAAAAEAAAAAAGIyKCAAAAAAAAAAAAAAAAAAAAAAAAAAAAAAA==
> <PUBCHEM_IUPAC_OPENEYE_NAME>
methyl 9-[tert-butyl(dimethyl)silyl]oxyhexadecanoate
> <PUBCHEM_IUPAC_CAS_NAME>
9-[tert-butyl(dimethyl)silyl]oxyhexadecanoic acid methyl ester
> <PUBCHEM_IUPAC_NAME_MARKUP>
methyl 9-[<I>tert</I>-butyl(dimethyl)silyl]oxyhexadecanoate
> <PUBCHEM_IUPAC_NAME>
methyl 9-[tert-butyl(dimethyl)silyl]oxyhexadecanoate
> <PUBCHEM_IUPAC_SYSTEMATIC_NAME>
methyl 9-[tert-butyl(dimethyl)silyl]oxyhexadecanoate
> <PUBCHEM_IUPAC_TRADITIONAL_NAME>
9-[tert-butyl(dimethyl)silyl]oxypalmitic acid methyl ester
> <PUBCHEM_IUPAC_INCHI>
InChI=1S/C23H48O3Si/c1-8-9-10-12-15-18-21(26-27(6,7)23(2,3)4)19-16-13-11-14-17-20-22(24)25-5/h21H,8-20H2,1-7H3
> <PUBCHEM_IUPAC_INCHIKEY>
NVARZWJTAIWZSR-UHFFFAOYSA-N
> <PUBCHEM_EXACT_MASS>
400.33727192
> <PUBCHEM_MOLECULAR_FORMULA>
C23H48O3Si
> <PUBCHEM_MOLECULAR_WEIGHT>
400.7
> <PUBCHEM_OPENEYE_CAN_SMILES>
CCCCCCCC(CCCCCCCC(=O)OC)O[Si](C)(C)C(C)(C)C
> <PUBCHEM_OPENEYE_ISO_SMILES>
CCCCCCCC(CCCCCCCC(=O)OC)O[Si](C)(C)C(C)(C)C
> <PUBCHEM_CACTVS_TPSA>
35.5
> <PUBCHEM_MONOISOTOPIC_WEIGHT>
400.33727192
> <PUBCHEM_TOTAL_CHARGE>
0
> <PUBCHEM_HEAVY_ATOM_COUNT>
27
> <PUBCHEM_ATOM_DEF_STEREO_COUNT>
0
> <PUBCHEM_ATOM_UDEF_STEREO_COUNT>
1
> <PUBCHEM_BOND_DEF_STEREO_COUNT>
0
> <PUBCHEM_BOND_UDEF_STEREO_COUNT>
0
> <PUBCHEM_ISOTOPIC_ATOM_COUNT>
0
> <PUBCHEM_COMPONENT_COUNT>
1
> <PUBCHEM_CACTVS_TAUTO_COUNT>
-1
> <PUBCHEM_COORDINATE_TYPE>
1
5
255
> <PUBCHEM_BONDANNOTATIONS>
6  8  3
$$$$
