526832
  -OEChem-10302200292D
 84 83  0     1  0  0  0  0  0999 V2000
   15.8564   -1.8170    0.0000 Si  0  0  0  0  0  0  0  0  0  0  0  0
   14.9904   -2.3170    0.0000 O   0  0  0  0  0  0  0  0  0  0  0  0
    2.8660   -2.3170    0.0000 O   0  0  0  0  0  0  0  0  0  0  0  0
    3.7320   -0.8170    0.0000 O   0  0  0  0  0  0  0  0  0  0  0  0
   16.7224   -1.3170    0.0000 C   0  0  0  0  0  0  0  0  0  0  0  0
   14.1244   -1.8170    0.0000 C   0  0  3  0  0  0  0  0  0  0  0  0
   13.2583   -2.3170    0.0000 C   0  0  0  0  0  0  0  0  0  0  0  0
   14.1244   -0.8170    0.0000 C   0  0  0  0  0  0  0  0  0  0  0  0
   15.3564   -0.9510    0.0000 C   0  0  0  0  0  0  0  0  0  0  0  0
   16.3564   -2.6830    0.0000 C   0  0  0  0  0  0  0  0  0  0  0  0
   17.5885   -0.8170    0.0000 C   0  0  0  0  0  0  0  0  0  0  0  0
   16.2224   -0.4510    0.0000 C   0  0  0  0  0  0  0  0  0  0  0  0
   17.2224   -2.1830    0.0000 C   0  0  0  0  0  0  0  0  0  0  0  0
   12.3923   -1.8170    0.0000 C   0  0  0  0  0  0  0  0  0  0  0  0
   13.2583   -0.3170    0.0000 C   0  0  0  0  0  0  0  0  0  0  0  0
   11.5263   -2.3170    0.0000 C   0  0  0  0  0  0  0  0  0  0  0  0
   13.2583    0.6830    0.0000 C   0  0  0  0  0  0  0  0  0  0  0  0
   10.6603   -1.8170    0.0000 C   0  0  0  0  0  0  0  0  0  0  0  0
    9.7942   -2.3170    0.0000 C   0  0  0  0  0  0  0  0  0  0  0  0
   12.3923    1.1830    0.0000 C   0  0  0  0  0  0  0  0  0  0  0  0
    8.9282   -1.8170    0.0000 C   0  0  0  0  0  0  0  0  0  0  0  0
    8.0622   -2.3170    0.0000 C   0  0  0  0  0  0  0  0  0  0  0  0
   12.3923    2.1830    0.0000 C   0  0  0  0  0  0  0  0  0  0  0  0
    7.1962   -1.8170    0.0000 C   0  0  0  0  0  0  0  0  0  0  0  0
    6.3301   -2.3170    0.0000 C   0  0  0  0  0  0  0  0  0  0  0  0
   11.5263    2.6830    0.0000 C   0  0  0  0  0  0  0  0  0  0  0  0
    5.4641   -1.8170    0.0000 C   0  0  0  0  0  0  0  0  0  0  0  0
    4.5981   -2.3170    0.0000 C   0  0  0  0  0  0  0  0  0  0  0  0
    3.7320   -1.8170    0.0000 C   0  0  0  0  0  0  0  0  0  0  0  0
    2.0000   -1.8170    0.0000 C   0  0  0  0  0  0  0  0  0  0  0  0
   14.1244   -2.4370    0.0000 H   0  0  0  0  0  0  0  0  0  0  0  0
   12.8598   -2.7919    0.0000 H   0  0  0  0  0  0  0  0  0  0  0  0
   13.6569   -2.7919    0.0000 H   0  0  0  0  0  0  0  0  0  0  0  0
   14.7349   -0.9246    0.0000 H   0  0  0  0  0  0  0  0  0  0  0  0
   14.3364   -0.2344    0.0000 H   0  0  0  0  0  0  0  0  0  0  0  0
   15.8933   -0.6410    0.0000 H   0  0  0  0  0  0  0  0  0  0  0  0
   15.0464   -0.4140    0.0000 H   0  0  0  0  0  0  0  0  0  0  0  0
   14.8195   -1.2610    0.0000 H   0  0  0  0  0  0  0  0  0  0  0  0
   15.8195   -2.9930    0.0000 H   0  0  0  0  0  0  0  0  0  0  0  0
   16.6664   -3.2200    0.0000 H   0  0  0  0  0  0  0  0  0  0  0  0
   16.8933   -2.3730    0.0000 H   0  0  0  0  0  0  0  0  0  0  0  0
   17.8985   -1.3539    0.0000 H   0  0  0  0  0  0  0  0  0  0  0  0
   18.1254   -0.5070    0.0000 H   0  0  0  0  0  0  0  0  0  0  0  0
   17.2785   -0.2801    0.0000 H   0  0  0  0  0  0  0  0  0  0  0  0
   16.7594   -0.1410    0.0000 H   0  0  0  0  0  0  0  0  0  0  0  0
   15.9124    0.0860    0.0000 H   0  0  0  0  0  0  0  0  0  0  0  0
   15.6855   -0.7610    0.0000 H   0  0  0  0  0  0  0  0  0  0  0  0
   16.6855   -2.4930    0.0000 H   0  0  0  0  0  0  0  0  0  0  0  0
   17.5324   -2.7200    0.0000 H   0  0  0  0  0  0  0  0  0  0  0  0
   17.7594   -1.8730    0.0000 H   0  0  0  0  0  0  0  0  0  0  0  0
   12.7908   -1.3420    0.0000 H   0  0  0  0  0  0  0  0  0  0  0  0
   11.9938   -1.3420    0.0000 H   0  0  0  0  0  0  0  0  0  0  0  0
   12.6477   -0.2093    0.0000 H   0  0  0  0  0  0  0  0  0  0  0  0
   13.0463   -0.8996    0.0000 H   0  0  0  0  0  0  0  0  0  0  0  0
   11.1278   -2.7919    0.0000 H   0  0  0  0  0  0  0  0  0  0  0  0
   11.9248   -2.7919    0.0000 H   0  0  0  0  0  0  0  0  0  0  0  0
   13.8689    0.5754    0.0000 H   0  0  0  0  0  0  0  0  0  0  0  0
   13.4704    1.2656    0.0000 H   0  0  0  0  0  0  0  0  0  0  0  0
   11.0588   -1.3420    0.0000 H   0  0  0  0  0  0  0  0  0  0  0  0
   10.2617   -1.3420    0.0000 H   0  0  0  0  0  0  0  0  0  0  0  0
    9.3957   -2.7919    0.0000 H   0  0  0  0  0  0  0  0  0  0  0  0
   10.1928   -2.7919    0.0000 H   0  0  0  0  0  0  0  0  0  0  0  0
   11.7817    1.2907    0.0000 H   0  0  0  0  0  0  0  0  0  0  0  0
   12.1803    0.6004    0.0000 H   0  0  0  0  0  0  0  0  0  0  0  0
    9.3267   -1.3420    0.0000 H   0  0  0  0  0  0  0  0  0  0  0  0
    8.5297   -1.3420    0.0000 H   0  0  0  0  0  0  0  0  0  0  0  0
    7.6636   -2.7919    0.0000 H   0  0  0  0  0  0  0  0  0  0  0  0
    8.4607   -2.7919    0.0000 H   0  0  0  0  0  0  0  0  0  0  0  0
   13.0029    2.0753    0.0000 H   0  0  0  0  0  0  0  0  0  0  0  0
   12.6044    2.7656    0.0000 H   0  0  0  0  0  0  0  0  0  0  0  0
    7.5947   -1.3420    0.0000 H   0  0  0  0  0  0  0  0  0  0  0  0
    6.7976   -1.3420    0.0000 H   0  0  0  0  0  0  0  0  0  0  0  0
    5.9316   -2.7919    0.0000 H   0  0  0  0  0  0  0  0  0  0  0  0
    6.7287   -2.7919    0.0000 H   0  0  0  0  0  0  0  0  0  0  0  0
   11.8363    3.2200    0.0000 H   0  0  0  0  0  0  0  0  0  0  0  0
   10.9893    2.9930    0.0000 H   0  0  0  0  0  0  0  0  0  0  0  0
   11.2163    2.1461    0.0000 H   0  0  0  0  0  0  0  0  0  0  0  0
    5.8626   -1.3420    0.0000 H   0  0  0  0  0  0  0  0  0  0  0  0
    5.0656   -1.3420    0.0000 H   0  0  0  0  0  0  0  0  0  0  0  0
    4.1996   -2.7919    0.0000 H   0  0  0  0  0  0  0  0  0  0  0  0
    4.9966   -2.7919    0.0000 H   0  0  0  0  0  0  0  0  0  0  0  0
    2.3100   -1.2800    0.0000 H   0  0  0  0  0  0  0  0  0  0  0  0
    1.4631   -1.5070    0.0000 H   0  0  0  0  0  0  0  0  0  0  0  0
    1.6900   -2.3539    0.0000 H   0  0  0  0  0  0  0  0  0  0  0  0
  1  2  1  0  0  0  0
  1  5  1  0  0  0  0
  1  9  1  0  0  0  0
  1 10  1  0  0  0  0
  2  6  1  0  0  0  0
  3 29  1  0  0  0  0
  3 30  1  0  0  0  0
  4 29  2  0  0  0  0
  5 11  1  0  0  0  0
  5 12  1  0  0  0  0
  5 13  1  0  0  0  0
  6  7  1  0  0  0  0
  6  8  1  0  0  0  0
  6 31  1  0  0  0  0
  7 14  1  0  0  0  0
  7 32  1  0  0  0  0
  7 33  1  0  0  0  0
  8 15  1  0  0  0  0
  8 34  1  0  0  0  0
  8 35  1  0  0  0  0
  9 36  1  0  0  0  0
  9 37  1  0  0  0  0
  9 38  1  0  0  0  0
 10 39  1  0  0  0  0
 10 40  1  0  0  0  0
 10 41  1  0  0  0  0
 11 42  1  0  0  0  0
 11 43  1  0  0  0  0
 11 44  1  0  0  0  0
 12 45  1  0  0  0  0
 12 46  1  0  0  0  0
 12 47  1  0  0  0  0
 13 48  1  0  0  0  0
 13 49  1  0  0  0  0
 13 50  1  0  0  0  0
 14 16  1  0  0  0  0
 14 51  1  0  0  0  0
 14 52  1  0  0  0  0
 15 17  1  0  0  0  0
 15 53  1  0  0  0  0
 15 54  1  0  0  0  0
 16 18  1  0  0  0  0
 16 55  1  0  0  0  0
 16 56  1  0  0  0  0
 17 20  1  0  0  0  0
 17 57  1  0  0  0  0
 17 58  1  0  0  0  0
 18 19  1  0  0  0  0
 18 59  1  0  0  0  0
 18 60  1  0  0  0  0
 19 21  1  0  0  0  0
 19 61  1  0  0  0  0
 19 62  1  0  0  0  0
 20 23  1  0  0  0  0
 20 63  1  0  0  0  0
 20 64  1  0  0  0  0
 21 22  1  0  0  0  0
 21 65  1  0  0  0  0
 21 66  1  0  0  0  0
 22 24  1  0  0  0  0
 22 67  1  0  0  0  0
 22 68  1  0  0  0  0
 23 26  1  0  0  0  0
 23 69  1  0  0  0  0
 23 70  1  0  0  0  0
 24 25  1  0  0  0  0
 24 71  1  0  0  0  0
 24 72  1  0  0  0  0
 25 27  1  0  0  0  0
 25 73  1  0  0  0  0
 25 74  1  0  0  0  0
 26 75  1  0  0  0  0
 26 76  1  0  0  0  0
 26 77  1  0  0  0  0
 27 28  1  0  0  0  0
 27 78  1  0  0  0  0
 27 79  1  0  0  0  0
 28 29  1  0  0  0  0
 28 80  1  0  0  0  0
 28 81  1  0  0  0  0
 30 82  1  0  0  0  0
 30 83  1  0  0  0  0
 30 84  1  0  0  0  0
M  END
> <PUBCHEM_COMPOUND_CID>
526832
> <PUBCHEM_COMPOUND_CANONICALIZED>
1
> <PUBCHEM_CACTVS_COMPLEXITY>
415
> <PUBCHEM_CACTVS_HBOND_ACCEPTOR>
3
> <PUBCHEM_CACTVS_HBOND_DONOR>
0
> <PUBCHEM_CACTVS_ROTATABLE_BOND>
21
> <PUBCHEM_CACTVS_SUBSKEYS>
AAADcfB4MAgAAAAAAAAAAAAAAAAAAAAAAAAAAAAAAAAAAAAAAAAAGhAAAEAADBSgoAJCCAAABAEIAACQCAAAAAAAAAAAAAEAAAAAABIAAAAAAAAEAAAAAAGIyKCAAAAAAAAAAAAAAAAAAAAAAAAAAAAAAA==
> <PUBCHEM_IUPAC_OPENEYE_NAME>
methyl 13-[tert-butyl(dimethyl)silyl]oxynonadecanoate
> <PUBCHEM_IUPAC_CAS_NAME>
13-[tert-butyl(dimethyl)silyl]oxynonadecanoic acid methyl ester
> <PUBCHEM_IUPAC_NAME_MARKUP>
methyl 13-[<I>tert</I>-butyl(dimethyl)silyl]oxynonadecanoate
> <PUBCHEM_IUPAC_NAME>
methyl 13-[tert-butyl(dimethyl)silyl]oxynonadecanoate
> <PUBCHEM_IUPAC_SYSTEMATIC_NAME>
methyl 13-[tert-butyl(dimethyl)silyl]oxynonadecanoate
> <PUBCHEM_IUPAC_TRADITIONAL_NAME>
13-[tert-butyl(dimethyl)silyl]oxynonadecanoic acid methyl ester
> <PUBCHEM_IUPAC_INCHI>
InChI=1S/C26H54O3Si/c1-8-9-10-18-21-24(29-30(6,7)26(2,3)4)22-19-16-14-12-11-13-15-17-20-23-25(27)28-5/h24H,8-23H2,1-7H3
> <PUBCHEM_IUPAC_INCHIKEY>
UHTMBLFZOJZHET-UHFFFAOYSA-N
> <PUBCHEM_EXACT_MASS>
442.38422211
> <PUBCHEM_MOLECULAR_FORMULA>
C26H54O3Si
> <PUBCHEM_MOLECULAR_WEIGHT>
442.8
> <PUBCHEM_OPENEYE_CAN_SMILES>
CCCCCCC(CCCCCCCCCCCC(=O)OC)O[Si](C)(C)C(C)(C)C
> <PUBCHEM_OPENEYE_ISO_SMILES>
CCCCCCC(CCCCCCCCCCCC(=O)OC)O[Si](C)(C)C(C)(C)C
> <PUBCHEM_CACTVS_TPSA>
35.5
> <PUBCHEM_MONOISOTOPIC_WEIGHT>
442.38422211
> <PUBCHEM_TOTAL_CHARGE>
0
> <PUBCHEM_HEAVY_ATOM_COUNT>
30
> <PUBCHEM_ATOM_DEF_STEREO_COUNT>
0
> <PUBCHEM_ATOM_UDEF_STEREO_COUNT>
1
> <PUBCHEM_BOND_DEF_STEREO_COUNT>
0
> <PUBCHEM_BOND_UDEF_STEREO_COUNT>
0
> <PUBCHEM_ISOTOPIC_ATOM_COUNT>
0
> <PUBCHEM_COMPONENT_COUNT>
1
> <PUBCHEM_CACTVS_TAUTO_COUNT>
-1
> <PUBCHEM_COORDINATE_TYPE>
1
5
255
> <PUBCHEM_BONDANNOTATIONS>
6  8  3
$$$$
