526957
  -OEChem-10302200292D
 35 36  0     1  0  0  0  0  0999 V2000
    3.6276    1.5000    0.0000 O   0  0  0  0  0  0  0  0  0  0  0  0
    2.6428    0.6737    0.0000 O   0  0  0  0  0  0  0  0  0  0  0  0
    2.3007   -2.6133    0.0000 O   0  5  0  0  0  0  0  0  0  0  0  0
    2.0000   -0.9076    0.0000 O   0  0  0  0  0  0  0  0  0  0  0  0
    7.9577    3.0000    0.0000 O   0  5  0  0  0  0  0  0  0  0  0  0
    8.8238    1.5000    0.0000 O   0  0  0  0  0  0  0  0  0  0  0  0
    2.6428   -1.6736    0.0000 N   0  3  0  0  0  0  0  0  0  0  0  0
    7.9577    2.0000    0.0000 N   0  3  0  0  0  0  0  0  0  0  0  0
    4.4936    0.0000    0.0000 C   0  0  3  0  0  0  0  0  0  0  0  0
    4.4936   -1.0000    0.0000 C   0  0  0  0  0  0  0  0  0  0  0  0
    5.3596    0.5000    0.0000 C   0  0  0  0  0  0  0  0  0  0  0  0
    3.6276   -1.5000    0.0000 C   0  0  0  0  0  0  0  0  0  0  0  0
    3.6276    0.5000    0.0000 C   0  0  0  0  0  0  0  0  0  0  0  0
    5.3596   -1.5000    0.0000 C   0  0  0  0  0  0  0  0  0  0  0  0
    5.3596    1.5000    0.0000 C   0  0  0  0  0  0  0  0  0  0  0  0
    6.2257    0.0000    0.0000 C   0  0  0  0  0  0  0  0  0  0  0  0
    3.6276   -2.5000    0.0000 C   0  0  0  0  0  0  0  0  0  0  0  0
    6.2257    2.0000    0.0000 C   0  0  0  0  0  0  0  0  0  0  0  0
    7.0917    0.5000    0.0000 C   0  0  0  0  0  0  0  0  0  0  0  0
    5.3596   -2.5000    0.0000 C   0  0  0  0  0  0  0  0  0  0  0  0
    7.0917    1.5000    0.0000 C   0  0  0  0  0  0  0  0  0  0  0  0
    4.4936   -3.0000    0.0000 C   0  0  0  0  0  0  0  0  0  0  0  0
    2.7616    2.0000    0.0000 C   0  0  0  0  0  0  0  0  0  0  0  0
    4.4936    0.6200    0.0000 H   0  0  0  0  0  0  0  0  0  0  0  0
    5.8966   -1.1900    0.0000 H   0  0  0  0  0  0  0  0  0  0  0  0
    4.8227    1.8100    0.0000 H   0  0  0  0  0  0  0  0  0  0  0  0
    6.2257   -0.6200    0.0000 H   0  0  0  0  0  0  0  0  0  0  0  0
    3.0907   -2.8100    0.0000 H   0  0  0  0  0  0  0  0  0  0  0  0
    6.2257    2.6200    0.0000 H   0  0  0  0  0  0  0  0  0  0  0  0
    7.6286    0.1900    0.0000 H   0  0  0  0  0  0  0  0  0  0  0  0
    5.8966   -2.8100    0.0000 H   0  0  0  0  0  0  0  0  0  0  0  0
    4.4936   -3.6200    0.0000 H   0  0  0  0  0  0  0  0  0  0  0  0
    3.0716    2.5369    0.0000 H   0  0  0  0  0  0  0  0  0  0  0  0
    2.2246    2.3100    0.0000 H   0  0  0  0  0  0  0  0  0  0  0  0
    2.4516    1.4631    0.0000 H   0  0  0  0  0  0  0  0  0  0  0  0
  1 13  1  0  0  0  0
  1 23  1  0  0  0  0
  2 13  2  0  0  0  0
  3  7  1  0  0  0  0
  4  7  2  0  0  0  0
  5  8  1  0  0  0  0
  6  8  2  0  0  0  0
  7 12  1  0  0  0  0
  8 21  1  0  0  0  0
  9 10  1  0  0  0  0
  9 11  1  0  0  0  0
  9 13  1  0  0  0  0
  9 24  1  0  0  0  0
 10 12  1  0  0  0  0
 10 14  2  0  0  0  0
 11 15  2  0  0  0  0
 11 16  1  0  0  0  0
 12 17  2  0  0  0  0
 14 20  1  0  0  0  0
 14 25  1  0  0  0  0
 15 18  1  0  0  0  0
 15 26  1  0  0  0  0
 16 19  2  0  0  0  0
 16 27  1  0  0  0  0
 17 22  1  0  0  0  0
 17 28  1  0  0  0  0
 18 21  2  0  0  0  0
 18 29  1  0  0  0  0
 19 21  1  0  0  0  0
 19 30  1  0  0  0  0
 20 22  2  0  0  0  0
 20 31  1  0  0  0  0
 22 32  1  0  0  0  0
 23 33  1  0  0  0  0
 23 34  1  0  0  0  0
 23 35  1  0  0  0  0
M  CHG  4   3  -1   5  -1   7   1   8   1
M  END
> <PUBCHEM_COMPOUND_CID>
526957
> <PUBCHEM_COMPOUND_CANONICALIZED>
1
> <PUBCHEM_CACTVS_COMPLEXITY>
450
> <PUBCHEM_CACTVS_HBOND_ACCEPTOR>
6
> <PUBCHEM_CACTVS_HBOND_DONOR>
0
> <PUBCHEM_CACTVS_ROTATABLE_BOND>
4
> <PUBCHEM_CACTVS_SUBSKEYS>
AAADccBzOAAAAAAAAAAAAAAAAAAAAAAAAAAwYAAAAAAAAAABQAAAHgAEAAAADQiBmAIyyIAQRACJAiTSSwCCAAAgAgAoiAEAZIoIIDKAlZGAIABkwAEIyAe8yOCOiAAAAAACAAAQAAAAAAQAAAAAAAAAAA==
> <PUBCHEM_IUPAC_OPENEYE_NAME>
methyl 2-(2-nitrophenyl)-2-(4-nitrophenyl)acetate
> <PUBCHEM_IUPAC_CAS_NAME>
2-(2-nitrophenyl)-2-(4-nitrophenyl)acetic acid methyl ester
> <PUBCHEM_IUPAC_NAME_MARKUP>
methyl 2-(2-nitrophenyl)-2-(4-nitrophenyl)acetate
> <PUBCHEM_IUPAC_NAME>
methyl 2-(2-nitrophenyl)-2-(4-nitrophenyl)acetate
> <PUBCHEM_IUPAC_SYSTEMATIC_NAME>
methyl 2-(2-nitrophenyl)-2-(4-nitrophenyl)ethanoate
> <PUBCHEM_IUPAC_TRADITIONAL_NAME>
2-(2-nitrophenyl)-2-(4-nitrophenyl)acetic acid methyl ester
> <PUBCHEM_IUPAC_INCHI>
InChI=1S/C15H12N2O6/c1-23-15(18)14(10-6-8-11(9-7-10)16(19)20)12-4-2-3-5-13(12)17(21)22/h2-9,14H,1H3
> <PUBCHEM_IUPAC_INCHIKEY>
ZCCDRGUNVVCHEH-UHFFFAOYSA-N
> <PUBCHEM_XLOGP3_AA>
3.1
> <PUBCHEM_EXACT_MASS>
316.06953611
> <PUBCHEM_MOLECULAR_FORMULA>
C15H12N2O6
> <PUBCHEM_MOLECULAR_WEIGHT>
316.26
> <PUBCHEM_OPENEYE_CAN_SMILES>
COC(=O)C(C1=CC=C(C=C1)[N+](=O)[O-])C2=CC=CC=C2[N+](=O)[O-]
> <PUBCHEM_OPENEYE_ISO_SMILES>
COC(=O)C(C1=CC=C(C=C1)[N+](=O)[O-])C2=CC=CC=C2[N+](=O)[O-]
> <PUBCHEM_CACTVS_TPSA>
118
> <PUBCHEM_MONOISOTOPIC_WEIGHT>
316.06953611
> <PUBCHEM_TOTAL_CHARGE>
0
> <PUBCHEM_HEAVY_ATOM_COUNT>
23
> <PUBCHEM_ATOM_DEF_STEREO_COUNT>
0
> <PUBCHEM_ATOM_UDEF_STEREO_COUNT>
1
> <PUBCHEM_BOND_DEF_STEREO_COUNT>
0
> <PUBCHEM_BOND_UDEF_STEREO_COUNT>
0
> <PUBCHEM_ISOTOPIC_ATOM_COUNT>
0
> <PUBCHEM_COMPONENT_COUNT>
1
> <PUBCHEM_CACTVS_TAUTO_COUNT>
-1
> <PUBCHEM_COORDINATE_TYPE>
1
5
255
> <PUBCHEM_BONDANNOTATIONS>
10  12  8
10  14  8
11  15  8
11  16  8
12  17  8
14  20  8
15  18  8
16  19  8
17  22  8
18  21  8
19  21  8
20  22  8
9  13  3
$$$$
