526977
  -OEChem-10302200292D
 86 89  0     1  0  0  0  0  0999 V2000
    8.6500   -1.2935    0.0000 O   0  0  0  0  0  0  0  0  0  0  0  0
    2.0000   -5.6011    0.0000 O   0  0  0  0  0  0  0  0  0  0  0  0
   10.2963   -1.8316    0.0000 O   0  0  0  0  0  0  0  0  0  0  0  0
    6.5271   -4.0488    0.0000 C   0  0  3  0  0  0  0  0  0  0  0  0
    5.6610   -3.5488    0.0000 C   0  0  3  0  0  0  0  0  0  0  0  0
    7.3931   -3.5488    0.0000 C   0  0  3  0  0  0  0  0  0  0  0  0
    7.3931   -2.5488    0.0000 C   0  0  3  0  0  0  0  0  0  0  0  0
    4.7510   -4.0556    0.0000 C   0  0  3  0  0  0  0  0  0  0  0  0
    4.7430   -5.0972    0.0000 C   0  0  3  0  0  0  0  0  0  0  0  0
    5.6610   -2.5488    0.0000 C   0  0  0  0  0  0  0  0  0  0  0  0
    6.5271   -2.0488    0.0000 C   0  0  0  0  0  0  0  0  0  0  0  0
    6.5431   -5.0903    0.0000 C   0  0  0  0  0  0  0  0  0  0  0  0
    8.3393   -2.2440    0.0000 C   0  0  3  0  0  0  0  0  0  0  0  0
    8.3393   -3.8535    0.0000 C   0  0  0  0  0  0  0  0  0  0  0  0
    5.6451   -5.6180    0.0000 C   0  0  0  0  0  0  0  0  0  0  0  0
    8.9229   -3.0488    0.0000 C   0  0  0  0  0  0  0  0  0  0  0  0
    3.8242   -3.4915    0.0000 C   0  0  0  0  0  0  0  0  0  0  0  0
    7.3931   -1.5488    0.0000 C   0  0  0  0  0  0  0  0  0  0  0  0
    4.7587   -3.0556    0.0000 C   0  0  0  0  0  0  0  0  0  0  0  0
    3.8076   -5.6469    0.0000 C   0  0  0  0  0  0  0  0  0  0  0  0
    2.8763   -4.0195    0.0000 C   0  0  0  0  0  0  0  0  0  0  0  0
    2.8680   -5.1044    0.0000 C   0  0  0  0  0  0  0  0  0  0  0  0
    9.6285   -1.0873    0.0000 C   0  0  0  0  0  0  0  0  0  0  0  0
    9.9391   -0.1368    0.0000 C   0  0  0  0  0  0  0  0  0  0  0  0
   10.9176    0.0695    0.0000 C   0  0  0  0  0  0  0  0  0  0  0  0
   11.2283    1.0200    0.0000 C   0  0  0  0  0  0  0  0  0  0  0  0
   12.2068    1.2262    0.0000 C   0  0  0  0  0  0  0  0  0  0  0  0
   12.5175    2.1767    0.0000 C   0  0  0  0  0  0  0  0  0  0  0  0
   13.4960    2.3829    0.0000 C   0  0  0  0  0  0  0  0  0  0  0  0
   13.8066    3.3334    0.0000 C   0  0  0  0  0  0  0  0  0  0  0  0
   14.7851    3.5397    0.0000 C   0  0  0  0  0  0  0  0  0  0  0  0
   15.0958    4.4902    0.0000 C   0  0  0  0  0  0  0  0  0  0  0  0
   16.0743    4.6964    0.0000 C   0  0  0  0  0  0  0  0  0  0  0  0
   16.3850    5.6469    0.0000 C   0  0  0  0  0  0  0  0  0  0  0  0
    7.0664   -4.3546    0.0000 H   0  0  0  0  0  0  0  0  0  0  0  0
    6.1980   -3.2388    0.0000 H   0  0  0  0  0  0  0  0  0  0  0  0
    7.4587   -4.1653    0.0000 H   0  0  0  0  0  0  0  0  0  0  0  0
    4.7454   -5.7172    0.0000 H   0  0  0  0  0  0  0  0  0  0  0  0
    5.4490   -1.9662    0.0000 H   0  0  0  0  0  0  0  0  0  0  0  0
    5.0504   -2.6564    0.0000 H   0  0  0  0  0  0  0  0  0  0  0  0
    6.9256   -1.5738    0.0000 H   0  0  0  0  0  0  0  0  0  0  0  0
    6.1285   -1.5738    0.0000 H   0  0  0  0  0  0  0  0  0  0  0  0
    6.7612   -5.6707    0.0000 H   0  0  0  0  0  0  0  0  0  0  0  0
    7.1523   -4.9748    0.0000 H   0  0  0  0  0  0  0  0  0  0  0  0
    7.9018   -1.8047    0.0000 H   0  0  0  0  0  0  0  0  0  0  0  0
    8.0883   -4.4204    0.0000 H   0  0  0  0  0  0  0  0  0  0  0  0
    8.8767   -4.1627    0.0000 H   0  0  0  0  0  0  0  0  0  0  0  0
    5.2478   -6.0940    0.0000 H   0  0  0  0  0  0  0  0  0  0  0  0
    6.0460   -6.0909    0.0000 H   0  0  0  0  0  0  0  0  0  0  0  0
    9.3838   -3.4635    0.0000 H   0  0  0  0  0  0  0  0  0  0  0  0
    9.3838   -2.6340    0.0000 H   0  0  0  0  0  0  0  0  0  0  0  0
    4.2324   -3.0249    0.0000 H   0  0  0  0  0  0  0  0  0  0  0  0
    3.4343   -3.0095    0.0000 H   0  0  0  0  0  0  0  0  0  0  0  0
    8.0131   -1.5488    0.0000 H   0  0  0  0  0  0  0  0  0  0  0  0
    7.3931   -0.9288    0.0000 H   0  0  0  0  0  0  0  0  0  0  0  0
    6.7731   -1.5488    0.0000 H   0  0  0  0  0  0  0  0  0  0  0  0
    5.3787   -3.0604    0.0000 H   0  0  0  0  0  0  0  0  0  0  0  0
    4.7635   -2.4356    0.0000 H   0  0  0  0  0  0  0  0  0  0  0  0
    4.1388   -3.0508    0.0000 H   0  0  0  0  0  0  0  0  0  0  0  0
    3.4103   -6.1229    0.0000 H   0  0  0  0  0  0  0  0  0  0  0  0
    4.2085   -6.1198    0.0000 H   0  0  0  0  0  0  0  0  0  0  0  0
    2.6718   -3.4342    0.0000 H   0  0  0  0  0  0  0  0  0  0  0  0
    2.2647   -4.1208    0.0000 H   0  0  0  0  0  0  0  0  0  0  0  0
    9.9186    0.4829    0.0000 H   0  0  0  0  0  0  0  0  0  0  0  0
    9.3253   -0.0494    0.0000 H   0  0  0  0  0  0  0  0  0  0  0  0
   10.9382   -0.5502    0.0000 H   0  0  0  0  0  0  0  0  0  0  0  0
   11.5315   -0.0179    0.0000 H   0  0  0  0  0  0  0  0  0  0  0  0
   11.2077    1.6396    0.0000 H   0  0  0  0  0  0  0  0  0  0  0  0
   10.6145    1.1073    0.0000 H   0  0  0  0  0  0  0  0  0  0  0  0
   12.2274    0.6065    0.0000 H   0  0  0  0  0  0  0  0  0  0  0  0
   12.8206    1.1388    0.0000 H   0  0  0  0  0  0  0  0  0  0  0  0
   12.4969    2.7964    0.0000 H   0  0  0  0  0  0  0  0  0  0  0  0
   11.9037    2.2641    0.0000 H   0  0  0  0  0  0  0  0  0  0  0  0
   13.5165    1.7633    0.0000 H   0  0  0  0  0  0  0  0  0  0  0  0
   14.1098    2.2956    0.0000 H   0  0  0  0  0  0  0  0  0  0  0  0
   13.7861    3.9531    0.0000 H   0  0  0  0  0  0  0  0  0  0  0  0
   13.1928    3.4208    0.0000 H   0  0  0  0  0  0  0  0  0  0  0  0
   14.8057    2.9200    0.0000 H   0  0  0  0  0  0  0  0  0  0  0  0
   15.3990    3.4523    0.0000 H   0  0  0  0  0  0  0  0  0  0  0  0
   15.0752    5.1098    0.0000 H   0  0  0  0  0  0  0  0  0  0  0  0
   14.4820    4.5775    0.0000 H   0  0  0  0  0  0  0  0  0  0  0  0
   16.0949    4.0768    0.0000 H   0  0  0  0  0  0  0  0  0  0  0  0
   16.6881    4.6091    0.0000 H   0  0  0  0  0  0  0  0  0  0  0  0
   16.9743    5.4543    0.0000 H   0  0  0  0  0  0  0  0  0  0  0  0
   16.5776    6.2362    0.0000 H   0  0  0  0  0  0  0  0  0  0  0  0
   15.7957    5.8395    0.0000 H   0  0  0  0  0  0  0  0  0  0  0  0
  1 13  1  0  0  0  0
  1 23  1  0  0  0  0
  2 22  2  0  0  0  0
  3 23  2  0  0  0  0
  4  5  1  0  0  0  0
  4  6  1  0  0  0  0
  4 12  1  0  0  0  0
  4 35  1  0  0  0  0
  5  8  1  0  0  0  0
  5 10  1  0  0  0  0
  5 36  1  0  0  0  0
  6  7  1  0  0  0  0
  6 14  1  0  0  0  0
  6 37  1  0  0  0  0
  7 11  1  0  0  0  0
  7 13  1  0  0  0  0
  7 18  1  0  0  0  0
  8  9  1  0  0  0  0
  8 17  1  0  0  0  0
  8 19  1  0  0  0  0
  9 15  1  0  0  0  0
  9 20  1  0  0  0  0
  9 38  1  0  0  0  0
 10 11  1  0  0  0  0
 10 39  1  0  0  0  0
 10 40  1  0  0  0  0
 11 41  1  0  0  0  0
 11 42  1  0  0  0  0
 12 15  1  0  0  0  0
 12 43  1  0  0  0  0
 12 44  1  0  0  0  0
 13 16  1  0  0  0  0
 13 45  1  0  0  0  0
 14 16  1  0  0  0  0
 14 46  1  0  0  0  0
 14 47  1  0  0  0  0
 15 48  1  0  0  0  0
 15 49  1  0  0  0  0
 16 50  1  0  0  0  0
 16 51  1  0  0  0  0
 17 21  1  0  0  0  0
 17 52  1  0  0  0  0
 17 53  1  0  0  0  0
 18 54  1  0  0  0  0
 18 55  1  0  0  0  0
 18 56  1  0  0  0  0
 19 57  1  0  0  0  0
 19 58  1  0  0  0  0
 19 59  1  0  0  0  0
 20 22  1  0  0  0  0
 20 60  1  0  0  0  0
 20 61  1  0  0  0  0
 21 22  1  0  0  0  0
 21 62  1  0  0  0  0
 21 63  1  0  0  0  0
 23 24  1  0  0  0  0
 24 25  1  0  0  0  0
 24 64  1  0  0  0  0
 24 65  1  0  0  0  0
 25 26  1  0  0  0  0
 25 66  1  0  0  0  0
 25 67  1  0  0  0  0
 26 27  1  0  0  0  0
 26 68  1  0  0  0  0
 26 69  1  0  0  0  0
 27 28  1  0  0  0  0
 27 70  1  0  0  0  0
 27 71  1  0  0  0  0
 28 29  1  0  0  0  0
 28 72  1  0  0  0  0
 28 73  1  0  0  0  0
 29 30  1  0  0  0  0
 29 74  1  0  0  0  0
 29 75  1  0  0  0  0
 30 31  1  0  0  0  0
 30 76  1  0  0  0  0
 30 77  1  0  0  0  0
 31 32  1  0  0  0  0
 31 78  1  0  0  0  0
 31 79  1  0  0  0  0
 32 33  1  0  0  0  0
 32 80  1  0  0  0  0
 32 81  1  0  0  0  0
 33 34  1  0  0  0  0
 33 82  1  0  0  0  0
 33 83  1  0  0  0  0
 34 84  1  0  0  0  0
 34 85  1  0  0  0  0
 34 86  1  0  0  0  0
M  END
> <PUBCHEM_COMPOUND_CID>
526977
> <PUBCHEM_COMPOUND_CANONICALIZED>
1
> <PUBCHEM_CACTVS_COMPLEXITY>
701
> <PUBCHEM_CACTVS_HBOND_ACCEPTOR>
3
> <PUBCHEM_CACTVS_HBOND_DONOR>
0
> <PUBCHEM_CACTVS_ROTATABLE_BOND>
12
> <PUBCHEM_CACTVS_SUBSKEYS>
AAADcfB4MAAAAAAAAAAAAAAAAAAAAYAAAAAwYMAAAAAAAGDAAAAAGgAAAAAADxSggAICCAAABAAIAICQCAAAAAAAAAAAAAEAAAAAABIAAAACAAAEAAAAAAGIyPCPgAAAAAAAAACAAAQAACAAAIAADAAAAA==
> <PUBCHEM_IUPAC_OPENEYE_NAME>
(10,13-dimethyl-3-oxo-1,2,4,5,6,7,8,9,11,12,14,15,16,17-tetradecahydrocyclopenta[a]phenanthren-17-yl) dodecanoate
> <PUBCHEM_IUPAC_CAS_NAME>
dodecanoic acid (10,13-dimethyl-3-oxo-1,2,4,5,6,7,8,9,11,12,14,15,16,17-tetradecahydrocyclopenta[a]phenanthren-17-yl) ester
> <PUBCHEM_IUPAC_NAME_MARKUP>
(10,13-dimethyl-3-oxo-1,2,4,5,6,7,8,9,11,12,14,15,16,17-tetradecahydrocyclopenta[a]phenanthren-17-yl) dodecanoate
> <PUBCHEM_IUPAC_NAME>
(10,13-dimethyl-3-oxo-1,2,4,5,6,7,8,9,11,12,14,15,16,17-tetradecahydrocyclopenta[a]phenanthren-17-yl) dodecanoate
> <PUBCHEM_IUPAC_SYSTEMATIC_NAME>
(10,13-dimethyl-3-oxidanylidene-1,2,4,5,6,7,8,9,11,12,14,15,16,17-tetradecahydrocyclopenta[a]phenanthren-17-yl) dodecanoate
> <PUBCHEM_IUPAC_TRADITIONAL_NAME>
lauric acid (3-keto-10,13-dimethyl-1,2,4,5,6,7,8,9,11,12,14,15,16,17-tetradecahydrocyclopenta[a]phenanthren-17-yl) ester
> <PUBCHEM_IUPAC_INCHI>
InChI=1S/C31H52O3/c1-4-5-6-7-8-9-10-11-12-13-29(33)34-28-17-16-26-25-15-14-23-22-24(32)18-20-30(23,2)27(25)19-21-31(26,28)3/h23,25-28H,4-22H2,1-3H3
> <PUBCHEM_IUPAC_INCHIKEY>
BTKHMAJQYKSLGC-UHFFFAOYSA-N
> <PUBCHEM_XLOGP3>
9.4
> <PUBCHEM_EXACT_MASS>
472.39164552
> <PUBCHEM_MOLECULAR_FORMULA>
C31H52O3
> <PUBCHEM_MOLECULAR_WEIGHT>
472.7
> <PUBCHEM_OPENEYE_CAN_SMILES>
CCCCCCCCCCCC(=O)OC1CCC2C1(CCC3C2CCC4C3(CCC(=O)C4)C)C
> <PUBCHEM_OPENEYE_ISO_SMILES>
CCCCCCCCCCCC(=O)OC1CCC2C1(CCC3C2CCC4C3(CCC(=O)C4)C)C
> <PUBCHEM_CACTVS_TPSA>
43.4
> <PUBCHEM_MONOISOTOPIC_WEIGHT>
472.39164552
> <PUBCHEM_TOTAL_CHARGE>
0
> <PUBCHEM_HEAVY_ATOM_COUNT>
34
> <PUBCHEM_ATOM_DEF_STEREO_COUNT>
0
> <PUBCHEM_ATOM_UDEF_STEREO_COUNT>
7
> <PUBCHEM_BOND_DEF_STEREO_COUNT>
0
> <PUBCHEM_BOND_UDEF_STEREO_COUNT>
0
> <PUBCHEM_ISOTOPIC_ATOM_COUNT>
0
> <PUBCHEM_COMPONENT_COUNT>
1
> <PUBCHEM_CACTVS_TAUTO_COUNT>
-1
> <PUBCHEM_COORDINATE_TYPE>
1
5
255
> <PUBCHEM_BONDANNOTATIONS>
13  1  3
4  12  3
5  10  3
6  14  3
7  18  3
8  19  3
9  15  3
$$$$
