526956
  -OEChem-10302200292D
 36 37  0     1  0  0  0  0  0999 V2000
    3.5981   -0.5000    0.0000 O   0  0  0  0  0  0  0  0  0  0  0  0
    6.0981    0.3660    0.0000 O   0  0  0  0  0  0  0  0  0  0  0  0
    6.0981   -1.3660    0.0000 O   0  0  0  0  0  0  0  0  0  0  0  0
    2.0000   -2.0000    0.0000 O   0  5  0  0  0  0  0  0  0  0  0  0
    2.8660   -0.5000    0.0000 O   0  0  0  0  0  0  0  0  0  0  0  0
    6.3301    3.5000    0.0000 O   0  5  0  0  0  0  0  0  0  0  0  0
    7.1962    2.0000    0.0000 O   0  0  0  0  0  0  0  0  0  0  0  0
    2.8660   -1.5000    0.0000 N   0  3  0  0  0  0  0  0  0  0  0  0
    6.3301    2.5000    0.0000 N   0  3  0  0  0  0  0  0  0  0  0  0
    4.5981   -0.5000    0.0000 C   0  0  3  0  0  0  0  0  0  0  0  0
    4.5981   -1.5000    0.0000 C   0  0  0  0  0  0  0  0  0  0  0  0
    4.5981    0.5000    0.0000 C   0  0  0  0  0  0  0  0  0  0  0  0
    3.7320   -2.0000    0.0000 C   0  0  0  0  0  0  0  0  0  0  0  0
    5.5981   -0.5000    0.0000 C   0  0  0  0  0  0  0  0  0  0  0  0
    5.4641    1.0000    0.0000 C   0  0  0  0  0  0  0  0  0  0  0  0
    5.4641   -2.0000    0.0000 C   0  0  0  0  0  0  0  0  0  0  0  0
    3.7320    1.0000    0.0000 C   0  0  0  0  0  0  0  0  0  0  0  0
    5.4641    2.0000    0.0000 C   0  0  0  0  0  0  0  0  0  0  0  0
    3.7320   -3.0000    0.0000 C   0  0  0  0  0  0  0  0  0  0  0  0
    3.7320    2.0000    0.0000 C   0  0  0  0  0  0  0  0  0  0  0  0
    5.4641   -3.0000    0.0000 C   0  0  0  0  0  0  0  0  0  0  0  0
    4.5981    2.5000    0.0000 C   0  0  0  0  0  0  0  0  0  0  0  0
    4.5981   -3.5000    0.0000 C   0  0  0  0  0  0  0  0  0  0  0  0
    7.0981    0.3660    0.0000 C   0  0  0  0  0  0  0  0  0  0  0  0
    6.0010    0.6900    0.0000 H   0  0  0  0  0  0  0  0  0  0  0  0
    6.0010   -1.6900    0.0000 H   0  0  0  0  0  0  0  0  0  0  0  0
    3.1951    0.6900    0.0000 H   0  0  0  0  0  0  0  0  0  0  0  0
    3.2881    0.0369    0.0000 H   0  0  0  0  0  0  0  0  0  0  0  0
    3.1951   -3.3100    0.0000 H   0  0  0  0  0  0  0  0  0  0  0  0
    3.1951    2.3100    0.0000 H   0  0  0  0  0  0  0  0  0  0  0  0
    6.0010   -3.3100    0.0000 H   0  0  0  0  0  0  0  0  0  0  0  0
    4.5981    3.1200    0.0000 H   0  0  0  0  0  0  0  0  0  0  0  0
    4.5981   -4.1200    0.0000 H   0  0  0  0  0  0  0  0  0  0  0  0
    7.0981   -0.2540    0.0000 H   0  0  0  0  0  0  0  0  0  0  0  0
    7.7181    0.3660    0.0000 H   0  0  0  0  0  0  0  0  0  0  0  0
    7.0981    0.9860    0.0000 H   0  0  0  0  0  0  0  0  0  0  0  0
  1 10  1  0  0  0  0
  1 28  1  0  0  0  0
  2 14  1  0  0  0  0
  2 24  1  0  0  0  0
  3 14  2  0  0  0  0
  4  8  1  0  0  0  0
  5  8  2  0  0  0  0
  6  9  1  0  0  0  0
  7  9  2  0  0  0  0
  8 13  1  0  0  0  0
  9 18  1  0  0  0  0
 10 11  1  0  0  0  0
 10 12  1  0  0  0  0
 10 14  1  0  0  0  0
 11 13  1  0  0  0  0
 11 16  2  0  0  0  0
 12 15  2  0  0  0  0
 12 17  1  0  0  0  0
 13 19  2  0  0  0  0
 15 18  1  0  0  0  0
 15 25  1  0  0  0  0
 16 21  1  0  0  0  0
 16 26  1  0  0  0  0
 17 20  2  0  0  0  0
 17 27  1  0  0  0  0
 18 22  2  0  0  0  0
 19 23  1  0  0  0  0
 19 29  1  0  0  0  0
 20 22  1  0  0  0  0
 20 30  1  0  0  0  0
 21 23  2  0  0  0  0
 21 31  1  0  0  0  0
 22 32  1  0  0  0  0
 23 33  1  0  0  0  0
 24 34  1  0  0  0  0
 24 35  1  0  0  0  0
 24 36  1  0  0  0  0
M  CHG  4   4  -1   6  -1   8   1   9   1
M  END
> <PUBCHEM_COMPOUND_CID>
526956
> <PUBCHEM_COMPOUND_CANONICALIZED>
1
> <PUBCHEM_CACTVS_COMPLEXITY>
501
> <PUBCHEM_CACTVS_HBOND_ACCEPTOR>
7
> <PUBCHEM_CACTVS_HBOND_DONOR>
1
> <PUBCHEM_CACTVS_ROTATABLE_BOND>
4
> <PUBCHEM_CACTVS_SUBSKEYS>
AAADccBzOAAAAAAAAAAAAAAAAAAAAAAAAAAwYAAAAAAAAAABQAAAHgAECAAADEyBmAIyyIAQRgCJAiTSSwKCAAAgAgAoiAFAbIoJJjKAlZGAcABmwAEL2Ae82eGegAAAQAACAAAAAACAAAQAAAAAAAAAAA==
> <PUBCHEM_IUPAC_OPENEYE_NAME>
methyl 2-hydroxy-2-(2-nitrophenyl)-2-(3-nitrophenyl)acetate
> <PUBCHEM_IUPAC_CAS_NAME>
2-hydroxy-2-(2-nitrophenyl)-2-(3-nitrophenyl)acetic acid methyl ester
> <PUBCHEM_IUPAC_NAME_MARKUP>
methyl 2-hydroxy-2-(2-nitrophenyl)-2-(3-nitrophenyl)acetate
> <PUBCHEM_IUPAC_NAME>
methyl 2-hydroxy-2-(2-nitrophenyl)-2-(3-nitrophenyl)acetate
> <PUBCHEM_IUPAC_SYSTEMATIC_NAME>
methyl 2-(2-nitrophenyl)-2-(3-nitrophenyl)-2-oxidanyl-ethanoate
> <PUBCHEM_IUPAC_TRADITIONAL_NAME>
2-hydroxy-2-(2-nitrophenyl)-2-(3-nitrophenyl)acetic acid methyl ester
> <PUBCHEM_IUPAC_INCHI>
InChI=1S/C15H12N2O7/c1-24-14(18)15(19,10-5-4-6-11(9-10)16(20)21)12-7-2-3-8-13(12)17(22)23/h2-9,19H,1H3
> <PUBCHEM_IUPAC_INCHIKEY>
VXUBPQYRKIGDTB-UHFFFAOYSA-N
> <PUBCHEM_XLOGP3_AA>
2.3
> <PUBCHEM_EXACT_MASS>
332.06445073
> <PUBCHEM_MOLECULAR_FORMULA>
C15H12N2O7
> <PUBCHEM_MOLECULAR_WEIGHT>
332.26
> <PUBCHEM_OPENEYE_CAN_SMILES>
COC(=O)C(C1=CC(=CC=C1)[N+](=O)[O-])(C2=CC=CC=C2[N+](=O)[O-])O
> <PUBCHEM_OPENEYE_ISO_SMILES>
COC(=O)C(C1=CC(=CC=C1)[N+](=O)[O-])(C2=CC=CC=C2[N+](=O)[O-])O
> <PUBCHEM_CACTVS_TPSA>
138
> <PUBCHEM_MONOISOTOPIC_WEIGHT>
332.06445073
> <PUBCHEM_TOTAL_CHARGE>
0
> <PUBCHEM_HEAVY_ATOM_COUNT>
24
> <PUBCHEM_ATOM_DEF_STEREO_COUNT>
0
> <PUBCHEM_ATOM_UDEF_STEREO_COUNT>
1
> <PUBCHEM_BOND_DEF_STEREO_COUNT>
0
> <PUBCHEM_BOND_UDEF_STEREO_COUNT>
0
> <PUBCHEM_ISOTOPIC_ATOM_COUNT>
0
> <PUBCHEM_COMPONENT_COUNT>
1
> <PUBCHEM_CACTVS_TAUTO_COUNT>
-1
> <PUBCHEM_COORDINATE_TYPE>
1
5
255
> <PUBCHEM_BONDANNOTATIONS>
10  1  3
11  13  8
11  16  8
12  15  8
12  17  8
13  19  8
15  18  8
16  21  8
17  20  8
18  22  8
19  23  8
20  22  8
21  23  8
$$$$
