526974
  -OEChem-10302200292D
 34 35  0     1  0  0  0  0  0999 V2000
    2.3100    0.7500    0.0000 O   0  0  0  0  0  0  0  0  0  0  0  0
    4.8100    1.6160    0.0000 O   0  0  0  0  0  0  0  0  0  0  0  0
    4.8100   -0.1160    0.0000 O   0  0  0  0  0  0  0  0  0  0  0  0
    2.4440   -3.7500    0.0000 O   0  5  0  0  0  0  0  0  0  0  0  0
    4.1760   -3.7500    0.0000 O   0  0  0  0  0  0  0  0  0  0  0  0
    3.3100   -3.2500    0.0000 N   0  3  0  0  0  0  0  0  0  0  0  0
    3.3100    0.7500    0.0000 C   0  0  3  0  0  0  0  0  0  0  0  0
    3.3100   -0.2500    0.0000 C   0  0  0  0  0  0  0  0  0  0  0  0
    3.3100    1.7500    0.0000 C   0  0  0  0  0  0  0  0  0  0  0  0
    4.3100    0.7500    0.0000 C   0  0  0  0  0  0  0  0  0  0  0  0
    2.4440   -0.7500    0.0000 C   0  0  0  0  0  0  0  0  0  0  0  0
    4.1760   -0.7500    0.0000 C   0  0  0  0  0  0  0  0  0  0  0  0
    2.4440    2.2500    0.0000 C   0  0  0  0  0  0  0  0  0  0  0  0
    4.1760    2.2500    0.0000 C   0  0  0  0  0  0  0  0  0  0  0  0
    2.4440   -1.7500    0.0000 C   0  0  0  0  0  0  0  0  0  0  0  0
    4.1760   -1.7500    0.0000 C   0  0  0  0  0  0  0  0  0  0  0  0
    3.3100   -2.2500    0.0000 C   0  0  0  0  0  0  0  0  0  0  0  0
    2.4440    3.2500    0.0000 C   0  0  0  0  0  0  0  0  0  0  0  0
    4.1760    3.2500    0.0000 C   0  0  0  0  0  0  0  0  0  0  0  0
    3.3100    3.7500    0.0000 C   0  0  0  0  0  0  0  0  0  0  0  0
    5.8100    1.6160    0.0000 C   0  0  0  0  0  0  0  0  0  0  0  0
    1.9070   -0.4400    0.0000 H   0  0  0  0  0  0  0  0  0  0  0  0
    4.7130   -0.4400    0.0000 H   0  0  0  0  0  0  0  0  0  0  0  0
    1.9070    1.9400    0.0000 H   0  0  0  0  0  0  0  0  0  0  0  0
    4.7130    1.9400    0.0000 H   0  0  0  0  0  0  0  0  0  0  0  0
    2.0000    1.2869    0.0000 H   0  0  0  0  0  0  0  0  0  0  0  0
    1.9070   -2.0600    0.0000 H   0  0  0  0  0  0  0  0  0  0  0  0
    4.7130   -2.0600    0.0000 H   0  0  0  0  0  0  0  0  0  0  0  0
    1.9070    3.5600    0.0000 H   0  0  0  0  0  0  0  0  0  0  0  0
    4.7130    3.5600    0.0000 H   0  0  0  0  0  0  0  0  0  0  0  0
    3.3100    4.3700    0.0000 H   0  0  0  0  0  0  0  0  0  0  0  0
    5.8100    0.9960    0.0000 H   0  0  0  0  0  0  0  0  0  0  0  0
    6.4300    1.6160    0.0000 H   0  0  0  0  0  0  0  0  0  0  0  0
    5.8100    2.2360    0.0000 H   0  0  0  0  0  0  0  0  0  0  0  0
  1  7  1  0  0  0  0
  1 26  1  0  0  0  0
  2 10  1  0  0  0  0
  2 21  1  0  0  0  0
  3 10  2  0  0  0  0
  4  6  1  0  0  0  0
  5  6  2  0  0  0  0
  6 17  1  0  0  0  0
  7  8  1  0  0  0  0
  7  9  1  0  0  0  0
  7 10  1  0  0  0  0
  8 11  2  0  0  0  0
  8 12  1  0  0  0  0
  9 13  2  0  0  0  0
  9 14  1  0  0  0  0
 11 15  1  0  0  0  0
 11 22  1  0  0  0  0
 12 16  2  0  0  0  0
 12 23  1  0  0  0  0
 13 18  1  0  0  0  0
 13 24  1  0  0  0  0
 14 19  2  0  0  0  0
 14 25  1  0  0  0  0
 15 17  2  0  0  0  0
 15 27  1  0  0  0  0
 16 17  1  0  0  0  0
 16 28  1  0  0  0  0
 18 20  2  0  0  0  0
 18 29  1  0  0  0  0
 19 20  1  0  0  0  0
 19 30  1  0  0  0  0
 20 31  1  0  0  0  0
 21 32  1  0  0  0  0
 21 33  1  0  0  0  0
 21 34  1  0  0  0  0
M  CHG  2   4  -1   6   1
M  END
> <PUBCHEM_COMPOUND_CID>
526974
> <PUBCHEM_COMPOUND_CANONICALIZED>
1
> <PUBCHEM_CACTVS_COMPLEXITY>
380
> <PUBCHEM_CACTVS_HBOND_ACCEPTOR>
5
> <PUBCHEM_CACTVS_HBOND_DONOR>
1
> <PUBCHEM_CACTVS_ROTATABLE_BOND>
4
> <PUBCHEM_CACTVS_SUBSKEYS>
AAADccByOAAAAAAAAAAAAAAAAAAAAAAAAAAwYAAAAAAAAAABQAAAHgAECAAADEyBmAIyyIAQRgCJAiTSSwKCAAAgAgAoiAFAbIoJJjKAlZGAcABkwAEL2AeY2OGOiAAAAAAAAAAQAAAAAAAAAAAAAAAAAA==
> <PUBCHEM_IUPAC_OPENEYE_NAME>
methyl 2-hydroxy-2-(4-nitrophenyl)-2-phenyl-acetate
> <PUBCHEM_IUPAC_CAS_NAME>
2-hydroxy-2-(4-nitrophenyl)-2-phenylacetic acid methyl ester
> <PUBCHEM_IUPAC_NAME_MARKUP>
methyl 2-hydroxy-2-(4-nitrophenyl)-2-phenylacetate
> <PUBCHEM_IUPAC_NAME>
methyl 2-hydroxy-2-(4-nitrophenyl)-2-phenylacetate
> <PUBCHEM_IUPAC_SYSTEMATIC_NAME>
methyl 2-(4-nitrophenyl)-2-oxidanyl-2-phenyl-ethanoate
> <PUBCHEM_IUPAC_TRADITIONAL_NAME>
2-hydroxy-2-(4-nitrophenyl)-2-phenyl-acetic acid methyl ester
> <PUBCHEM_IUPAC_INCHI>
InChI=1S/C15H13NO5/c1-21-14(17)15(18,11-5-3-2-4-6-11)12-7-9-13(10-8-12)16(19)20/h2-10,18H,1H3
> <PUBCHEM_IUPAC_INCHIKEY>
KJJUMKSGIKFVPJ-UHFFFAOYSA-N
> <PUBCHEM_XLOGP3_AA>
2.5
> <PUBCHEM_EXACT_MASS>
287.07937252
> <PUBCHEM_MOLECULAR_FORMULA>
C15H13NO5
> <PUBCHEM_MOLECULAR_WEIGHT>
287.27
> <PUBCHEM_OPENEYE_CAN_SMILES>
COC(=O)C(C1=CC=CC=C1)(C2=CC=C(C=C2)[N+](=O)[O-])O
> <PUBCHEM_OPENEYE_ISO_SMILES>
COC(=O)C(C1=CC=CC=C1)(C2=CC=C(C=C2)[N+](=O)[O-])O
> <PUBCHEM_CACTVS_TPSA>
92.4
> <PUBCHEM_MONOISOTOPIC_WEIGHT>
287.07937252
> <PUBCHEM_TOTAL_CHARGE>
0
> <PUBCHEM_HEAVY_ATOM_COUNT>
21
> <PUBCHEM_ATOM_DEF_STEREO_COUNT>
0
> <PUBCHEM_ATOM_UDEF_STEREO_COUNT>
1
> <PUBCHEM_BOND_DEF_STEREO_COUNT>
0
> <PUBCHEM_BOND_UDEF_STEREO_COUNT>
0
> <PUBCHEM_ISOTOPIC_ATOM_COUNT>
0
> <PUBCHEM_COMPONENT_COUNT>
1
> <PUBCHEM_CACTVS_TAUTO_COUNT>
-1
> <PUBCHEM_COORDINATE_TYPE>
1
5
255
> <PUBCHEM_BONDANNOTATIONS>
7  1  3
11  15  8
12  16  8
13  18  8
14  19  8
15  17  8
16  17  8
18  20  8
19  20  8
8  11  8
8  12  8
9  13  8
9  14  8
$$$$
