526916
  -OEChem-10302200292D
 38 41  0     1  0  0  0  0  0999 V2000
    3.6730    2.0607    0.0000 Br  0  0  0  0  0  0  0  0  0  0  0  0
    4.9575   -2.0607    0.0000 O   0  0  0  0  0  0  0  0  0  0  0  0
    4.5092   -0.3876    0.0000 C   0  0  0  0  0  0  0  0  0  0  0  0
    3.6730    1.0607    0.0000 C   0  0  0  0  0  0  0  0  0  0  0  0
    2.8368   -0.3876    0.0000 C   0  0  3  0  0  0  0  0  0  0  0  0
    2.9819   -0.8227    0.0000 C   0  0  3  0  0  0  0  0  0  0  0  0
    4.5092    0.5779    0.0000 C   0  0  0  0  0  0  0  0  0  0  0  0
    3.6730   -0.6904    0.0000 C   0  0  0  0  0  0  0  0  0  0  0  0
    3.8876   -1.2996    0.0000 C   0  0  0  0  0  0  0  0  0  0  0  0
    2.8368    0.5779    0.0000 C   0  0  0  0  0  0  0  0  0  0  0  0
    2.9819    0.2226    0.0000 C   0  0  0  0  0  0  0  0  0  0  0  0
    2.0000   -0.8704    0.0000 C   0  0  0  0  0  0  0  0  0  0  0  0
    5.2163   -1.0947    0.0000 C   0  0  0  0  0  0  0  0  0  0  0  0
    6.1822   -0.8359    0.0000 C   0  0  0  0  0  0  0  0  0  0  0  0
    6.8893   -1.5430    0.0000 C   0  0  0  0  0  0  0  0  0  0  0  0
    6.4410    0.1300    0.0000 C   0  0  0  0  0  0  0  0  0  0  0  0
    7.8553   -1.2842    0.0000 C   0  0  0  0  0  0  0  0  0  0  0  0
    7.4070    0.3888    0.0000 C   0  0  0  0  0  0  0  0  0  0  0  0
    8.1141   -0.3182    0.0000 C   0  0  0  0  0  0  0  0  0  0  0  0
    3.3444   -0.0316    0.0000 H   0  0  0  0  0  0  0  0  0  0  0  0
    2.8478   -1.4281    0.0000 H   0  0  0  0  0  0  0  0  0  0  0  0
    5.1198    0.4702    0.0000 H   0  0  0  0  0  0  0  0  0  0  0  0
    4.7212    1.1605    0.0000 H   0  0  0  0  0  0  0  0  0  0  0  0
    3.3030   -1.1879    0.0000 H   0  0  0  0  0  0  0  0  0  0  0  0
    4.0430   -1.1879    0.0000 H   0  0  0  0  0  0  0  0  0  0  0  0
    3.5782   -1.8368    0.0000 H   0  0  0  0  0  0  0  0  0  0  0  0
    4.4127   -1.6291    0.0000 H   0  0  0  0  0  0  0  0  0  0  0  0
    2.6247    1.1605    0.0000 H   0  0  0  0  0  0  0  0  0  0  0  0
    2.2262    0.4702    0.0000 H   0  0  0  0  0  0  0  0  0  0  0  0
    2.6383    0.7386    0.0000 H   0  0  0  0  0  0  0  0  0  0  0  0
    2.3885    0.0430    0.0000 H   0  0  0  0  0  0  0  0  0  0  0  0
    1.5188   -0.4795    0.0000 H   0  0  0  0  0  0  0  0  0  0  0  0
    1.8068   -1.4596    0.0000 H   0  0  0  0  0  0  0  0  0  0  0  0
    6.7289   -2.1419    0.0000 H   0  0  0  0  0  0  0  0  0  0  0  0
    6.0026    0.5684    0.0000 H   0  0  0  0  0  0  0  0  0  0  0  0
    8.2937   -1.7226    0.0000 H   0  0  0  0  0  0  0  0  0  0  0  0
    7.5674    0.9877    0.0000 H   0  0  0  0  0  0  0  0  0  0  0  0
    8.7129   -0.1578    0.0000 H   0  0  0  0  0  0  0  0  0  0  0  0
  1  4  1  0  0  0  0
  2 13  2  0  0  0  0
  3  7  1  0  0  0  0
  3  8  1  0  0  0  0
  3  9  1  0  0  0  0
  3 13  1  0  0  0  0
  4  7  1  0  0  0  0
  4 10  1  0  0  0  0
  4 11  1  0  0  0  0
  5  8  1  0  0  0  0
  5 10  1  0  0  0  0
  5 12  1  0  0  0  0
  5 20  1  0  0  0  0
  6  9  1  0  0  0  0
  6 11  1  0  0  0  0
  6 12  1  0  0  0  0
  6 21  1  0  0  0  0
  7 22  1  0  0  0  0
  7 23  1  0  0  0  0
  8 24  1  0  0  0  0
  8 25  1  0  0  0  0
  9 26  1  0  0  0  0
  9 27  1  0  0  0  0
 10 28  1  0  0  0  0
 10 29  1  0  0  0  0
 11 30  1  0  0  0  0
 11 31  1  0  0  0  0
 12 32  1  0  0  0  0
 12 33  1  0  0  0  0
 13 14  1  0  0  0  0
 14 15  2  0  0  0  0
 14 16  1  0  0  0  0
 15 17  1  0  0  0  0
 15 34  1  0  0  0  0
 16 18  2  0  0  0  0
 16 35  1  0  0  0  0
 17 19  2  0  0  0  0
 17 36  1  0  0  0  0
 18 19  1  0  0  0  0
 18 37  1  0  0  0  0
 19 38  1  0  0  0  0
M  END
> <PUBCHEM_COMPOUND_CID>
526916
> <PUBCHEM_COMPOUND_CANONICALIZED>
1
> <PUBCHEM_CACTVS_COMPLEXITY>
382
> <PUBCHEM_CACTVS_HBOND_ACCEPTOR>
1
> <PUBCHEM_CACTVS_HBOND_DONOR>
0
> <PUBCHEM_CACTVS_ROTATABLE_BOND>
2
> <PUBCHEM_CACTVS_SUBSKEYS>
AAADceB4IAAAEAAAAAAAAAAAAAAAAAAAAAAwYMGDAAAAAAABAAAAGgBAAAABjwSAmAAwAIAAAACIAqBSAAACAAAkAAAIiAEAAOgIIDKAFRCAIQAggAAIiYcIiMCPAAAAAAAAAAAAAAQgAAAAAAAAAAAAAA==
> <PUBCHEM_IUPAC_OPENEYE_NAME>
(3-bromo-1-adamantyl)-phenyl-methanone
> <PUBCHEM_IUPAC_CAS_NAME>
(3-bromo-1-adamantyl)-phenylmethanone
> <PUBCHEM_IUPAC_NAME_MARKUP>
(3-bromo-1-adamantyl)-phenylmethanone
> <PUBCHEM_IUPAC_NAME>
(3-bromo-1-adamantyl)-phenylmethanone
> <PUBCHEM_IUPAC_SYSTEMATIC_NAME>
(3-bromanyl-1-adamantyl)-phenyl-methanone
> <PUBCHEM_IUPAC_TRADITIONAL_NAME>
(3-bromo-1-adamantyl)-phenyl-methanone
> <PUBCHEM_IUPAC_INCHI>
InChI=1S/C17H19BrO/c18-17-9-12-6-13(10-17)8-16(7-12,11-17)15(19)14-4-2-1-3-5-14/h1-5,12-13H,6-11H2
> <PUBCHEM_IUPAC_INCHIKEY>
AEXJVZXMUPLZTQ-UHFFFAOYSA-N
> <PUBCHEM_XLOGP3_AA>
4.2
> <PUBCHEM_EXACT_MASS>
318.06193
> <PUBCHEM_MOLECULAR_FORMULA>
C17H19BrO
> <PUBCHEM_MOLECULAR_WEIGHT>
319.2
> <PUBCHEM_OPENEYE_CAN_SMILES>
C1C2CC3(CC1CC(C2)(C3)Br)C(=O)C4=CC=CC=C4
> <PUBCHEM_OPENEYE_ISO_SMILES>
C1C2CC3(CC1CC(C2)(C3)Br)C(=O)C4=CC=CC=C4
> <PUBCHEM_CACTVS_TPSA>
17.1
> <PUBCHEM_MONOISOTOPIC_WEIGHT>
318.06193
> <PUBCHEM_TOTAL_CHARGE>
0
> <PUBCHEM_HEAVY_ATOM_COUNT>
19
> <PUBCHEM_ATOM_DEF_STEREO_COUNT>
0
> <PUBCHEM_ATOM_UDEF_STEREO_COUNT>
2
> <PUBCHEM_BOND_DEF_STEREO_COUNT>
0
> <PUBCHEM_BOND_UDEF_STEREO_COUNT>
0
> <PUBCHEM_ISOTOPIC_ATOM_COUNT>
0
> <PUBCHEM_COMPONENT_COUNT>
1
> <PUBCHEM_CACTVS_TAUTO_COUNT>
-1
> <PUBCHEM_COORDINATE_TYPE>
1
5
255
> <PUBCHEM_BONDANNOTATIONS>
14  15  8
14  16  8
15  17  8
16  18  8
17  19  8
18  19  8
5  12  3
6  12  3
$$$$
