526948
  -OEChem-10302200292D
 25 25  0     1  0  0  0  0  0999 V2000
    3.5823   -0.0919    0.0000 S   0  0  0  0  0  0  0  0  0  0  0  0
    3.1756   -1.0054    0.0000 S   0  0  0  0  0  0  0  0  0  0  0  0
    4.2634   -3.3533    0.0000 S   0  0  0  0  0  0  0  0  0  0  0  0
    4.3958    1.7352    0.0000 O   0  0  0  0  0  0  0  0  0  0  0  0
    2.9945    0.7172    0.0000 C   0  0  3  0  0  0  0  0  0  0  0  0
    3.4013    1.6307    0.0000 C   0  0  0  0  0  0  0  0  0  0  0  0
    2.8135    2.4397    0.0000 C   0  0  0  0  0  0  0  0  0  0  0  0
    2.0000    0.6126    0.0000 C   0  0  0  0  0  0  0  0  0  0  0  0
    3.2202    3.3533    0.0000 C   0  0  0  0  0  0  0  0  0  0  0  0
    3.7634   -1.8144    0.0000 C   0  0  0  0  0  0  0  0  0  0  0  0
    4.7634   -1.8144    0.0000 C   0  0  0  0  0  0  0  0  0  0  0  0
    3.4543   -2.7655    0.0000 C   0  0  0  0  0  0  0  0  0  0  0  0
    5.0724   -2.7655    0.0000 C   0  0  0  0  0  0  0  0  0  0  0  0
    2.7424    0.1508    0.0000 H   0  0  0  0  0  0  0  0  0  0  0  0
    2.2995    2.7864    0.0000 H   0  0  0  0  0  0  0  0  0  0  0  0
    2.3828    1.9937    0.0000 H   0  0  0  0  0  0  0  0  0  0  0  0
    1.9352    1.2292    0.0000 H   0  0  0  0  0  0  0  0  0  0  0  0
    1.3834    0.5478    0.0000 H   0  0  0  0  0  0  0  0  0  0  0  0
    2.0648   -0.0040    0.0000 H   0  0  0  0  0  0  0  0  0  0  0  0
    3.7866    3.1011    0.0000 H   0  0  0  0  0  0  0  0  0  0  0  0
    3.4724    3.9197    0.0000 H   0  0  0  0  0  0  0  0  0  0  0  0
    2.6538    3.6054    0.0000 H   0  0  0  0  0  0  0  0  0  0  0  0
    5.1278   -1.3128    0.0000 H   0  0  0  0  0  0  0  0  0  0  0  0
    2.8647   -2.9571    0.0000 H   0  0  0  0  0  0  0  0  0  0  0  0
    5.6620   -2.9571    0.0000 H   0  0  0  0  0  0  0  0  0  0  0  0
  1  2  1  0  0  0  0
  1  5  1  0  0  0  0
  2 10  1  0  0  0  0
  3 12  1  0  0  0  0
  3 13  1  0  0  0  0
  4  6  2  0  0  0  0
  5  6  1  0  0  0  0
  5  8  1  0  0  0  0
  5 14  1  0  0  0  0
  6  7  1  0  0  0  0
  7  9  1  0  0  0  0
  7 15  1  0  0  0  0
  7 16  1  0  0  0  0
  8 17  1  0  0  0  0
  8 18  1  0  0  0  0
  8 19  1  0  0  0  0
  9 20  1  0  0  0  0
  9 21  1  0  0  0  0
  9 22  1  0  0  0  0
 10 11  1  0  0  0  0
 10 12  2  0  0  0  0
 11 13  2  0  0  0  0
 11 23  1  0  0  0  0
 12 24  1  0  0  0  0
 13 25  1  0  0  0  0
M  END
> <PUBCHEM_COMPOUND_CID>
526948
> <PUBCHEM_COMPOUND_CANONICALIZED>
1
> <PUBCHEM_CACTVS_COMPLEXITY>
172
> <PUBCHEM_CACTVS_HBOND_ACCEPTOR>
4
> <PUBCHEM_CACTVS_HBOND_DONOR>
0
> <PUBCHEM_CACTVS_ROTATABLE_BOND>
5
> <PUBCHEM_CACTVS_SUBSKEYS>
AAADccBwIABgAAAAAAAAAAAAAAAAASAAAAAAAAAAAAAAAAABgAAAGgQAAAAACASE0ACyAYAAAAiMAKBSAAAHAIAgCBBIiBkAAIgIIAIgAQAAAAAAAAAgAAAAAAAAAAAAAAAAAAAAAAAAAAAAAAAAAAAAAA==
> <PUBCHEM_IUPAC_OPENEYE_NAME>
2-(3-thienyldisulfanyl)pentan-3-one
> <PUBCHEM_IUPAC_CAS_NAME>
2-(3-thiophenyldisulfanyl)-3-pentanone
> <PUBCHEM_IUPAC_NAME_MARKUP>
2-(thiophen-3-yldisulfanyl)pentan-3-one
> <PUBCHEM_IUPAC_NAME>
2-(thiophen-3-yldisulfanyl)pentan-3-one
> <PUBCHEM_IUPAC_SYSTEMATIC_NAME>
2-(thiophen-3-yldisulfanyl)pentan-3-one
> <PUBCHEM_IUPAC_TRADITIONAL_NAME>
2-(3-thienyldisulfanyl)pentan-3-one
> <PUBCHEM_IUPAC_INCHI>
InChI=1S/C9H12OS3/c1-3-9(10)7(2)12-13-8-4-5-11-6-8/h4-7H,3H2,1-2H3
> <PUBCHEM_IUPAC_INCHIKEY>
KUDRFONEPCGALO-UHFFFAOYSA-N
> <PUBCHEM_XLOGP3_AA>
2.8
> <PUBCHEM_EXACT_MASS>
232.00502852
> <PUBCHEM_MOLECULAR_FORMULA>
C9H12OS3
> <PUBCHEM_MOLECULAR_WEIGHT>
232.4
> <PUBCHEM_OPENEYE_CAN_SMILES>
CCC(=O)C(C)SSC1=CSC=C1
> <PUBCHEM_OPENEYE_ISO_SMILES>
CCC(=O)C(C)SSC1=CSC=C1
> <PUBCHEM_CACTVS_TPSA>
95.9
> <PUBCHEM_MONOISOTOPIC_WEIGHT>
232.00502852
> <PUBCHEM_TOTAL_CHARGE>
0
> <PUBCHEM_HEAVY_ATOM_COUNT>
13
> <PUBCHEM_ATOM_DEF_STEREO_COUNT>
0
> <PUBCHEM_ATOM_UDEF_STEREO_COUNT>
1
> <PUBCHEM_BOND_DEF_STEREO_COUNT>
0
> <PUBCHEM_BOND_UDEF_STEREO_COUNT>
0
> <PUBCHEM_ISOTOPIC_ATOM_COUNT>
0
> <PUBCHEM_COMPONENT_COUNT>
1
> <PUBCHEM_CACTVS_TAUTO_COUNT>
-1
> <PUBCHEM_COORDINATE_TYPE>
1
5
255
> <PUBCHEM_BONDANNOTATIONS>
10  11  8
10  12  8
11  13  8
3  12  8
3  13  8
5  8  3
$$$$
