527027
  -OEChem-10302200292D
 51 53  0     1  0  0  0  0  0999 V2000
    2.0000   -2.4707    0.0000 O   0  0  0  0  0  0  0  0  0  0  0  0
    4.3838   -0.0527    0.0000 C   0  0  3  0  0  0  0  0  0  0  0  0
    4.3838   -1.0527    0.0000 C   0  0  3  0  0  0  0  0  0  0  0  0
    5.2498    0.4473    0.0000 C   0  0  3  0  0  0  0  0  0  0  0  0
    3.4899   -1.5874    0.0000 C   0  0  3  0  0  0  0  0  0  0  0  0
    3.4899    0.4820    0.0000 C   0  0  0  0  0  0  0  0  0  0  0  0
    5.2498   -1.5527    0.0000 C   0  0  0  0  0  0  0  0  0  0  0  0
    2.5838   -1.0735    0.0000 C   0  0  0  0  0  0  0  0  0  0  0  0
    2.5838   -0.0319    0.0000 C   0  0  0  0  0  0  0  0  0  0  0  0
    6.1159   -0.0527    0.0000 C   0  0  0  0  0  0  0  0  0  0  0  0
    4.3838    0.9473    0.0000 C   0  0  0  0  0  0  0  0  0  0  0  0
    5.2338    1.4888    0.0000 C   0  0  0  0  0  0  0  0  0  0  0  0
    6.1159   -1.0527    0.0000 C   0  0  0  0  0  0  0  0  0  0  0  0
    3.9999   -2.4475    0.0000 C   0  0  0  0  0  0  0  0  0  0  0  0
    6.1318    2.0166    0.0000 C   0  0  0  0  0  0  0  0  0  0  0  0
    2.9999   -2.4591    0.0000 C   0  0  0  0  0  0  0  0  0  0  0  0
    7.0259    0.4542    0.0000 C   0  0  0  0  0  0  0  0  0  0  0  0
    7.0339    1.4958    0.0000 C   0  0  0  0  0  0  0  0  0  0  0  0
    7.9019    1.9924    0.0000 C   0  0  0  0  0  0  0  0  0  0  0  0
    7.9057    2.9924    0.0000 C   0  0  0  0  0  0  0  0  0  0  0  0
    8.7660    1.4891    0.0000 C   0  0  0  0  0  0  0  0  0  0  0  0
    4.3886   -1.6727    0.0000 H   0  0  0  0  0  0  0  0  0  0  0  0
    5.7844    0.7614    0.0000 H   0  0  0  0  0  0  0  0  0  0  0  0
    3.8945    0.9518    0.0000 H   0  0  0  0  0  0  0  0  0  0  0  0
    3.0963    0.9610    0.0000 H   0  0  0  0  0  0  0  0  0  0  0  0
    4.8513   -2.0276    0.0000 H   0  0  0  0  0  0  0  0  0  0  0  0
    5.6484   -2.0276    0.0000 H   0  0  0  0  0  0  0  0  0  0  0  0
    1.9730   -0.9674    0.0000 H   0  0  0  0  0  0  0  0  0  0  0  0
    2.3748   -1.6572    0.0000 H   0  0  0  0  0  0  0  0  0  0  0  0
    2.3748    0.5518    0.0000 H   0  0  0  0  0  0  0  0  0  0  0  0
    1.9730   -0.1380    0.0000 H   0  0  0  0  0  0  0  0  0  0  0  0
    5.0038    0.9473    0.0000 H   0  0  0  0  0  0  0  0  0  0  0  0
    4.3838    1.5673    0.0000 H   0  0  0  0  0  0  0  0  0  0  0  0
    3.7638    0.9473    0.0000 H   0  0  0  0  0  0  0  0  0  0  0  0
    5.0158    2.0692    0.0000 H   0  0  0  0  0  0  0  0  0  0  0  0
    4.6246    1.3733    0.0000 H   0  0  0  0  0  0  0  0  0  0  0  0
    6.6528   -1.3627    0.0000 H   0  0  0  0  0  0  0  0  0  0  0  0
    3.4666   -2.7637    0.0000 H   0  0  0  0  0  0  0  0  0  0  0  0
    4.3160   -2.9809    0.0000 H   0  0  0  0  0  0  0  0  0  0  0  0
    4.5332   -2.1313    0.0000 H   0  0  0  0  0  0  0  0  0  0  0  0
    6.5291    2.4926    0.0000 H   0  0  0  0  0  0  0  0  0  0  0  0
    5.7309    2.4895    0.0000 H   0  0  0  0  0  0  0  0  0  0  0  0
    3.3161   -2.9924    0.0000 H   0  0  0  0  0  0  0  0  0  0  0  0
    7.5592    0.1380    0.0000 H   0  0  0  0  0  0  0  0  0  0  0  0
    7.8995    1.3724    0.0000 H   0  0  0  0  0  0  0  0  0  0  0  0
    8.5257    2.9900    0.0000 H   0  0  0  0  0  0  0  0  0  0  0  0
    7.9081    3.6124    0.0000 H   0  0  0  0  0  0  0  0  0  0  0  0
    7.2857    2.9948    0.0000 H   0  0  0  0  0  0  0  0  0  0  0  0
    8.4539    0.9533    0.0000 H   0  0  0  0  0  0  0  0  0  0  0  0
    9.3017    1.1770    0.0000 H   0  0  0  0  0  0  0  0  0  0  0  0
    9.0780    2.0248    0.0000 H   0  0  0  0  0  0  0  0  0  0  0  0
  1 16  2  0  0  0  0
  2  3  1  0  0  0  0
  2  4  1  0  0  0  0
  2  6  1  0  0  0  0
  2 11  1  0  0  0  0
  3  5  1  0  0  0  0
  3  7  1  0  0  0  0
  3 22  1  0  0  0  0
  4 10  1  0  0  0  0
  4 12  1  0  0  0  0
  4 23  1  0  0  0  0
  5  8  1  0  0  0  0
  5 14  1  0  0  0  0
  5 16  1  0  0  0  0
  6  9  1  0  0  0  0
  6 24  1  0  0  0  0
  6 25  1  0  0  0  0
  7 13  1  0  0  0  0
  7 26  1  0  0  0  0
  7 27  1  0  0  0  0
  8  9  1  0  0  0  0
  8 28  1  0  0  0  0
  8 29  1  0  0  0  0
  9 30  1  0  0  0  0
  9 31  1  0  0  0  0
 10 13  2  0  0  0  0
 10 17  1  0  0  0  0
 11 32  1  0  0  0  0
 11 33  1  0  0  0  0
 11 34  1  0  0  0  0
 12 15  1  0  0  0  0
 12 35  1  0  0  0  0
 12 36  1  0  0  0  0
 13 37  1  0  0  0  0
 14 38  1  0  0  0  0
 14 39  1  0  0  0  0
 14 40  1  0  0  0  0
 15 18  1  0  0  0  0
 15 41  1  0  0  0  0
 15 42  1  0  0  0  0
 16 43  1  0  0  0  0
 17 18  2  0  0  0  0
 17 44  1  0  0  0  0
 18 19  1  0  0  0  0
 19 20  1  0  0  0  0
 19 21  1  0  0  0  0
 19 45  1  0  0  0  0
 20 46  1  0  0  0  0
 20 47  1  0  0  0  0
 20 48  1  0  0  0  0
 21 49  1  0  0  0  0
 21 50  1  0  0  0  0
 21 51  1  0  0  0  0
M  END
> <PUBCHEM_COMPOUND_CID>
527027
> <PUBCHEM_COMPOUND_CANONICALIZED>
1
> <PUBCHEM_CACTVS_COMPLEXITY>
498
> <PUBCHEM_CACTVS_HBOND_ACCEPTOR>
1
> <PUBCHEM_CACTVS_HBOND_DONOR>
0
> <PUBCHEM_CACTVS_ROTATABLE_BOND>
2
> <PUBCHEM_CACTVS_SUBSKEYS>
AAADceB4IAAAAAAAAAAAAAAAAAAAAAAAAAAwQIAAAAAAAACAAAAAGgAAAAAADwCggAICAAAAAACIAihSgAAAAAAgAAAACAEAAAgIABIAAQAAAAAAgAAIgAMIiMCPgAAAAAAAAAAAAAQAACAAAAAAAAAAAA==
> <PUBCHEM_IUPAC_OPENEYE_NAME>
7-isopropyl-1,4a-dimethyl-2,3,4,4b,5,6,10,10a-octahydrophenanthrene-1-carbaldehyde
> <PUBCHEM_IUPAC_CAS_NAME>
1,4a-dimethyl-7-propan-2-yl-2,3,4,4b,5,6,10,10a-octahydrophenanthrene-1-carboxaldehyde
> <PUBCHEM_IUPAC_NAME_MARKUP>
1,4<I>a</I>-dimethyl-7-propan-2-yl-2,3,4,4<I>b</I>,5,6,10,10<I>a</I>-octahydrophenanthrene-1-carbaldehyde
> <PUBCHEM_IUPAC_NAME>
1,4a-dimethyl-7-propan-2-yl-2,3,4,4b,5,6,10,10a-octahydrophenanthrene-1-carbaldehyde
> <PUBCHEM_IUPAC_SYSTEMATIC_NAME>
1,4a-dimethyl-7-propan-2-yl-2,3,4,4b,5,6,10,10a-octahydrophenanthrene-1-carbaldehyde
> <PUBCHEM_IUPAC_TRADITIONAL_NAME>
7-isopropyl-1,4a-dimethyl-2,3,4,4b,5,6,10,10a-octahydrophenanthrene-1-carbaldehyde
> <PUBCHEM_IUPAC_INCHI>
InChI=1S/C20H30O/c1-14(2)15-6-8-17-16(12-15)7-9-18-19(3,13-21)10-5-11-20(17,18)4/h7,12-14,17-18H,5-6,8-11H2,1-4H3
> <PUBCHEM_IUPAC_INCHIKEY>
HOFSYSONRIGEAC-UHFFFAOYSA-N
> <PUBCHEM_XLOGP3_AA>
4.7
> <PUBCHEM_EXACT_MASS>
286.229665576
> <PUBCHEM_MOLECULAR_FORMULA>
C20H30O
> <PUBCHEM_MOLECULAR_WEIGHT>
286.5
> <PUBCHEM_OPENEYE_CAN_SMILES>
CC(C)C1=CC2=CCC3C(CCCC3(C2CC1)C)(C)C=O
> <PUBCHEM_OPENEYE_ISO_SMILES>
CC(C)C1=CC2=CCC3C(CCCC3(C2CC1)C)(C)C=O
> <PUBCHEM_CACTVS_TPSA>
17.1
> <PUBCHEM_MONOISOTOPIC_WEIGHT>
286.229665576
> <PUBCHEM_TOTAL_CHARGE>
0
> <PUBCHEM_HEAVY_ATOM_COUNT>
21
> <PUBCHEM_ATOM_DEF_STEREO_COUNT>
0
> <PUBCHEM_ATOM_UDEF_STEREO_COUNT>
4
> <PUBCHEM_BOND_DEF_STEREO_COUNT>
0
> <PUBCHEM_BOND_UDEF_STEREO_COUNT>
0
> <PUBCHEM_ISOTOPIC_ATOM_COUNT>
0
> <PUBCHEM_COMPONENT_COUNT>
1
> <PUBCHEM_CACTVS_TAUTO_COUNT>
-1
> <PUBCHEM_COORDINATE_TYPE>
1
5
255
> <PUBCHEM_BONDANNOTATIONS>
2  11  3
3  7  3
4  12  3
5  14  3
$$$$
