527032
  -OEChem-10302200292D
 27 28  0     1  0  0  0  0  0999 V2000
    3.0723    2.0713    0.0000 O   0  0  0  0  0  0  0  0  0  0  0  0
    5.4490   -0.7344    0.0000 C   0  0  0  0  0  0  0  0  0  0  0  0
    4.3089    0.2227    0.0000 C   0  0  3  0  0  0  0  0  0  0  0  0
    4.0501   -0.7432    0.0000 C   0  0  3  0  0  0  0  0  0  0  0  0
    3.5723    1.2053    0.0000 C   0  0  3  0  0  0  0  0  0  0  0  0
    2.2756   -0.0884    0.0000 C   0  0  0  0  0  0  0  0  0  0  0  0
    2.8290   -1.6089    0.0000 C   0  0  0  0  0  0  0  0  0  0  0  0
    5.9490   -1.6004    0.0000 C   0  0  0  0  0  0  0  0  0  0  0  0
    6.3150   -0.2344    0.0000 C   0  0  0  0  0  0  0  0  0  0  0  0
    2.0000   -1.0497    0.0000 C   0  0  0  0  0  0  0  0  0  0  0  0
    2.8639   -2.6083    0.0000 C   0  0  0  0  0  0  0  0  0  0  0  0
    4.7592    0.6489    0.0000 H   0  0  0  0  0  0  0  0  0  0  0  0
    4.2401   -1.3334    0.0000 H   0  0  0  0  0  0  0  0  0  0  0  0
    4.0897    1.5469    0.0000 H   0  0  0  0  0  0  0  0  0  0  0  0
    2.2706    0.5315    0.0000 H   0  0  0  0  0  0  0  0  0  0  0  0
    1.6613   -0.0046    0.0000 H   0  0  0  0  0  0  0  0  0  0  0  0
    5.4121   -1.9104    0.0000 H   0  0  0  0  0  0  0  0  0  0  0  0
    6.2590   -2.1374    0.0000 H   0  0  0  0  0  0  0  0  0  0  0  0
    6.4859   -1.2904    0.0000 H   0  0  0  0  0  0  0  0  0  0  0  0
    6.6250   -0.7713    0.0000 H   0  0  0  0  0  0  0  0  0  0  0  0
    6.8520    0.0756    0.0000 H   0  0  0  0  0  0  0  0  0  0  0  0
    6.0050    0.3025    0.0000 H   0  0  0  0  0  0  0  0  0  0  0  0
    1.4174   -1.2618    0.0000 H   0  0  0  0  0  0  0  0  0  0  0  0
    3.3823    2.6083    0.0000 H   0  0  0  0  0  0  0  0  0  0  0  0
    2.2443   -2.6299    0.0000 H   0  0  0  0  0  0  0  0  0  0  0  0
    2.8856   -3.2279    0.0000 H   0  0  0  0  0  0  0  0  0  0  0  0
    3.4836   -2.5866    0.0000 H   0  0  0  0  0  0  0  0  0  0  0  0
  1  5  1  0  0  0  0
  1 24  1  0  0  0  0
  2  3  1  0  0  0  0
  2  4  1  0  0  0  0
  2  8  1  0  0  0  0
  2  9  1  0  0  0  0
  3  5  1  0  0  0  0
  3  6  1  0  0  0  0
  3 12  1  0  0  0  0
  4  5  1  0  0  0  0
  4  7  1  0  0  0  0
  4 13  1  0  0  0  0
  5 14  1  0  0  0  0
  6 10  1  0  0  0  0
  6 15  1  0  0  0  0
  6 16  1  0  0  0  0
  7 10  2  0  0  0  0
  7 11  1  0  0  0  0
  8 17  1  0  0  0  0
  8 18  1  0  0  0  0
  8 19  1  0  0  0  0
  9 20  1  0  0  0  0
  9 21  1  0  0  0  0
  9 22  1  0  0  0  0
 10 23  1  0  0  0  0
 11 25  1  0  0  0  0
 11 26  1  0  0  0  0
 11 27  1  0  0  0  0
M  END
> <PUBCHEM_COMPOUND_CID>
527032
> <PUBCHEM_COMPOUND_CANONICALIZED>
1
> <PUBCHEM_CACTVS_COMPLEXITY>
215
> <PUBCHEM_CACTVS_HBOND_ACCEPTOR>
1
> <PUBCHEM_CACTVS_HBOND_DONOR>
1
> <PUBCHEM_CACTVS_ROTATABLE_BOND>
0
> <PUBCHEM_CACTVS_SUBSKEYS>
AAADceBwIAAAAAAAAAAAAAAAAABgAAAAAAAgQAAAAAAAAAAAAAAAGgAACAAADxSggAICAAAAAgCAAiBCAAAAAAAgAAAACAAAAAgAEAIAAQAAQAAEwAAIAAOAwEAPgAAAAAAAAAAAAAAAAAAAAAAAAAAAAA==
> <PUBCHEM_IUPAC_OPENEYE_NAME>
2,7,7-trimethylbicyclo[3.1.1]hept-2-en-6-ol
> <PUBCHEM_IUPAC_CAS_NAME>
2,7,7-trimethyl-6-bicyclo[3.1.1]hept-2-enol
> <PUBCHEM_IUPAC_NAME_MARKUP>
2,7,7-trimethylbicyclo[3.1.1]hept-2-en-6-ol
> <PUBCHEM_IUPAC_NAME>
2,7,7-trimethylbicyclo[3.1.1]hept-2-en-6-ol
> <PUBCHEM_IUPAC_SYSTEMATIC_NAME>
2,7,7-trimethylbicyclo[3.1.1]hept-2-en-6-ol
> <PUBCHEM_IUPAC_TRADITIONAL_NAME>
2,7,7-trimethylbicyclo[3.1.1]hept-2-en-6-ol
> <PUBCHEM_IUPAC_INCHI>
InChI=1S/C10H16O/c1-6-4-5-7-9(11)8(6)10(7,2)3/h4,7-9,11H,5H2,1-3H3
> <PUBCHEM_IUPAC_INCHIKEY>
IRZWAJHUWGZMMT-UHFFFAOYSA-N
> <PUBCHEM_XLOGP3_AA>
1.7
> <PUBCHEM_EXACT_MASS>
152.120115130
> <PUBCHEM_MOLECULAR_FORMULA>
C10H16O
> <PUBCHEM_MOLECULAR_WEIGHT>
152.23
> <PUBCHEM_OPENEYE_CAN_SMILES>
CC1=CCC2C(C1C2(C)C)O
> <PUBCHEM_OPENEYE_ISO_SMILES>
CC1=CCC2C(C1C2(C)C)O
> <PUBCHEM_CACTVS_TPSA>
20.2
> <PUBCHEM_MONOISOTOPIC_WEIGHT>
152.120115130
> <PUBCHEM_TOTAL_CHARGE>
0
> <PUBCHEM_HEAVY_ATOM_COUNT>
11
> <PUBCHEM_ATOM_DEF_STEREO_COUNT>
0
> <PUBCHEM_ATOM_UDEF_STEREO_COUNT>
3
> <PUBCHEM_BOND_DEF_STEREO_COUNT>
0
> <PUBCHEM_BOND_UDEF_STEREO_COUNT>
0
> <PUBCHEM_ISOTOPIC_ATOM_COUNT>
0
> <PUBCHEM_COMPONENT_COUNT>
1
> <PUBCHEM_CACTVS_TAUTO_COUNT>
-1
> <PUBCHEM_COORDINATE_TYPE>
1
5
255
> <PUBCHEM_BONDANNOTATIONS>
5  1  3
4  2  3
3  6  3
$$$$
