527057
  -OEChem-10302200292D
 35 35  0     1  0  0  0  0  0999 V2000
    8.5991   -1.5000    0.0000 O   0  0  0  0  0  0  0  0  0  0  0  0
    2.5369    0.0000    0.0000 O   0  0  0  0  0  0  0  0  0  0  0  0
    6.8671    0.5000    0.0000 C   0  0  0  0  0  0  0  0  0  0  0  0
    6.0010    0.0000    0.0000 C   0  0  0  0  0  0  0  0  0  0  0  0
    7.7331   -0.0000    0.0000 C   0  0  0  0  0  0  0  0  0  0  0  0
    7.3671    1.3660    0.0000 C   0  0  0  0  0  0  0  0  0  0  0  0
    6.3671    1.3660    0.0000 C   0  0  0  0  0  0  0  0  0  0  0  0
    6.0010   -1.0000    0.0000 C   0  0  0  0  0  0  0  0  0  0  0  0
    7.7331   -1.0000    0.0000 C   0  0  0  0  0  0  0  0  0  0  0  0
    5.1350    0.5000    0.0000 C   0  0  0  0  0  0  0  0  0  0  0  0
    6.8671   -1.5000    0.0000 C   0  0  0  0  0  0  0  0  0  0  0  0
    4.2690    0.0000    0.0000 C   0  0  0  0  0  0  0  0  0  0  0  0
    5.1350   -1.5000    0.0000 C   0  0  0  0  0  0  0  0  0  0  0  0
    3.4030    0.5000    0.0000 C   0  0  3  0  0  0  0  0  0  0  0  0
    3.4030    1.5000    0.0000 C   0  0  0  0  0  0  0  0  0  0  0  0
    8.3437   -0.1077    0.0000 H   0  0  0  0  0  0  0  0  0  0  0  0
    7.9451    0.5826    0.0000 H   0  0  0  0  0  0  0  0  0  0  0  0
    7.9040    1.0560    0.0000 H   0  0  0  0  0  0  0  0  0  0  0  0
    7.6771    1.9030    0.0000 H   0  0  0  0  0  0  0  0  0  0  0  0
    6.8301    1.6760    0.0000 H   0  0  0  0  0  0  0  0  0  0  0  0
    6.9040    1.6760    0.0000 H   0  0  0  0  0  0  0  0  0  0  0  0
    6.0571    1.9030    0.0000 H   0  0  0  0  0  0  0  0  0  0  0  0
    5.8301    1.0560    0.0000 H   0  0  0  0  0  0  0  0  0  0  0  0
    5.1350    1.1200    0.0000 H   0  0  0  0  0  0  0  0  0  0  0  0
    6.8671   -2.1200    0.0000 H   0  0  0  0  0  0  0  0  0  0  0  0
    3.8705   -0.4749    0.0000 H   0  0  0  0  0  0  0  0  0  0  0  0
    4.6675   -0.4749    0.0000 H   0  0  0  0  0  0  0  0  0  0  0  0
    4.8250   -0.9631    0.0000 H   0  0  0  0  0  0  0  0  0  0  0  0
    4.5981   -1.8100    0.0000 H   0  0  0  0  0  0  0  0  0  0  0  0
    5.4450   -2.0369    0.0000 H   0  0  0  0  0  0  0  0  0  0  0  0
    3.4030   -0.1200    0.0000 H   0  0  0  0  0  0  0  0  0  0  0  0
    4.0230    1.5000    0.0000 H   0  0  0  0  0  0  0  0  0  0  0  0
    3.4030    2.1200    0.0000 H   0  0  0  0  0  0  0  0  0  0  0  0
    2.7830    1.5000    0.0000 H   0  0  0  0  0  0  0  0  0  0  0  0
    2.0000    0.3100    0.0000 H   0  0  0  0  0  0  0  0  0  0  0  0
  1  9  2  0  0  0  0
  2 14  1  0  0  0  0
  2 35  1  0  0  0  0
  3  4  1  0  0  0  0
  3  5  1  0  0  0  0
  3  6  1  0  0  0  0
  3  7  1  0  0  0  0
  4  8  1  0  0  0  0
  4 10  2  3  0  0  0
  5  9  1  0  0  0  0
  5 16  1  0  0  0  0
  5 17  1  0  0  0  0
  6 18  1  0  0  0  0
  6 19  1  0  0  0  0
  6 20  1  0  0  0  0
  7 21  1  0  0  0  0
  7 22  1  0  0  0  0
  7 23  1  0  0  0  0
  8 11  2  0  0  0  0
  8 13  1  0  0  0  0
  9 11  1  0  0  0  0
 10 12  1  0  0  0  0
 10 24  1  0  0  0  0
 11 25  1  0  0  0  0
 12 14  1  0  0  0  0
 12 26  1  0  0  0  0
 12 27  1  0  0  0  0
 13 28  1  0  0  0  0
 13 29  1  0  0  0  0
 13 30  1  0  0  0  0
 14 15  1  0  0  0  0
 14 31  1  0  0  0  0
 15 32  1  0  0  0  0
 15 33  1  0  0  0  0
 15 34  1  0  0  0  0
M  END
> <PUBCHEM_COMPOUND_CID>
527057
> <PUBCHEM_COMPOUND_CANONICALIZED>
1
> <PUBCHEM_CACTVS_COMPLEXITY>
321
> <PUBCHEM_CACTVS_HBOND_ACCEPTOR>
2
> <PUBCHEM_CACTVS_HBOND_DONOR>
1
> <PUBCHEM_CACTVS_ROTATABLE_BOND>
2
> <PUBCHEM_CACTVS_SUBSKEYS>
AAADceBwMAAAAAAAAAAAAAAAAAAAAAAAAAAgAAAAAAAAAAAAAAAAGgAACAAADhSggAICAAAAAgCIAqBSAAAAAAAgAAAACAEAAEgIEBIAAQAAQAAAwAAIgQMIiAAPAAAAAAAAAAAAAAAAAAAAAAAAAAAAAA==
> <PUBCHEM_IUPAC_OPENEYE_NAME>
4-(3-hydroxybutylidene)-3,5,5-trimethyl-cyclohex-2-en-1-one
> <PUBCHEM_IUPAC_CAS_NAME>
4-(3-hydroxybutylidene)-3,5,5-trimethyl-1-cyclohex-2-enone
> <PUBCHEM_IUPAC_NAME_MARKUP>
4-(3-hydroxybutylidene)-3,5,5-trimethylcyclohex-2-en-1-one
> <PUBCHEM_IUPAC_NAME>
4-(3-hydroxybutylidene)-3,5,5-trimethylcyclohex-2-en-1-one
> <PUBCHEM_IUPAC_SYSTEMATIC_NAME>
3,5,5-trimethyl-4-(3-oxidanylbutylidene)cyclohex-2-en-1-one
> <PUBCHEM_IUPAC_TRADITIONAL_NAME>
4-(3-hydroxybutylidene)-3,5,5-trimethyl-cyclohex-2-en-1-one
> <PUBCHEM_IUPAC_INCHI>
InChI=1S/C13H20O2/c1-9-7-11(15)8-13(3,4)12(9)6-5-10(2)14/h6-7,10,14H,5,8H2,1-4H3
> <PUBCHEM_IUPAC_INCHIKEY>
JHWWVZZGBLPJPW-UHFFFAOYSA-N
> <PUBCHEM_XLOGP3_AA>
1.6
> <PUBCHEM_EXACT_MASS>
208.146329876
> <PUBCHEM_MOLECULAR_FORMULA>
C13H20O2
> <PUBCHEM_MOLECULAR_WEIGHT>
208.30
> <PUBCHEM_OPENEYE_CAN_SMILES>
CC1=CC(=O)CC(C1=CCC(C)O)(C)C
> <PUBCHEM_OPENEYE_ISO_SMILES>
CC1=CC(=O)CC(C1=CCC(C)O)(C)C
> <PUBCHEM_CACTVS_TPSA>
37.3
> <PUBCHEM_MONOISOTOPIC_WEIGHT>
208.146329876
> <PUBCHEM_TOTAL_CHARGE>
0
> <PUBCHEM_HEAVY_ATOM_COUNT>
15
> <PUBCHEM_ATOM_DEF_STEREO_COUNT>
0
> <PUBCHEM_ATOM_UDEF_STEREO_COUNT>
1
> <PUBCHEM_BOND_DEF_STEREO_COUNT>
0
> <PUBCHEM_BOND_UDEF_STEREO_COUNT>
1
> <PUBCHEM_ISOTOPIC_ATOM_COUNT>
0
> <PUBCHEM_COMPONENT_COUNT>
1
> <PUBCHEM_CACTVS_TAUTO_COUNT>
-1
> <PUBCHEM_COORDINATE_TYPE>
1
5
255
> <PUBCHEM_BONDANNOTATIONS>
14  2  3
4  10  1
$$$$
