527160
  -OEChem-10302200292D
 39 42  0     1  0  0  0  0  0999 V2000
    5.3737   -1.4771    0.0000 O   0  0  0  0  0  0  0  0  0  0  0  0
    3.0332   -0.9770    0.0000 O   0  0  0  0  0  0  0  0  0  0  0  0
    4.6362   -0.8099    0.0000 C   0  0  3  0  0  0  0  0  0  0  0  0
    4.4270   -1.7817    0.0000 C   0  0  3  0  0  0  0  0  0  0  0  0
    3.7702   -0.3099    0.0000 C   0  0  3  0  0  0  0  0  0  0  0  0
    5.5022   -0.3099    0.0000 C   0  0  0  0  0  0  0  0  0  0  0  0
    4.6362    1.1901    0.0000 C   0  0  3  0  0  0  0  0  0  0  0  0
    3.7702    0.6901    0.0000 C   0  0  0  0  0  0  0  0  0  0  0  0
    3.4383   -1.8848    0.0000 C   0  0  0  0  0  0  0  0  0  0  0  0
    5.5022    0.6901    0.0000 C   0  0  0  0  0  0  0  0  0  0  0  0
    4.2166   -2.7593    0.0000 C   0  0  0  0  0  0  0  0  0  0  0  0
    4.6523    2.2316    0.0000 C   0  0  0  0  0  0  0  0  0  0  0  0
    2.8602    1.1969    0.0000 C   0  0  0  0  0  0  0  0  0  0  0  0
    5.5022    1.6901    0.0000 C   0  0  0  0  0  0  0  0  0  0  0  0
    3.7542    2.7593    0.0000 C   0  0  0  0  0  0  0  0  0  0  0  0
    2.8522    2.2385    0.0000 C   0  0  0  0  0  0  0  0  0  0  0  0
    2.0000    0.6869    0.0000 C   0  0  0  0  0  0  0  0  0  0  0  0
    3.2035   -0.0585    0.0000 H   0  0  0  0  0  0  0  0  0  0  0  0
    5.7143   -0.8925    0.0000 H   0  0  0  0  0  0  0  0  0  0  0  0
    6.1128   -0.2023    0.0000 H   0  0  0  0  0  0  0  0  0  0  0  0
    2.8487   -2.0766    0.0000 H   0  0  0  0  0  0  0  0  0  0  0  0
    3.5670   -2.4913    0.0000 H   0  0  0  0  0  0  0  0  0  0  0  0
    6.1128    0.5824    0.0000 H   0  0  0  0  0  0  0  0  0  0  0  0
    5.7143    1.2727    0.0000 H   0  0  0  0  0  0  0  0  0  0  0  0
    3.6104   -2.6289    0.0000 H   0  0  0  0  0  0  0  0  0  0  0  0
    4.0861   -3.3655    0.0000 H   0  0  0  0  0  0  0  0  0  0  0  0
    4.8227   -2.8898    0.0000 H   0  0  0  0  0  0  0  0  0  0  0  0
    5.2614    2.1161    0.0000 H   0  0  0  0  0  0  0  0  0  0  0  0
    4.8703    2.8120    0.0000 H   0  0  0  0  0  0  0  0  0  0  0  0
    5.8122    1.1531    0.0000 H   0  0  0  0  0  0  0  0  0  0  0  0
    6.0392    2.0001    0.0000 H   0  0  0  0  0  0  0  0  0  0  0  0
    5.1922    2.2270    0.0000 H   0  0  0  0  0  0  0  0  0  0  0  0
    4.1552    3.2322    0.0000 H   0  0  0  0  0  0  0  0  0  0  0  0
    3.3569    3.2353    0.0000 H   0  0  0  0  0  0  0  0  0  0  0  0
    2.6386    2.8206    0.0000 H   0  0  0  0  0  0  0  0  0  0  0  0
    2.2421    2.1277    0.0000 H   0  0  0  0  0  0  0  0  0  0  0  0
    1.6838    1.2203    0.0000 H   0  0  0  0  0  0  0  0  0  0  0  0
    1.4667    0.3708    0.0000 H   0  0  0  0  0  0  0  0  0  0  0  0
    2.3162    0.1536    0.0000 H   0  0  0  0  0  0  0  0  0  0  0  0
  1  3  1  0  0  0  0
  1  4  1  0  0  0  0
  2  5  1  0  0  0  0
  2  9  1  0  0  0  0
  3  4  1  0  0  0  0
  3  5  1  0  0  0  0
  3  6  1  0  0  0  0
  4  9  1  0  0  0  0
  4 11  1  0  0  0  0
  5  8  1  0  0  0  0
  5 18  1  0  0  0  0
  6 10  1  0  0  0  0
  6 19  1  0  0  0  0
  6 20  1  0  0  0  0
  7  8  1  0  0  0  0
  7 10  1  0  0  0  0
  7 12  1  0  0  0  0
  7 14  1  0  0  0  0
  8 13  2  0  0  0  0
  9 21  1  0  0  0  0
  9 22  1  0  0  0  0
 10 23  1  0  0  0  0
 10 24  1  0  0  0  0
 11 25  1  0  0  0  0
 11 26  1  0  0  0  0
 11 27  1  0  0  0  0
 12 15  1  0  0  0  0
 12 28  1  0  0  0  0
 12 29  1  0  0  0  0
 13 16  1  0  0  0  0
 13 17  1  0  0  0  0
 14 30  1  0  0  0  0
 14 31  1  0  0  0  0
 14 32  1  0  0  0  0
 15 16  1  0  0  0  0
 15 33  1  0  0  0  0
 15 34  1  0  0  0  0
 16 35  1  0  0  0  0
 16 36  1  0  0  0  0
 17 37  1  0  0  0  0
 17 38  1  0  0  0  0
 17 39  1  0  0  0  0
M  END
> <PUBCHEM_COMPOUND_CID>
527160
> <PUBCHEM_COMPOUND_CANONICALIZED>
1
> <PUBCHEM_CACTVS_COMPLEXITY>
427
> <PUBCHEM_CACTVS_HBOND_ACCEPTOR>
2
> <PUBCHEM_CACTVS_HBOND_DONOR>
0
> <PUBCHEM_CACTVS_ROTATABLE_BOND>
0
> <PUBCHEM_CACTVS_SUBSKEYS>
AAADceBwMAAAAAAAAAAAAAAAEgAAASAAAAA0QIAAAAAAAEiQAAAAGgAAAAAADlSggAICAAAABACAAgBAAAAAAAAgAAAACAAAAAgBBAIAIAACEAAFwAAKIAOAwPAPgAAAAAAAAADAAAIAABCAAAAAAAAAAA==
> <PUBCHEM_IUPAC_OPENEYE_NAME>
4,8,13-trimethyl-11,14-dioxatetracyclo[8.4.0.01,13.04,9]tetradec-8-ene
> <PUBCHEM_IUPAC_CAS_NAME>
4,8,13-trimethyl-11,14-dioxatetracyclo[8.4.0.01,13.04,9]tetradec-8-ene
> <PUBCHEM_IUPAC_NAME_MARKUP>
4,8,13-trimethyl-11,14-dioxatetracyclo[8.4.0.0<SUP>1,13</SUP>.0<SUP>4,9</SUP>]tetradec-8-ene
> <PUBCHEM_IUPAC_NAME>
4,8,13-trimethyl-11,14-dioxatetracyclo[8.4.0.01,13.04,9]tetradec-8-ene
> <PUBCHEM_IUPAC_SYSTEMATIC_NAME>
4,8,13-trimethyl-11,14-dioxatetracyclo[8.4.0.01,13.04,9]tetradec-8-ene
> <PUBCHEM_IUPAC_TRADITIONAL_NAME>
4,8,13-trimethyl-11,14-dioxatetracyclo[8.4.0.01,13.04,9]tetradec-8-ene
> <PUBCHEM_IUPAC_INCHI>
InChI=1S/C15H22O2/c1-10-5-4-6-13(2)7-8-15-12(11(10)13)16-9-14(15,3)17-15/h12H,4-9H2,1-3H3
> <PUBCHEM_IUPAC_INCHIKEY>
JFQRIENZNZRVMS-UHFFFAOYSA-N
> <PUBCHEM_XLOGP3_AA>
2
> <PUBCHEM_EXACT_MASS>
234.161979940
> <PUBCHEM_MOLECULAR_FORMULA>
C15H22O2
> <PUBCHEM_MOLECULAR_WEIGHT>
234.33
> <PUBCHEM_OPENEYE_CAN_SMILES>
CC1=C2C3C4(CCC2(CCC1)C)C(O4)(CO3)C
> <PUBCHEM_OPENEYE_ISO_SMILES>
CC1=C2C3C4(CCC2(CCC1)C)C(O4)(CO3)C
> <PUBCHEM_CACTVS_TPSA>
21.8
> <PUBCHEM_MONOISOTOPIC_WEIGHT>
234.161979940
> <PUBCHEM_TOTAL_CHARGE>
0
> <PUBCHEM_HEAVY_ATOM_COUNT>
17
> <PUBCHEM_ATOM_DEF_STEREO_COUNT>
0
> <PUBCHEM_ATOM_UDEF_STEREO_COUNT>
4
> <PUBCHEM_BOND_DEF_STEREO_COUNT>
0
> <PUBCHEM_BOND_UDEF_STEREO_COUNT>
0
> <PUBCHEM_ISOTOPIC_ATOM_COUNT>
0
> <PUBCHEM_COMPONENT_COUNT>
1
> <PUBCHEM_CACTVS_TAUTO_COUNT>
-1
> <PUBCHEM_COORDINATE_TYPE>
1
5
255
> <PUBCHEM_BONDANNOTATIONS>
5  2  3
3  6  3
4  11  3
7  14  3
$$$$
