527172
  -OEChem-10302200292D
 29 30  0     1  0  0  0  0  0999 V2000
    2.0000    0.7327    0.0000 O   0  0  0  0  0  0  0  0  0  0  0  0
    4.5981   -0.7673    0.0000 C   0  0  3  0  0  0  0  0  0  0  0  0
    5.4920    0.7674    0.0000 C   0  0  3  0  0  0  0  0  0  0  0  0
    5.4920   -1.3020    0.0000 C   0  0  0  0  0  0  0  0  0  0  0  0
    4.5981    0.2327    0.0000 C   0  0  0  0  0  0  0  0  0  0  0  0
    6.3981    0.2535    0.0000 C   0  0  0  0  0  0  0  0  0  0  0  0
    6.3981   -0.7881    0.0000 C   0  0  0  0  0  0  0  0  0  0  0  0
    4.5981   -1.7673    0.0000 C   0  0  0  0  0  0  0  0  0  0  0  0
    3.7320   -1.2673    0.0000 C   0  0  0  0  0  0  0  0  0  0  0  0
    5.4804    1.7673    0.0000 C   0  0  0  0  0  0  0  0  0  0  0  0
    3.7320    0.7327    0.0000 C   0  0  0  0  0  0  0  0  0  0  0  0
    2.8660   -0.7673    0.0000 C   0  0  0  0  0  0  0  0  0  0  0  0
    2.8660    0.2327    0.0000 C   0  0  0  0  0  0  0  0  0  0  0  0
    6.0259    1.0825    0.0000 H   0  0  0  0  0  0  0  0  0  0  0  0
    5.0874   -1.7718    0.0000 H   0  0  0  0  0  0  0  0  0  0  0  0
    5.8856   -1.7810    0.0000 H   0  0  0  0  0  0  0  0  0  0  0  0
    7.0089    0.1474    0.0000 H   0  0  0  0  0  0  0  0  0  0  0  0
    6.6071    0.8372    0.0000 H   0  0  0  0  0  0  0  0  0  0  0  0
    6.6071   -1.3718    0.0000 H   0  0  0  0  0  0  0  0  0  0  0  0
    7.0089   -0.6820    0.0000 H   0  0  0  0  0  0  0  0  0  0  0  0
    3.9781   -1.7673    0.0000 H   0  0  0  0  0  0  0  0  0  0  0  0
    4.5981   -2.3873    0.0000 H   0  0  0  0  0  0  0  0  0  0  0  0
    5.2181   -1.7673    0.0000 H   0  0  0  0  0  0  0  0  0  0  0  0
    3.7320   -1.8873    0.0000 H   0  0  0  0  0  0  0  0  0  0  0  0
    6.1004    1.7745    0.0000 H   0  0  0  0  0  0  0  0  0  0  0  0
    5.4733    2.3873    0.0000 H   0  0  0  0  0  0  0  0  0  0  0  0
    4.8605    1.7601    0.0000 H   0  0  0  0  0  0  0  0  0  0  0  0
    3.7320    1.3527    0.0000 H   0  0  0  0  0  0  0  0  0  0  0  0
    2.3291   -1.0773    0.0000 H   0  0  0  0  0  0  0  0  0  0  0  0
  1 13  2  0  0  0  0
  2  4  1  0  0  0  0
  2  5  1  0  0  0  0
  2  8  1  0  0  0  0
  2  9  1  0  0  0  0
  3  5  1  0  0  0  0
  3  6  1  0  0  0  0
  3 10  1  0  0  0  0
  3 14  1  0  0  0  0
  4  7  1  0  0  0  0
  4 15  1  0  0  0  0
  4 16  1  0  0  0  0
  5 11  2  0  0  0  0
  6  7  1  0  0  0  0
  6 17  1  0  0  0  0
  6 18  1  0  0  0  0
  7 19  1  0  0  0  0
  7 20  1  0  0  0  0
  8 21  1  0  0  0  0
  8 22  1  0  0  0  0
  8 23  1  0  0  0  0
  9 12  2  0  0  0  0
  9 24  1  0  0  0  0
 10 25  1  0  0  0  0
 10 26  1  0  0  0  0
 10 27  1  0  0  0  0
 11 13  1  0  0  0  0
 11 28  1  0  0  0  0
 12 13  1  0  0  0  0
 12 29  1  0  0  0  0
M  END
> <PUBCHEM_COMPOUND_CID>
527172
> <PUBCHEM_COMPOUND_CANONICALIZED>
1
> <PUBCHEM_CACTVS_COMPLEXITY>
298
> <PUBCHEM_CACTVS_HBOND_ACCEPTOR>
1
> <PUBCHEM_CACTVS_HBOND_DONOR>
0
> <PUBCHEM_CACTVS_ROTATABLE_BOND>
0
> <PUBCHEM_CACTVS_SUBSKEYS>
AAADceBwIAAAAAAAAAAAAAAAAAAAAAAAAAAwQAAAAAAAAACAAAAAGgAAAAAADwSAgAACAAAAAACIAqBSAAAAAAAgAAAICAAAAEgAAAIAAQAAAAAAgAAIAYMAgEAPAAAAAAAAAAAAAAQAAAAAAAAAAAAAAA==
> <PUBCHEM_IUPAC_OPENEYE_NAME>
4a,8-dimethyl-5,6,7,8-tetrahydronaphthalen-2-one
> <PUBCHEM_IUPAC_CAS_NAME>
4a,8-dimethyl-5,6,7,8-tetrahydronaphthalen-2-one
> <PUBCHEM_IUPAC_NAME_MARKUP>
4<I>a</I>,8-dimethyl-5,6,7,8-tetrahydronaphthalen-2-one
> <PUBCHEM_IUPAC_NAME>
4a,8-dimethyl-5,6,7,8-tetrahydronaphthalen-2-one
> <PUBCHEM_IUPAC_SYSTEMATIC_NAME>
4a,8-dimethyl-5,6,7,8-tetrahydronaphthalen-2-one
> <PUBCHEM_IUPAC_TRADITIONAL_NAME>
4a,8-dimethyl-5,6,7,8-tetrahydronaphthalen-2-one
> <PUBCHEM_IUPAC_INCHI>
InChI=1S/C12H16O/c1-9-4-3-6-12(2)7-5-10(13)8-11(9)12/h5,7-9H,3-4,6H2,1-2H3
> <PUBCHEM_IUPAC_INCHIKEY>
SPNLYFPIWOEXSG-UHFFFAOYSA-N
> <PUBCHEM_XLOGP3_AA>
3
> <PUBCHEM_EXACT_MASS>
176.120115130
> <PUBCHEM_MOLECULAR_FORMULA>
C12H16O
> <PUBCHEM_MOLECULAR_WEIGHT>
176.25
> <PUBCHEM_OPENEYE_CAN_SMILES>
CC1CCCC2(C1=CC(=O)C=C2)C
> <PUBCHEM_OPENEYE_ISO_SMILES>
CC1CCCC2(C1=CC(=O)C=C2)C
> <PUBCHEM_CACTVS_TPSA>
17.1
> <PUBCHEM_MONOISOTOPIC_WEIGHT>
176.120115130
> <PUBCHEM_TOTAL_CHARGE>
0
> <PUBCHEM_HEAVY_ATOM_COUNT>
13
> <PUBCHEM_ATOM_DEF_STEREO_COUNT>
0
> <PUBCHEM_ATOM_UDEF_STEREO_COUNT>
2
> <PUBCHEM_BOND_DEF_STEREO_COUNT>
0
> <PUBCHEM_BOND_UDEF_STEREO_COUNT>
0
> <PUBCHEM_ISOTOPIC_ATOM_COUNT>
0
> <PUBCHEM_COMPONENT_COUNT>
1
> <PUBCHEM_CACTVS_TAUTO_COUNT>
-1
> <PUBCHEM_COORDINATE_TYPE>
1
5
255
> <PUBCHEM_BONDANNOTATIONS>
2  8  3
3  10  3
$$$$
