527137
  -OEChem-10302200292D
 40 41  0     1  0  0  0  0  0999 V2000
    5.6650    1.7244    0.0000 O   0  0  0  0  0  0  0  0  0  0  0  0
    5.6648    0.7239    0.0000 C   0  0  3  0  0  0  0  0  0  0  0  0
    4.7988    1.2239    0.0000 C   0  0  3  0  0  0  0  0  0  0  0  0
    3.9327    0.7239    0.0000 C   0  0  0  0  0  0  0  0  0  0  0  0
    5.6648   -0.2761    0.0000 C   0  0  0  0  0  0  0  0  0  0  0  0
    2.9327    0.7239    0.0000 C   0  0  0  0  0  0  0  0  0  0  0  0
    6.5308    0.2239    0.0000 C   0  0  0  0  0  0  0  0  0  0  0  0
    5.7896   -1.2244    0.0000 C   0  0  0  0  0  0  0  0  0  0  0  0
    2.0000    1.0845    0.0000 C   0  0  0  0  0  0  0  0  0  0  0  0
    2.8258    1.7182    0.0000 C   0  0  0  0  0  0  0  0  0  0  0  0
    2.2256    0.0168    0.0000 C   0  0  0  0  0  0  0  0  0  0  0  0
    4.9236   -1.7244    0.0000 C   0  0  0  0  0  0  0  0  0  0  0  0
    2.2256   -0.9832    0.0000 C   0  0  0  0  0  0  0  0  0  0  0  0
    4.0576   -1.2244    0.0000 C   0  0  0  0  0  0  0  0  0  0  0  0
    3.0916   -1.4832    0.0000 C   0  0  0  0  0  0  0  0  0  0  0  0
    4.1881   -0.2329    0.0000 C   0  0  0  0  0  0  0  0  0  0  0  0
    4.4887    1.7608    0.0000 H   0  0  0  0  0  0  0  0  0  0  0  0
    3.7207    0.1413    0.0000 H   0  0  0  0  0  0  0  0  0  0  0  0
    3.7723    1.3228    0.0000 H   0  0  0  0  0  0  0  0  0  0  0  0
    5.1148    0.0102    0.0000 H   0  0  0  0  0  0  0  0  0  0  0  0
    6.2834   -0.2355    0.0000 H   0  0  0  0  0  0  0  0  0  0  0  0
    6.2208   -0.3130    0.0000 H   0  0  0  0  0  0  0  0  0  0  0  0
    7.0677   -0.0861    0.0000 H   0  0  0  0  0  0  0  0  0  0  0  0
    6.8408    0.7609    0.0000 H   0  0  0  0  0  0  0  0  0  0  0  0
    6.0269   -1.7972    0.0000 H   0  0  0  0  0  0  0  0  0  0  0  0
    6.3885   -1.0639    0.0000 H   0  0  0  0  0  0  0  0  0  0  0  0
    2.2236    1.6628    0.0000 H   0  0  0  0  0  0  0  0  0  0  0  0
    1.4217    1.3081    0.0000 H   0  0  0  0  0  0  0  0  0  0  0  0
    1.7764    0.5062    0.0000 H   0  0  0  0  0  0  0  0  0  0  0  0
    3.4423    1.7845    0.0000 H   0  0  0  0  0  0  0  0  0  0  0  0
    2.7596    2.3346    0.0000 H   0  0  0  0  0  0  0  0  0  0  0  0
    2.2094    1.6519    0.0000 H   0  0  0  0  0  0  0  0  0  0  0  0
    1.6528    0.2541    0.0000 H   0  0  0  0  0  0  0  0  0  0  0  0
    4.9236   -2.3444    0.0000 H   0  0  0  0  0  0  0  0  0  0  0  0
    1.6887   -1.2932    0.0000 H   0  0  0  0  0  0  0  0  0  0  0  0
    2.6532   -1.9216    0.0000 H   0  0  0  0  0  0  0  0  0  0  0  0
    3.4016   -2.0201    0.0000 H   0  0  0  0  0  0  0  0  0  0  0  0
    4.8028   -0.3138    0.0000 H   0  0  0  0  0  0  0  0  0  0  0  0
    4.2690    0.3818    0.0000 H   0  0  0  0  0  0  0  0  0  0  0  0
    3.5734   -0.1520    0.0000 H   0  0  0  0  0  0  0  0  0  0  0  0
  1  2  1  0  0  0  0
  1  3  1  0  0  0  0
  2  3  1  0  0  0  0
  2  5  1  0  0  0  0
  2  7  1  0  0  0  0
  3  4  1  0  0  0  0
  3 17  1  0  0  0  0
  4  6  1  0  0  0  0
  4 18  1  0  0  0  0
  4 19  1  0  0  0  0
  5  8  1  0  0  0  0
  5 20  1  0  0  0  0
  5 21  1  0  0  0  0
  6  9  1  0  0  0  0
  6 10  1  0  0  0  0
  6 11  1  0  0  0  0
  7 22  1  0  0  0  0
  7 23  1  0  0  0  0
  7 24  1  0  0  0  0
  8 12  1  0  0  0  0
  8 25  1  0  0  0  0
  8 26  1  0  0  0  0
  9 27  1  0  0  0  0
  9 28  1  0  0  0  0
  9 29  1  0  0  0  0
 10 30  1  0  0  0  0
 10 31  1  0  0  0  0
 10 32  1  0  0  0  0
 11 13  2  3  0  0  0
 11 33  1  0  0  0  0
 12 14  2  3  0  0  0
 12 34  1  0  0  0  0
 13 15  1  0  0  0  0
 13 35  1  0  0  0  0
 14 15  1  0  0  0  0
 14 16  1  0  0  0  0
 15 36  1  0  0  0  0
 15 37  1  0  0  0  0
 16 38  1  0  0  0  0
 16 39  1  0  0  0  0
 16 40  1  0  0  0  0
M  END
> <PUBCHEM_COMPOUND_CID>
527137
> <PUBCHEM_COMPOUND_CANONICALIZED>
1
> <PUBCHEM_CACTVS_COMPLEXITY>
324
> <PUBCHEM_CACTVS_HBOND_ACCEPTOR>
1
> <PUBCHEM_CACTVS_HBOND_DONOR>
0
> <PUBCHEM_CACTVS_ROTATABLE_BOND>
0
> <PUBCHEM_CACTVS_SUBSKEYS>
AAADceBwIAAAAAAAAAAAAAAAEgAAAAAAAAAAAAAAAAAAAAAAAAAAGgAAAAAADlSggAICAAAABACAAiBCAAAAAAAgAAAICAAAAAgAAAIAAQACAAAEgAAIAAOAgMAPAAAAAAAAAAAAAAAAAAAAAAAAAAAAAA==
> <PUBCHEM_IUPAC_OPENEYE_NAME>
1,5,9,9-tetramethyl-12-oxabicyclo[9.1.0]dodeca-4,7-diene
> <PUBCHEM_IUPAC_CAS_NAME>
1,5,9,9-tetramethyl-12-oxabicyclo[9.1.0]dodeca-4,7-diene
> <PUBCHEM_IUPAC_NAME_MARKUP>
1,5,9,9-tetramethyl-12-oxabicyclo[9.1.0]dodeca-4,7-diene
> <PUBCHEM_IUPAC_NAME>
1,5,9,9-tetramethyl-12-oxabicyclo[9.1.0]dodeca-4,7-diene
> <PUBCHEM_IUPAC_SYSTEMATIC_NAME>
1,5,9,9-tetramethyl-12-oxabicyclo[9.1.0]dodeca-4,7-diene
> <PUBCHEM_IUPAC_TRADITIONAL_NAME>
1,5,9,9-tetramethyl-12-oxabicyclo[9.1.0]dodeca-4,7-diene
> <PUBCHEM_IUPAC_INCHI>
InChI=1S/C15H24O/c1-12-7-5-9-14(2,3)11-13-15(4,16-13)10-6-8-12/h5,8-9,13H,6-7,10-11H2,1-4H3
> <PUBCHEM_IUPAC_INCHIKEY>
RKQDKXOBRXTSFS-UHFFFAOYSA-N
> <PUBCHEM_XLOGP3_AA>
3.9
> <PUBCHEM_EXACT_MASS>
220.182715385
> <PUBCHEM_MOLECULAR_FORMULA>
C15H24O
> <PUBCHEM_MOLECULAR_WEIGHT>
220.35
> <PUBCHEM_OPENEYE_CAN_SMILES>
CC1=CCCC2(C(O2)CC(C=CC1)(C)C)C
> <PUBCHEM_OPENEYE_ISO_SMILES>
CC1=CCCC2(C(O2)CC(C=CC1)(C)C)C
> <PUBCHEM_CACTVS_TPSA>
12.5
> <PUBCHEM_MONOISOTOPIC_WEIGHT>
220.182715385
> <PUBCHEM_TOTAL_CHARGE>
0
> <PUBCHEM_HEAVY_ATOM_COUNT>
16
> <PUBCHEM_ATOM_DEF_STEREO_COUNT>
0
> <PUBCHEM_ATOM_UDEF_STEREO_COUNT>
2
> <PUBCHEM_BOND_DEF_STEREO_COUNT>
0
> <PUBCHEM_BOND_UDEF_STEREO_COUNT>
2
> <PUBCHEM_ISOTOPIC_ATOM_COUNT>
0
> <PUBCHEM_COMPONENT_COUNT>
1
> <PUBCHEM_CACTVS_TAUTO_COUNT>
-1
> <PUBCHEM_COORDINATE_TYPE>
1
5
255
> <PUBCHEM_BONDANNOTATIONS>
11  13  1
12  14  1
2  7  3
3  4  3
$$$$
