527107
  -OEChem-10302200292D
 39 41  0     1  0  0  0  0  0999 V2000
    4.3958   -1.2498    0.0000 C   0  0  3  0  0  0  0  0  0  0  0  0
    5.2619   -0.7498    0.0000 C   0  0  3  0  0  0  0  0  0  0  0  0
    5.2621   -1.7502    0.0000 C   0  0  0  0  0  0  0  0  0  0  0  0
    3.5298   -0.7498    0.0000 C   0  0  3  0  0  0  0  0  0  0  0  0
    5.2619    0.2502    0.0000 C   0  0  3  0  0  0  0  0  0  0  0  0
    3.5298    0.2502    0.0000 C   0  0  3  0  0  0  0  0  0  0  0  0
    4.3958    0.7502    0.0000 C   0  0  0  0  0  0  0  0  0  0  0  0
    3.5298   -1.7498    0.0000 C   0  0  0  0  0  0  0  0  0  0  0  0
    2.5836   -1.0545    0.0000 C   0  0  0  0  0  0  0  0  0  0  0  0
    6.1279    0.7502    0.0000 C   0  0  0  0  0  0  0  0  0  0  0  0
    2.5836    0.5550    0.0000 C   0  0  0  0  0  0  0  0  0  0  0  0
    2.0000   -0.2498    0.0000 C   0  0  0  0  0  0  0  0  0  0  0  0
    6.1279    1.7502    0.0000 C   0  0  0  0  0  0  0  0  0  0  0  0
    6.9939    0.2502    0.0000 C   0  0  0  0  0  0  0  0  0  0  0  0
    2.2729    1.5055    0.0000 C   0  0  0  0  0  0  0  0  0  0  0  0
    5.8819   -0.7497    0.0000 H   0  0  0  0  0  0  0  0  0  0  0  0
    5.0500   -2.3328    0.0000 H   0  0  0  0  0  0  0  0  0  0  0  0
    5.8727   -1.8578    0.0000 H   0  0  0  0  0  0  0  0  0  0  0  0
    4.0668   -0.4398    0.0000 H   0  0  0  0  0  0  0  0  0  0  0  0
    5.2619    0.8702    0.0000 H   0  0  0  0  0  0  0  0  0  0  0  0
    3.4642    0.8667    0.0000 H   0  0  0  0  0  0  0  0  0  0  0  0
    4.7944    1.2252    0.0000 H   0  0  0  0  0  0  0  0  0  0  0  0
    3.9973    1.2252    0.0000 H   0  0  0  0  0  0  0  0  0  0  0  0
    3.2198   -1.2128    0.0000 H   0  0  0  0  0  0  0  0  0  0  0  0
    2.9929   -2.0598    0.0000 H   0  0  0  0  0  0  0  0  0  0  0  0
    3.8398   -2.2867    0.0000 H   0  0  0  0  0  0  0  0  0  0  0  0
    2.0462   -1.3637    0.0000 H   0  0  0  0  0  0  0  0  0  0  0  0
    2.8346   -1.6214    0.0000 H   0  0  0  0  0  0  0  0  0  0  0  0
    6.1279    0.1302    0.0000 H   0  0  0  0  0  0  0  0  0  0  0  0
    1.3800   -0.2498    0.0000 H   0  0  0  0  0  0  0  0  0  0  0  0
    6.7479    1.7502    0.0000 H   0  0  0  0  0  0  0  0  0  0  0  0
    6.1279    2.3702    0.0000 H   0  0  0  0  0  0  0  0  0  0  0  0
    5.5079    1.7502    0.0000 H   0  0  0  0  0  0  0  0  0  0  0  0
    6.6839   -0.2867    0.0000 H   0  0  0  0  0  0  0  0  0  0  0  0
    7.5309   -0.0598    0.0000 H   0  0  0  0  0  0  0  0  0  0  0  0
    7.3039    0.7872    0.0000 H   0  0  0  0  0  0  0  0  0  0  0  0
    2.8623    1.6981    0.0000 H   0  0  0  0  0  0  0  0  0  0  0  0
    2.0803    2.0948    0.0000 H   0  0  0  0  0  0  0  0  0  0  0  0
    1.6836    1.3129    0.0000 H   0  0  0  0  0  0  0  0  0  0  0  0
  1  2  1  0  0  0  0
  1  3  1  0  0  0  0
  1  4  1  0  0  0  0
  1  8  1  0  0  0  0
  2  3  1  0  0  0  0
  2  5  1  0  0  0  0
  2 16  1  0  0  0  0
  3 17  1  0  0  0  0
  3 18  1  0  0  0  0
  4  6  1  0  0  0  0
  4  9  1  0  0  0  0
  4 19  1  0  0  0  0
  5  7  1  0  0  0  0
  5 10  1  0  0  0  0
  5 20  1  0  0  0  0
  6  7  1  0  0  0  0
  6 11  1  0  0  0  0
  6 21  1  0  0  0  0
  7 22  1  0  0  0  0
  7 23  1  0  0  0  0
  8 24  1  0  0  0  0
  8 25  1  0  0  0  0
  8 26  1  0  0  0  0
  9 12  1  0  0  0  0
  9 27  1  0  0  0  0
  9 28  1  0  0  0  0
 10 13  1  0  0  0  0
 10 14  1  0  0  0  0
 10 29  1  0  0  0  0
 11 12  2  0  0  0  0
 11 15  1  0  0  0  0
 12 30  1  0  0  0  0
 13 31  1  0  0  0  0
 13 32  1  0  0  0  0
 13 33  1  0  0  0  0
 14 34  1  0  0  0  0
 14 35  1  0  0  0  0
 14 36  1  0  0  0  0
 15 37  1  0  0  0  0
 15 38  1  0  0  0  0
 15 39  1  0  0  0  0
M  END
> <PUBCHEM_COMPOUND_CID>
527107
> <PUBCHEM_COMPOUND_CANONICALIZED>
1
> <PUBCHEM_CACTVS_COMPLEXITY>
312
> <PUBCHEM_CACTVS_HBOND_ACCEPTOR>
0
> <PUBCHEM_CACTVS_HBOND_DONOR>
0
> <PUBCHEM_CACTVS_ROTATABLE_BOND>
1
> <PUBCHEM_CACTVS_SUBSKEYS>
AAADceBwAAAAAAAAAAAAAAAAGAAAAQAAAAAwAAAABgAAAEAAAAAAGAAAAAAADwCAAAACAAAAAACAAiBCAAAAAAAgAAAACAAAAAgAAAIAAQAAAAAAgAAIAAMAgMAPgAAAAAAAAACAAAQAACAAAAAAAAAAAA==
> <PUBCHEM_IUPAC_OPENEYE_NAME>
2-isopropyl-4,6b-dimethyl-1a,2,3,3a,6,6a-hexahydro-1H-cyclopropa[e]indene
> <PUBCHEM_IUPAC_CAS_NAME>
4,6b-dimethyl-2-propan-2-yl-1a,2,3,3a,6,6a-hexahydro-1H-cyclopropa[e]indene
> <PUBCHEM_IUPAC_NAME_MARKUP>
4,6<I>b</I>-dimethyl-2-propan-2-yl-1<I>a</I>,2,3,3<I>a</I>,6,6<I>a</I>-hexahydro-1<I>H</I>-cyclopropa[e]indene
> <PUBCHEM_IUPAC_NAME>
4,6b-dimethyl-2-propan-2-yl-1a,2,3,3a,6,6a-hexahydro-1H-cyclopropa[e]indene
> <PUBCHEM_IUPAC_SYSTEMATIC_NAME>
4,6b-dimethyl-2-propan-2-yl-1a,2,3,3a,6,6a-hexahydro-1H-cyclopropa[e]indene
> <PUBCHEM_IUPAC_TRADITIONAL_NAME>
2-isopropyl-4,6b-dimethyl-1a,2,3,3a,6,6a-hexahydro-1H-cycloprop[e]indene
> <PUBCHEM_IUPAC_INCHI>
InChI=1S/C15H24/c1-9(2)11-7-12-10(3)5-6-13(12)15(4)8-14(11)15/h5,9,11-14H,6-8H2,1-4H3
> <PUBCHEM_IUPAC_INCHIKEY>
QTZAETFGONVPST-UHFFFAOYSA-N
> <PUBCHEM_XLOGP3_AA>
4.5
> <PUBCHEM_EXACT_MASS>
204.187800766
> <PUBCHEM_MOLECULAR_FORMULA>
C15H24
> <PUBCHEM_MOLECULAR_WEIGHT>
204.35
> <PUBCHEM_OPENEYE_CAN_SMILES>
CC1=CCC2C1CC(C3C2(C3)C)C(C)C
> <PUBCHEM_OPENEYE_ISO_SMILES>
CC1=CCC2C1CC(C3C2(C3)C)C(C)C
> <PUBCHEM_CACTVS_TPSA>
0
> <PUBCHEM_MONOISOTOPIC_WEIGHT>
204.187800766
> <PUBCHEM_TOTAL_CHARGE>
0
> <PUBCHEM_HEAVY_ATOM_COUNT>
15
> <PUBCHEM_ATOM_DEF_STEREO_COUNT>
0
> <PUBCHEM_ATOM_UDEF_STEREO_COUNT>
5
> <PUBCHEM_BOND_DEF_STEREO_COUNT>
0
> <PUBCHEM_BOND_UDEF_STEREO_COUNT>
0
> <PUBCHEM_ISOTOPIC_ATOM_COUNT>
0
> <PUBCHEM_COMPONENT_COUNT>
1
> <PUBCHEM_CACTVS_TAUTO_COUNT>
-1
> <PUBCHEM_COORDINATE_TYPE>
1
5
255
> <PUBCHEM_BONDANNOTATIONS>
1  8  3
2  3  3
4  9  3
5  10  3
6  7  3
$$$$
