527147
  -OEChem-10302200292D
 42 42  0     1  0  0  0  0  0999 V2000
    5.4641    0.2500    0.0000 P   0  0  3  0  0  0  0  0  0  0  0  0
    4.5981   -0.2500    0.0000 O   0  0  0  0  0  0  0  0  0  0  0  0
    4.9641    1.1160    0.0000 O   0  0  0  0  0  0  0  0  0  0  0  0
    5.9641   -0.6160    0.0000 O   0  0  0  0  0  0  0  0  0  0  0  0
    2.0000   -1.7500    0.0000 O   0  5  0  0  0  0  0  0  0  0  0  0
    2.8660   -0.2500    0.0000 O   0  0  0  0  0  0  0  0  0  0  0  0
    6.3301    0.7500    0.0000 N   0  0  0  0  0  0  0  0  0  0  0  0
    2.8660   -1.2500    0.0000 N   0  3  0  0  0  0  0  0  0  0  0  0
    6.3301    1.7500    0.0000 C   0  0  3  0  0  0  0  0  0  0  0  0
    7.1962    2.2500    0.0000 C   0  0  0  0  0  0  0  0  0  0  0  0
    5.4641    2.2500    0.0000 C   0  0  0  0  0  0  0  0  0  0  0  0
    7.1962    3.2500    0.0000 C   0  0  0  0  0  0  0  0  0  0  0  0
    4.5981   -1.2500    0.0000 C   0  0  0  0  0  0  0  0  0  0  0  0
    3.9641    1.1160    0.0000 C   0  0  0  0  0  0  0  0  0  0  0  0
    3.7320   -1.7500    0.0000 C   0  0  0  0  0  0  0  0  0  0  0  0
    5.4641   -1.7500    0.0000 C   0  0  0  0  0  0  0  0  0  0  0  0
    5.4641   -2.7500    0.0000 C   0  0  0  0  0  0  0  0  0  0  0  0
    3.7320   -2.7500    0.0000 C   0  0  0  0  0  0  0  0  0  0  0  0
    4.5981   -3.2500    0.0000 C   0  0  0  0  0  0  0  0  0  0  0  0
    3.4641    1.9820    0.0000 C   0  0  0  0  0  0  0  0  0  0  0  0
    6.3301   -3.2500    0.0000 C   0  0  0  0  0  0  0  0  0  0  0  0
    6.8671    1.4400    0.0000 H   0  0  0  0  0  0  0  0  0  0  0  0
    7.4082    1.6674    0.0000 H   0  0  0  0  0  0  0  0  0  0  0  0
    7.8067    2.3577    0.0000 H   0  0  0  0  0  0  0  0  0  0  0  0
    6.8671    0.4400    0.0000 H   0  0  0  0  0  0  0  0  0  0  0  0
    5.7741    2.7869    0.0000 H   0  0  0  0  0  0  0  0  0  0  0  0
    4.9272    2.5600    0.0000 H   0  0  0  0  0  0  0  0  0  0  0  0
    5.1541    1.7131    0.0000 H   0  0  0  0  0  0  0  0  0  0  0  0
    7.8162    3.2500    0.0000 H   0  0  0  0  0  0  0  0  0  0  0  0
    7.1962    3.8700    0.0000 H   0  0  0  0  0  0  0  0  0  0  0  0
    6.5762    3.2500    0.0000 H   0  0  0  0  0  0  0  0  0  0  0  0
    3.3815    0.9040    0.0000 H   0  0  0  0  0  0  0  0  0  0  0  0
    4.0718    0.5054    0.0000 H   0  0  0  0  0  0  0  0  0  0  0  0
    6.0010   -1.4400    0.0000 H   0  0  0  0  0  0  0  0  0  0  0  0
    3.1951   -3.0600    0.0000 H   0  0  0  0  0  0  0  0  0  0  0  0
    4.5981   -3.8700    0.0000 H   0  0  0  0  0  0  0  0  0  0  0  0
    4.0010    2.2920    0.0000 H   0  0  0  0  0  0  0  0  0  0  0  0
    3.1541    2.5190    0.0000 H   0  0  0  0  0  0  0  0  0  0  0  0
    2.9272    1.6720    0.0000 H   0  0  0  0  0  0  0  0  0  0  0  0
    6.0201   -3.7869    0.0000 H   0  0  0  0  0  0  0  0  0  0  0  0
    6.8671   -3.5600    0.0000 H   0  0  0  0  0  0  0  0  0  0  0  0
    6.6401   -2.7131    0.0000 H   0  0  0  0  0  0  0  0  0  0  0  0
  1  2  1  0  0  0  0
  1  3  1  0  0  0  0
  1  4  2  0  0  0  0
  1  7  1  0  0  0  0
  2 13  1  0  0  0  0
  3 14  1  0  0  0  0
  5  8  1  0  0  0  0
  6  8  2  0  0  0  0
  7  9  1  0  0  0  0
  7 25  1  0  0  0  0
  8 15  1  0  0  0  0
  9 10  1  0  0  0  0
  9 11  1  0  0  0  0
  9 22  1  0  0  0  0
 10 12  1  0  0  0  0
 10 23  1  0  0  0  0
 10 24  1  0  0  0  0
 11 26  1  0  0  0  0
 11 27  1  0  0  0  0
 11 28  1  0  0  0  0
 12 29  1  0  0  0  0
 12 30  1  0  0  0  0
 12 31  1  0  0  0  0
 13 15  2  0  0  0  0
 13 16  1  0  0  0  0
 14 20  1  0  0  0  0
 14 32  1  0  0  0  0
 14 33  1  0  0  0  0
 15 18  1  0  0  0  0
 16 17  2  0  0  0  0
 16 34  1  0  0  0  0
 17 19  1  0  0  0  0
 17 21  1  0  0  0  0
 18 19  2  0  0  0  0
 18 35  1  0  0  0  0
 19 36  1  0  0  0  0
 20 37  1  0  0  0  0
 20 38  1  0  0  0  0
 20 39  1  0  0  0  0
 21 40  1  0  0  0  0
 21 41  1  0  0  0  0
 21 42  1  0  0  0  0
M  CHG  2   5  -1   8   1
M  END
> <PUBCHEM_COMPOUND_CID>
527147
> <PUBCHEM_COMPOUND_CANONICALIZED>
1
> <PUBCHEM_CACTVS_COMPLEXITY>
387
> <PUBCHEM_CACTVS_HBOND_ACCEPTOR>
6
> <PUBCHEM_CACTVS_HBOND_DONOR>
1
> <PUBCHEM_CACTVS_ROTATABLE_BOND>
7
> <PUBCHEM_CACTVS_SUBSKEYS>
AAADceBzOAIAAAAAAAAAAAAAAAAAAAAAAAAwAAAAAAAAAAABAAAAHgAUgCAADCzhmAYyxoBQQRCBQiRCQ4CCAAAgIgAoiIAHbIoKJiKAkZOAMABk0FEIyAeQwBAOCAABAAAAEAAQAAIAAAAgAAAAAAAAAA==
> <PUBCHEM_IUPAC_OPENEYE_NAME>
N-[ethoxy-(5-methyl-2-nitro-phenoxy)phosphoryl]butan-2-amine
> <PUBCHEM_IUPAC_CAS_NAME>
N-[ethoxy-(5-methyl-2-nitrophenoxy)phosphoryl]-2-butanamine
> <PUBCHEM_IUPAC_NAME_MARKUP>
<I>N</I>-[ethoxy-(5-methyl-2-nitrophenoxy)phosphoryl]butan-2-amine
> <PUBCHEM_IUPAC_NAME>
N-[ethoxy-(5-methyl-2-nitrophenoxy)phosphoryl]butan-2-amine
> <PUBCHEM_IUPAC_SYSTEMATIC_NAME>
N-[ethoxy-(5-methyl-2-nitro-phenoxy)phosphoryl]butan-2-amine
> <PUBCHEM_IUPAC_TRADITIONAL_NAME>
[ethoxy-(5-methyl-2-nitro-phenoxy)phosphoryl]-sec-butyl-amine
> <PUBCHEM_IUPAC_INCHI>
InChI=1S/C13H21N2O5P/c1-5-11(4)14-21(18,19-6-2)20-13-9-10(3)7-8-12(13)15(16)17/h7-9,11H,5-6H2,1-4H3,(H,14,18)
> <PUBCHEM_IUPAC_INCHIKEY>
KTBHXCBJYRPDHP-UHFFFAOYSA-N
> <PUBCHEM_XLOGP3_AA>
2.9
> <PUBCHEM_EXACT_MASS>
316.11880877
> <PUBCHEM_MOLECULAR_FORMULA>
C13H21N2O5P
> <PUBCHEM_MOLECULAR_WEIGHT>
316.29
> <PUBCHEM_OPENEYE_CAN_SMILES>
CCC(C)NP(=O)(OCC)OC1=C(C=CC(=C1)C)[N+](=O)[O-]
> <PUBCHEM_OPENEYE_ISO_SMILES>
CCC(C)NP(=O)(OCC)OC1=C(C=CC(=C1)C)[N+](=O)[O-]
> <PUBCHEM_CACTVS_TPSA>
93.4
> <PUBCHEM_MONOISOTOPIC_WEIGHT>
316.11880877
> <PUBCHEM_TOTAL_CHARGE>
0
> <PUBCHEM_HEAVY_ATOM_COUNT>
21
> <PUBCHEM_ATOM_DEF_STEREO_COUNT>
0
> <PUBCHEM_ATOM_UDEF_STEREO_COUNT>
2
> <PUBCHEM_BOND_DEF_STEREO_COUNT>
0
> <PUBCHEM_BOND_UDEF_STEREO_COUNT>
0
> <PUBCHEM_ISOTOPIC_ATOM_COUNT>
0
> <PUBCHEM_COMPONENT_COUNT>
1
> <PUBCHEM_CACTVS_TAUTO_COUNT>
-1
> <PUBCHEM_COORDINATE_TYPE>
1
5
255
> <PUBCHEM_BONDANNOTATIONS>
1  7  3
13  15  8
13  16  8
15  18  8
16  17  8
17  19  8
18  19  8
9  11  3
$$$$
