527222
  -OEChem-10302200292D
 38 39  0     1  0  0  0  0  0999 V2000
    8.1282    0.7569    0.0000 O   0  0  0  0  0  0  0  0  0  0  0  0
    5.4641   -0.7673    0.0000 C   0  0  3  0  0  0  0  0  0  0  0  0
    4.5981   -1.2673    0.0000 C   0  0  0  0  0  0  0  0  0  0  0  0
    6.3580   -1.3020    0.0000 C   0  0  0  0  0  0  0  0  0  0  0  0
    5.4641    0.2327    0.0000 C   0  0  0  0  0  0  0  0  0  0  0  0
    3.7320   -0.7673    0.0000 C   0  0  0  0  0  0  0  0  0  0  0  0
    3.7320    0.2327    0.0000 C   0  0  0  0  0  0  0  0  0  0  0  0
    5.4641   -1.7673    0.0000 C   0  0  0  0  0  0  0  0  0  0  0  0
    7.2641   -0.7881    0.0000 C   0  0  0  0  0  0  0  0  0  0  0  0
    4.5981    0.7327    0.0000 C   0  0  0  0  0  0  0  0  0  0  0  0
    6.3580    0.7674    0.0000 C   0  0  0  0  0  0  0  0  0  0  0  0
    2.8660    0.7327    0.0000 C   0  0  0  0  0  0  0  0  0  0  0  0
    7.2641    0.2535    0.0000 C   0  0  0  0  0  0  0  0  0  0  0  0
    6.3465    1.7673    0.0000 C   0  0  0  0  0  0  0  0  0  0  0  0
    2.0000    0.2327    0.0000 C   0  0  0  0  0  0  0  0  0  0  0  0
    2.8660    1.7327    0.0000 C   0  0  0  0  0  0  0  0  0  0  0  0
    4.1996   -1.7422    0.0000 H   0  0  0  0  0  0  0  0  0  0  0  0
    4.9966   -1.7422    0.0000 H   0  0  0  0  0  0  0  0  0  0  0  0
    5.9534   -1.7718    0.0000 H   0  0  0  0  0  0  0  0  0  0  0  0
    6.7517   -1.7810    0.0000 H   0  0  0  0  0  0  0  0  0  0  0  0
    3.1215   -0.6596    0.0000 H   0  0  0  0  0  0  0  0  0  0  0  0
    3.5200   -1.3499    0.0000 H   0  0  0  0  0  0  0  0  0  0  0  0
    4.8441   -1.7673    0.0000 H   0  0  0  0  0  0  0  0  0  0  0  0
    5.4641   -2.3873    0.0000 H   0  0  0  0  0  0  0  0  0  0  0  0
    6.0841   -1.7673    0.0000 H   0  0  0  0  0  0  0  0  0  0  0  0
    7.4732   -1.3718    0.0000 H   0  0  0  0  0  0  0  0  0  0  0  0
    7.8750   -0.6820    0.0000 H   0  0  0  0  0  0  0  0  0  0  0  0
    4.5981    1.3527    0.0000 H   0  0  0  0  0  0  0  0  0  0  0  0
    2.8660    0.1127    0.0000 H   0  0  0  0  0  0  0  0  0  0  0  0
    6.9664    1.7745    0.0000 H   0  0  0  0  0  0  0  0  0  0  0  0
    6.3393    2.3873    0.0000 H   0  0  0  0  0  0  0  0  0  0  0  0
    5.7265    1.7601    0.0000 H   0  0  0  0  0  0  0  0  0  0  0  0
    1.6900    0.7696    0.0000 H   0  0  0  0  0  0  0  0  0  0  0  0
    1.4631   -0.0773    0.0000 H   0  0  0  0  0  0  0  0  0  0  0  0
    2.3100   -0.3042    0.0000 H   0  0  0  0  0  0  0  0  0  0  0  0
    3.4860    1.7327    0.0000 H   0  0  0  0  0  0  0  0  0  0  0  0
    2.8660    2.3527    0.0000 H   0  0  0  0  0  0  0  0  0  0  0  0
    2.2460    1.7327    0.0000 H   0  0  0  0  0  0  0  0  0  0  0  0
  1 13  2  0  0  0  0
  2  3  1  0  0  0  0
  2  4  1  0  0  0  0
  2  5  1  0  0  0  0
  2  8  1  0  0  0  0
  3  6  1  0  0  0  0
  3 17  1  0  0  0  0
  3 18  1  0  0  0  0
  4  9  1  0  0  0  0
  4 19  1  0  0  0  0
  4 20  1  0  0  0  0
  5 10  1  0  0  0  0
  5 11  2  0  0  0  0
  6  7  1  0  0  0  0
  6 21  1  0  0  0  0
  6 22  1  0  0  0  0
  7 10  2  0  0  0  0
  7 12  1  0  0  0  0
  8 23  1  0  0  0  0
  8 24  1  0  0  0  0
  8 25  1  0  0  0  0
  9 13  1  0  0  0  0
  9 26  1  0  0  0  0
  9 27  1  0  0  0  0
 10 28  1  0  0  0  0
 11 13  1  0  0  0  0
 11 14  1  0  0  0  0
 12 15  1  0  0  0  0
 12 16  1  0  0  0  0
 12 29  1  0  0  0  0
 14 30  1  0  0  0  0
 14 31  1  0  0  0  0
 14 32  1  0  0  0  0
 15 33  1  0  0  0  0
 15 34  1  0  0  0  0
 15 35  1  0  0  0  0
 16 36  1  0  0  0  0
 16 37  1  0  0  0  0
 16 38  1  0  0  0  0
M  END
> <PUBCHEM_COMPOUND_CID>
527222
> <PUBCHEM_COMPOUND_CANONICALIZED>
1
> <PUBCHEM_CACTVS_COMPLEXITY>
384
> <PUBCHEM_CACTVS_HBOND_ACCEPTOR>
1
> <PUBCHEM_CACTVS_HBOND_DONOR>
0
> <PUBCHEM_CACTVS_ROTATABLE_BOND>
1
> <PUBCHEM_CACTVS_SUBSKEYS>
AAADceBwIAAAAAAAAAAAAAAAAAAAAAAAAAAgQAAAAAAAAACAAAAAGgAAAAAADwSAgAACAAAAAACIAqBSAAAAAAAgAAAACAEAAEgIABIAAQAAAAAAgAAIgQMIiMCPAAAAAAAAAAAAAAAAAAAAAAAAAAAAAA==
> <PUBCHEM_IUPAC_OPENEYE_NAME>
7-isopropyl-1,4a-dimethyl-3,4,5,6-tetrahydronaphthalen-2-one
> <PUBCHEM_IUPAC_CAS_NAME>
1,4a-dimethyl-7-propan-2-yl-3,4,5,6-tetrahydronaphthalen-2-one
> <PUBCHEM_IUPAC_NAME_MARKUP>
1,4<I>a</I>-dimethyl-7-propan-2-yl-3,4,5,6-tetrahydronaphthalen-2-one
> <PUBCHEM_IUPAC_NAME>
1,4a-dimethyl-7-propan-2-yl-3,4,5,6-tetrahydronaphthalen-2-one
> <PUBCHEM_IUPAC_SYSTEMATIC_NAME>
1,4a-dimethyl-7-propan-2-yl-3,4,5,6-tetrahydronaphthalen-2-one
> <PUBCHEM_IUPAC_TRADITIONAL_NAME>
7-isopropyl-1,4a-dimethyl-3,4,5,6-tetrahydronaphthalen-2-one
> <PUBCHEM_IUPAC_INCHI>
InChI=1S/C15H22O/c1-10(2)12-5-7-15(4)8-6-14(16)11(3)13(15)9-12/h9-10H,5-8H2,1-4H3
> <PUBCHEM_IUPAC_INCHIKEY>
NUIFDRMJKLJEJE-UHFFFAOYSA-N
> <PUBCHEM_XLOGP3_AA>
3.2
> <PUBCHEM_EXACT_MASS>
218.167065321
> <PUBCHEM_MOLECULAR_FORMULA>
C15H22O
> <PUBCHEM_MOLECULAR_WEIGHT>
218.33
> <PUBCHEM_OPENEYE_CAN_SMILES>
CC1=C2C=C(CCC2(CCC1=O)C)C(C)C
> <PUBCHEM_OPENEYE_ISO_SMILES>
CC1=C2C=C(CCC2(CCC1=O)C)C(C)C
> <PUBCHEM_CACTVS_TPSA>
17.1
> <PUBCHEM_MONOISOTOPIC_WEIGHT>
218.167065321
> <PUBCHEM_TOTAL_CHARGE>
0
> <PUBCHEM_HEAVY_ATOM_COUNT>
16
> <PUBCHEM_ATOM_DEF_STEREO_COUNT>
0
> <PUBCHEM_ATOM_UDEF_STEREO_COUNT>
1
> <PUBCHEM_BOND_DEF_STEREO_COUNT>
0
> <PUBCHEM_BOND_UDEF_STEREO_COUNT>
0
> <PUBCHEM_ISOTOPIC_ATOM_COUNT>
0
> <PUBCHEM_COMPONENT_COUNT>
1
> <PUBCHEM_CACTVS_TAUTO_COUNT>
-1
> <PUBCHEM_COORDINATE_TYPE>
1
5
255
> <PUBCHEM_BONDANNOTATIONS>
2  8  3
$$$$
