527204
  -OEChem-10302200292D
 40 41  0     1  0  0  0  0  0999 V2000
    2.0000    0.7327    0.0000 O   0  0  0  0  0  0  0  0  0  0  0  0
    6.3301   -0.7673    0.0000 C   0  0  3  0  0  0  0  0  0  0  0  0
    6.3301    0.2327    0.0000 C   0  0  3  0  0  0  0  0  0  0  0  0
    7.2241    0.7674    0.0000 C   0  0  3  0  0  0  0  0  0  0  0  0
    7.2241   -1.3020    0.0000 C   0  0  0  0  0  0  0  0  0  0  0  0
    5.4641   -1.2673    0.0000 C   0  0  0  0  0  0  0  0  0  0  0  0
    8.1301    0.2535    0.0000 C   0  0  0  0  0  0  0  0  0  0  0  0
    8.1301   -0.7881    0.0000 C   0  0  0  0  0  0  0  0  0  0  0  0
    5.4641    0.7327    0.0000 C   0  0  0  0  0  0  0  0  0  0  0  0
    4.5981   -0.7673    0.0000 C   0  0  0  0  0  0  0  0  0  0  0  0
    6.3301   -1.7673    0.0000 C   0  0  0  0  0  0  0  0  0  0  0  0
    4.5981    0.2327    0.0000 C   0  0  0  0  0  0  0  0  0  0  0  0
    7.2125    1.7673    0.0000 C   0  0  0  0  0  0  0  0  0  0  0  0
    3.7320    0.7327    0.0000 C   0  0  3  0  0  0  0  0  0  0  0  0
    3.7320    1.7327    0.0000 C   0  0  0  0  0  0  0  0  0  0  0  0
    2.8660    0.2327    0.0000 C   0  0  0  0  0  0  0  0  0  0  0  0
    6.3254    0.8527    0.0000 H   0  0  0  0  0  0  0  0  0  0  0  0
    7.7580    1.0825    0.0000 H   0  0  0  0  0  0  0  0  0  0  0  0
    6.8195   -1.7718    0.0000 H   0  0  0  0  0  0  0  0  0  0  0  0
    7.6177   -1.7810    0.0000 H   0  0  0  0  0  0  0  0  0  0  0  0
    5.0656   -1.7422    0.0000 H   0  0  0  0  0  0  0  0  0  0  0  0
    5.8626   -1.7422    0.0000 H   0  0  0  0  0  0  0  0  0  0  0  0
    8.7410    0.1474    0.0000 H   0  0  0  0  0  0  0  0  0  0  0  0
    8.3392    0.8372    0.0000 H   0  0  0  0  0  0  0  0  0  0  0  0
    8.3392   -1.3718    0.0000 H   0  0  0  0  0  0  0  0  0  0  0  0
    8.7410   -0.6820    0.0000 H   0  0  0  0  0  0  0  0  0  0  0  0
    5.4641    1.3527    0.0000 H   0  0  0  0  0  0  0  0  0  0  0  0
    3.9875   -0.6596    0.0000 H   0  0  0  0  0  0  0  0  0  0  0  0
    4.3860   -1.3499    0.0000 H   0  0  0  0  0  0  0  0  0  0  0  0
    5.7101   -1.7673    0.0000 H   0  0  0  0  0  0  0  0  0  0  0  0
    6.3301   -2.3873    0.0000 H   0  0  0  0  0  0  0  0  0  0  0  0
    6.9501   -1.7673    0.0000 H   0  0  0  0  0  0  0  0  0  0  0  0
    7.8325    1.7745    0.0000 H   0  0  0  0  0  0  0  0  0  0  0  0
    7.2053    2.3873    0.0000 H   0  0  0  0  0  0  0  0  0  0  0  0
    6.5926    1.7601    0.0000 H   0  0  0  0  0  0  0  0  0  0  0  0
    3.7320    0.1127    0.0000 H   0  0  0  0  0  0  0  0  0  0  0  0
    4.3520    1.7327    0.0000 H   0  0  0  0  0  0  0  0  0  0  0  0
    3.7320    2.3527    0.0000 H   0  0  0  0  0  0  0  0  0  0  0  0
    3.1120    1.7327    0.0000 H   0  0  0  0  0  0  0  0  0  0  0  0
    2.8660   -0.3873    0.0000 H   0  0  0  0  0  0  0  0  0  0  0  0
  1 16  2  0  0  0  0
  2  3  1  0  0  0  0
  2  5  1  0  0  0  0
  2  6  1  0  0  0  0
  2 11  1  0  0  0  0
  3  4  1  0  0  0  0
  3  9  1  0  0  0  0
  3 17  1  0  0  0  0
  4  7  1  0  0  0  0
  4 13  1  0  0  0  0
  4 18  1  0  0  0  0
  5  8  1  0  0  0  0
  5 19  1  0  0  0  0
  5 20  1  0  0  0  0
  6 10  1  0  0  0  0
  6 21  1  0  0  0  0
  6 22  1  0  0  0  0
  7  8  1  0  0  0  0
  7 23  1  0  0  0  0
  7 24  1  0  0  0  0
  8 25  1  0  0  0  0
  8 26  1  0  0  0  0
  9 12  2  0  0  0  0
  9 27  1  0  0  0  0
 10 12  1  0  0  0  0
 10 28  1  0  0  0  0
 10 29  1  0  0  0  0
 11 30  1  0  0  0  0
 11 31  1  0  0  0  0
 11 32  1  0  0  0  0
 12 14  1  0  0  0  0
 13 33  1  0  0  0  0
 13 34  1  0  0  0  0
 13 35  1  0  0  0  0
 14 15  1  0  0  0  0
 14 16  1  0  0  0  0
 14 36  1  0  0  0  0
 15 37  1  0  0  0  0
 15 38  1  0  0  0  0
 15 39  1  0  0  0  0
 16 40  1  0  0  0  0
M  END
> <PUBCHEM_COMPOUND_CID>
527204
> <PUBCHEM_COMPOUND_CANONICALIZED>
1
> <PUBCHEM_CACTVS_COMPLEXITY>
305
> <PUBCHEM_CACTVS_HBOND_ACCEPTOR>
1
> <PUBCHEM_CACTVS_HBOND_DONOR>
0
> <PUBCHEM_CACTVS_ROTATABLE_BOND>
2
> <PUBCHEM_CACTVS_SUBSKEYS>
AAADceBwIAAAAAAAAAAAAAAAAAAAAAAAAAAwQAAAAAAAAACAAAAAGgAAAAAADwCggAICAAAAAACIAihSgAAAAAAgAAAACAEAAAgAABIAAQAAAAAAgAAIAAMIiMCPgAAAAAAAAAAAAAQAACAAAAAAAAAAAA==
> <PUBCHEM_IUPAC_OPENEYE_NAME>
2-(4a,8-dimethyl-4,5,6,7,8,8a-hexahydro-3H-naphthalen-2-yl)propanal
> <PUBCHEM_IUPAC_CAS_NAME>
2-(4a,8-dimethyl-4,5,6,7,8,8a-hexahydro-3H-naphthalen-2-yl)propanal
> <PUBCHEM_IUPAC_NAME_MARKUP>
2-(4<I>a</I>,8-dimethyl-4,5,6,7,8,8<I>a</I>-hexahydro-3<I>H</I>-naphthalen-2-yl)propanal
> <PUBCHEM_IUPAC_NAME>
2-(4a,8-dimethyl-4,5,6,7,8,8a-hexahydro-3H-naphthalen-2-yl)propanal
> <PUBCHEM_IUPAC_SYSTEMATIC_NAME>
2-(4a,8-dimethyl-4,5,6,7,8,8a-hexahydro-3H-naphthalen-2-yl)propanal
> <PUBCHEM_IUPAC_TRADITIONAL_NAME>
2-(4a,8-dimethyl-4,5,6,7,8,8a-hexahydro-3H-naphthalen-2-yl)propionaldehyde
> <PUBCHEM_IUPAC_INCHI>
InChI=1S/C15H24O/c1-11-5-4-7-15(3)8-6-13(9-14(11)15)12(2)10-16/h9-12,14H,4-8H2,1-3H3
> <PUBCHEM_IUPAC_INCHIKEY>
QSZPERKSHGCGQS-UHFFFAOYSA-N
> <PUBCHEM_XLOGP3_AA>
4.1
> <PUBCHEM_EXACT_MASS>
220.182715385
> <PUBCHEM_MOLECULAR_FORMULA>
C15H24O
> <PUBCHEM_MOLECULAR_WEIGHT>
220.35
> <PUBCHEM_OPENEYE_CAN_SMILES>
CC1CCCC2(C1C=C(CC2)C(C)C=O)C
> <PUBCHEM_OPENEYE_ISO_SMILES>
CC1CCCC2(C1C=C(CC2)C(C)C=O)C
> <PUBCHEM_CACTVS_TPSA>
17.1
> <PUBCHEM_MONOISOTOPIC_WEIGHT>
220.182715385
> <PUBCHEM_TOTAL_CHARGE>
0
> <PUBCHEM_HEAVY_ATOM_COUNT>
16
> <PUBCHEM_ATOM_DEF_STEREO_COUNT>
0
> <PUBCHEM_ATOM_UDEF_STEREO_COUNT>
4
> <PUBCHEM_BOND_DEF_STEREO_COUNT>
0
> <PUBCHEM_BOND_UDEF_STEREO_COUNT>
0
> <PUBCHEM_ISOTOPIC_ATOM_COUNT>
0
> <PUBCHEM_COMPONENT_COUNT>
1
> <PUBCHEM_CACTVS_TAUTO_COUNT>
-1
> <PUBCHEM_COORDINATE_TYPE>
1
5
255
> <PUBCHEM_BONDANNOTATIONS>
14  15  3
2  11  3
3  9  3
4  13  3
$$$$
