527240
  -OEChem-10302200292D
 40 41  0     1  0  0  0  0  0999 V2000
    2.5369    0.7327    0.0000 O   0  0  0  0  0  0  0  0  0  0  0  0
    6.8671   -0.7673    0.0000 C   0  0  3  0  0  0  0  0  0  0  0  0
    6.8671    0.2327    0.0000 C   0  0  3  0  0  0  0  0  0  0  0  0
    7.7610   -1.3020    0.0000 C   0  0  0  0  0  0  0  0  0  0  0  0
    6.0010   -1.2673    0.0000 C   0  0  0  0  0  0  0  0  0  0  0  0
    6.0010    0.7327    0.0000 C   0  0  0  0  0  0  0  0  0  0  0  0
    7.7610    0.7674    0.0000 C   0  0  0  0  0  0  0  0  0  0  0  0
    8.6671   -0.7881    0.0000 C   0  0  0  0  0  0  0  0  0  0  0  0
    6.8671   -1.7673    0.0000 C   0  0  0  0  0  0  0  0  0  0  0  0
    8.6671    0.2535    0.0000 C   0  0  0  0  0  0  0  0  0  0  0  0
    5.1350    0.2327    0.0000 C   0  0  0  0  0  0  0  0  0  0  0  0
    5.1350   -0.7673    0.0000 C   0  0  0  0  0  0  0  0  0  0  0  0
    4.2690    0.7327    0.0000 C   0  0  3  0  0  0  0  0  0  0  0  0
    7.7494    1.7673    0.0000 C   0  0  0  0  0  0  0  0  0  0  0  0
    3.4030    0.2327    0.0000 C   0  0  0  0  0  0  0  0  0  0  0  0
    4.2690    1.7327    0.0000 C   0  0  0  0  0  0  0  0  0  0  0  0
    6.8623    0.8527    0.0000 H   0  0  0  0  0  0  0  0  0  0  0  0
    7.3564   -1.7718    0.0000 H   0  0  0  0  0  0  0  0  0  0  0  0
    8.1546   -1.7810    0.0000 H   0  0  0  0  0  0  0  0  0  0  0  0
    5.6025   -1.7422    0.0000 H   0  0  0  0  0  0  0  0  0  0  0  0
    6.3996   -1.7422    0.0000 H   0  0  0  0  0  0  0  0  0  0  0  0
    6.3996    1.2076    0.0000 H   0  0  0  0  0  0  0  0  0  0  0  0
    5.6025    1.2076    0.0000 H   0  0  0  0  0  0  0  0  0  0  0  0
    8.8761   -1.3718    0.0000 H   0  0  0  0  0  0  0  0  0  0  0  0
    9.2779   -0.6820    0.0000 H   0  0  0  0  0  0  0  0  0  0  0  0
    6.2471   -1.7673    0.0000 H   0  0  0  0  0  0  0  0  0  0  0  0
    6.8671   -2.3873    0.0000 H   0  0  0  0  0  0  0  0  0  0  0  0
    7.4871   -1.7673    0.0000 H   0  0  0  0  0  0  0  0  0  0  0  0
    9.2779    0.1474    0.0000 H   0  0  0  0  0  0  0  0  0  0  0  0
    8.8761    0.8372    0.0000 H   0  0  0  0  0  0  0  0  0  0  0  0
    4.5981   -1.0773    0.0000 H   0  0  0  0  0  0  0  0  0  0  0  0
    4.8059    1.0427    0.0000 H   0  0  0  0  0  0  0  0  0  0  0  0
    8.2828    2.0835    0.0000 H   0  0  0  0  0  0  0  0  0  0  0  0
    7.2090    2.0711    0.0000 H   0  0  0  0  0  0  0  0  0  0  0  0
    3.0044   -0.2422    0.0000 H   0  0  0  0  0  0  0  0  0  0  0  0
    3.8015   -0.2422    0.0000 H   0  0  0  0  0  0  0  0  0  0  0  0
    4.8890    1.7327    0.0000 H   0  0  0  0  0  0  0  0  0  0  0  0
    4.2690    2.3527    0.0000 H   0  0  0  0  0  0  0  0  0  0  0  0
    3.6490    1.7327    0.0000 H   0  0  0  0  0  0  0  0  0  0  0  0
    2.0000    0.4227    0.0000 H   0  0  0  0  0  0  0  0  0  0  0  0
  1 15  1  0  0  0  0
  1 40  1  0  0  0  0
  2  3  1  0  0  0  0
  2  4  1  0  0  0  0
  2  5  1  0  0  0  0
  2  9  1  0  0  0  0
  3  6  1  0  0  0  0
  3  7  1  0  0  0  0
  3 17  1  0  0  0  0
  4  8  1  0  0  0  0
  4 18  1  0  0  0  0
  4 19  1  0  0  0  0
  5 12  1  0  0  0  0
  5 20  1  0  0  0  0
  5 21  1  0  0  0  0
  6 11  1  0  0  0  0
  6 22  1  0  0  0  0
  6 23  1  0  0  0  0
  7 10  1  0  0  0  0
  7 14  2  0  0  0  0
  8 10  1  0  0  0  0
  8 24  1  0  0  0  0
  8 25  1  0  0  0  0
  9 26  1  0  0  0  0
  9 27  1  0  0  0  0
  9 28  1  0  0  0  0
 10 29  1  0  0  0  0
 10 30  1  0  0  0  0
 11 12  2  0  0  0  0
 11 13  1  0  0  0  0
 12 31  1  0  0  0  0
 13 15  1  0  0  0  0
 13 16  1  0  0  0  0
 13 32  1  0  0  0  0
 14 33  1  0  0  0  0
 14 34  1  0  0  0  0
 15 35  1  0  0  0  0
 15 36  1  0  0  0  0
 16 37  1  0  0  0  0
 16 38  1  0  0  0  0
 16 39  1  0  0  0  0
M  END
> <PUBCHEM_COMPOUND_CID>
527240
> <PUBCHEM_COMPOUND_CANONICALIZED>
1
> <PUBCHEM_CACTVS_COMPLEXITY>
315
> <PUBCHEM_CACTVS_HBOND_ACCEPTOR>
1
> <PUBCHEM_CACTVS_HBOND_DONOR>
1
> <PUBCHEM_CACTVS_ROTATABLE_BOND>
2
> <PUBCHEM_CACTVS_SUBSKEYS>
AAADceBwIAAAAAAAAAAAAAAAAAAAAAAAAAAwQAAAAAAAAACAAAAAGgAACAAADwCggAICAAAAAgCAAiBCAAAAAAAgAAAACAAAAAgAEAIAAQAAQAAEwAAIAAOAwPAPgAAAAAAAAAAAAAAAACAAAAAAAAAAAA==
> <PUBCHEM_IUPAC_OPENEYE_NAME>
2-(4a-methyl-8-methylene-1,4,5,6,7,8a-hexahydronaphthalen-2-yl)propan-1-ol
> <PUBCHEM_IUPAC_CAS_NAME>
2-(4a-methyl-8-methylene-1,4,5,6,7,8a-hexahydronaphthalen-2-yl)-1-propanol
> <PUBCHEM_IUPAC_NAME_MARKUP>
2-(4<I>a</I>-methyl-8-methylidene-1,4,5,6,7,8<I>a</I>-hexahydronaphthalen-2-yl)propan-1-ol
> <PUBCHEM_IUPAC_NAME>
2-(4a-methyl-8-methylidene-1,4,5,6,7,8a-hexahydronaphthalen-2-yl)propan-1-ol
> <PUBCHEM_IUPAC_SYSTEMATIC_NAME>
2-(4a-methyl-8-methylidene-1,4,5,6,7,8a-hexahydronaphthalen-2-yl)propan-1-ol
> <PUBCHEM_IUPAC_TRADITIONAL_NAME>
2-(4a-methyl-8-methylene-1,4,5,6,7,8a-hexahydronaphthalen-2-yl)propan-1-ol
> <PUBCHEM_IUPAC_INCHI>
InChI=1S/C15H24O/c1-11-5-4-7-15(3)8-6-13(9-14(11)15)12(2)10-16/h6,12,14,16H,1,4-5,7-10H2,2-3H3
> <PUBCHEM_IUPAC_INCHIKEY>
RQWRGJGCTMAFBS-UHFFFAOYSA-N
> <PUBCHEM_XLOGP3_AA>
3.1
> <PUBCHEM_EXACT_MASS>
220.182715385
> <PUBCHEM_MOLECULAR_FORMULA>
C15H24O
> <PUBCHEM_MOLECULAR_WEIGHT>
220.35
> <PUBCHEM_OPENEYE_CAN_SMILES>
CC(CO)C1=CCC2(CCCC(=C)C2C1)C
> <PUBCHEM_OPENEYE_ISO_SMILES>
CC(CO)C1=CCC2(CCCC(=C)C2C1)C
> <PUBCHEM_CACTVS_TPSA>
20.2
> <PUBCHEM_MONOISOTOPIC_WEIGHT>
220.182715385
> <PUBCHEM_TOTAL_CHARGE>
0
> <PUBCHEM_HEAVY_ATOM_COUNT>
16
> <PUBCHEM_ATOM_DEF_STEREO_COUNT>
0
> <PUBCHEM_ATOM_UDEF_STEREO_COUNT>
3
> <PUBCHEM_BOND_DEF_STEREO_COUNT>
0
> <PUBCHEM_BOND_UDEF_STEREO_COUNT>
0
> <PUBCHEM_ISOTOPIC_ATOM_COUNT>
0
> <PUBCHEM_COMPONENT_COUNT>
1
> <PUBCHEM_CACTVS_TAUTO_COUNT>
-1
> <PUBCHEM_COORDINATE_TYPE>
1
5
255
> <PUBCHEM_BONDANNOTATIONS>
13  16  3
2  9  3
3  6  3
$$$$
