527238
  -OEChem-10302200292D
 37 38  0     1  0  0  0  0  0999 V2000
    4.0000   -0.1751    0.0000 C   0  0  3  0  0  0  0  0  0  0  0  0
    3.5000   -1.0412    0.0000 C   0  0  3  0  0  0  0  0  0  0  0  0
    4.5878   -0.9841    0.0000 C   0  0  0  0  0  0  0  0  0  0  0  0
    4.5878    0.6339    0.0000 C   0  0  0  0  0  0  0  0  0  0  0  0
    5.5388   -0.6751    0.0000 C   0  0  0  0  0  0  0  0  0  0  0  0
    5.5388    0.3249    0.0000 C   0  0  0  0  0  0  0  0  0  0  0  0
    3.5000    0.6909    0.0000 C   0  0  0  0  0  0  0  0  0  0  0  0
    2.5000   -1.0412    0.0000 C   0  0  0  0  0  0  0  0  0  0  0  0
    4.0000   -1.9072    0.0000 C   0  0  0  0  0  0  0  0  0  0  0  0
    2.5000    0.6909    0.0000 C   0  0  0  0  0  0  0  0  0  0  0  0
    2.0000   -0.1751    0.0000 C   0  0  0  0  0  0  0  0  0  0  0  0
    6.3479    0.9127    0.0000 C   0  0  0  0  0  0  0  0  0  0  0  0
    4.0000    1.5569    0.0000 C   0  0  0  0  0  0  0  0  0  0  0  0
    7.2614    0.5059    0.0000 C   0  0  0  0  0  0  0  0  0  0  0  0
    6.2433    1.9072    0.0000 C   0  0  0  0  0  0  0  0  0  0  0  0
    4.1200   -1.0412    0.0000 H   0  0  0  0  0  0  0  0  0  0  0  0
    4.0508   -1.2942    0.0000 H   0  0  0  0  0  0  0  0  0  0  0  0
    4.8400   -1.5505    0.0000 H   0  0  0  0  0  0  0  0  0  0  0  0
    4.8400    1.2003    0.0000 H   0  0  0  0  0  0  0  0  0  0  0  0
    4.0508    0.9439    0.0000 H   0  0  0  0  0  0  0  0  0  0  0  0
    5.6678   -1.2816    0.0000 H   0  0  0  0  0  0  0  0  0  0  0  0
    6.1554   -0.6103    0.0000 H   0  0  0  0  0  0  0  0  0  0  0  0
    1.9174   -1.2532    0.0000 H   0  0  0  0  0  0  0  0  0  0  0  0
    2.6077   -1.6517    0.0000 H   0  0  0  0  0  0  0  0  0  0  0  0
    3.4631   -2.2172    0.0000 H   0  0  0  0  0  0  0  0  0  0  0  0
    4.3100   -2.4441    0.0000 H   0  0  0  0  0  0  0  0  0  0  0  0
    4.5369   -1.5972    0.0000 H   0  0  0  0  0  0  0  0  0  0  0  0
    2.1900    1.2278    0.0000 H   0  0  0  0  0  0  0  0  0  0  0  0
    1.3800   -0.1751    0.0000 H   0  0  0  0  0  0  0  0  0  0  0  0
    4.6200    1.5569    0.0000 H   0  0  0  0  0  0  0  0  0  0  0  0
    3.6900    2.0939    0.0000 H   0  0  0  0  0  0  0  0  0  0  0  0
    7.0092   -0.0605    0.0000 H   0  0  0  0  0  0  0  0  0  0  0  0
    7.8278    0.2537    0.0000 H   0  0  0  0  0  0  0  0  0  0  0  0
    7.5136    1.0723    0.0000 H   0  0  0  0  0  0  0  0  0  0  0  0
    6.8599    1.9720    0.0000 H   0  0  0  0  0  0  0  0  0  0  0  0
    6.1785    2.5238    0.0000 H   0  0  0  0  0  0  0  0  0  0  0  0
    5.6267    1.8424    0.0000 H   0  0  0  0  0  0  0  0  0  0  0  0
  1  2  1  0  0  0  0
  1  3  1  0  0  0  0
  1  4  1  0  0  0  0
  1  7  1  0  0  0  0
  2  8  1  0  0  0  0
  2  9  1  0  0  0  0
  2 16  1  0  0  0  0
  3  5  1  0  0  0  0
  3 17  1  0  0  0  0
  3 18  1  0  0  0  0
  4  6  1  0  0  0  0
  4 19  1  0  0  0  0
  4 20  1  0  0  0  0
  5  6  1  0  0  0  0
  5 21  1  0  0  0  0
  5 22  1  0  0  0  0
  6 12  2  0  0  0  0
  7 10  1  0  0  0  0
  7 13  2  0  0  0  0
  8 11  1  0  0  0  0
  8 23  1  0  0  0  0
  8 24  1  0  0  0  0
  9 25  1  0  0  0  0
  9 26  1  0  0  0  0
  9 27  1  0  0  0  0
 10 11  2  0  0  0  0
 10 28  1  0  0  0  0
 11 29  1  0  0  0  0
 12 14  1  0  0  0  0
 12 15  1  0  0  0  0
 13 30  1  0  0  0  0
 13 31  1  0  0  0  0
 14 32  1  0  0  0  0
 14 33  1  0  0  0  0
 14 34  1  0  0  0  0
 15 35  1  0  0  0  0
 15 36  1  0  0  0  0
 15 37  1  0  0  0  0
M  END
> <PUBCHEM_COMPOUND_CID>
527238
> <PUBCHEM_COMPOUND_CANONICALIZED>
1
> <PUBCHEM_CACTVS_COMPLEXITY>
339
> <PUBCHEM_CACTVS_HBOND_ACCEPTOR>
0
> <PUBCHEM_CACTVS_HBOND_DONOR>
0
> <PUBCHEM_CACTVS_ROTATABLE_BOND>
0
> <PUBCHEM_CACTVS_SUBSKEYS>
AAADceBwAAAAAAAAAAAAAAAAAAAAAYAAAAAgAAAAAAAAAAAAAAAAGAAAAAAADwCAAAACAAAAAACAAiBCAAAAAAAgAAAICAAAAAgIAAIAAQAAAAAAgAAIgAMAgMAPgAAAAAAAAAAAAAAAAAAAAAAAAAAAAA==
> <PUBCHEM_IUPAC_OPENEYE_NAME>
3-isopropylidene-6-methyl-10-methylene-spiro[4.5]dec-8-ene
> <PUBCHEM_IUPAC_CAS_NAME>
6-methyl-10-methylene-3-propan-2-ylidenespiro[4.5]dec-8-ene
> <PUBCHEM_IUPAC_NAME_MARKUP>
6-methyl-10-methylidene-3-propan-2-ylidenespiro[4.5]dec-8-ene
> <PUBCHEM_IUPAC_NAME>
6-methyl-10-methylidene-3-propan-2-ylidenespiro[4.5]dec-8-ene
> <PUBCHEM_IUPAC_SYSTEMATIC_NAME>
6-methyl-10-methylidene-3-propan-2-ylidene-spiro[4.5]dec-8-ene
> <PUBCHEM_IUPAC_TRADITIONAL_NAME>
3-isopropylidene-6-methyl-10-methylene-spiro[4.5]dec-8-ene
> <PUBCHEM_IUPAC_INCHI>
InChI=1S/C15H22/c1-11(2)14-8-9-15(10-14)12(3)6-5-7-13(15)4/h5-6,13H,3,7-10H2,1-2,4H3
> <PUBCHEM_IUPAC_INCHIKEY>
CSRZVTLTICSDRH-UHFFFAOYSA-N
> <PUBCHEM_XLOGP3_AA>
4.5
> <PUBCHEM_EXACT_MASS>
202.172150702
> <PUBCHEM_MOLECULAR_FORMULA>
C15H22
> <PUBCHEM_MOLECULAR_WEIGHT>
202.33
> <PUBCHEM_OPENEYE_CAN_SMILES>
CC1CC=CC(=C)C12CCC(=C(C)C)C2
> <PUBCHEM_OPENEYE_ISO_SMILES>
CC1CC=CC(=C)C12CCC(=C(C)C)C2
> <PUBCHEM_CACTVS_TPSA>
0
> <PUBCHEM_MONOISOTOPIC_WEIGHT>
202.172150702
> <PUBCHEM_TOTAL_CHARGE>
0
> <PUBCHEM_HEAVY_ATOM_COUNT>
15
> <PUBCHEM_ATOM_DEF_STEREO_COUNT>
0
> <PUBCHEM_ATOM_UDEF_STEREO_COUNT>
2
> <PUBCHEM_BOND_DEF_STEREO_COUNT>
0
> <PUBCHEM_BOND_UDEF_STEREO_COUNT>
0
> <PUBCHEM_ISOTOPIC_ATOM_COUNT>
0
> <PUBCHEM_COMPONENT_COUNT>
1
> <PUBCHEM_CACTVS_TAUTO_COUNT>
-1
> <PUBCHEM_COORDINATE_TYPE>
1
5
255
> <PUBCHEM_BONDANNOTATIONS>
1  3  3
2  9  3
$$$$
