527239
  -OEChem-10302200292D
 36 37  0     1  0  0  0  0  0999 V2000
    5.3122   -1.0878    0.0000 O   0  0  0  0  0  0  0  0  0  0  0  0
    3.6942   -1.0878    0.0000 C   0  0  3  0  0  0  0  0  0  0  0  0
    4.5032   -0.5000    0.0000 C   0  0  3  0  0  0  0  0  0  0  0  0
    4.5032    0.5000    0.0000 C   0  0  0  0  0  0  0  0  0  0  0  0
    4.0032   -2.0388    0.0000 C   0  0  0  0  0  0  0  0  0  0  0  0
    2.7431   -0.7788    0.0000 C   0  0  0  0  0  0  0  0  0  0  0  0
    5.3122    1.0878    0.0000 C   0  0  3  0  0  0  0  0  0  0  0  0
    5.0032   -2.0388    0.0000 C   0  0  0  0  0  0  0  0  0  0  0  0
    5.0032    2.0388    0.0000 C   0  0  0  0  0  0  0  0  0  0  0  0
    4.0032    2.0388    0.0000 C   0  0  0  0  0  0  0  0  0  0  0  0
    3.6942    1.0878    0.0000 C   0  0  0  0  0  0  0  0  0  0  0  0
    2.0000   -1.4479    0.0000 C   0  0  0  0  0  0  0  0  0  0  0  0
    2.5352    0.1994    0.0000 C   0  0  0  0  0  0  0  0  0  0  0  0
    6.2633    0.7788    0.0000 C   0  0  0  0  0  0  0  0  0  0  0  0
    3.2558   -1.5262    0.0000 H   0  0  0  0  0  0  0  0  0  0  0  0
    3.9508   -0.2185    0.0000 H   0  0  0  0  0  0  0  0  0  0  0  0
    3.3968   -2.1678    0.0000 H   0  0  0  0  0  0  0  0  0  0  0  0
    4.0680   -2.6554    0.0000 H   0  0  0  0  0  0  0  0  0  0  0  0
    3.2039   -0.3639    0.0000 H   0  0  0  0  0  0  0  0  0  0  0  0
    5.7506    1.5262    0.0000 H   0  0  0  0  0  0  0  0  0  0  0  0
    4.9384   -2.6554    0.0000 H   0  0  0  0  0  0  0  0  0  0  0  0
    5.6097   -2.1678    0.0000 H   0  0  0  0  0  0  0  0  0  0  0  0
    5.6097    2.1678    0.0000 H   0  0  0  0  0  0  0  0  0  0  0  0
    4.9384    2.6554    0.0000 H   0  0  0  0  0  0  0  0  0  0  0  0
    4.0680    2.6554    0.0000 H   0  0  0  0  0  0  0  0  0  0  0  0
    3.3968    2.1678    0.0000 H   0  0  0  0  0  0  0  0  0  0  0  0
    3.1046    0.8962    0.0000 H   0  0  0  0  0  0  0  0  0  0  0  0
    1.5851   -0.9871    0.0000 H   0  0  0  0  0  0  0  0  0  0  0  0
    1.5392   -1.8628    0.0000 H   0  0  0  0  0  0  0  0  0  0  0  0
    2.4149   -1.9086    0.0000 H   0  0  0  0  0  0  0  0  0  0  0  0
    3.1417    0.3283    0.0000 H   0  0  0  0  0  0  0  0  0  0  0  0
    2.4063    0.8058    0.0000 H   0  0  0  0  0  0  0  0  0  0  0  0
    1.9288    0.0705    0.0000 H   0  0  0  0  0  0  0  0  0  0  0  0
    6.0717    0.1891    0.0000 H   0  0  0  0  0  0  0  0  0  0  0  0
    6.8530    0.5872    0.0000 H   0  0  0  0  0  0  0  0  0  0  0  0
    6.4549    1.3684    0.0000 H   0  0  0  0  0  0  0  0  0  0  0  0
  1  3  1  0  0  0  0
  1  8  1  0  0  0  0
  2  3  1  0  0  0  0
  2  5  1  0  0  0  0
  2  6  1  0  0  0  0
  2 15  1  0  0  0  0
  3  4  1  0  0  0  0
  3 16  1  0  0  0  0
  4  7  1  0  0  0  0
  4 11  2  0  0  0  0
  5  8  1  0  0  0  0
  5 17  1  0  0  0  0
  5 18  1  0  0  0  0
  6 12  1  0  0  0  0
  6 13  1  0  0  0  0
  6 19  1  0  0  0  0
  7  9  1  0  0  0  0
  7 14  1  0  0  0  0
  7 20  1  0  0  0  0
  8 21  1  0  0  0  0
  8 22  1  0  0  0  0
  9 10  1  0  0  0  0
  9 23  1  0  0  0  0
  9 24  1  0  0  0  0
 10 11  1  0  0  0  0
 10 25  1  0  0  0  0
 10 26  1  0  0  0  0
 11 27  1  0  0  0  0
 12 28  1  0  0  0  0
 12 29  1  0  0  0  0
 12 30  1  0  0  0  0
 13 31  1  0  0  0  0
 13 32  1  0  0  0  0
 13 33  1  0  0  0  0
 14 34  1  0  0  0  0
 14 35  1  0  0  0  0
 14 36  1  0  0  0  0
M  END
> <PUBCHEM_COMPOUND_CID>
527239
> <PUBCHEM_COMPOUND_CANONICALIZED>
1
> <PUBCHEM_CACTVS_COMPLEXITY>
229
> <PUBCHEM_CACTVS_HBOND_ACCEPTOR>
1
> <PUBCHEM_CACTVS_HBOND_DONOR>
0
> <PUBCHEM_CACTVS_ROTATABLE_BOND>
2
> <PUBCHEM_CACTVS_SUBSKEYS>
AAADceBwIAAAAAAAAAAAAAAAAAAAASIAAAAAAAAAAAAAAAAAAAAAGgAAAAAADRSggAICAAAABACAAiBCAAAAAAAgAAAACAAAAAgABAIAIQACEAAEgAAIIAOAwOAOgAAAAAAAAAAAAAAAAAAAAAAAAAAAAA==
> <PUBCHEM_IUPAC_OPENEYE_NAME>
3-isopropyl-2-(5-methylcyclopenten-1-yl)tetrahydrofuran
> <PUBCHEM_IUPAC_CAS_NAME>
2-(5-methyl-1-cyclopentenyl)-3-propan-2-yloxolane
> <PUBCHEM_IUPAC_NAME_MARKUP>
2-(5-methylcyclopenten-1-yl)-3-propan-2-yloxolane
> <PUBCHEM_IUPAC_NAME>
2-(5-methylcyclopenten-1-yl)-3-propan-2-yloxolane
> <PUBCHEM_IUPAC_SYSTEMATIC_NAME>
2-(5-methylcyclopenten-1-yl)-3-propan-2-yl-oxolane
> <PUBCHEM_IUPAC_TRADITIONAL_NAME>
3-isopropyl-2-(5-methylcyclopenten-1-yl)tetrahydrofuran
> <PUBCHEM_IUPAC_INCHI>
InChI=1S/C13H22O/c1-9(2)11-7-8-14-13(11)12-6-4-5-10(12)3/h6,9-11,13H,4-5,7-8H2,1-3H3
> <PUBCHEM_IUPAC_INCHIKEY>
RLVBOJOICUKZPB-UHFFFAOYSA-N
> <PUBCHEM_XLOGP3_AA>
3.2
> <PUBCHEM_EXACT_MASS>
194.167065321
> <PUBCHEM_MOLECULAR_FORMULA>
C13H22O
> <PUBCHEM_MOLECULAR_WEIGHT>
194.31
> <PUBCHEM_OPENEYE_CAN_SMILES>
CC1CCC=C1C2C(CCO2)C(C)C
> <PUBCHEM_OPENEYE_ISO_SMILES>
CC1CCC=C1C2C(CCO2)C(C)C
> <PUBCHEM_CACTVS_TPSA>
9.2
> <PUBCHEM_MONOISOTOPIC_WEIGHT>
194.167065321
> <PUBCHEM_TOTAL_CHARGE>
0
> <PUBCHEM_HEAVY_ATOM_COUNT>
14
> <PUBCHEM_ATOM_DEF_STEREO_COUNT>
0
> <PUBCHEM_ATOM_UDEF_STEREO_COUNT>
3
> <PUBCHEM_BOND_DEF_STEREO_COUNT>
0
> <PUBCHEM_BOND_UDEF_STEREO_COUNT>
0
> <PUBCHEM_ISOTOPIC_ATOM_COUNT>
0
> <PUBCHEM_COMPONENT_COUNT>
1
> <PUBCHEM_CACTVS_TAUTO_COUNT>
-1
> <PUBCHEM_COORDINATE_TYPE>
1
5
255
> <PUBCHEM_BONDANNOTATIONS>
2  6  3
3  4  3
7  14  3
$$$$
