527306
  -OEChem-10302200292D
 42 44  0     1  0  0  0  0  0999 V2000
    2.5000    1.8654    0.0000 O   0  0  0  0  0  0  0  0  0  0  0  0
    3.8660   -0.5006    0.0000 C   0  0  3  0  0  0  0  0  0  0  0  0
    3.0000   -0.0006    0.0000 C   0  0  3  0  0  0  0  0  0  0  0  0
    2.9997   -1.0011    0.0000 C   0  0  0  0  0  0  0  0  0  0  0  0
    4.7320   -0.0006    0.0000 C   0  0  3  0  0  0  0  0  0  0  0  0
    3.8500   -1.5421    0.0000 C   0  0  0  0  0  0  0  0  0  0  0  0
    3.0000    0.9994    0.0000 C   0  0  3  0  0  0  0  0  0  0  0  0
    4.7320    0.9994    0.0000 C   0  0  0  0  0  0  0  0  0  0  0  0
    5.6420   -0.5075    0.0000 C   0  0  0  0  0  0  0  0  0  0  0  0
    3.8660    1.4994    0.0000 C   0  0  0  0  0  0  0  0  0  0  0  0
    4.7480   -2.0699    0.0000 C   0  0  0  0  0  0  0  0  0  0  0  0
    5.6501   -1.5491    0.0000 C   0  0  0  0  0  0  0  0  0  0  0  0
    5.5981    0.4994    0.0000 C   0  0  0  0  0  0  0  0  0  0  0  0
    3.3400   -2.4023    0.0000 C   0  0  0  0  0  0  0  0  0  0  0  0
    2.9064   -1.8733    0.0000 C   0  0  0  0  0  0  0  0  0  0  0  0
    2.0000    0.9994    0.0000 C   0  0  0  0  0  0  0  0  0  0  0  0
    2.3800   -0.0006    0.0000 H   0  0  0  0  0  0  0  0  0  0  0  0
    2.3892   -1.1087    0.0000 H   0  0  0  0  0  0  0  0  0  0  0  0
    3.2118   -1.5837    0.0000 H   0  0  0  0  0  0  0  0  0  0  0  0
    5.3426    0.8917    0.0000 H   0  0  0  0  0  0  0  0  0  0  0  0
    4.9441    1.5820    0.0000 H   0  0  0  0  0  0  0  0  0  0  0  0
    6.2537   -0.6089    0.0000 H   0  0  0  0  0  0  0  0  0  0  0  0
    5.8466    0.0778    0.0000 H   0  0  0  0  0  0  0  0  0  0  0  0
    4.2646    1.9743    0.0000 H   0  0  0  0  0  0  0  0  0  0  0  0
    3.4675    1.9743    0.0000 H   0  0  0  0  0  0  0  0  0  0  0  0
    4.3470   -2.5428    0.0000 H   0  0  0  0  0  0  0  0  0  0  0  0
    5.1453   -2.5459    0.0000 H   0  0  0  0  0  0  0  0  0  0  0  0
    5.8636   -2.1311    0.0000 H   0  0  0  0  0  0  0  0  0  0  0  0
    6.2601   -1.4383    0.0000 H   0  0  0  0  0  0  0  0  0  0  0  0
    5.9081   -0.0376    0.0000 H   0  0  0  0  0  0  0  0  0  0  0  0
    6.1350    0.8094    0.0000 H   0  0  0  0  0  0  0  0  0  0  0  0
    5.2881    1.0363    0.0000 H   0  0  0  0  0  0  0  0  0  0  0  0
    2.8067   -2.0861    0.0000 H   0  0  0  0  0  0  0  0  0  0  0  0
    3.0238   -2.9356    0.0000 H   0  0  0  0  0  0  0  0  0  0  0  0
    3.8733   -2.7185    0.0000 H   0  0  0  0  0  0  0  0  0  0  0  0
    2.7011   -1.2882    0.0000 H   0  0  0  0  0  0  0  0  0  0  0  0
    2.3214   -2.0786    0.0000 H   0  0  0  0  0  0  0  0  0  0  0  0
    3.1117   -2.4583    0.0000 H   0  0  0  0  0  0  0  0  0  0  0  0
    2.0000    1.6194    0.0000 H   0  0  0  0  0  0  0  0  0  0  0  0
    1.3800    0.9994    0.0000 H   0  0  0  0  0  0  0  0  0  0  0  0
    2.0000    0.3794    0.0000 H   0  0  0  0  0  0  0  0  0  0  0  0
    2.8100    2.4023    0.0000 H   0  0  0  0  0  0  0  0  0  0  0  0
  1  7  1  0  0  0  0
  1 42  1  0  0  0  0
  2  3  1  0  0  0  0
  2  4  1  0  0  0  0
  2  5  1  0  0  0  0
  2  6  1  0  0  0  0
  3  4  1  0  0  0  0
  3  7  1  0  0  0  0
  3 17  1  0  0  0  0
  4 18  1  0  0  0  0
  4 19  1  0  0  0  0
  5  8  1  0  0  0  0
  5  9  1  0  0  0  0
  5 13  1  0  0  0  0
  6 11  1  0  0  0  0
  6 14  1  0  0  0  0
  6 15  1  0  0  0  0
  7 10  1  0  0  0  0
  7 16  1  0  0  0  0
  8 10  1  0  0  0  0
  8 20  1  0  0  0  0
  8 21  1  0  0  0  0
  9 12  1  0  0  0  0
  9 22  1  0  0  0  0
  9 23  1  0  0  0  0
 10 24  1  0  0  0  0
 10 25  1  0  0  0  0
 11 12  1  0  0  0  0
 11 26  1  0  0  0  0
 11 27  1  0  0  0  0
 12 28  1  0  0  0  0
 12 29  1  0  0  0  0
 13 30  1  0  0  0  0
 13 31  1  0  0  0  0
 13 32  1  0  0  0  0
 14 33  1  0  0  0  0
 14 34  1  0  0  0  0
 14 35  1  0  0  0  0
 15 36  1  0  0  0  0
 15 37  1  0  0  0  0
 15 38  1  0  0  0  0
 16 39  1  0  0  0  0
 16 40  1  0  0  0  0
 16 41  1  0  0  0  0
M  END
> <PUBCHEM_COMPOUND_CID>
527306
> <PUBCHEM_COMPOUND_CANONICALIZED>
1
> <PUBCHEM_CACTVS_COMPLEXITY>
334
> <PUBCHEM_CACTVS_HBOND_ACCEPTOR>
1
> <PUBCHEM_CACTVS_HBOND_DONOR>
1
> <PUBCHEM_CACTVS_ROTATABLE_BOND>
0
> <PUBCHEM_CACTVS_SUBSKEYS>
AAADceBwIAAAAAAAAAAAAAAAGAAAAAAAAAAwYAAABgAAAADAAAAAGgAACAAAD0SAgAACAAAAAgAAAAAAAAAAAAAAAAAAAAAAAAAAAAIAAAAAQAAEAAAAAAGAwPAPgAAAAAAAAADAAAYAADAAAAAAAAAAAA==
> <PUBCHEM_IUPAC_OPENEYE_NAME>
2,4a,8,8-tetramethyl-1a,3,4,5,6,7-hexahydro-1H-cyclopropa[j]naphthalen-2-ol
> <PUBCHEM_IUPAC_CAS_NAME>
2,4a,8,8-tetramethyl-1a,3,4,5,6,7-hexahydro-1H-cyclopropa[j]naphthalen-2-ol
> <PUBCHEM_IUPAC_NAME_MARKUP>
2,4<I>a</I>,8,8-tetramethyl-1<I>a</I>,3,4,5,6,7-hexahydro-1<I>H</I>-cyclopropa[j]naphthalen-2-ol
> <PUBCHEM_IUPAC_NAME>
2,4a,8,8-tetramethyl-1a,3,4,5,6,7-hexahydro-1H-cyclopropa[j]naphthalen-2-ol
> <PUBCHEM_IUPAC_SYSTEMATIC_NAME>
2,4a,8,8-tetramethyl-1a,3,4,5,6,7-hexahydro-1H-cyclopropa[j]naphthalen-2-ol
> <PUBCHEM_IUPAC_TRADITIONAL_NAME>
2,4a,8,8-tetramethyl-1a,3,4,5,6,7-hexahydro-1H-cyclopropa[j]naphthalen-2-ol
> <PUBCHEM_IUPAC_INCHI>
InChI=1S/C15H26O/c1-12(2)6-5-7-13(3)8-9-14(4,16)11-10-15(11,12)13/h11,16H,5-10H2,1-4H3
> <PUBCHEM_IUPAC_INCHIKEY>
YTLMZAPWDFQBAI-UHFFFAOYSA-N
> <PUBCHEM_XLOGP3_AA>
4
> <PUBCHEM_EXACT_MASS>
222.198365449
> <PUBCHEM_MOLECULAR_FORMULA>
C15H26O
> <PUBCHEM_MOLECULAR_WEIGHT>
222.37
> <PUBCHEM_OPENEYE_CAN_SMILES>
CC1(CCCC2(C13CC3C(CC2)(C)O)C)C
> <PUBCHEM_OPENEYE_ISO_SMILES>
CC1(CCCC2(C13CC3C(CC2)(C)O)C)C
> <PUBCHEM_CACTVS_TPSA>
20.2
> <PUBCHEM_MONOISOTOPIC_WEIGHT>
222.198365449
> <PUBCHEM_TOTAL_CHARGE>
0
> <PUBCHEM_HEAVY_ATOM_COUNT>
16
> <PUBCHEM_ATOM_DEF_STEREO_COUNT>
0
> <PUBCHEM_ATOM_UDEF_STEREO_COUNT>
4
> <PUBCHEM_BOND_DEF_STEREO_COUNT>
0
> <PUBCHEM_BOND_UDEF_STEREO_COUNT>
0
> <PUBCHEM_ISOTOPIC_ATOM_COUNT>
0
> <PUBCHEM_COMPONENT_COUNT>
1
> <PUBCHEM_CACTVS_TAUTO_COUNT>
-1
> <PUBCHEM_COORDINATE_TYPE>
1
5
255
> <PUBCHEM_BONDANNOTATIONS>
7  1  3
2  4  3
3  4  3
5  13  3
$$$$
