527331
  -OEChem-10302200292D
 40 41  0     1  0  0  0  0  0999 V2000
    6.6227    3.7648    0.0000 O   0  0  0  0  0  0  0  0  0  0  0  0
    2.0000    0.6307    0.0000 O   0  0  0  0  0  0  0  0  0  0  0  0
    6.8038    2.0422    0.0000 O   0  0  0  0  0  0  0  0  0  0  0  0
    3.8366    1.6252    0.0000 N   0  0  0  0  0  0  0  0  0  0  0  0
    4.8147    1.8331    0.0000 C   0  0  0  0  0  0  0  0  0  0  0  0
    5.2215    2.7467    0.0000 C   0  0  3  0  0  0  0  0  0  0  0  0
    3.7320    0.6307    0.0000 C   0  0  0  0  0  0  0  0  0  0  0  0
    5.3147    0.9671    0.0000 C   0  0  0  0  0  0  0  0  0  0  0  0
    4.6456    0.2240    0.0000 C   0  0  0  0  0  0  0  0  0  0  0  0
    4.6337    3.5557    0.0000 C   0  0  0  0  0  0  0  0  0  0  0  0
    3.0934    2.2944    0.0000 C   0  0  0  0  0  0  0  0  0  0  0  0
    2.8660    0.1307    0.0000 C   0  0  0  0  0  0  0  0  0  0  0  0
    6.2160    2.8512    0.0000 C   0  0  0  0  0  0  0  0  0  0  0  0
    2.8660   -0.8693    0.0000 C   0  0  0  0  0  0  0  0  0  0  0  0
    3.7320   -1.3693    0.0000 C   0  0  0  0  0  0  0  0  0  0  0  0
    2.0000   -1.3693    0.0000 C   0  0  0  0  0  0  0  0  0  0  0  0
    2.8660   -2.8693    0.0000 C   0  0  0  0  0  0  0  0  0  0  0  0
    3.7320   -2.3693    0.0000 C   0  0  0  0  0  0  0  0  0  0  0  0
    2.0000   -2.3693    0.0000 C   0  0  0  0  0  0  0  0  0  0  0  0
    2.8660   -3.8693    0.0000 C   0  0  0  0  0  0  0  0  0  0  0  0
    7.6172    3.8693    0.0000 C   0  0  0  0  0  0  0  0  0  0  0  0
    5.4736    3.3131    0.0000 H   0  0  0  0  0  0  0  0  0  0  0  0
    5.9313    0.9023    0.0000 H   0  0  0  0  0  0  0  0  0  0  0  0
    4.7745   -0.3825    0.0000 H   0  0  0  0  0  0  0  0  0  0  0  0
    5.1353    3.9201    0.0000 H   0  0  0  0  0  0  0  0  0  0  0  0
    4.2693    4.0573    0.0000 H   0  0  0  0  0  0  0  0  0  0  0  0
    4.1321    3.1913    0.0000 H   0  0  0  0  0  0  0  0  0  0  0  0
    3.5083    2.7551    0.0000 H   0  0  0  0  0  0  0  0  0  0  0  0
    2.6327    2.7092    0.0000 H   0  0  0  0  0  0  0  0  0  0  0  0
    2.6786    1.8336    0.0000 H   0  0  0  0  0  0  0  0  0  0  0  0
    4.2690   -1.0593    0.0000 H   0  0  0  0  0  0  0  0  0  0  0  0
    1.4631   -1.0593    0.0000 H   0  0  0  0  0  0  0  0  0  0  0  0
    4.2690   -2.6793    0.0000 H   0  0  0  0  0  0  0  0  0  0  0  0
    1.4631   -2.6793    0.0000 H   0  0  0  0  0  0  0  0  0  0  0  0
    2.2460   -3.8693    0.0000 H   0  0  0  0  0  0  0  0  0  0  0  0
    2.8660   -4.4893    0.0000 H   0  0  0  0  0  0  0  0  0  0  0  0
    3.4860   -3.8693    0.0000 H   0  0  0  0  0  0  0  0  0  0  0  0
    7.6820    3.2527    0.0000 H   0  0  0  0  0  0  0  0  0  0  0  0
    8.2338    3.9341    0.0000 H   0  0  0  0  0  0  0  0  0  0  0  0
    7.5524    4.4859    0.0000 H   0  0  0  0  0  0  0  0  0  0  0  0
  1 13  1  0  0  0  0
  1 21  1  0  0  0  0
  2 12  2  0  0  0  0
  3 13  2  0  0  0  0
  4  5  1  0  0  0  0
  4  7  1  0  0  0  0
  4 11  1  0  0  0  0
  5  6  1  0  0  0  0
  5  8  2  0  0  0  0
  6 10  1  0  0  0  0
  6 13  1  0  0  0  0
  6 22  1  0  0  0  0
  7  9  2  0  0  0  0
  7 12  1  0  0  0  0
  8  9  1  0  0  0  0
  8 23  1  0  0  0  0
  9 24  1  0  0  0  0
 10 25  1  0  0  0  0
 10 26  1  0  0  0  0
 10 27  1  0  0  0  0
 11 28  1  0  0  0  0
 11 29  1  0  0  0  0
 11 30  1  0  0  0  0
 12 14  1  0  0  0  0
 14 15  2  0  0  0  0
 14 16  1  0  0  0  0
 15 18  1  0  0  0  0
 15 31  1  0  0  0  0
 16 19  2  0  0  0  0
 16 32  1  0  0  0  0
 17 18  2  0  0  0  0
 17 19  1  0  0  0  0
 17 20  1  0  0  0  0
 18 33  1  0  0  0  0
 19 34  1  0  0  0  0
 20 35  1  0  0  0  0
 20 36  1  0  0  0  0
 20 37  1  0  0  0  0
 21 38  1  0  0  0  0
 21 39  1  0  0  0  0
 21 40  1  0  0  0  0
M  END
> <PUBCHEM_COMPOUND_CID>
527331
> <PUBCHEM_COMPOUND_CANONICALIZED>
1
> <PUBCHEM_CACTVS_COMPLEXITY>
388
> <PUBCHEM_CACTVS_HBOND_ACCEPTOR>
3
> <PUBCHEM_CACTVS_HBOND_DONOR>
0
> <PUBCHEM_CACTVS_ROTATABLE_BOND>
5
> <PUBCHEM_CACTVS_SUBSKEYS>
AAADceB6MAAAAAAAAAAAAAAAAAAAAWAAAAAwAAAAAAAAAAABwAAAHgAAAAAADQyBngYyiJMMFACoA6TyTACCgCAnAiAI2CG4ZNgIIPrAlbGEIQhmwAHIyYeYyeCeQAAAAAAAAACAAAAAAAAAAAAAAAAAAA==
> <PUBCHEM_IUPAC_OPENEYE_NAME>
methyl 2-[1-methyl-5-(4-methylbenzoyl)pyrrol-2-yl]propanoate
> <PUBCHEM_IUPAC_CAS_NAME>
2-[1-methyl-5-[(4-methylphenyl)-oxomethyl]-2-pyrrolyl]propanoic acid methyl ester
> <PUBCHEM_IUPAC_NAME_MARKUP>
methyl 2-[1-methyl-5-(4-methylbenzoyl)pyrrol-2-yl]propanoate
> <PUBCHEM_IUPAC_NAME>
methyl 2-[1-methyl-5-(4-methylbenzoyl)pyrrol-2-yl]propanoate
> <PUBCHEM_IUPAC_SYSTEMATIC_NAME>
methyl 2-[1-methyl-5-(4-methylphenyl)carbonyl-pyrrol-2-yl]propanoate
> <PUBCHEM_IUPAC_TRADITIONAL_NAME>
2-(1-methyl-5-p-toluoyl-pyrrol-2-yl)propionic acid methyl ester
> <PUBCHEM_IUPAC_INCHI>
InChI=1S/C17H19NO3/c1-11-5-7-13(8-6-11)16(19)15-10-9-14(18(15)3)12(2)17(20)21-4/h5-10,12H,1-4H3
> <PUBCHEM_IUPAC_INCHIKEY>
CAAHZAGZSUNEEN-UHFFFAOYSA-N
> <PUBCHEM_XLOGP3>
3.7
> <PUBCHEM_EXACT_MASS>
285.13649347
> <PUBCHEM_MOLECULAR_FORMULA>
C17H19NO3
> <PUBCHEM_MOLECULAR_WEIGHT>
285.34
> <PUBCHEM_OPENEYE_CAN_SMILES>
CC1=CC=C(C=C1)C(=O)C2=CC=C(N2C)C(C)C(=O)OC
> <PUBCHEM_OPENEYE_ISO_SMILES>
CC1=CC=C(C=C1)C(=O)C2=CC=C(N2C)C(C)C(=O)OC
> <PUBCHEM_CACTVS_TPSA>
48.3
> <PUBCHEM_MONOISOTOPIC_WEIGHT>
285.13649347
> <PUBCHEM_TOTAL_CHARGE>
0
> <PUBCHEM_HEAVY_ATOM_COUNT>
21
> <PUBCHEM_ATOM_DEF_STEREO_COUNT>
0
> <PUBCHEM_ATOM_UDEF_STEREO_COUNT>
1
> <PUBCHEM_BOND_DEF_STEREO_COUNT>
0
> <PUBCHEM_BOND_UDEF_STEREO_COUNT>
0
> <PUBCHEM_ISOTOPIC_ATOM_COUNT>
0
> <PUBCHEM_COMPONENT_COUNT>
1
> <PUBCHEM_CACTVS_TAUTO_COUNT>
-1
> <PUBCHEM_COORDINATE_TYPE>
1
5
255
> <PUBCHEM_BONDANNOTATIONS>
14  15  8
14  16  8
15  18  8
16  19  8
17  18  8
17  19  8
4  5  8
4  7  8
5  8  8
6  10  3
7  9  8
8  9  8
$$$$
