527418
  -OEChem-10302200292D
 40 41  0     1  0  0  0  0  0999 V2000
    5.2665    2.5948    0.0000 O   0  0  0  0  0  0  0  0  0  0  0  0
    4.0835   -2.1294    0.0000 C   0  0  0  0  0  0  0  0  0  0  0  0
    4.4245   -1.1805    0.0000 C   0  0  3  0  0  0  0  0  0  0  0  0
    3.4848   -0.8385    0.0000 C   0  0  3  0  0  0  0  0  0  0  0  0
    3.1361   -1.7845    0.0000 C   0  0  0  0  0  0  0  0  0  0  0  0
    5.3642   -0.8385    0.0000 C   0  0  0  0  0  0  0  0  0  0  0  0
    3.7434   -3.0698    0.0000 C   0  0  0  0  0  0  0  0  0  0  0  0
    5.0239   -2.4695    0.0000 C   0  0  0  0  0  0  0  0  0  0  0  0
    2.9848    0.0275    0.0000 C   0  0  0  0  0  0  0  0  0  0  0  0
    5.8642    0.0275    0.0000 C   0  0  0  0  0  0  0  0  0  0  0  0
    3.1585    1.0124    0.0000 C   0  0  0  0  0  0  0  0  0  0  0  0
    3.9245    1.6551    0.0000 C   0  0  0  0  0  0  0  0  0  0  0  0
    5.6905    1.0124    0.0000 C   0  0  0  0  0  0  0  0  0  0  0  0
    4.9245    1.6551    0.0000 C   0  0  3  0  0  0  0  0  0  0  0  0
    2.0000   -0.1461    0.0000 C   0  0  0  0  0  0  0  0  0  0  0  0
    6.5566    1.5124    0.0000 C   0  0  0  0  0  0  0  0  0  0  0  0
    4.8638   -1.6180    0.0000 H   0  0  0  0  0  0  0  0  0  0  0  0
    2.8671   -0.8912    0.0000 H   0  0  0  0  0  0  0  0  0  0  0  0
    2.5540   -1.5709    0.0000 H   0  0  0  0  0  0  0  0  0  0  0  0
    2.9232   -2.3668    0.0000 H   0  0  0  0  0  0  0  0  0  0  0  0
    5.4002   -1.4574    0.0000 H   0  0  0  0  0  0  0  0  0  0  0  0
    5.9675   -0.9815    0.0000 H   0  0  0  0  0  0  0  0  0  0  0  0
    3.1604   -2.8589    0.0000 H   0  0  0  0  0  0  0  0  0  0  0  0
    3.5326   -3.6528    0.0000 H   0  0  0  0  0  0  0  0  0  0  0  0
    4.3265   -3.2806    0.0000 H   0  0  0  0  0  0  0  0  0  0  0  0
    4.8131   -3.0525    0.0000 H   0  0  0  0  0  0  0  0  0  0  0  0
    5.6070   -2.6803    0.0000 H   0  0  0  0  0  0  0  0  0  0  0  0
    5.2348   -1.8864    0.0000 H   0  0  0  0  0  0  0  0  0  0  0  0
    6.2897   -0.4234    0.0000 H   0  0  0  0  0  0  0  0  0  0  0  0
    6.4182    0.3058    0.0000 H   0  0  0  0  0  0  0  0  0  0  0  0
    2.9129    1.5816    0.0000 H   0  0  0  0  0  0  0  0  0  0  0  0
    2.5426    0.9404    0.0000 H   0  0  0  0  0  0  0  0  0  0  0  0
    4.1023    2.2491    0.0000 H   0  0  0  0  0  0  0  0  0  0  0  0
    3.4065    1.9958    0.0000 H   0  0  0  0  0  0  0  0  0  0  0  0
    5.5234    1.8156    0.0000 H   0  0  0  0  0  0  0  0  0  0  0  0
    1.6015    0.3288    0.0000 H   0  0  0  0  0  0  0  0  0  0  0  0
    1.7880   -0.7287    0.0000 H   0  0  0  0  0  0  0  0  0  0  0  0
    7.0935    1.2024    0.0000 H   0  0  0  0  0  0  0  0  0  0  0  0
    6.5566    2.1324    0.0000 H   0  0  0  0  0  0  0  0  0  0  0  0
    4.8680    3.0698    0.0000 H   0  0  0  0  0  0  0  0  0  0  0  0
  1 14  1  0  0  0  0
  1 40  1  0  0  0  0
  2  3  1  0  0  0  0
  2  5  1  0  0  0  0
  2  7  1  0  0  0  0
  2  8  1  0  0  0  0
  3  4  1  0  0  0  0
  3  6  1  0  0  0  0
  3 17  1  0  0  0  0
  4  5  1  0  0  0  0
  4  9  1  0  0  0  0
  4 18  1  0  0  0  0
  5 19  1  0  0  0  0
  5 20  1  0  0  0  0
  6 10  1  0  0  0  0
  6 21  1  0  0  0  0
  6 22  1  0  0  0  0
  7 23  1  0  0  0  0
  7 24  1  0  0  0  0
  7 25  1  0  0  0  0
  8 26  1  0  0  0  0
  8 27  1  0  0  0  0
  8 28  1  0  0  0  0
  9 11  1  0  0  0  0
  9 15  2  0  0  0  0
 10 13  1  0  0  0  0
 10 29  1  0  0  0  0
 10 30  1  0  0  0  0
 11 12  1  0  0  0  0
 11 31  1  0  0  0  0
 11 32  1  0  0  0  0
 12 14  1  0  0  0  0
 12 33  1  0  0  0  0
 12 34  1  0  0  0  0
 13 14  1  0  0  0  0
 13 16  2  0  0  0  0
 14 35  1  0  0  0  0
 15 36  1  0  0  0  0
 15 37  1  0  0  0  0
 16 38  1  0  0  0  0
 16 39  1  0  0  0  0
M  END
> <PUBCHEM_COMPOUND_CID>
527418
> <PUBCHEM_COMPOUND_CANONICALIZED>
1
> <PUBCHEM_CACTVS_COMPLEXITY>
313
> <PUBCHEM_CACTVS_HBOND_ACCEPTOR>
1
> <PUBCHEM_CACTVS_HBOND_DONOR>
1
> <PUBCHEM_CACTVS_ROTATABLE_BOND>
0
> <PUBCHEM_CACTVS_SUBSKEYS>
AAADceBwIAAAAAAAAAAAAAAAAABgAAAAAAAAAAAAAAAAAGAAAAAAGgAACAAADxSggAICAAAAAgCAAgBCAAAAAAAgAAAAAAAAAAgAFAIAAQAAQAAEgAAAEAGAwPAPgAAAAAAAAAAAAAAAAAAAAAAAAAAAAA==
> <PUBCHEM_IUPAC_OPENEYE_NAME>
10,10-dimethyl-2,6-dimethylene-bicyclo[7.2.0]undecan-5-ol
> <PUBCHEM_IUPAC_CAS_NAME>
10,10-dimethyl-2,6-dimethylene-5-bicyclo[7.2.0]undecanol
> <PUBCHEM_IUPAC_NAME_MARKUP>
10,10-dimethyl-2,6-dimethylidenebicyclo[7.2.0]undecan-5-ol
> <PUBCHEM_IUPAC_NAME>
10,10-dimethyl-2,6-dimethylidenebicyclo[7.2.0]undecan-5-ol
> <PUBCHEM_IUPAC_SYSTEMATIC_NAME>
10,10-dimethyl-2,6-dimethylidene-bicyclo[7.2.0]undecan-5-ol
> <PUBCHEM_IUPAC_TRADITIONAL_NAME>
10,10-dimethyl-2,6-dimethylene-bicyclo[7.2.0]undecan-5-ol
> <PUBCHEM_IUPAC_INCHI>
InChI=1S/C15H24O/c1-10-6-8-14(16)11(2)5-7-13-12(10)9-15(13,3)4/h12-14,16H,1-2,5-9H2,3-4H3
> <PUBCHEM_IUPAC_INCHIKEY>
CIIYOYPOMGIECX-UHFFFAOYSA-N
> <PUBCHEM_XLOGP3_AA>
3.3
> <PUBCHEM_EXACT_MASS>
220.182715385
> <PUBCHEM_MOLECULAR_FORMULA>
C15H24O
> <PUBCHEM_MOLECULAR_WEIGHT>
220.35
> <PUBCHEM_OPENEYE_CAN_SMILES>
CC1(CC2C1CCC(=C)C(CCC2=C)O)C
> <PUBCHEM_OPENEYE_ISO_SMILES>
CC1(CC2C1CCC(=C)C(CCC2=C)O)C
> <PUBCHEM_CACTVS_TPSA>
20.2
> <PUBCHEM_MONOISOTOPIC_WEIGHT>
220.182715385
> <PUBCHEM_TOTAL_CHARGE>
0
> <PUBCHEM_HEAVY_ATOM_COUNT>
16
> <PUBCHEM_ATOM_DEF_STEREO_COUNT>
0
> <PUBCHEM_ATOM_UDEF_STEREO_COUNT>
3
> <PUBCHEM_BOND_DEF_STEREO_COUNT>
0
> <PUBCHEM_BOND_UDEF_STEREO_COUNT>
0
> <PUBCHEM_ISOTOPIC_ATOM_COUNT>
0
> <PUBCHEM_COMPONENT_COUNT>
1
> <PUBCHEM_CACTVS_TAUTO_COUNT>
-1
> <PUBCHEM_COORDINATE_TYPE>
1
5
255
> <PUBCHEM_BONDANNOTATIONS>
14  1  3
3  6  3
4  5  3
$$$$
