527426
  -OEChem-10302200292D
 22 23  0     1  0  0  0  0  0999 V2000
    2.2788   -1.8800    0.0000 O   0  0  0  0  0  0  0  0  0  0  0  0
    3.5388    0.3800    0.0000 C   0  0  3  0  0  0  0  0  0  0  0  0
    3.5388   -0.6200    0.0000 C   0  0  3  0  0  0  0  0  0  0  0  0
    4.4054   -0.1200    0.0000 C   0  0  0  0  0  0  0  0  0  0  0  0
    3.5388    1.3800    0.0000 C   0  0  0  0  0  0  0  0  0  0  0  0
    2.5878    0.6891    0.0000 C   0  0  0  0  0  0  0  0  0  0  0  0
    2.5878   -0.9290    0.0000 C   0  0  0  0  0  0  0  0  0  0  0  0
    2.0000   -0.1200    0.0000 C   0  0  0  0  0  0  0  0  0  0  0  0
    4.4049    1.8800    0.0000 C   0  0  0  0  0  0  0  0  0  0  0  0
    2.6728    1.8800    0.0000 C   0  0  0  0  0  0  0  0  0  0  0  0
    3.7910   -1.1864    0.0000 H   0  0  0  0  0  0  0  0  0  0  0  0
    4.8039   -0.5949    0.0000 H   0  0  0  0  0  0  0  0  0  0  0  0
    4.8039    0.3550    0.0000 H   0  0  0  0  0  0  0  0  0  0  0  0
    3.5388    2.0000    0.0000 H   0  0  0  0  0  0  0  0  0  0  0  0
    2.3962    1.2787    0.0000 H   0  0  0  0  0  0  0  0  0  0  0  0
    1.3800   -0.1200    0.0000 H   0  0  0  0  0  0  0  0  0  0  0  0
    4.7149    1.3431    0.0000 H   0  0  0  0  0  0  0  0  0  0  0  0
    4.9418    2.1900    0.0000 H   0  0  0  0  0  0  0  0  0  0  0  0
    4.0949    2.4170    0.0000 H   0  0  0  0  0  0  0  0  0  0  0  0
    2.9828    2.4170    0.0000 H   0  0  0  0  0  0  0  0  0  0  0  0
    2.1359    2.1900    0.0000 H   0  0  0  0  0  0  0  0  0  0  0  0
    2.3628    1.3431    0.0000 H   0  0  0  0  0  0  0  0  0  0  0  0
  1  7  2  0  0  0  0
  2  3  1  0  0  0  0
  2  4  1  0  0  0  0
  2  5  1  0  0  0  0
  2  6  1  0  0  0  0
  3  4  1  0  0  0  0
  3  7  1  0  0  0  0
  3 11  1  0  0  0  0
  4 12  1  0  0  0  0
  4 13  1  0  0  0  0
  5  9  1  0  0  0  0
  5 10  1  0  0  0  0
  5 14  1  0  0  0  0
  6  8  2  0  0  0  0
  6 15  1  0  0  0  0
  7  8  1  0  0  0  0
  8 16  1  0  0  0  0
  9 17  1  0  0  0  0
  9 18  1  0  0  0  0
  9 19  1  0  0  0  0
 10 20  1  0  0  0  0
 10 21  1  0  0  0  0
 10 22  1  0  0  0  0
M  END
> <PUBCHEM_COMPOUND_CID>
527426
> <PUBCHEM_COMPOUND_CANONICALIZED>
1
> <PUBCHEM_CACTVS_COMPLEXITY>
215
> <PUBCHEM_CACTVS_HBOND_ACCEPTOR>
1
> <PUBCHEM_CACTVS_HBOND_DONOR>
0
> <PUBCHEM_CACTVS_ROTATABLE_BOND>
1
> <PUBCHEM_CACTVS_SUBSKEYS>
AAADccBwIAAAAAAAAAAAAAAAGAAAAQAAAAAgAAAAAAAAAAAAAAAAGgAAAAAADwSAgAACAAAAAACIAKBSAAAAAAAgAAAICAEAAEgAABIAAAAAAAAAgAAIAYMIiEAPgAAAAAAAAAAAAAAAAAAAAAAAAAAAAA==
> <PUBCHEM_IUPAC_OPENEYE_NAME>
5-isopropylbicyclo[3.1.0]hex-3-en-2-one
> <PUBCHEM_IUPAC_CAS_NAME>
5-propan-2-yl-2-bicyclo[3.1.0]hex-3-enone
> <PUBCHEM_IUPAC_NAME_MARKUP>
5-propan-2-ylbicyclo[3.1.0]hex-3-en-2-one
> <PUBCHEM_IUPAC_NAME>
5-propan-2-ylbicyclo[3.1.0]hex-3-en-2-one
> <PUBCHEM_IUPAC_SYSTEMATIC_NAME>
5-propan-2-ylbicyclo[3.1.0]hex-3-en-2-one
> <PUBCHEM_IUPAC_TRADITIONAL_NAME>
5-isopropylbicyclo[3.1.0]hex-3-en-2-one
> <PUBCHEM_IUPAC_INCHI>
InChI=1S/C9H12O/c1-6(2)9-4-3-8(10)7(9)5-9/h3-4,6-7H,5H2,1-2H3
> <PUBCHEM_IUPAC_INCHIKEY>
IBMZINAPWMATGM-UHFFFAOYSA-N
> <PUBCHEM_XLOGP3_AA>
1.8
> <PUBCHEM_EXACT_MASS>
136.088815002
> <PUBCHEM_MOLECULAR_FORMULA>
C9H12O
> <PUBCHEM_MOLECULAR_WEIGHT>
136.19
> <PUBCHEM_OPENEYE_CAN_SMILES>
CC(C)C12CC1C(=O)C=C2
> <PUBCHEM_OPENEYE_ISO_SMILES>
CC(C)C12CC1C(=O)C=C2
> <PUBCHEM_CACTVS_TPSA>
17.1
> <PUBCHEM_MONOISOTOPIC_WEIGHT>
136.088815002
> <PUBCHEM_TOTAL_CHARGE>
0
> <PUBCHEM_HEAVY_ATOM_COUNT>
10
> <PUBCHEM_ATOM_DEF_STEREO_COUNT>
0
> <PUBCHEM_ATOM_UDEF_STEREO_COUNT>
2
> <PUBCHEM_BOND_DEF_STEREO_COUNT>
0
> <PUBCHEM_BOND_UDEF_STEREO_COUNT>
0
> <PUBCHEM_ISOTOPIC_ATOM_COUNT>
0
> <PUBCHEM_COMPONENT_COUNT>
1
> <PUBCHEM_CACTVS_TAUTO_COUNT>
2
> <PUBCHEM_COORDINATE_TYPE>
1
5
255
> <PUBCHEM_BONDANNOTATIONS>
2  3  3
3  4  3
$$$$
