527544
  -OEChem-10302200292D
141142  0     1  0  0  0  0  0999 V2000
   10.1961    2.0490    0.0000 Si  0  0  0  0  0  0  0  0  0  0  0  0
    5.2320    1.1830    0.0000 Si  0  0  0  0  0  0  0  0  0  0  0  0
    7.8301   -3.3170    0.0000 Si  0  0  0  0  0  0  0  0  0  0  0  0
    5.2320   -3.8170    0.0000 Si  0  0  0  0  0  0  0  0  0  0  0  0
    3.3660   -2.3170    0.0000 Si  0  0  0  0  0  0  0  0  0  0  0  0
    6.0981    3.6830    0.0000 Si  0  0  0  0  0  0  0  0  0  0  0  0
   10.6961   -0.5490    0.0000 Si  0  0  0  0  0  0  0  0  0  0  0  0
    2.8661    0.5491    0.0000 Si  0  0  0  0  0  0  0  0  0  0  0  0
    7.8301   -0.3170    0.0000 O   0  0  0  0  0  0  0  0  0  0  0  0
    6.0981   -0.3170    0.0000 O   0  0  0  0  0  0  0  0  0  0  0  0
    8.6961    2.1830    0.0000 O   0  0  0  0  0  0  0  0  0  0  0  0
    9.6961    1.1830    0.0000 O   0  0  0  0  0  0  0  0  0  0  0  0
    6.0981    0.6830    0.0000 O   0  0  0  0  0  0  0  0  0  0  0  0
    7.8301   -2.3170    0.0000 O   0  0  0  0  0  0  0  0  0  0  0  0
    6.0981   -3.3170    0.0000 O   0  0  0  0  0  0  0  0  0  0  0  0
    4.3660   -2.3170    0.0000 O   0  0  0  0  0  0  0  0  0  0  0  0
    6.0981    2.6830    0.0000 O   0  0  0  0  0  0  0  0  0  0  0  0
   10.1961    0.3170    0.0000 O   0  0  0  0  0  0  0  0  0  0  0  0
    3.3660   -0.3170    0.0000 O   0  0  0  0  0  0  0  0  0  0  0  0
    7.8301    0.6830    0.0000 C   0  0  3  0  0  0  0  0  0  0  0  0
    8.6961    1.1830    0.0000 C   0  0  3  0  0  0  0  0  0  0  0  0
    6.9641    1.1830    0.0000 C   0  0  3  0  0  0  0  0  0  0  0  0
    6.9641   -1.8170    0.0000 C   0  0  3  0  0  0  0  0  0  0  0  0
    6.0981   -2.3170    0.0000 C   0  0  3  0  0  0  0  0  0  0  0  0
    6.9641   -0.8170    0.0000 C   0  0  3  0  0  0  0  0  0  0  0  0
    5.2320   -1.8170    0.0000 C   0  0  3  0  0  0  0  0  0  0  0  0
    6.9641    2.1830    0.0000 C   0  0  3  0  0  0  0  0  0  0  0  0
    5.2320   -0.8170    0.0000 C   0  0  3  0  0  0  0  0  0  0  0  0
    7.8301    2.6830    0.0000 C   0  0  0  0  0  0  0  0  0  0  0  0
    9.1961    0.3170    0.0000 C   0  0  0  0  0  0  0  0  0  0  0  0
    4.3660   -0.3170    0.0000 C   0  0  0  0  0  0  0  0  0  0  0  0
   10.6961    2.9151    0.0000 C   0  0  0  0  0  0  0  0  0  0  0  0
   11.0622    1.5490    0.0000 C   0  0  0  0  0  0  0  0  0  0  0  0
    9.3301    2.5490    0.0000 C   0  0  0  0  0  0  0  0  0  0  0  0
    5.7320    2.0490    0.0000 C   0  0  0  0  0  0  0  0  0  0  0  0
    4.3660    1.6830    0.0000 C   0  0  0  0  0  0  0  0  0  0  0  0
    4.7320    0.3170    0.0000 C   0  0  0  0  0  0  0  0  0  0  0  0
    7.8301   -4.3170    0.0000 C   0  0  0  0  0  0  0  0  0  0  0  0
    8.8301   -3.3170    0.0000 C   0  0  0  0  0  0  0  0  0  0  0  0
    6.8301   -3.3170    0.0000 C   0  0  0  0  0  0  0  0  0  0  0  0
    4.3660   -4.3170    0.0000 C   0  0  0  0  0  0  0  0  0  0  0  0
    5.7320   -4.6830    0.0000 C   0  0  0  0  0  0  0  0  0  0  0  0
    4.7320   -2.9510    0.0000 C   0  0  0  0  0  0  0  0  0  0  0  0
    2.3660   -2.3170    0.0000 C   0  0  0  0  0  0  0  0  0  0  0  0
    3.3660   -3.3169    0.0000 C   0  0  0  0  0  0  0  0  0  0  0  0
    3.3660   -1.3170    0.0000 C   0  0  0  0  0  0  0  0  0  0  0  0
    6.0981    4.6830    0.0000 C   0  0  0  0  0  0  0  0  0  0  0  0
    5.0981    3.6830    0.0000 C   0  0  0  0  0  0  0  0  0  0  0  0
    7.0981    3.6830    0.0000 C   0  0  0  0  0  0  0  0  0  0  0  0
   11.1961   -1.4151    0.0000 C   0  0  0  0  0  0  0  0  0  0  0  0
   11.5622   -0.0490    0.0000 C   0  0  0  0  0  0  0  0  0  0  0  0
    9.8301   -1.0490    0.0000 C   0  0  0  0  0  0  0  0  0  0  0  0
    2.3660    1.4151    0.0000 C   0  0  0  0  0  0  0  0  0  0  0  0
    2.0000    0.0491    0.0000 C   0  0  0  0  0  0  0  0  0  0  0  0
    3.7320    1.0490    0.0000 C   0  0  0  0  0  0  0  0  0  0  0  0
    7.2932    0.3730    0.0000 H   0  0  0  0  0  0  0  0  0  0  0  0
    6.4272    1.4930    0.0000 H   0  0  0  0  0  0  0  0  0  0  0  0
    6.9641   -2.4370    0.0000 H   0  0  0  0  0  0  0  0  0  0  0  0
    5.5611   -2.6270    0.0000 H   0  0  0  0  0  0  0  0  0  0  0  0
    7.5010   -1.1270    0.0000 H   0  0  0  0  0  0  0  0  0  0  0  0
    4.6951   -1.5070    0.0000 H   0  0  0  0  0  0  0  0  0  0  0  0
    6.9641    2.8030    0.0000 H   0  0  0  0  0  0  0  0  0  0  0  0
    5.2320   -0.1970    0.0000 H   0  0  0  0  0  0  0  0  0  0  0  0
    8.2286    3.1580    0.0000 H   0  0  0  0  0  0  0  0  0  0  0  0
    7.4316    3.1580    0.0000 H   0  0  0  0  0  0  0  0  0  0  0  0
    8.6135    0.1049    0.0000 H   0  0  0  0  0  0  0  0  0  0  0  0
    9.3038   -0.2936    0.0000 H   0  0  0  0  0  0  0  0  0  0  0  0
    4.8410    0.0815    0.0000 H   0  0  0  0  0  0  0  0  0  0  0  0
    4.2055   -0.9159    0.0000 H   0  0  0  0  0  0  0  0  0  0  0  0
   11.2331    2.6051    0.0000 H   0  0  0  0  0  0  0  0  0  0  0  0
   11.0061    3.4520    0.0000 H   0  0  0  0  0  0  0  0  0  0  0  0
   10.1592    3.2251    0.0000 H   0  0  0  0  0  0  0  0  0  0  0  0
   10.7522    1.0121    0.0000 H   0  0  0  0  0  0  0  0  0  0  0  0
   11.5991    1.2390    0.0000 H   0  0  0  0  0  0  0  0  0  0  0  0
   11.3722    2.0860    0.0000 H   0  0  0  0  0  0  0  0  0  0  0  0
    9.6401    3.0860    0.0000 H   0  0  0  0  0  0  0  0  0  0  0  0
    8.7932    2.8590    0.0000 H   0  0  0  0  0  0  0  0  0  0  0  0
    9.0201    2.0121    0.0000 H   0  0  0  0  0  0  0  0  0  0  0  0
    6.2690    1.7390    0.0000 H   0  0  0  0  0  0  0  0  0  0  0  0
    6.0420    2.5860    0.0000 H   0  0  0  0  0  0  0  0  0  0  0  0
    5.1951    2.3590    0.0000 H   0  0  0  0  0  0  0  0  0  0  0  0
    4.6760    2.2200    0.0000 H   0  0  0  0  0  0  0  0  0  0  0  0
    3.8291    1.9930    0.0000 H   0  0  0  0  0  0  0  0  0  0  0  0
    4.0560    1.1461    0.0000 H   0  0  0  0  0  0  0  0  0  0  0  0
    4.1951    0.6270    0.0000 H   0  0  0  0  0  0  0  0  0  0  0  0
    4.4220   -0.2199    0.0000 H   0  0  0  0  0  0  0  0  0  0  0  0
    5.2690    0.0070    0.0000 H   0  0  0  0  0  0  0  0  0  0  0  0
    7.2101   -4.3170    0.0000 H   0  0  0  0  0  0  0  0  0  0  0  0
    7.8301   -4.9370    0.0000 H   0  0  0  0  0  0  0  0  0  0  0  0
    8.4501   -4.3170    0.0000 H   0  0  0  0  0  0  0  0  0  0  0  0
    8.8301   -3.9370    0.0000 H   0  0  0  0  0  0  0  0  0  0  0  0
    9.4501   -3.3170    0.0000 H   0  0  0  0  0  0  0  0  0  0  0  0
    8.8301   -2.6970    0.0000 H   0  0  0  0  0  0  0  0  0  0  0  0
    6.8301   -2.6970    0.0000 H   0  0  0  0  0  0  0  0  0  0  0  0
    6.2101   -3.3170    0.0000 H   0  0  0  0  0  0  0  0  0  0  0  0
    6.8301   -3.9370    0.0000 H   0  0  0  0  0  0  0  0  0  0  0  0
    4.0560   -3.7800    0.0000 H   0  0  0  0  0  0  0  0  0  0  0  0
    3.8291   -4.6270    0.0000 H   0  0  0  0  0  0  0  0  0  0  0  0
    4.6760   -4.8539    0.0000 H   0  0  0  0  0  0  0  0  0  0  0  0
    5.1951   -4.9930    0.0000 H   0  0  0  0  0  0  0  0  0  0  0  0
    6.0420   -5.2200    0.0000 H   0  0  0  0  0  0  0  0  0  0  0  0
    6.2690   -4.3730    0.0000 H   0  0  0  0  0  0  0  0  0  0  0  0
    5.2690   -2.6410    0.0000 H   0  0  0  0  0  0  0  0  0  0  0  0
    4.4220   -2.4140    0.0000 H   0  0  0  0  0  0  0  0  0  0  0  0
    4.1951   -3.2610    0.0000 H   0  0  0  0  0  0  0  0  0  0  0  0
    2.3660   -1.6970    0.0000 H   0  0  0  0  0  0  0  0  0  0  0  0
    1.7460   -2.3170    0.0000 H   0  0  0  0  0  0  0  0  0  0  0  0
    2.3660   -2.9370    0.0000 H   0  0  0  0  0  0  0  0  0  0  0  0
    2.7460   -3.3169    0.0000 H   0  0  0  0  0  0  0  0  0  0  0  0
    3.3659   -3.9369    0.0000 H   0  0  0  0  0  0  0  0  0  0  0  0
    3.9860   -3.3170    0.0000 H   0  0  0  0  0  0  0  0  0  0  0  0
    3.9860   -1.3170    0.0000 H   0  0  0  0  0  0  0  0  0  0  0  0
    3.3660   -0.6970    0.0000 H   0  0  0  0  0  0  0  0  0  0  0  0
    2.7460   -1.3170    0.0000 H   0  0  0  0  0  0  0  0  0  0  0  0
    6.7181    4.6830    0.0000 H   0  0  0  0  0  0  0  0  0  0  0  0
    6.0981    5.3030    0.0000 H   0  0  0  0  0  0  0  0  0  0  0  0
    5.4781    4.6830    0.0000 H   0  0  0  0  0  0  0  0  0  0  0  0
    5.0981    4.3030    0.0000 H   0  0  0  0  0  0  0  0  0  0  0  0
    4.4781    3.6830    0.0000 H   0  0  0  0  0  0  0  0  0  0  0  0
    5.0981    3.0630    0.0000 H   0  0  0  0  0  0  0  0  0  0  0  0
    7.0981    3.0630    0.0000 H   0  0  0  0  0  0  0  0  0  0  0  0
    7.7181    3.6830    0.0000 H   0  0  0  0  0  0  0  0  0  0  0  0
    7.0981    4.3030    0.0000 H   0  0  0  0  0  0  0  0  0  0  0  0
   10.6592   -1.7251    0.0000 H   0  0  0  0  0  0  0  0  0  0  0  0
   11.5061   -1.9520    0.0000 H   0  0  0  0  0  0  0  0  0  0  0  0
   11.7331   -1.1051    0.0000 H   0  0  0  0  0  0  0  0  0  0  0  0
   11.8722   -0.5860    0.0000 H   0  0  0  0  0  0  0  0  0  0  0  0
   12.0991    0.2610    0.0000 H   0  0  0  0  0  0  0  0  0  0  0  0
   11.2522    0.4879    0.0000 H   0  0  0  0  0  0  0  0  0  0  0  0
    9.5201   -0.5121    0.0000 H   0  0  0  0  0  0  0  0  0  0  0  0
    9.2932   -1.3590    0.0000 H   0  0  0  0  0  0  0  0  0  0  0  0
   10.1401   -1.5860    0.0000 H   0  0  0  0  0  0  0  0  0  0  0  0
    2.9029    1.7251    0.0000 H   0  0  0  0  0  0  0  0  0  0  0  0
    2.0560    1.9520    0.0000 H   0  0  0  0  0  0  0  0  0  0  0  0
    1.8291    1.1050    0.0000 H   0  0  0  0  0  0  0  0  0  0  0  0
    1.6900    0.5860    0.0000 H   0  0  0  0  0  0  0  0  0  0  0  0
    1.4631   -0.2609    0.0000 H   0  0  0  0  0  0  0  0  0  0  0  0
    2.3100   -0.4878    0.0000 H   0  0  0  0  0  0  0  0  0  0  0  0
    4.0420    0.5121    0.0000 H   0  0  0  0  0  0  0  0  0  0  0  0
    4.2690    1.3590    0.0000 H   0  0  0  0  0  0  0  0  0  0  0  0
    3.4221    1.5860    0.0000 H   0  0  0  0  0  0  0  0  0  0  0  0
  1 12  1  0  0  0  0
  1 32  1  0  0  0  0
  1 33  1  0  0  0  0
  1 34  1  0  0  0  0
  2 13  1  0  0  0  0
  2 35  1  0  0  0  0
  2 36  1  0  0  0  0
  2 37  1  0  0  0  0
  3 14  1  0  0  0  0
  3 38  1  0  0  0  0
  3 39  1  0  0  0  0
  3 40  1  0  0  0  0
  4 15  1  0  0  0  0
  4 41  1  0  0  0  0
  4 42  1  0  0  0  0
  4 43  1  0  0  0  0
  5 16  1  0  0  0  0
  5 44  1  0  0  0  0
  5 45  1  0  0  0  0
  5 46  1  0  0  0  0
  6 17  1  0  0  0  0
  6 47  1  0  0  0  0
  6 48  1  0  0  0  0
  6 49  1  0  0  0  0
  7 18  1  0  0  0  0
  7 50  1  0  0  0  0
  7 51  1  0  0  0  0
  7 52  1  0  0  0  0
  8 19  1  0  0  0  0
  8 53  1  0  0  0  0
  8 54  1  0  0  0  0
  8 55  1  0  0  0  0
  9 20  1  0  0  0  0
  9 25  1  0  0  0  0
 10 25  1  0  0  0  0
 10 28  1  0  0  0  0
 11 21  1  0  0  0  0
 11 29  1  0  0  0  0
 12 21  1  0  0  0  0
 13 22  1  0  0  0  0
 14 23  1  0  0  0  0
 15 24  1  0  0  0  0
 16 26  1  0  0  0  0
 17 27  1  0  0  0  0
 18 30  1  0  0  0  0
 19 31  1  0  0  0  0
 20 21  1  0  0  0  0
 20 22  1  0  0  0  0
 20 56  1  0  0  0  0
 21 30  1  0  0  0  0
 22 27  1  0  0  0  0
 22 57  1  0  0  0  0
 23 24  1  0  0  0  0
 23 25  1  0  0  0  0
 23 58  1  0  0  0  0
 24 26  1  0  0  0  0
 24 59  1  0  0  0  0
 25 60  1  0  0  0  0
 26 28  1  0  0  0  0
 26 61  1  0  0  0  0
 27 29  1  0  0  0  0
 27 62  1  0  0  0  0
 28 31  1  0  0  0  0
 28 63  1  0  0  0  0
 29 64  1  0  0  0  0
 29 65  1  0  0  0  0
 30 66  1  0  0  0  0
 30 67  1  0  0  0  0
 31 68  1  0  0  0  0
 31 69  1  0  0  0  0
 32 70  1  0  0  0  0
 32 71  1  0  0  0  0
 32 72  1  0  0  0  0
 33 73  1  0  0  0  0
 33 74  1  0  0  0  0
 33 75  1  0  0  0  0
 34 76  1  0  0  0  0
 34 77  1  0  0  0  0
 34 78  1  0  0  0  0
 35 79  1  0  0  0  0
 35 80  1  0  0  0  0
 35 81  1  0  0  0  0
 36 82  1  0  0  0  0
 36 83  1  0  0  0  0
 36 84  1  0  0  0  0
 37 85  1  0  0  0  0
 37 86  1  0  0  0  0
 37 87  1  0  0  0  0
 38 88  1  0  0  0  0
 38 89  1  0  0  0  0
 38 90  1  0  0  0  0
 39 91  1  0  0  0  0
 39 92  1  0  0  0  0
 39 93  1  0  0  0  0
 40 94  1  0  0  0  0
 40 95  1  0  0  0  0
 40 96  1  0  0  0  0
 41 97  1  0  0  0  0
 41 98  1  0  0  0  0
 41 99  1  0  0  0  0
 42100  1  0  0  0  0
 42101  1  0  0  0  0
 42102  1  0  0  0  0
 43103  1  0  0  0  0
 43104  1  0  0  0  0
 43105  1  0  0  0  0
 44106  1  0  0  0  0
 44107  1  0  0  0  0
 44108  1  0  0  0  0
 45109  1  0  0  0  0
 45110  1  0  0  0  0
 45111  1  0  0  0  0
 46112  1  0  0  0  0
 46113  1  0  0  0  0
 46114  1  0  0  0  0
 47115  1  0  0  0  0
 47116  1  0  0  0  0
 47117  1  0  0  0  0
 48118  1  0  0  0  0
 48119  1  0  0  0  0
 48120  1  0  0  0  0
 49121  1  0  0  0  0
 49122  1  0  0  0  0
 49123  1  0  0  0  0
 50124  1  0  0  0  0
 50125  1  0  0  0  0
 50126  1  0  0  0  0
 51127  1  0  0  0  0
 51128  1  0  0  0  0
 51129  1  0  0  0  0
 52130  1  0  0  0  0
 52131  1  0  0  0  0
 52132  1  0  0  0  0
 53133  1  0  0  0  0
 53134  1  0  0  0  0
 53135  1  0  0  0  0
 54136  1  0  0  0  0
 54137  1  0  0  0  0
 54138  1  0  0  0  0
 55139  1  0  0  0  0
 55140  1  0  0  0  0
 55141  1  0  0  0  0
M  END
> <PUBCHEM_COMPOUND_CID>
527544
> <PUBCHEM_COMPOUND_CANONICALIZED>
1
> <PUBCHEM_CACTVS_COMPLEXITY>
1190
> <PUBCHEM_CACTVS_HBOND_ACCEPTOR>
11
> <PUBCHEM_CACTVS_HBOND_DONOR>
0
> <PUBCHEM_CACTVS_ROTATABLE_BOND>
20
> <PUBCHEM_CACTVS_SUBSKEYS>
AAADcfB8PAwAAAAAAAAAAAAAAAAAAAAAAAAkSAAAAAAAAAAAAAAAGhAAAEAACBSwgANCCAAABAEAAAAAAAAAAAAAAAAAAAAAAAARAAIAAAAiAAAFAAAGAAHAYAwAAAAAAAAAAAAAAAAAAAAAAAAAAAAAAA==
> <PUBCHEM_IUPAC_OPENEYE_NAME>
trimethyl-[[2,4,5-tris(trimethylsilyloxy)-3-[3,4,5-tris(trimethylsilyloxy)-6-(trimethylsilyloxymethyl)tetrahydropyran-2-yl]oxy-tetrahydropyran-2-yl]methoxy]silane
> <PUBCHEM_IUPAC_CAS_NAME>
trimethyl-[[2,4,5-tris(trimethylsilyloxy)-3-[[3,4,5-tris(trimethylsilyloxy)-6-(trimethylsilyloxymethyl)-2-oxanyl]oxy]-2-oxanyl]methoxy]silane
> <PUBCHEM_IUPAC_NAME_MARKUP>
trimethyl-[[2,4,5-tris(trimethylsilyloxy)-3-[3,4,5-tris(trimethylsilyloxy)-6-(trimethylsilyloxymethyl)oxan-2-yl]oxyoxan-2-yl]methoxy]silane
> <PUBCHEM_IUPAC_NAME>
trimethyl-[[2,4,5-tris(trimethylsilyloxy)-3-[3,4,5-tris(trimethylsilyloxy)-6-(trimethylsilyloxymethyl)oxan-2-yl]oxyoxan-2-yl]methoxy]silane
> <PUBCHEM_IUPAC_SYSTEMATIC_NAME>
trimethyl-[[2,4,5-tris(trimethylsilyloxy)-3-[3,4,5-tris(trimethylsilyloxy)-6-(trimethylsilyloxymethyl)oxan-2-yl]oxy-oxan-2-yl]methoxy]silane
> <PUBCHEM_IUPAC_TRADITIONAL_NAME>
trimethyl-[[2,4,5-tris(trimethylsilyloxy)-3-[3,4,5-tris(trimethylsilyloxy)-6-(trimethylsilyloxymethyl)tetrahydropyran-2-yl]oxy-tetrahydropyran-2-yl]methoxy]silane
> <PUBCHEM_IUPAC_INCHI>
InChI=1S/C36H86O11Si8/c1-48(2,3)38-26-28-30(43-51(10,11)12)32(45-53(16,17)18)33(46-54(19,20)21)35(40-28)41-34-31(44-52(13,14)15)29(42-50(7,8)9)25-37-36(34,47-55(22,23)24)27-39-49(4,5)6/h28-35H,25-27H2,1-24H3
> <PUBCHEM_IUPAC_INCHIKEY>
ZQSHHKRTYVNWEC-UHFFFAOYSA-N
> <PUBCHEM_EXACT_MASS>
918.43242583
> <PUBCHEM_MOLECULAR_FORMULA>
C36H86O11Si8
> <PUBCHEM_MOLECULAR_WEIGHT>
919.7
> <PUBCHEM_OPENEYE_CAN_SMILES>
C[Si](C)(C)OCC1C(C(C(C(O1)OC2C(C(COC2(CO[Si](C)(C)C)O[Si](C)(C)C)O[Si](C)(C)C)O[Si](C)(C)C)O[Si](C)(C)C)O[Si](C)(C)C)O[Si](C)(C)C
> <PUBCHEM_OPENEYE_ISO_SMILES>
C[Si](C)(C)OCC1C(C(C(C(O1)OC2C(C(COC2(CO[Si](C)(C)C)O[Si](C)(C)C)O[Si](C)(C)C)O[Si](C)(C)C)O[Si](C)(C)C)O[Si](C)(C)C)O[Si](C)(C)C
> <PUBCHEM_CACTVS_TPSA>
102
> <PUBCHEM_MONOISOTOPIC_WEIGHT>
918.43242583
> <PUBCHEM_TOTAL_CHARGE>
0
> <PUBCHEM_HEAVY_ATOM_COUNT>
55
> <PUBCHEM_ATOM_DEF_STEREO_COUNT>
0
> <PUBCHEM_ATOM_UDEF_STEREO_COUNT>
9
> <PUBCHEM_BOND_DEF_STEREO_COUNT>
0
> <PUBCHEM_BOND_UDEF_STEREO_COUNT>
0
> <PUBCHEM_ISOTOPIC_ATOM_COUNT>
0
> <PUBCHEM_COMPONENT_COUNT>
1
> <PUBCHEM_CACTVS_TAUTO_COUNT>
-1
> <PUBCHEM_COORDINATE_TYPE>
1
5
255
> <PUBCHEM_BONDANNOTATIONS>
22  13  3
23  14  3
24  15  3
26  16  3
27  17  3
21  30  3
28  31  3
20  9  3
25  9  3
$$$$
