527631
  -OEChem-10302200292D
 71 76  0     1  0  0  0  0  0999 V2000
    3.7630   -1.4302    0.0000 N   0  0  3  0  0  0  0  0  0  0  0  0
    4.8304    0.8046    0.0000 C   0  0  3  0  0  0  0  0  0  0  0  0
    4.0934    0.1376    0.0000 C   0  0  3  0  0  0  0  0  0  0  0  0
    5.6964    0.3046    0.0000 C   0  0  3  0  0  0  0  0  0  0  0  0
    4.4985   -0.7702    0.0000 C   0  0  3  0  0  0  0  0  0  0  0  0
    6.5625    0.8046    0.0000 C   0  0  3  0  0  0  0  0  0  0  0  0
    5.4872   -0.6672    0.0000 C   0  0  0  0  0  0  0  0  0  0  0  0
    3.1110    0.0309    0.0000 C   0  0  3  0  0  0  0  0  0  0  0  0
    6.5625    1.8046    0.0000 C   0  0  3  0  0  0  0  0  0  0  0  0
    4.8304    1.8046    0.0000 C   0  0  0  0  0  0  0  0  0  0  0  0
    2.9072   -0.9361    0.0000 C   0  0  3  0  0  0  0  0  0  0  0  0
    5.6964    2.3046    0.0000 C   0  0  0  0  0  0  0  0  0  0  0  0
    7.4564    2.3393    0.0000 C   0  0  3  0  0  0  0  0  0  0  0  0
    3.9644    1.3046    0.0000 C   0  0  0  0  0  0  0  0  0  0  0  0
    7.4564    0.2700    0.0000 C   0  0  0  0  0  0  0  0  0  0  0  0
    2.0079   -1.4370    0.0000 C   0  0  0  0  0  0  0  0  0  0  0  0
    3.7789   -2.4594    0.0000 C   0  0  0  0  0  0  0  0  0  0  0  0
    2.4399    0.7723    0.0000 C   0  0  0  0  0  0  0  0  0  0  0  0
    8.3625    1.8254    0.0000 C   0  0  0  0  0  0  0  0  0  0  0  0
    2.8914   -2.9809    0.0000 C   0  0  3  0  0  0  0  0  0  0  0  0
    7.4313    3.4240    0.0000 C   0  0  0  0  0  0  0  0  0  0  0  0
    2.0000   -2.4663    0.0000 C   0  0  0  0  0  0  0  0  0  0  0  0
    8.3625    0.7838    0.0000 C   0  0  0  0  0  0  0  0  0  0  0  0
    6.5866    2.8326    0.0000 C   0  0  0  0  0  0  0  0  0  0  0  0
    9.3063    2.3607    0.0000 C   0  0  0  0  0  0  0  0  0  0  0  0
    8.3625    3.9809    0.0000 C   0  0  0  0  0  0  0  0  0  0  0  0
    9.3063    3.4457    0.0000 C   0  0  0  0  0  0  0  0  0  0  0  0
    2.8953   -3.9809    0.0000 C   0  0  0  0  0  0  0  0  0  0  0  0
    3.8395    0.7032    0.0000 H   0  0  0  0  0  0  0  0  0  0  0  0
    6.1976   -0.0604    0.0000 H   0  0  0  0  0  0  0  0  0  0  0  0
    4.7500   -1.3370    0.0000 H   0  0  0  0  0  0  0  0  0  0  0  0
    6.5577    0.1847    0.0000 H   0  0  0  0  0  0  0  0  0  0  0  0
    5.4863   -1.2872    0.0000 H   0  0  0  0  0  0  0  0  0  0  0  0
    6.1037   -0.7332    0.0000 H   0  0  0  0  0  0  0  0  0  0  0  0
    2.5124   -0.1309    0.0000 H   0  0  0  0  0  0  0  0  0  0  0  0
    7.1018    1.4988    0.0000 H   0  0  0  0  0  0  0  0  0  0  0  0
    4.6184    2.3872    0.0000 H   0  0  0  0  0  0  0  0  0  0  0  0
    4.2198    1.6970    0.0000 H   0  0  0  0  0  0  0  0  0  0  0  0
    2.4081   -0.5682    0.0000 H   0  0  0  0  0  0  0  0  0  0  0  0
    6.0950    2.7796    0.0000 H   0  0  0  0  0  0  0  0  0  0  0  0
    5.2979    2.7796    0.0000 H   0  0  0  0  0  0  0  0  0  0  0  0
    4.2744    1.8416    0.0000 H   0  0  0  0  0  0  0  0  0  0  0  0
    3.4274    1.6146    0.0000 H   0  0  0  0  0  0  0  0  0  0  0  0
    3.6544    0.7677    0.0000 H   0  0  0  0  0  0  0  0  0  0  0  0
    7.0518   -0.1998    0.0000 H   0  0  0  0  0  0  0  0  0  0  0  0
    7.8500   -0.2090    0.0000 H   0  0  0  0  0  0  0  0  0  0  0  0
    1.8034   -0.8517    0.0000 H   0  0  0  0  0  0  0  0  0  0  0  0
    1.3963   -1.5383    0.0000 H   0  0  0  0  0  0  0  0  0  0  0  0
    3.9969   -3.0398    0.0000 H   0  0  0  0  0  0  0  0  0  0  0  0
    4.3880   -2.3439    0.0000 H   0  0  0  0  0  0  0  0  0  0  0  0
    2.8996    1.1883    0.0000 H   0  0  0  0  0  0  0  0  0  0  0  0
    2.0239    1.2319    0.0000 H   0  0  0  0  0  0  0  0  0  0  0  0
    1.9802    0.3562    0.0000 H   0  0  0  0  0  0  0  0  0  0  0  0
    2.3551   -3.2920    0.0000 H   0  0  0  0  0  0  0  0  0  0  0  0
    7.2088    4.0027    0.0000 H   0  0  0  0  0  0  0  0  0  0  0  0
    6.8231    3.3038    0.0000 H   0  0  0  0  0  0  0  0  0  0  0  0
    1.3900   -2.3555    0.0000 H   0  0  0  0  0  0  0  0  0  0  0  0
    1.7864   -3.0483    0.0000 H   0  0  0  0  0  0  0  0  0  0  0  0
    8.8982    0.4718    0.0000 H   0  0  0  0  0  0  0  0  0  0  0  0
    6.8924    3.3719    0.0000 H   0  0  0  0  0  0  0  0  0  0  0  0
    6.0472    3.1385    0.0000 H   0  0  0  0  0  0  0  0  0  0  0  0
    6.2807    2.2933    0.0000 H   0  0  0  0  0  0  0  0  0  0  0  0
    9.5153    1.7770    0.0000 H   0  0  0  0  0  0  0  0  0  0  0  0
    9.9171    2.4668    0.0000 H   0  0  0  0  0  0  0  0  0  0  0  0
    8.7561    4.4599    0.0000 H   0  0  0  0  0  0  0  0  0  0  0  0
    7.9579    4.4507    0.0000 H   0  0  0  0  0  0  0  0  0  0  0  0
    9.9171    3.3396    0.0000 H   0  0  0  0  0  0  0  0  0  0  0  0
    9.5153    4.0294    0.0000 H   0  0  0  0  0  0  0  0  0  0  0  0
    2.2753   -3.9833    0.0000 H   0  0  0  0  0  0  0  0  0  0  0  0
    2.8977   -4.6009    0.0000 H   0  0  0  0  0  0  0  0  0  0  0  0
    3.5153   -3.9785    0.0000 H   0  0  0  0  0  0  0  0  0  0  0  0
  1  5  1  0  0  0  0
  1 11  1  0  0  0  0
  1 17  1  0  0  0  0
  2  3  1  0  0  0  0
  2  4  1  0  0  0  0
  2 10  1  0  0  0  0
  2 14  1  0  0  0  0
  3  5  1  0  0  0  0
  3  8  1  0  0  0  0
  3 29  1  0  0  0  0
  4  6  1  0  0  0  0
  4  7  1  0  0  0  0
  4 30  1  0  0  0  0
  5  7  1  0  0  0  0
  5 31  1  0  0  0  0
  6  9  1  0  0  0  0
  6 15  1  0  0  0  0
  6 32  1  0  0  0  0
  7 33  1  0  0  0  0
  7 34  1  0  0  0  0
  8 11  1  0  0  0  0
  8 18  1  0  0  0  0
  8 35  1  0  0  0  0
  9 12  1  0  0  0  0
  9 13  1  0  0  0  0
  9 36  1  0  0  0  0
 10 12  1  0  0  0  0
 10 37  1  0  0  0  0
 10 38  1  0  0  0  0
 11 16  1  0  0  0  0
 11 39  1  0  0  0  0
 12 40  1  0  0  0  0
 12 41  1  0  0  0  0
 13 19  1  0  0  0  0
 13 21  1  0  0  0  0
 13 24  1  0  0  0  0
 14 42  1  0  0  0  0
 14 43  1  0  0  0  0
 14 44  1  0  0  0  0
 15 23  1  0  0  0  0
 15 45  1  0  0  0  0
 15 46  1  0  0  0  0
 16 22  1  0  0  0  0
 16 47  1  0  0  0  0
 16 48  1  0  0  0  0
 17 20  1  0  0  0  0
 17 49  1  0  0  0  0
 17 50  1  0  0  0  0
 18 51  1  0  0  0  0
 18 52  1  0  0  0  0
 18 53  1  0  0  0  0
 19 23  2  0  0  0  0
 19 25  1  0  0  0  0
 20 22  1  0  0  0  0
 20 28  1  0  0  0  0
 20 54  1  0  0  0  0
 21 26  1  0  0  0  0
 21 55  1  0  0  0  0
 21 56  1  0  0  0  0
 22 57  1  0  0  0  0
 22 58  1  0  0  0  0
 23 59  1  0  0  0  0
 24 60  1  0  0  0  0
 24 61  1  0  0  0  0
 24 62  1  0  0  0  0
 25 27  1  0  0  0  0
 25 63  1  0  0  0  0
 25 64  1  0  0  0  0
 26 27  1  0  0  0  0
 26 65  1  0  0  0  0
 26 66  1  0  0  0  0
 27 67  1  0  0  0  0
 27 68  1  0  0  0  0
 28 69  1  0  0  0  0
 28 70  1  0  0  0  0
 28 71  1  0  0  0  0
M  END
> <PUBCHEM_COMPOUND_CID>
527631
> <PUBCHEM_COMPOUND_CANONICALIZED>
1
> <PUBCHEM_CACTVS_COMPLEXITY>
680
> <PUBCHEM_CACTVS_HBOND_ACCEPTOR>
1
> <PUBCHEM_CACTVS_HBOND_DONOR>
0
> <PUBCHEM_CACTVS_ROTATABLE_BOND>
0
> <PUBCHEM_CACTVS_SUBSKEYS>
AAADcfB6AAAAAAAAAAAAAAAAAAAAAeIAAAA8YIEAAAAWAHiAAAAAHAAAAAAADyjBAAQCAAMAAACAAiBCAAAAAAAgAAAACAAIAAgAAAIAgQAEAAAAgACIAAMQgMAPgAAAAAAAAACAAAQAACAAASAACQAAAA==
> <PUBCHEM_IUPAC_OPENEYE_NAME>
10,14,16,20-tetramethyl-22-azahexacyclo[12.10.0.02,11.05,10.015,23.017,22]tetracos-4-ene
> <PUBCHEM_IUPAC_CAS_NAME>
10,14,16,20-tetramethyl-22-azahexacyclo[12.10.0.02,11.05,10.015,23.017,22]tetracos-4-ene
> <PUBCHEM_IUPAC_NAME_MARKUP>
10,14,16,20-tetramethyl-22-azahexacyclo[12.10.0.0<SUP>2,11</SUP>.0<SUP>5,10</SUP>.0<SUP>15,23</SUP>.0<SUP>17,22</SUP>]tetracos-4-ene
> <PUBCHEM_IUPAC_NAME>
10,14,16,20-tetramethyl-22-azahexacyclo[12.10.0.02,11.05,10.015,23.017,22]tetracos-4-ene
> <PUBCHEM_IUPAC_SYSTEMATIC_NAME>
10,14,16,20-tetramethyl-22-azahexacyclo[12.10.0.02,11.05,10.015,23.017,22]tetracos-4-ene
> <PUBCHEM_IUPAC_TRADITIONAL_NAME>
10,14,16,20-tetramethyl-22-azahexacyclo[12.10.0.02,11.05,10.015,23.017,22]tetracos-4-ene
> <PUBCHEM_IUPAC_INCHI>
InChI=1S/C27H43N/c1-17-8-11-23-18(2)25-24(28(23)16-17)15-22-20-10-9-19-7-5-6-13-26(19,3)21(20)12-14-27(22,25)4/h9,17-18,20-25H,5-8,10-16H2,1-4H3
> <PUBCHEM_IUPAC_INCHIKEY>
HKIXEELOHWFWNE-UHFFFAOYSA-N
> <PUBCHEM_XLOGP3_AA>
7.6
> <PUBCHEM_EXACT_MASS>
381.339550376
> <PUBCHEM_MOLECULAR_FORMULA>
C27H43N
> <PUBCHEM_MOLECULAR_WEIGHT>
381.6
> <PUBCHEM_OPENEYE_CAN_SMILES>
CC1CCC2C(C3C(N2C1)CC4C3(CCC5C4CC=C6C5(CCCC6)C)C)C
> <PUBCHEM_OPENEYE_ISO_SMILES>
CC1CCC2C(C3C(N2C1)CC4C3(CCC5C4CC=C6C5(CCCC6)C)C)C
> <PUBCHEM_CACTVS_TPSA>
3.2
> <PUBCHEM_MONOISOTOPIC_WEIGHT>
381.339550376
> <PUBCHEM_TOTAL_CHARGE>
0
> <PUBCHEM_HEAVY_ATOM_COUNT>
28
> <PUBCHEM_ATOM_DEF_STEREO_COUNT>
0
> <PUBCHEM_ATOM_UDEF_STEREO_COUNT>
10
> <PUBCHEM_BOND_DEF_STEREO_COUNT>
0
> <PUBCHEM_BOND_UDEF_STEREO_COUNT>
0
> <PUBCHEM_ISOTOPIC_ATOM_COUNT>
0
> <PUBCHEM_COMPONENT_COUNT>
1
> <PUBCHEM_CACTVS_TAUTO_COUNT>
-1
> <PUBCHEM_COORDINATE_TYPE>
1
5
255
> <PUBCHEM_BONDANNOTATIONS>
11  16  3
13  24  3
2  14  3
20  28  3
3  8  3
4  7  3
5  7  3
6  15  3
8  18  3
9  12  3
$$$$
