527627
  -OEChem-10302200292D
 32 31  0     1  0  0  0  0  0999 V2000
    7.1962   -0.3170    0.0000 O   0  0  0  0  0  0  0  0  0  0  0  0
    6.3301    1.1830    0.0000 O   0  0  0  0  0  0  0  0  0  0  0  0
    5.4641   -0.3170    0.0000 C   0  0  3  0  0  0  0  0  0  0  0  0
    4.5981   -0.8170    0.0000 C   0  0  0  0  0  0  0  0  0  0  0  0
    4.9641    0.5490    0.0000 C   0  0  0  0  0  0  0  0  0  0  0  0
    3.7320   -0.3170    0.0000 C   0  0  0  0  0  0  0  0  0  0  0  0
    5.9641   -1.1830    0.0000 C   0  0  0  0  0  0  0  0  0  0  0  0
    6.3301    0.1830    0.0000 C   0  0  0  0  0  0  0  0  0  0  0  0
    2.8660   -0.8170    0.0000 C   0  0  0  0  0  0  0  0  0  0  0  0
    3.9641    0.5490    0.0000 C   0  0  0  0  0  0  0  0  0  0  0  0
    2.0000   -0.3170    0.0000 C   0  0  0  0  0  0  0  0  0  0  0  0
    8.0622    0.1830    0.0000 C   0  0  0  0  0  0  0  0  0  0  0  0
    4.1996   -1.2919    0.0000 H   0  0  0  0  0  0  0  0  0  0  0  0
    4.9966   -1.2919    0.0000 H   0  0  0  0  0  0  0  0  0  0  0  0
    5.5467    0.7611    0.0000 H   0  0  0  0  0  0  0  0  0  0  0  0
    4.8564    1.1596    0.0000 H   0  0  0  0  0  0  0  0  0  0  0  0
    4.1306    0.1580    0.0000 H   0  0  0  0  0  0  0  0  0  0  0  0
    3.3335    0.1580    0.0000 H   0  0  0  0  0  0  0  0  0  0  0  0
    5.4272   -1.4930    0.0000 H   0  0  0  0  0  0  0  0  0  0  0  0
    6.2741   -1.7200    0.0000 H   0  0  0  0  0  0  0  0  0  0  0  0
    6.5010   -0.8730    0.0000 H   0  0  0  0  0  0  0  0  0  0  0  0
    2.4675   -1.2919    0.0000 H   0  0  0  0  0  0  0  0  0  0  0  0
    3.2646   -1.2919    0.0000 H   0  0  0  0  0  0  0  0  0  0  0  0
    3.9641    1.1690    0.0000 H   0  0  0  0  0  0  0  0  0  0  0  0
    3.3441    0.5490    0.0000 H   0  0  0  0  0  0  0  0  0  0  0  0
    3.9641   -0.0710    0.0000 H   0  0  0  0  0  0  0  0  0  0  0  0
    2.3100    0.2199    0.0000 H   0  0  0  0  0  0  0  0  0  0  0  0
    1.4631   -0.0070    0.0000 H   0  0  0  0  0  0  0  0  0  0  0  0
    1.6900   -0.8539    0.0000 H   0  0  0  0  0  0  0  0  0  0  0  0
    8.3722   -0.3539    0.0000 H   0  0  0  0  0  0  0  0  0  0  0  0
    8.5991    0.4930    0.0000 H   0  0  0  0  0  0  0  0  0  0  0  0
    7.7522    0.7199    0.0000 H   0  0  0  0  0  0  0  0  0  0  0  0
  1  8  1  0  0  0  0
  1 12  1  0  0  0  0
  2  8  2  0  0  0  0
  3  4  1  0  0  0  0
  3  5  1  0  0  0  0
  3  7  1  0  0  0  0
  3  8  1  0  0  0  0
  4  6  1  0  0  0  0
  4 13  1  0  0  0  0
  4 14  1  0  0  0  0
  5 10  1  0  0  0  0
  5 15  1  0  0  0  0
  5 16  1  0  0  0  0
  6  9  1  0  0  0  0
  6 17  1  0  0  0  0
  6 18  1  0  0  0  0
  7 19  1  0  0  0  0
  7 20  1  0  0  0  0
  7 21  1  0  0  0  0
  9 11  1  0  0  0  0
  9 22  1  0  0  0  0
  9 23  1  0  0  0  0
 10 24  1  0  0  0  0
 10 25  1  0  0  0  0
 10 26  1  0  0  0  0
 11 27  1  0  0  0  0
 11 28  1  0  0  0  0
 11 29  1  0  0  0  0
 12 30  1  0  0  0  0
 12 31  1  0  0  0  0
 12 32  1  0  0  0  0
M  END
> <PUBCHEM_COMPOUND_CID>
527627
> <PUBCHEM_COMPOUND_CANONICALIZED>
1
> <PUBCHEM_CACTVS_COMPLEXITY>
143
> <PUBCHEM_CACTVS_HBOND_ACCEPTOR>
2
> <PUBCHEM_CACTVS_HBOND_DONOR>
0
> <PUBCHEM_CACTVS_ROTATABLE_BOND>
6
> <PUBCHEM_CACTVS_SUBSKEYS>
AAADceBwMAAAAAAAAAAAAAAAAAAAAAAAAAAAAAAAAAAAAAAAAAAAGgAAAAAADgCAgAICCAAABAAIAACQCAAAAAAAAAAAAAEAAAAAABIAAAAAAAAEAAAAAAGIyAAPAAAAAAAAAAAAAAAAAAAAAAAAAAAAAA==
> <PUBCHEM_IUPAC_OPENEYE_NAME>
methyl 2-ethyl-2-methyl-hexanoate
> <PUBCHEM_IUPAC_CAS_NAME>
2-ethyl-2-methylhexanoic acid methyl ester
> <PUBCHEM_IUPAC_NAME_MARKUP>
methyl 2-ethyl-2-methylhexanoate
> <PUBCHEM_IUPAC_NAME>
methyl 2-ethyl-2-methylhexanoate
> <PUBCHEM_IUPAC_SYSTEMATIC_NAME>
methyl 2-ethyl-2-methyl-hexanoate
> <PUBCHEM_IUPAC_TRADITIONAL_NAME>
2-ethyl-2-methyl-hexanoic acid methyl ester
> <PUBCHEM_IUPAC_INCHI>
InChI=1S/C10H20O2/c1-5-7-8-10(3,6-2)9(11)12-4/h5-8H2,1-4H3
> <PUBCHEM_IUPAC_INCHIKEY>
YEWZFIGYPGLHLR-UHFFFAOYSA-N
> <PUBCHEM_XLOGP3_AA>
3.3
> <PUBCHEM_EXACT_MASS>
172.146329876
> <PUBCHEM_MOLECULAR_FORMULA>
C10H20O2
> <PUBCHEM_MOLECULAR_WEIGHT>
172.26
> <PUBCHEM_OPENEYE_CAN_SMILES>
CCCCC(C)(CC)C(=O)OC
> <PUBCHEM_OPENEYE_ISO_SMILES>
CCCCC(C)(CC)C(=O)OC
> <PUBCHEM_CACTVS_TPSA>
26.3
> <PUBCHEM_MONOISOTOPIC_WEIGHT>
172.146329876
> <PUBCHEM_TOTAL_CHARGE>
0
> <PUBCHEM_HEAVY_ATOM_COUNT>
12
> <PUBCHEM_ATOM_DEF_STEREO_COUNT>
0
> <PUBCHEM_ATOM_UDEF_STEREO_COUNT>
1
> <PUBCHEM_BOND_DEF_STEREO_COUNT>
0
> <PUBCHEM_BOND_UDEF_STEREO_COUNT>
0
> <PUBCHEM_ISOTOPIC_ATOM_COUNT>
0
> <PUBCHEM_COMPONENT_COUNT>
1
> <PUBCHEM_CACTVS_TAUTO_COUNT>
-1
> <PUBCHEM_COORDINATE_TYPE>
1
5
255
> <PUBCHEM_BONDANNOTATIONS>
3  7  3
$$$$
