527709
  -OEChem-10302200292D
 25 25  0     1  0  0  0  0  0999 V2000
    3.7071   -0.7452    0.0000 C   0  0  3  0  0  0  0  0  0  0  0  0
    2.7071   -0.7452    0.0000 C   0  0  0  0  0  0  0  0  0  0  0  0
    2.0000   -0.0381    0.0000 C   0  0  0  0  0  0  0  0  0  0  0  0
    4.4142   -0.0381    0.0000 C   0  0  0  0  0  0  0  0  0  0  0  0
    2.0000    0.9619    0.0000 C   0  0  0  0  0  0  0  0  0  0  0  0
    2.7071    1.6690    0.0000 C   0  0  0  0  0  0  0  0  0  0  0  0
    4.0898   -1.6690    0.0000 C   0  0  0  0  0  0  0  0  0  0  0  0
    4.4142    0.9619    0.0000 C   0  0  0  0  0  0  0  0  0  0  0  0
    3.7071    1.6690    0.0000 C   0  0  0  0  0  0  0  0  0  0  0  0
    3.3626   -1.2607    0.0000 H   0  0  0  0  0  0  0  0  0  0  0  0
    2.1702   -1.0552    0.0000 H   0  0  0  0  0  0  0  0  0  0  0  0
    2.8676   -1.3440    0.0000 H   0  0  0  0  0  0  0  0  0  0  0  0
    1.4011    0.1224    0.0000 H   0  0  0  0  0  0  0  0  0  0  0  0
    1.6900   -0.5750    0.0000 H   0  0  0  0  0  0  0  0  0  0  0  0
    4.7242   -0.5750    0.0000 H   0  0  0  0  0  0  0  0  0  0  0  0
    5.0131    0.1224    0.0000 H   0  0  0  0  0  0  0  0  0  0  0  0
    1.6900    1.4989    0.0000 H   0  0  0  0  0  0  0  0  0  0  0  0
    1.4011    0.8015    0.0000 H   0  0  0  0  0  0  0  0  0  0  0  0
    2.8676    2.2679    0.0000 H   0  0  0  0  0  0  0  0  0  0  0  0
    2.1702    1.9790    0.0000 H   0  0  0  0  0  0  0  0  0  0  0  0
    3.5170   -1.9063    0.0000 H   0  0  0  0  0  0  0  0  0  0  0  0
    4.3270   -2.2418    0.0000 H   0  0  0  0  0  0  0  0  0  0  0  0
    4.6626   -1.4318    0.0000 H   0  0  0  0  0  0  0  0  0  0  0  0
    4.9870    1.1992    0.0000 H   0  0  0  0  0  0  0  0  0  0  0  0
    3.9444    2.2418    0.0000 H   0  0  0  0  0  0  0  0  0  0  0  0
  1  2  1  0  0  0  0
  1  4  1  0  0  0  0
  1  7  1  0  0  0  0
  1 10  1  0  0  0  0
  2  3  1  0  0  0  0
  2 11  1  0  0  0  0
  2 12  1  0  0  0  0
  3  5  1  0  0  0  0
  3 13  1  0  0  0  0
  3 14  1  0  0  0  0
  4  8  1  0  0  0  0
  4 15  1  0  0  0  0
  4 16  1  0  0  0  0
  5  6  1  0  0  0  0
  5 17  1  0  0  0  0
  5 18  1  0  0  0  0
  6  9  1  0  0  0  0
  6 19  1  0  0  0  0
  6 20  1  0  0  0  0
  7 21  1  0  0  0  0
  7 22  1  0  0  0  0
  7 23  1  0  0  0  0
  8  9  2  3  0  0  0
  8 24  1  0  0  0  0
  9 25  1  0  0  0  0
M  END
> <PUBCHEM_COMPOUND_CID>
527709
> <PUBCHEM_COMPOUND_CANONICALIZED>
1
> <PUBCHEM_CACTVS_COMPLEXITY>
92.2
> <PUBCHEM_CACTVS_HBOND_ACCEPTOR>
0
> <PUBCHEM_CACTVS_HBOND_DONOR>
0
> <PUBCHEM_CACTVS_ROTATABLE_BOND>
0
> <PUBCHEM_CACTVS_SUBSKEYS>
AAADceBwAAAAAAAAAAAAAAAAAAAAAAAAAAAAAAAAAAAQAAAAAAAAGAAAAAAADQCAAAACAAAAAACAACBCAAAAAAAgAAAICAAAAAgAAAIAAQAAAAAAgAAIAAMAgMAOAAAAAAAAAAAAAAAAAAAAAAAAAAAAAA==
> <PUBCHEM_IUPAC_OPENEYE_NAME>
4-methylcyclooctene
> <PUBCHEM_IUPAC_CAS_NAME>
4-methylcyclooctene
> <PUBCHEM_IUPAC_NAME_MARKUP>
4-methylcyclooctene
> <PUBCHEM_IUPAC_NAME>
4-methylcyclooctene
> <PUBCHEM_IUPAC_SYSTEMATIC_NAME>
4-methylcyclooctene
> <PUBCHEM_IUPAC_TRADITIONAL_NAME>
4-methylcyclooctene
> <PUBCHEM_IUPAC_INCHI>
InChI=1S/C9H16/c1-9-7-5-3-2-4-6-8-9/h3,5,9H,2,4,6-8H2,1H3
> <PUBCHEM_IUPAC_INCHIKEY>
UJFJAMZCPFRYBW-UHFFFAOYSA-N
> <PUBCHEM_XLOGP3_AA>
3.8
> <PUBCHEM_EXACT_MASS>
124.125200510
> <PUBCHEM_MOLECULAR_FORMULA>
C9H16
> <PUBCHEM_MOLECULAR_WEIGHT>
124.22
> <PUBCHEM_OPENEYE_CAN_SMILES>
CC1CCCCC=CC1
> <PUBCHEM_OPENEYE_ISO_SMILES>
CC1CCCCC=CC1
> <PUBCHEM_CACTVS_TPSA>
0
> <PUBCHEM_MONOISOTOPIC_WEIGHT>
124.125200510
> <PUBCHEM_TOTAL_CHARGE>
0
> <PUBCHEM_HEAVY_ATOM_COUNT>
9
> <PUBCHEM_ATOM_DEF_STEREO_COUNT>
0
> <PUBCHEM_ATOM_UDEF_STEREO_COUNT>
1
> <PUBCHEM_BOND_DEF_STEREO_COUNT>
0
> <PUBCHEM_BOND_UDEF_STEREO_COUNT>
1
> <PUBCHEM_ISOTOPIC_ATOM_COUNT>
0
> <PUBCHEM_COMPONENT_COUNT>
1
> <PUBCHEM_CACTVS_TAUTO_COUNT>
-1
> <PUBCHEM_COORDINATE_TYPE>
1
5
255
> <PUBCHEM_BONDANNOTATIONS>
1  7  3
8  9  1
$$$$
