527830
  -OEChem-10302200292D
 46 45  0     1  0  0  0  0  0999 V2000
    3.3660    3.8660    0.0000 F   0  0  0  0  0  0  0  0  0  0  0  0
    2.0000    3.5000    0.0000 F   0  0  0  0  0  0  0  0  0  0  0  0
    2.3660    2.1340    0.0000 F   0  0  0  0  0  0  0  0  0  0  0  0
    8.0622   -4.0000    0.0000 F   0  0  0  0  0  0  0  0  0  0  0  0
    9.0622   -3.0000    0.0000 F   0  0  0  0  0  0  0  0  0  0  0  0
    7.0622   -3.0000    0.0000 F   0  0  0  0  0  0  0  0  0  0  0  0
    7.1962    2.5000    0.0000 O   0  0  0  0  0  0  0  0  0  0  0  0
    6.3301    4.0000    0.0000 O   0  0  0  0  0  0  0  0  0  0  0  0
    3.7320    1.5000    0.0000 O   0  0  0  0  0  0  0  0  0  0  0  0
    8.9282   -1.5000    0.0000 O   0  0  0  0  0  0  0  0  0  0  0  0
    4.5981    3.0000    0.0000 N   0  0  0  0  0  0  0  0  0  0  0  0
    7.1962   -1.5000    0.0000 N   0  0  0  0  0  0  0  0  0  0  0  0
    5.4641    1.5000    0.0000 C   0  0  0  0  0  0  0  0  0  0  0  0
    6.3301    1.0000    0.0000 C   0  0  0  0  0  0  0  0  0  0  0  0
    5.4641    2.5000    0.0000 C   0  0  3  0  0  0  0  0  0  0  0  0
    6.3301    0.0000    0.0000 C   0  0  0  0  0  0  0  0  0  0  0  0
    7.1962   -0.5000    0.0000 C   0  0  0  0  0  0  0  0  0  0  0  0
    6.3301    3.0000    0.0000 C   0  0  0  0  0  0  0  0  0  0  0  0
    8.0622    3.0000    0.0000 C   0  0  0  0  0  0  0  0  0  0  0  0
    8.9282    2.5000    0.0000 C   0  0  0  0  0  0  0  0  0  0  0  0
    3.7320    2.5000    0.0000 C   0  0  0  0  0  0  0  0  0  0  0  0
    9.7942    3.0000    0.0000 C   0  0  0  0  0  0  0  0  0  0  0  0
    8.0622   -2.0000    0.0000 C   0  0  0  0  0  0  0  0  0  0  0  0
   10.6603    2.5000    0.0000 C   0  0  0  0  0  0  0  0  0  0  0  0
    2.8660    3.0000    0.0000 C   0  0  0  0  0  0  0  0  0  0  0  0
    8.0622   -3.0000    0.0000 C   0  0  0  0  0  0  0  0  0  0  0  0
    4.8535    1.6077    0.0000 H   0  0  0  0  0  0  0  0  0  0  0  0
    5.2520    0.9174    0.0000 H   0  0  0  0  0  0  0  0  0  0  0  0
    6.9407    0.8923    0.0000 H   0  0  0  0  0  0  0  0  0  0  0  0
    6.5422    1.5826    0.0000 H   0  0  0  0  0  0  0  0  0  0  0  0
    5.4641    3.1200    0.0000 H   0  0  0  0  0  0  0  0  0  0  0  0
    5.7196    0.1077    0.0000 H   0  0  0  0  0  0  0  0  0  0  0  0
    6.1181   -0.5826    0.0000 H   0  0  0  0  0  0  0  0  0  0  0  0
    7.8067   -0.6077    0.0000 H   0  0  0  0  0  0  0  0  0  0  0  0
    7.4082    0.0826    0.0000 H   0  0  0  0  0  0  0  0  0  0  0  0
    4.5981    3.6200    0.0000 H   0  0  0  0  0  0  0  0  0  0  0  0
    8.4607    3.4750    0.0000 H   0  0  0  0  0  0  0  0  0  0  0  0
    7.6636    3.4750    0.0000 H   0  0  0  0  0  0  0  0  0  0  0  0
    8.5297    2.0250    0.0000 H   0  0  0  0  0  0  0  0  0  0  0  0
    9.3267    2.0250    0.0000 H   0  0  0  0  0  0  0  0  0  0  0  0
    6.6592   -1.8100    0.0000 H   0  0  0  0  0  0  0  0  0  0  0  0
   10.1928    3.4750    0.0000 H   0  0  0  0  0  0  0  0  0  0  0  0
    9.3957    3.4750    0.0000 H   0  0  0  0  0  0  0  0  0  0  0  0
   10.3503    1.9631    0.0000 H   0  0  0  0  0  0  0  0  0  0  0  0
   11.1972    2.1900    0.0000 H   0  0  0  0  0  0  0  0  0  0  0  0
   10.9703    3.0369    0.0000 H   0  0  0  0  0  0  0  0  0  0  0  0
  1 25  1  0  0  0  0
  2 25  1  0  0  0  0
  3 25  1  0  0  0  0
  4 26  1  0  0  0  0
  5 26  1  0  0  0  0
  6 26  1  0  0  0  0
  7 18  1  0  0  0  0
  7 19  1  0  0  0  0
  8 18  2  0  0  0  0
  9 21  2  0  0  0  0
 10 23  2  0  0  0  0
 11 15  1  0  0  0  0
 11 21  1  0  0  0  0
 11 36  1  0  0  0  0
 12 17  1  0  0  0  0
 12 23  1  0  0  0  0
 12 41  1  0  0  0  0
 13 14  1  0  0  0  0
 13 15  1  0  0  0  0
 13 27  1  0  0  0  0
 13 28  1  0  0  0  0
 14 16  1  0  0  0  0
 14 29  1  0  0  0  0
 14 30  1  0  0  0  0
 15 18  1  0  0  0  0
 15 31  1  0  0  0  0
 16 17  1  0  0  0  0
 16 32  1  0  0  0  0
 16 33  1  0  0  0  0
 17 34  1  0  0  0  0
 17 35  1  0  0  0  0
 19 20  1  0  0  0  0
 19 37  1  0  0  0  0
 19 38  1  0  0  0  0
 20 22  1  0  0  0  0
 20 39  1  0  0  0  0
 20 40  1  0  0  0  0
 21 25  1  0  0  0  0
 22 24  1  0  0  0  0
 22 42  1  0  0  0  0
 22 43  1  0  0  0  0
 23 26  1  0  0  0  0
 24 44  1  0  0  0  0
 24 45  1  0  0  0  0
 24 46  1  0  0  0  0
M  END
> <PUBCHEM_COMPOUND_CID>
527830
> <PUBCHEM_COMPOUND_CANONICALIZED>
1
> <PUBCHEM_CACTVS_COMPLEXITY>
479
> <PUBCHEM_CACTVS_HBOND_ACCEPTOR>
10
> <PUBCHEM_CACTVS_HBOND_DONOR>
2
> <PUBCHEM_CACTVS_ROTATABLE_BOND>
11
> <PUBCHEM_CACTVS_SUBSKEYS>
AAADceBzOcAAAAAAAAAAAAAAAAAAAAAAAAAAAAAAAAAAAAAAAAAAHwAQAAAACCjhgBYCCALABAAIAAGQGAAAAAAAAAAAAIGIAAACABIAgCAHAAAEFgCQAAGYSAAAAAAAAAAAAAAAAAAAAAAAAAAAAAAAAA==
> <PUBCHEM_IUPAC_OPENEYE_NAME>
butyl 2,6-bis[(2,2,2-trifluoroacetyl)amino]hexanoate
> <PUBCHEM_IUPAC_CAS_NAME>
2,6-bis[(2,2,2-trifluoro-1-oxoethyl)amino]hexanoic acid butyl ester
> <PUBCHEM_IUPAC_NAME_MARKUP>
butyl 2,6-bis[(2,2,2-trifluoroacetyl)amino]hexanoate
> <PUBCHEM_IUPAC_NAME>
butyl 2,6-bis[(2,2,2-trifluoroacetyl)amino]hexanoate
> <PUBCHEM_IUPAC_SYSTEMATIC_NAME>
butyl 2,6-bis[2,2,2-tris(fluoranyl)ethanoylamino]hexanoate
> <PUBCHEM_IUPAC_TRADITIONAL_NAME>
2,6-bis[(2,2,2-trifluoroacetyl)amino]hexanoic acid butyl ester
> <PUBCHEM_IUPAC_INCHI>
InChI=1S/C14H20F6N2O4/c1-2-3-8-26-10(23)9(22-12(25)14(18,19)20)6-4-5-7-21-11(24)13(15,16)17/h9H,2-8H2,1H3,(H,21,24)(H,22,25)
> <PUBCHEM_IUPAC_INCHIKEY>
TYLLSQHVLXVPTR-UHFFFAOYSA-N
> <PUBCHEM_XLOGP3_AA>
3.4
> <PUBCHEM_EXACT_MASS>
394.13272610
> <PUBCHEM_MOLECULAR_FORMULA>
C14H20F6N2O4
> <PUBCHEM_MOLECULAR_WEIGHT>
394.31
> <PUBCHEM_OPENEYE_CAN_SMILES>
CCCCOC(=O)C(CCCCNC(=O)C(F)(F)F)NC(=O)C(F)(F)F
> <PUBCHEM_OPENEYE_ISO_SMILES>
CCCCOC(=O)C(CCCCNC(=O)C(F)(F)F)NC(=O)C(F)(F)F
> <PUBCHEM_CACTVS_TPSA>
84.5
> <PUBCHEM_MONOISOTOPIC_WEIGHT>
394.13272610
> <PUBCHEM_TOTAL_CHARGE>
0
> <PUBCHEM_HEAVY_ATOM_COUNT>
26
> <PUBCHEM_ATOM_DEF_STEREO_COUNT>
0
> <PUBCHEM_ATOM_UDEF_STEREO_COUNT>
1
> <PUBCHEM_BOND_DEF_STEREO_COUNT>
0
> <PUBCHEM_BOND_UDEF_STEREO_COUNT>
0
> <PUBCHEM_ISOTOPIC_ATOM_COUNT>
0
> <PUBCHEM_COMPONENT_COUNT>
1
> <PUBCHEM_CACTVS_TAUTO_COUNT>
-1
> <PUBCHEM_COORDINATE_TYPE>
1
5
255
> <PUBCHEM_BONDANNOTATIONS>
15  13  3
$$$$
