527823
  -OEChem-10302200292D
 30 30  0     1  0  0  0  0  0999 V2000
    4.2690    2.3450    0.0000 O   0  0  0  0  0  0  0  0  0  0  0  0
    2.5369    0.3450    0.0000 O   0  0  0  0  0  0  0  0  0  0  0  0
    4.2690    0.3450    0.0000 C   0  0  3  0  0  0  0  0  0  0  0  0
    4.2690    1.3450    0.0000 C   0  0  0  0  0  0  0  0  0  0  0  0
    5.1350   -0.1550    0.0000 C   0  0  0  0  0  0  0  0  0  0  0  0
    3.4030   -0.1550    0.0000 C   0  0  3  0  0  0  0  0  0  0  0  0
    5.1350   -1.1550    0.0000 C   0  0  0  0  0  0  0  0  0  0  0  0
    4.2690   -1.6550    0.0000 C   0  0  0  0  0  0  0  0  0  0  0  0
    3.4030   -1.1550    0.0000 C   0  0  0  0  0  0  0  0  0  0  0  0
    5.2690    1.3450    0.0000 C   0  0  0  0  0  0  0  0  0  0  0  0
    3.2690    1.3450    0.0000 C   0  0  0  0  0  0  0  0  0  0  0  0
    4.2690   -2.6550    0.0000 C   0  0  0  0  0  0  0  0  0  0  0  0
    4.8059    0.6550    0.0000 H   0  0  0  0  0  0  0  0  0  0  0  0
    5.7456   -0.2627    0.0000 H   0  0  0  0  0  0  0  0  0  0  0  0
    5.3471    0.4276    0.0000 H   0  0  0  0  0  0  0  0  0  0  0  0
    3.4030    0.4650    0.0000 H   0  0  0  0  0  0  0  0  0  0  0  0
    5.3471   -1.7376    0.0000 H   0  0  0  0  0  0  0  0  0  0  0  0
    5.7456   -1.0473    0.0000 H   0  0  0  0  0  0  0  0  0  0  0  0
    2.8660   -1.4650    0.0000 H   0  0  0  0  0  0  0  0  0  0  0  0
    5.2690    0.7250    0.0000 H   0  0  0  0  0  0  0  0  0  0  0  0
    5.8890    1.3450    0.0000 H   0  0  0  0  0  0  0  0  0  0  0  0
    5.2690    1.9650    0.0000 H   0  0  0  0  0  0  0  0  0  0  0  0
    3.2690    1.9650    0.0000 H   0  0  0  0  0  0  0  0  0  0  0  0
    2.6490    1.3450    0.0000 H   0  0  0  0  0  0  0  0  0  0  0  0
    3.2690    0.7250    0.0000 H   0  0  0  0  0  0  0  0  0  0  0  0
    4.8059    2.6550    0.0000 H   0  0  0  0  0  0  0  0  0  0  0  0
    3.6490   -2.6550    0.0000 H   0  0  0  0  0  0  0  0  0  0  0  0
    4.2690   -3.2750    0.0000 H   0  0  0  0  0  0  0  0  0  0  0  0
    4.8890   -2.6550    0.0000 H   0  0  0  0  0  0  0  0  0  0  0  0
    2.0000    0.0350    0.0000 H   0  0  0  0  0  0  0  0  0  0  0  0
  1  4  1  0  0  0  0
  1 26  1  0  0  0  0
  2  6  1  0  0  0  0
  2 30  1  0  0  0  0
  3  4  1  0  0  0  0
  3  5  1  0  0  0  0
  3  6  1  0  0  0  0
  3 13  1  0  0  0  0
  4 10  1  0  0  0  0
  4 11  1  0  0  0  0
  5  7  1  0  0  0  0
  5 14  1  0  0  0  0
  5 15  1  0  0  0  0
  6  9  1  0  0  0  0
  6 16  1  0  0  0  0
  7  8  1  0  0  0  0
  7 17  1  0  0  0  0
  7 18  1  0  0  0  0
  8  9  2  0  0  0  0
  8 12  1  0  0  0  0
  9 19  1  0  0  0  0
 10 20  1  0  0  0  0
 10 21  1  0  0  0  0
 10 22  1  0  0  0  0
 11 23  1  0  0  0  0
 11 24  1  0  0  0  0
 11 25  1  0  0  0  0
 12 27  1  0  0  0  0
 12 28  1  0  0  0  0
 12 29  1  0  0  0  0
M  END
> <PUBCHEM_COMPOUND_CID>
527823
> <PUBCHEM_COMPOUND_CANONICALIZED>
1
> <PUBCHEM_CACTVS_COMPLEXITY>
194
> <PUBCHEM_CACTVS_HBOND_ACCEPTOR>
2
> <PUBCHEM_CACTVS_HBOND_DONOR>
2
> <PUBCHEM_CACTVS_ROTATABLE_BOND>
1
> <PUBCHEM_CACTVS_SUBSKEYS>
AAADceBwMAAAAAAAAAAAAAAAAAAAAAAAAAAgAAAAAAAAAAAAAAAAGgAACAAADVSggAICAAAAAgCAAiBCAAAAAAAgAAAACAAAAAgAFAIAAQAAUAAFgAAIEAOAwEAOgAAAAAAAAAAAAAAAAAAAAAAAAAAAAA==
> <PUBCHEM_IUPAC_OPENEYE_NAME>
6-(1-hydroxy-1-methyl-ethyl)-3-methyl-cyclohex-2-en-1-ol
> <PUBCHEM_IUPAC_CAS_NAME>
6-(2-hydroxypropan-2-yl)-3-methyl-1-cyclohex-2-enol
> <PUBCHEM_IUPAC_NAME_MARKUP>
6-(2-hydroxypropan-2-yl)-3-methylcyclohex-2-en-1-ol
> <PUBCHEM_IUPAC_NAME>
6-(2-hydroxypropan-2-yl)-3-methylcyclohex-2-en-1-ol
> <PUBCHEM_IUPAC_SYSTEMATIC_NAME>
3-methyl-6-(2-oxidanylpropan-2-yl)cyclohex-2-en-1-ol
> <PUBCHEM_IUPAC_TRADITIONAL_NAME>
6-(1-hydroxy-1-methyl-ethyl)-3-methyl-cyclohex-2-en-1-ol
> <PUBCHEM_IUPAC_INCHI>
InChI=1S/C10H18O2/c1-7-4-5-8(9(11)6-7)10(2,3)12/h6,8-9,11-12H,4-5H2,1-3H3
> <PUBCHEM_IUPAC_INCHIKEY>
MUTBSGZZTDPVPZ-UHFFFAOYSA-N
> <PUBCHEM_XLOGP3_AA>
1.3
> <PUBCHEM_EXACT_MASS>
170.130679813
> <PUBCHEM_MOLECULAR_FORMULA>
C10H18O2
> <PUBCHEM_MOLECULAR_WEIGHT>
170.25
> <PUBCHEM_OPENEYE_CAN_SMILES>
CC1=CC(C(CC1)C(C)(C)O)O
> <PUBCHEM_OPENEYE_ISO_SMILES>
CC1=CC(C(CC1)C(C)(C)O)O
> <PUBCHEM_CACTVS_TPSA>
40.5
> <PUBCHEM_MONOISOTOPIC_WEIGHT>
170.130679813
> <PUBCHEM_TOTAL_CHARGE>
0
> <PUBCHEM_HEAVY_ATOM_COUNT>
12
> <PUBCHEM_ATOM_DEF_STEREO_COUNT>
0
> <PUBCHEM_ATOM_UDEF_STEREO_COUNT>
2
> <PUBCHEM_BOND_DEF_STEREO_COUNT>
0
> <PUBCHEM_BOND_UDEF_STEREO_COUNT>
0
> <PUBCHEM_ISOTOPIC_ATOM_COUNT>
0
> <PUBCHEM_COMPONENT_COUNT>
1
> <PUBCHEM_CACTVS_TAUTO_COUNT>
-1
> <PUBCHEM_COORDINATE_TYPE>
1
5
255
> <PUBCHEM_BONDANNOTATIONS>
6  2  3
3  4  3
$$$$
