528072
  -OEChem-10302200292D
 28 28  0     1  0  0  0  0  0999 V2000
    2.8090    0.2103    0.0000 S   0  0  0  0  0  0  0  0  0  0  0  0
    5.7281   -0.7981    0.0000 Si  0  0  0  0  0  0  0  0  0  0  0  0
    4.7770   -0.4891    0.0000 O   0  0  0  0  0  0  0  0  0  0  0  0
    4.5691    0.4891    0.0000 C   0  0  3  0  0  0  0  0  0  0  0  0
    6.6791   -1.1071    0.0000 C   0  0  0  0  0  0  0  0  0  0  0  0
    5.4190   -1.7492    0.0000 C   0  0  0  0  0  0  0  0  0  0  0  0
    6.0371    0.1530    0.0000 C   0  0  0  0  0  0  0  0  0  0  0  0
    3.6180    0.7981    0.0000 C   0  0  0  0  0  0  0  0  0  0  0  0
    5.3122    1.1582    0.0000 C   0  0  0  0  0  0  0  0  0  0  0  0
    3.3090    1.7492    0.0000 C   0  0  0  0  0  0  0  0  0  0  0  0
    2.3090    1.7492    0.0000 C   0  0  0  0  0  0  0  0  0  0  0  0
    2.0000    0.7981    0.0000 C   0  0  0  0  0  0  0  0  0  0  0  0
    4.1083    0.0742    0.0000 H   0  0  0  0  0  0  0  0  0  0  0  0
    6.4875   -1.6968    0.0000 H   0  0  0  0  0  0  0  0  0  0  0  0
    7.2688   -1.2987    0.0000 H   0  0  0  0  0  0  0  0  0  0  0  0
    6.8707   -0.5175    0.0000 H   0  0  0  0  0  0  0  0  0  0  0  0
    4.8294   -1.5576    0.0000 H   0  0  0  0  0  0  0  0  0  0  0  0
    5.2274   -2.3388    0.0000 H   0  0  0  0  0  0  0  0  0  0  0  0
    6.0087   -1.9407    0.0000 H   0  0  0  0  0  0  0  0  0  0  0  0
    6.6267   -0.0386    0.0000 H   0  0  0  0  0  0  0  0  0  0  0  0
    6.2287    0.7426    0.0000 H   0  0  0  0  0  0  0  0  0  0  0  0
    5.4474    0.3446    0.0000 H   0  0  0  0  0  0  0  0  0  0  0  0
    5.7271    0.6975    0.0000 H   0  0  0  0  0  0  0  0  0  0  0  0
    5.7730    1.5731    0.0000 H   0  0  0  0  0  0  0  0  0  0  0  0
    4.8974    1.6189    0.0000 H   0  0  0  0  0  0  0  0  0  0  0  0
    3.6734    2.2507    0.0000 H   0  0  0  0  0  0  0  0  0  0  0  0
    1.9446    2.2507    0.0000 H   0  0  0  0  0  0  0  0  0  0  0  0
    1.4103    0.6065    0.0000 H   0  0  0  0  0  0  0  0  0  0  0  0
  1  8  1  0  0  0  0
  1 12  1  0  0  0  0
  2  3  1  0  0  0  0
  2  5  1  0  0  0  0
  2  6  1  0  0  0  0
  2  7  1  0  0  0  0
  3  4  1  0  0  0  0
  4  8  1  0  0  0  0
  4  9  1  0  0  0  0
  4 13  1  0  0  0  0
  5 14  1  0  0  0  0
  5 15  1  0  0  0  0
  5 16  1  0  0  0  0
  6 17  1  0  0  0  0
  6 18  1  0  0  0  0
  6 19  1  0  0  0  0
  7 20  1  0  0  0  0
  7 21  1  0  0  0  0
  7 22  1  0  0  0  0
  8 10  2  0  0  0  0
  9 23  1  0  0  0  0
  9 24  1  0  0  0  0
  9 25  1  0  0  0  0
 10 11  1  0  0  0  0
 10 26  1  0  0  0  0
 11 12  2  0  0  0  0
 11 27  1  0  0  0  0
 12 28  1  0  0  0  0
M  END
> <PUBCHEM_COMPOUND_CID>
528072
> <PUBCHEM_COMPOUND_CANONICALIZED>
1
> <PUBCHEM_CACTVS_COMPLEXITY>
144
> <PUBCHEM_CACTVS_HBOND_ACCEPTOR>
2
> <PUBCHEM_CACTVS_HBOND_DONOR>
0
> <PUBCHEM_CACTVS_ROTATABLE_BOND>
3
> <PUBCHEM_CACTVS_SUBSKEYS>
AAADceBwIAhAAAAAAAAAAAAAAAAAASAAAAAAAAAAAAAAAAABgAAAGhQAAEAACBSk0ALyAYAAAAmEACBCAAADAIAgCBBIiBgACIgIJiKgERCAEAAkwAEoiAeAAAAAAAAAAAAAAAAAAAAAAAAAAAAAAAAAAA==
> <PUBCHEM_IUPAC_OPENEYE_NAME>
trimethyl-[1-(2-thienyl)ethoxy]silane
> <PUBCHEM_IUPAC_CAS_NAME>
trimethyl(1-thiophen-2-ylethoxy)silane
> <PUBCHEM_IUPAC_NAME_MARKUP>
trimethyl(1-thiophen-2-ylethoxy)silane
> <PUBCHEM_IUPAC_NAME>
trimethyl(1-thiophen-2-ylethoxy)silane
> <PUBCHEM_IUPAC_SYSTEMATIC_NAME>
trimethyl(1-thiophen-2-ylethoxy)silane
> <PUBCHEM_IUPAC_TRADITIONAL_NAME>
trimethyl-[1-(2-thienyl)ethoxy]silane
> <PUBCHEM_IUPAC_INCHI>
InChI=1S/C9H16OSSi/c1-8(10-12(2,3)4)9-6-5-7-11-9/h5-8H,1-4H3
> <PUBCHEM_IUPAC_INCHIKEY>
FPCTYDDKQGBKRK-UHFFFAOYSA-N
> <PUBCHEM_EXACT_MASS>
200.06911284
> <PUBCHEM_MOLECULAR_FORMULA>
C9H16OSSi
> <PUBCHEM_MOLECULAR_WEIGHT>
200.37
> <PUBCHEM_OPENEYE_CAN_SMILES>
CC(C1=CC=CS1)O[Si](C)(C)C
> <PUBCHEM_OPENEYE_ISO_SMILES>
CC(C1=CC=CS1)O[Si](C)(C)C
> <PUBCHEM_CACTVS_TPSA>
37.5
> <PUBCHEM_MONOISOTOPIC_WEIGHT>
200.06911284
> <PUBCHEM_TOTAL_CHARGE>
0
> <PUBCHEM_HEAVY_ATOM_COUNT>
12
> <PUBCHEM_ATOM_DEF_STEREO_COUNT>
0
> <PUBCHEM_ATOM_UDEF_STEREO_COUNT>
1
> <PUBCHEM_BOND_DEF_STEREO_COUNT>
0
> <PUBCHEM_BOND_UDEF_STEREO_COUNT>
0
> <PUBCHEM_ISOTOPIC_ATOM_COUNT>
0
> <PUBCHEM_COMPONENT_COUNT>
1
> <PUBCHEM_CACTVS_TAUTO_COUNT>
-1
> <PUBCHEM_COORDINATE_TYPE>
1
5
255
> <PUBCHEM_BONDANNOTATIONS>
1  12  8
1  8  8
10  11  8
11  12  8
4  9  3
8  10  8
$$$$
