528066
  -OEChem-10302200292D
 80 79  0     1  0  0  0  0  0999 V2000
    8.0622   -1.3170    0.0000 Si  0  0  0  0  0  0  0  0  0  0  0  0
    3.7320   -1.8170    0.0000 Si  0  0  0  0  0  0  0  0  0  0  0  0
    5.4641    1.1830    0.0000 Si  0  0  0  0  0  0  0  0  0  0  0  0
    4.5981   -1.3170    0.0000 O   0  0  0  0  0  0  0  0  0  0  0  0
    5.4641    0.1830    0.0000 O   0  0  0  0  0  0  0  0  0  0  0  0
    7.1962    0.1830    0.0000 O   0  0  0  0  0  0  0  0  0  0  0  0
    7.1962   -1.8170    0.0000 N   0  0  0  0  0  0  0  0  0  0  0  0
    8.9282   -0.8170    0.0000 C   0  0  0  0  0  0  0  0  0  0  0  0
    6.3301   -1.3170    0.0000 C   0  0  3  0  0  0  0  0  0  0  0  0
    2.8660   -2.3170    0.0000 C   0  0  0  0  0  0  0  0  0  0  0  0
    5.4641   -1.8170    0.0000 C   0  0  3  0  0  0  0  0  0  0  0  0
    7.5622   -0.4510    0.0000 C   0  0  0  0  0  0  0  0  0  0  0  0
    8.5622   -2.1830    0.0000 C   0  0  0  0  0  0  0  0  0  0  0  0
    5.4641    2.1830    0.0000 C   0  0  0  0  0  0  0  0  0  0  0  0
    9.7942   -0.3170    0.0000 C   0  0  0  0  0  0  0  0  0  0  0  0
    8.4282    0.0490    0.0000 C   0  0  0  0  0  0  0  0  0  0  0  0
    9.4282   -1.6830    0.0000 C   0  0  0  0  0  0  0  0  0  0  0  0
    6.3301   -0.3170    0.0000 C   0  0  0  0  0  0  0  0  0  0  0  0
    3.2320   -0.9510    0.0000 C   0  0  0  0  0  0  0  0  0  0  0  0
    4.2320   -2.6830    0.0000 C   0  0  0  0  0  0  0  0  0  0  0  0
    2.0000   -2.8170    0.0000 C   0  0  0  0  0  0  0  0  0  0  0  0
    2.3660   -1.4510    0.0000 C   0  0  0  0  0  0  0  0  0  0  0  0
    3.3660   -3.1830    0.0000 C   0  0  0  0  0  0  0  0  0  0  0  0
    5.4641   -2.8170    0.0000 C   0  0  0  0  0  0  0  0  0  0  0  0
    4.4641    1.1830    0.0000 C   0  0  0  0  0  0  0  0  0  0  0  0
    6.4641    1.1830    0.0000 C   0  0  0  0  0  0  0  0  0  0  0  0
    5.4641    3.1830    0.0000 C   0  0  0  0  0  0  0  0  0  0  0  0
    4.4641    2.1830    0.0000 C   0  0  0  0  0  0  0  0  0  0  0  0
    6.4641    2.1830    0.0000 C   0  0  0  0  0  0  0  0  0  0  0  0
    6.8671   -1.0070    0.0000 H   0  0  0  0  0  0  0  0  0  0  0  0
    7.1962   -2.4370    0.0000 H   0  0  0  0  0  0  0  0  0  0  0  0
    5.4641   -1.1970    0.0000 H   0  0  0  0  0  0  0  0  0  0  0  0
    8.0991   -0.1410    0.0000 H   0  0  0  0  0  0  0  0  0  0  0  0
    7.2522    0.0860    0.0000 H   0  0  0  0  0  0  0  0  0  0  0  0
    7.0252   -0.7610    0.0000 H   0  0  0  0  0  0  0  0  0  0  0  0
    8.0252   -2.4930    0.0000 H   0  0  0  0  0  0  0  0  0  0  0  0
    8.8722   -2.7200    0.0000 H   0  0  0  0  0  0  0  0  0  0  0  0
    9.0991   -1.8730    0.0000 H   0  0  0  0  0  0  0  0  0  0  0  0
   10.1042   -0.8539    0.0000 H   0  0  0  0  0  0  0  0  0  0  0  0
   10.3312   -0.0070    0.0000 H   0  0  0  0  0  0  0  0  0  0  0  0
    9.4842    0.2199    0.0000 H   0  0  0  0  0  0  0  0  0  0  0  0
    8.9651    0.3590    0.0000 H   0  0  0  0  0  0  0  0  0  0  0  0
    8.1182    0.5860    0.0000 H   0  0  0  0  0  0  0  0  0  0  0  0
    7.8913   -0.2610    0.0000 H   0  0  0  0  0  0  0  0  0  0  0  0
    8.8913   -1.9930    0.0000 H   0  0  0  0  0  0  0  0  0  0  0  0
    9.7382   -2.2200    0.0000 H   0  0  0  0  0  0  0  0  0  0  0  0
    9.9651   -1.3730    0.0000 H   0  0  0  0  0  0  0  0  0  0  0  0
    3.7690   -0.6410    0.0000 H   0  0  0  0  0  0  0  0  0  0  0  0
    2.9220   -0.4140    0.0000 H   0  0  0  0  0  0  0  0  0  0  0  0
    2.6951   -1.2610    0.0000 H   0  0  0  0  0  0  0  0  0  0  0  0
    3.6951   -2.9930    0.0000 H   0  0  0  0  0  0  0  0  0  0  0  0
    4.5420   -3.2200    0.0000 H   0  0  0  0  0  0  0  0  0  0  0  0
    4.7690   -2.3730    0.0000 H   0  0  0  0  0  0  0  0  0  0  0  0
    1.6900   -2.2800    0.0000 H   0  0  0  0  0  0  0  0  0  0  0  0
    1.4631   -3.1270    0.0000 H   0  0  0  0  0  0  0  0  0  0  0  0
    2.3100   -3.3539    0.0000 H   0  0  0  0  0  0  0  0  0  0  0  0
    2.9030   -1.1410    0.0000 H   0  0  0  0  0  0  0  0  0  0  0  0
    2.0560   -0.9140    0.0000 H   0  0  0  0  0  0  0  0  0  0  0  0
    1.8291   -1.7610    0.0000 H   0  0  0  0  0  0  0  0  0  0  0  0
    2.8291   -3.4930    0.0000 H   0  0  0  0  0  0  0  0  0  0  0  0
    3.6760   -3.7200    0.0000 H   0  0  0  0  0  0  0  0  0  0  0  0
    3.9030   -2.8730    0.0000 H   0  0  0  0  0  0  0  0  0  0  0  0
    4.8441   -2.8170    0.0000 H   0  0  0  0  0  0  0  0  0  0  0  0
    5.4641   -3.4370    0.0000 H   0  0  0  0  0  0  0  0  0  0  0  0
    6.0841   -2.8170    0.0000 H   0  0  0  0  0  0  0  0  0  0  0  0
    4.4641    1.8030    0.0000 H   0  0  0  0  0  0  0  0  0  0  0  0
    3.8441    1.1830    0.0000 H   0  0  0  0  0  0  0  0  0  0  0  0
    4.4641    0.5630    0.0000 H   0  0  0  0  0  0  0  0  0  0  0  0
    6.4641    0.5630    0.0000 H   0  0  0  0  0  0  0  0  0  0  0  0
    7.0841    1.1830    0.0000 H   0  0  0  0  0  0  0  0  0  0  0  0
    6.4641    1.8030    0.0000 H   0  0  0  0  0  0  0  0  0  0  0  0
    6.0841    3.1830    0.0000 H   0  0  0  0  0  0  0  0  0  0  0  0
    5.4641    3.8030    0.0000 H   0  0  0  0  0  0  0  0  0  0  0  0
    4.8441    3.1830    0.0000 H   0  0  0  0  0  0  0  0  0  0  0  0
    4.4641    2.8030    0.0000 H   0  0  0  0  0  0  0  0  0  0  0  0
    3.8441    2.1830    0.0000 H   0  0  0  0  0  0  0  0  0  0  0  0
    4.4641    1.5630    0.0000 H   0  0  0  0  0  0  0  0  0  0  0  0
    6.4641    1.5630    0.0000 H   0  0  0  0  0  0  0  0  0  0  0  0
    7.0841    2.1830    0.0000 H   0  0  0  0  0  0  0  0  0  0  0  0
    6.4641    2.8030    0.0000 H   0  0  0  0  0  0  0  0  0  0  0  0
  1  7  1  0  0  0  0
  1  8  1  0  0  0  0
  1 12  1  0  0  0  0
  1 13  1  0  0  0  0
  2  4  1  0  0  0  0
  2 10  1  0  0  0  0
  2 19  1  0  0  0  0
  2 20  1  0  0  0  0
  3  5  1  0  0  0  0
  3 14  1  0  0  0  0
  3 25  1  0  0  0  0
  3 26  1  0  0  0  0
  4 11  1  0  0  0  0
  5 18  1  0  0  0  0
  6 18  2  0  0  0  0
  7  9  1  0  0  0  0
  7 31  1  0  0  0  0
  8 15  1  0  0  0  0
  8 16  1  0  0  0  0
  8 17  1  0  0  0  0
  9 11  1  0  0  0  0
  9 18  1  0  0  0  0
  9 30  1  0  0  0  0
 10 21  1  0  0  0  0
 10 22  1  0  0  0  0
 10 23  1  0  0  0  0
 11 24  1  0  0  0  0
 11 32  1  0  0  0  0
 12 33  1  0  0  0  0
 12 34  1  0  0  0  0
 12 35  1  0  0  0  0
 13 36  1  0  0  0  0
 13 37  1  0  0  0  0
 13 38  1  0  0  0  0
 14 27  1  0  0  0  0
 14 28  1  0  0  0  0
 14 29  1  0  0  0  0
 15 39  1  0  0  0  0
 15 40  1  0  0  0  0
 15 41  1  0  0  0  0
 16 42  1  0  0  0  0
 16 43  1  0  0  0  0
 16 44  1  0  0  0  0
 17 45  1  0  0  0  0
 17 46  1  0  0  0  0
 17 47  1  0  0  0  0
 19 48  1  0  0  0  0
 19 49  1  0  0  0  0
 19 50  1  0  0  0  0
 20 51  1  0  0  0  0
 20 52  1  0  0  0  0
 20 53  1  0  0  0  0
 21 54  1  0  0  0  0
 21 55  1  0  0  0  0
 21 56  1  0  0  0  0
 22 57  1  0  0  0  0
 22 58  1  0  0  0  0
 22 59  1  0  0  0  0
 23 60  1  0  0  0  0
 23 61  1  0  0  0  0
 23 62  1  0  0  0  0
 24 63  1  0  0  0  0
 24 64  1  0  0  0  0
 24 65  1  0  0  0  0
 25 66  1  0  0  0  0
 25 67  1  0  0  0  0
 25 68  1  0  0  0  0
 26 69  1  0  0  0  0
 26 70  1  0  0  0  0
 26 71  1  0  0  0  0
 27 72  1  0  0  0  0
 27 73  1  0  0  0  0
 27 74  1  0  0  0  0
 28 75  1  0  0  0  0
 28 76  1  0  0  0  0
 28 77  1  0  0  0  0
 29 78  1  0  0  0  0
 29 79  1  0  0  0  0
 29 80  1  0  0  0  0
M  END
> <PUBCHEM_COMPOUND_CID>
528066
> <PUBCHEM_COMPOUND_CANONICALIZED>
1
> <PUBCHEM_CACTVS_COMPLEXITY>
567
> <PUBCHEM_CACTVS_HBOND_ACCEPTOR>
4
> <PUBCHEM_CACTVS_HBOND_DONOR>
1
> <PUBCHEM_CACTVS_ROTATABLE_BOND>
11
> <PUBCHEM_CACTVS_SUBSKEYS>
AAADcfB6MAwAAAAAAAAAAAAAAAAAAAAAAAAAAAAAAAAAAAAAAAAAHhARAEAADDzhoAZCCABAAAEIAACQCAAAAAAAAAAAAIGAAAACABQAAAAAAAAFMAAAAAAAAAAAAAAAAAAAAAAAAAAAAAAAAAAAAAAAAA==
> <PUBCHEM_IUPAC_OPENEYE_NAME>
[tert-butyl(dimethyl)silyl] 2-[[tert-butyl(dimethyl)silyl]amino]-3-[tert-butyl(dimethyl)silyl]oxy-butanoate
> <PUBCHEM_IUPAC_CAS_NAME>
2-[[tert-butyl(dimethyl)silyl]amino]-3-[tert-butyl(dimethyl)silyl]oxybutanoic acid [tert-butyl(dimethyl)silyl] ester
> <PUBCHEM_IUPAC_NAME_MARKUP>
[<I>tert</I>-butyl(dimethyl)silyl] 2-[[<I>tert</I>-butyl(dimethyl)silyl]amino]-3-[<I>tert</I>-butyl(dimethyl)silyl]oxybutanoate
> <PUBCHEM_IUPAC_NAME>
[tert-butyl(dimethyl)silyl] 2-[[tert-butyl(dimethyl)silyl]amino]-3-[tert-butyl(dimethyl)silyl]oxybutanoate
> <PUBCHEM_IUPAC_SYSTEMATIC_NAME>
[tert-butyl(dimethyl)silyl] 2-[[tert-butyl(dimethyl)silyl]amino]-3-[tert-butyl(dimethyl)silyl]oxy-butanoate
> <PUBCHEM_IUPAC_TRADITIONAL_NAME>
2-[[tert-butyl(dimethyl)silyl]amino]-3-[tert-butyl(dimethyl)silyl]oxy-butyric acid [tert-butyl(dimethyl)silyl] ester
> <PUBCHEM_IUPAC_INCHI>
InChI=1S/C22H51NO3Si3/c1-17(25-28(13,14)21(5,6)7)18(23-27(11,12)20(2,3)4)19(24)26-29(15,16)22(8,9)10/h17-18,23H,1-16H3
> <PUBCHEM_IUPAC_INCHIKEY>
DUARMRXEYAQNOD-UHFFFAOYSA-N
> <PUBCHEM_EXACT_MASS>
461.31767409
> <PUBCHEM_MOLECULAR_FORMULA>
C22H51NO3Si3
> <PUBCHEM_MOLECULAR_WEIGHT>
461.9
> <PUBCHEM_OPENEYE_CAN_SMILES>
CC(C(C(=O)O[Si](C)(C)C(C)(C)C)N[Si](C)(C)C(C)(C)C)O[Si](C)(C)C(C)(C)C
> <PUBCHEM_OPENEYE_ISO_SMILES>
CC(C(C(=O)O[Si](C)(C)C(C)(C)C)N[Si](C)(C)C(C)(C)C)O[Si](C)(C)C(C)(C)C
> <PUBCHEM_CACTVS_TPSA>
47.6
> <PUBCHEM_MONOISOTOPIC_WEIGHT>
461.31767409
> <PUBCHEM_TOTAL_CHARGE>
0
> <PUBCHEM_HEAVY_ATOM_COUNT>
29
> <PUBCHEM_ATOM_DEF_STEREO_COUNT>
0
> <PUBCHEM_ATOM_UDEF_STEREO_COUNT>
2
> <PUBCHEM_BOND_DEF_STEREO_COUNT>
0
> <PUBCHEM_BOND_UDEF_STEREO_COUNT>
0
> <PUBCHEM_ISOTOPIC_ATOM_COUNT>
0
> <PUBCHEM_COMPONENT_COUNT>
1
> <PUBCHEM_CACTVS_TAUTO_COUNT>
-1
> <PUBCHEM_COORDINATE_TYPE>
1
5
255
> <PUBCHEM_BONDANNOTATIONS>
11  24  3
9  18  3
$$$$
