528042
  -OEChem-10302200292D
122125  0     1  0  0  0  0  0999 V2000
    9.7968    2.3347    0.0000 Si  0  0  0  0  0  0  0  0  0  0  0  0
    6.5232    1.5790    0.0000 Si  0  0  0  0  0  0  0  0  0  0  0  0
   12.5614   -0.7318    0.0000 Si  0  0  0  0  0  0  0  0  0  0  0  0
    2.8641   -2.4699    0.0000 Si  0  0  0  0  0  0  0  0  0  0  0  0
   12.8735    2.4151    0.0000 Si  0  0  0  0  0  0  0  0  0  0  0  0
    9.7601    1.3354    0.0000 O   0  0  0  0  0  0  0  0  0  0  0  0
    6.5232    0.5791    0.0000 O   0  0  0  0  0  0  0  0  0  0  0  0
   11.6486   -0.3234    0.0000 O   0  0  0  0  0  0  0  0  0  0  0  0
    3.7282   -2.9733    0.0000 O   0  0  0  0  0  0  0  0  0  0  0  0
   12.4652    1.5022    0.0000 O   0  0  0  0  0  0  0  0  0  0  0  0
    9.1213    0.0791    0.0000 C   0  0  3  0  0  0  0  0  0  0  0  0
    9.1213   -0.9209    0.0000 C   0  0  3  0  0  0  0  0  0  0  0  0
    8.2552   -1.4210    0.0000 C   0  0  3  0  0  0  0  0  0  0  0  0
    7.3892   -0.9209    0.0000 C   0  0  3  0  0  0  0  0  0  0  0  0
    6.4792   -1.4278    0.0000 C   0  0  3  0  0  0  0  0  0  0  0  0
   10.0675    0.3838    0.0000 C   0  0  3  0  0  0  0  0  0  0  0  0
    7.3892    0.0791    0.0000 C   0  0  3  0  0  0  0  0  0  0  0  0
    8.2552    0.5791    0.0000 C   0  0  0  0  0  0  0  0  0  0  0  0
    6.4712   -2.4694    0.0000 C   0  0  3  0  0  0  0  0  0  0  0  0
   10.0675   -1.2257    0.0000 C   0  0  0  0  0  0  0  0  0  0  0  0
    8.2713   -2.4624    0.0000 C   0  0  0  0  0  0  0  0  0  0  0  0
   10.6511   -0.4209    0.0000 C   0  0  0  0  0  0  0  0  0  0  0  0
    7.3733   -2.9902    0.0000 C   0  0  0  0  0  0  0  0  0  0  0  0
    5.5524   -0.8637    0.0000 C   0  0  0  0  0  0  0  0  0  0  0  0
    9.1213    1.0790    0.0000 C   0  0  0  0  0  0  0  0  0  0  0  0
   11.0622    0.4866    0.0000 C   0  0  3  0  0  0  0  0  0  0  0  0
    5.5358   -3.0191    0.0000 C   0  0  0  0  0  0  0  0  0  0  0  0
    6.4869   -0.4278    0.0000 C   0  0  0  0  0  0  0  0  0  0  0  0
    4.6045   -1.3917    0.0000 C   0  0  0  0  0  0  0  0  0  0  0  0
    4.5961   -2.4766    0.0000 C   0  0  3  0  0  0  0  0  0  0  0  0
   11.4705    1.3994    0.0000 C   0  0  0  0  0  0  0  0  0  0  0  0
    8.7974    2.3713    0.0000 C   0  0  0  0  0  0  0  0  0  0  0  0
    9.8334    3.3340    0.0000 C   0  0  0  0  0  0  0  0  0  0  0  0
   10.7961    2.2981    0.0000 C   0  0  0  0  0  0  0  0  0  0  0  0
    6.5232    2.5790    0.0000 C   0  0  0  0  0  0  0  0  0  0  0  0
    5.5232    1.5790    0.0000 C   0  0  0  0  0  0  0  0  0  0  0  0
    7.5232    1.5790    0.0000 C   0  0  0  0  0  0  0  0  0  0  0  0
   13.4743   -1.1401    0.0000 C   0  0  0  0  0  0  0  0  0  0  0  0
   12.1531   -1.6446    0.0000 C   0  0  0  0  0  0  0  0  0  0  0  0
   12.9697    0.1811    0.0000 C   0  0  0  0  0  0  0  0  0  0  0  0
    2.0000   -1.9666    0.0000 C   0  0  0  0  0  0  0  0  0  0  0  0
    2.3608   -3.3340    0.0000 C   0  0  0  0  0  0  0  0  0  0  0  0
    3.3674   -1.6058    0.0000 C   0  0  0  0  0  0  0  0  0  0  0  0
   13.2818    3.3279    0.0000 C   0  0  0  0  0  0  0  0  0  0  0  0
   13.7864    2.0068    0.0000 C   0  0  0  0  0  0  0  0  0  0  0  0
   11.9607    2.8234    0.0000 C   0  0  0  0  0  0  0  0  0  0  0  0
    9.1869   -1.5375    0.0000 H   0  0  0  0  0  0  0  0  0  0  0  0
    8.7945   -1.7268    0.0000 H   0  0  0  0  0  0  0  0  0  0  0  0
    7.9262   -0.6109    0.0000 H   0  0  0  0  0  0  0  0  0  0  0  0
    7.3892    0.6991    0.0000 H   0  0  0  0  0  0  0  0  0  0  0  0
    8.6538    1.0540    0.0000 H   0  0  0  0  0  0  0  0  0  0  0  0
    7.8567    1.0540    0.0000 H   0  0  0  0  0  0  0  0  0  0  0  0
    6.4736   -3.0894    0.0000 H   0  0  0  0  0  0  0  0  0  0  0  0
    9.8164   -1.7926    0.0000 H   0  0  0  0  0  0  0  0  0  0  0  0
   10.6049   -1.5349    0.0000 H   0  0  0  0  0  0  0  0  0  0  0  0
    8.4893   -3.0428    0.0000 H   0  0  0  0  0  0  0  0  0  0  0  0
    8.8804   -2.3470    0.0000 H   0  0  0  0  0  0  0  0  0  0  0  0
   11.1120   -0.8357    0.0000 H   0  0  0  0  0  0  0  0  0  0  0  0
   11.1120   -0.0062    0.0000 H   0  0  0  0  0  0  0  0  0  0  0  0
    6.9760   -3.4662    0.0000 H   0  0  0  0  0  0  0  0  0  0  0  0
    7.7742   -3.4631    0.0000 H   0  0  0  0  0  0  0  0  0  0  0  0
    5.9606   -0.3971    0.0000 H   0  0  0  0  0  0  0  0  0  0  0  0
    5.1625   -0.3817    0.0000 H   0  0  0  0  0  0  0  0  0  0  0  0
    9.7413    1.0790    0.0000 H   0  0  0  0  0  0  0  0  0  0  0  0
    9.1213    1.6990    0.0000 H   0  0  0  0  0  0  0  0  0  0  0  0
    8.5013    1.0790    0.0000 H   0  0  0  0  0  0  0  0  0  0  0  0
   11.6789    0.5503    0.0000 H   0  0  0  0  0  0  0  0  0  0  0  0
    5.1385   -3.4951    0.0000 H   0  0  0  0  0  0  0  0  0  0  0  0
    5.9367   -3.4920    0.0000 H   0  0  0  0  0  0  0  0  0  0  0  0
    7.1069   -0.4326    0.0000 H   0  0  0  0  0  0  0  0  0  0  0  0
    6.4917    0.1922    0.0000 H   0  0  0  0  0  0  0  0  0  0  0  0
    5.8669   -0.4230    0.0000 H   0  0  0  0  0  0  0  0  0  0  0  0
    4.3999   -0.8064    0.0000 H   0  0  0  0  0  0  0  0  0  0  0  0
    3.9928   -1.4930    0.0000 H   0  0  0  0  0  0  0  0  0  0  0  0
    4.5949   -3.0966    0.0000 H   0  0  0  0  0  0  0  0  0  0  0  0
   11.5148    2.0178    0.0000 H   0  0  0  0  0  0  0  0  0  0  0  0
   10.8692    1.5505    0.0000 H   0  0  0  0  0  0  0  0  0  0  0  0
    8.8201    2.9909    0.0000 H   0  0  0  0  0  0  0  0  0  0  0  0
    8.1778    2.3940    0.0000 H   0  0  0  0  0  0  0  0  0  0  0  0
    8.7747    1.7518    0.0000 H   0  0  0  0  0  0  0  0  0  0  0  0
   10.4530    3.3113    0.0000 H   0  0  0  0  0  0  0  0  0  0  0  0
    9.8561    3.9536    0.0000 H   0  0  0  0  0  0  0  0  0  0  0  0
    9.2138    3.3567    0.0000 H   0  0  0  0  0  0  0  0  0  0  0  0
   10.7734    1.6785    0.0000 H   0  0  0  0  0  0  0  0  0  0  0  0
   11.4157    2.2754    0.0000 H   0  0  0  0  0  0  0  0  0  0  0  0
   10.8188    2.9177    0.0000 H   0  0  0  0  0  0  0  0  0  0  0  0
    7.1432    2.5790    0.0000 H   0  0  0  0  0  0  0  0  0  0  0  0
    6.5232    3.1990    0.0000 H   0  0  0  0  0  0  0  0  0  0  0  0
    5.9032    2.5790    0.0000 H   0  0  0  0  0  0  0  0  0  0  0  0
    5.5232    2.1990    0.0000 H   0  0  0  0  0  0  0  0  0  0  0  0
    4.9032    1.5790    0.0000 H   0  0  0  0  0  0  0  0  0  0  0  0
    5.5232    0.9591    0.0000 H   0  0  0  0  0  0  0  0  0  0  0  0
    7.5232    0.9591    0.0000 H   0  0  0  0  0  0  0  0  0  0  0  0
    8.1432    1.5790    0.0000 H   0  0  0  0  0  0  0  0  0  0  0  0
    7.5232    2.1990    0.0000 H   0  0  0  0  0  0  0  0  0  0  0  0
   13.2211   -1.7060    0.0000 H   0  0  0  0  0  0  0  0  0  0  0  0
   14.0402   -1.3932    0.0000 H   0  0  0  0  0  0  0  0  0  0  0  0
   13.7274   -0.5741    0.0000 H   0  0  0  0  0  0  0  0  0  0  0  0
   11.5871   -1.3914    0.0000 H   0  0  0  0  0  0  0  0  0  0  0  0
   11.8999   -2.2106    0.0000 H   0  0  0  0  0  0  0  0  0  0  0  0
   12.7191   -1.8978    0.0000 H   0  0  0  0  0  0  0  0  0  0  0  0
   13.5357   -0.0721    0.0000 H   0  0  0  0  0  0  0  0  0  0  0  0
   13.2229    0.7470    0.0000 H   0  0  0  0  0  0  0  0  0  0  0  0
   12.4038    0.4342    0.0000 H   0  0  0  0  0  0  0  0  0  0  0  0
    2.3121   -1.4309    0.0000 H   0  0  0  0  0  0  0  0  0  0  0  0
    1.4643   -1.6545    0.0000 H   0  0  0  0  0  0  0  0  0  0  0  0
    1.6879   -2.5024    0.0000 H   0  0  0  0  0  0  0  0  0  0  0  0
    1.8250   -3.0220    0.0000 H   0  0  0  0  0  0  0  0  0  0  0  0
    2.0487   -3.8698    0.0000 H   0  0  0  0  0  0  0  0  0  0  0  0
    2.8965   -3.6461    0.0000 H   0  0  0  0  0  0  0  0  0  0  0  0
    3.9032   -1.9179    0.0000 H   0  0  0  0  0  0  0  0  0  0  0  0
    3.6795   -1.0701    0.0000 H   0  0  0  0  0  0  0  0  0  0  0  0
    2.8317   -1.2938    0.0000 H   0  0  0  0  0  0  0  0  0  0  0  0
   13.8478    3.0748    0.0000 H   0  0  0  0  0  0  0  0  0  0  0  0
   13.5350    3.8939    0.0000 H   0  0  0  0  0  0  0  0  0  0  0  0
   12.7159    3.5811    0.0000 H   0  0  0  0  0  0  0  0  0  0  0  0
   13.5332    1.4408    0.0000 H   0  0  0  0  0  0  0  0  0  0  0  0
   14.3523    1.7536    0.0000 H   0  0  0  0  0  0  0  0  0  0  0  0
   14.0395    2.5727    0.0000 H   0  0  0  0  0  0  0  0  0  0  0  0
   12.2138    3.3894    0.0000 H   0  0  0  0  0  0  0  0  0  0  0  0
   11.3947    3.0766    0.0000 H   0  0  0  0  0  0  0  0  0  0  0  0
   11.7075    2.2574    0.0000 H   0  0  0  0  0  0  0  0  0  0  0  0
  1  6  1  0  0  0  0
  1 32  1  0  0  0  0
  1 33  1  0  0  0  0
  1 34  1  0  0  0  0
  2  7  1  0  0  0  0
  2 35  1  0  0  0  0
  2 36  1  0  0  0  0
  2 37  1  0  0  0  0
  3  8  1  0  0  0  0
  3 38  1  0  0  0  0
  3 39  1  0  0  0  0
  3 40  1  0  0  0  0
  4  9  1  0  0  0  0
  4 41  1  0  0  0  0
  4 42  1  0  0  0  0
  4 43  1  0  0  0  0
  5 10  1  0  0  0  0
  5 44  1  0  0  0  0
  5 45  1  0  0  0  0
  5 46  1  0  0  0  0
  6 16  1  0  0  0  0
  7 17  1  0  0  0  0
  8 26  1  0  0  0  0
  9 30  1  0  0  0  0
 10 31  1  0  0  0  0
 11 12  1  0  0  0  0
 11 16  1  0  0  0  0
 11 18  1  0  0  0  0
 11 25  1  0  0  0  0
 12 13  1  0  0  0  0
 12 20  1  0  0  0  0
 12 47  1  0  0  0  0
 13 14  1  0  0  0  0
 13 21  1  0  0  0  0
 13 48  1  0  0  0  0
 14 15  1  0  0  0  0
 14 17  1  0  0  0  0
 14 49  1  0  0  0  0
 15 19  1  0  0  0  0
 15 24  1  0  0  0  0
 15 28  1  0  0  0  0
 16 22  1  0  0  0  0
 16 26  1  0  0  0  0
 17 18  1  0  0  0  0
 17 50  1  0  0  0  0
 18 51  1  0  0  0  0
 18 52  1  0  0  0  0
 19 23  1  0  0  0  0
 19 27  1  0  0  0  0
 19 53  1  0  0  0  0
 20 22  1  0  0  0  0
 20 54  1  0  0  0  0
 20 55  1  0  0  0  0
 21 23  1  0  0  0  0
 21 56  1  0  0  0  0
 21 57  1  0  0  0  0
 22 58  1  0  0  0  0
 22 59  1  0  0  0  0
 23 60  1  0  0  0  0
 23 61  1  0  0  0  0
 24 29  1  0  0  0  0
 24 62  1  0  0  0  0
 24 63  1  0  0  0  0
 25 64  1  0  0  0  0
 25 65  1  0  0  0  0
 25 66  1  0  0  0  0
 26 31  1  0  0  0  0
 26 67  1  0  0  0  0
 27 30  1  0  0  0  0
 27 68  1  0  0  0  0
 27 69  1  0  0  0  0
 28 70  1  0  0  0  0
 28 71  1  0  0  0  0
 28 72  1  0  0  0  0
 29 30  1  0  0  0  0
 29 73  1  0  0  0  0
 29 74  1  0  0  0  0
 30 75  1  0  0  0  0
 31 76  1  0  0  0  0
 31 77  1  0  0  0  0
 32 78  1  0  0  0  0
 32 79  1  0  0  0  0
 32 80  1  0  0  0  0
 33 81  1  0  0  0  0
 33 82  1  0  0  0  0
 33 83  1  0  0  0  0
 34 84  1  0  0  0  0
 34 85  1  0  0  0  0
 34 86  1  0  0  0  0
 35 87  1  0  0  0  0
 35 88  1  0  0  0  0
 35 89  1  0  0  0  0
 36 90  1  0  0  0  0
 36 91  1  0  0  0  0
 36 92  1  0  0  0  0
 37 93  1  0  0  0  0
 37 94  1  0  0  0  0
 37 95  1  0  0  0  0
 38 96  1  0  0  0  0
 38 97  1  0  0  0  0
 38 98  1  0  0  0  0
 39 99  1  0  0  0  0
 39100  1  0  0  0  0
 39101  1  0  0  0  0
 40102  1  0  0  0  0
 40103  1  0  0  0  0
 40104  1  0  0  0  0
 41105  1  0  0  0  0
 41106  1  0  0  0  0
 41107  1  0  0  0  0
 42108  1  0  0  0  0
 42109  1  0  0  0  0
 42110  1  0  0  0  0
 43111  1  0  0  0  0
 43112  1  0  0  0  0
 43113  1  0  0  0  0
 44114  1  0  0  0  0
 44115  1  0  0  0  0
 44116  1  0  0  0  0
 45117  1  0  0  0  0
 45118  1  0  0  0  0
 45119  1  0  0  0  0
 46120  1  0  0  0  0
 46121  1  0  0  0  0
 46122  1  0  0  0  0
M  END
> <PUBCHEM_COMPOUND_CID>
528042
> <PUBCHEM_COMPOUND_CANONICALIZED>
1
> <PUBCHEM_CACTVS_COMPLEXITY>
1060
> <PUBCHEM_CACTVS_HBOND_ACCEPTOR>
5
> <PUBCHEM_CACTVS_HBOND_DONOR>
0
> <PUBCHEM_CACTVS_ROTATABLE_BOND>
12
> <PUBCHEM_CACTVS_SUBSKEYS>
AAADcfB8OAwAAAAAAAAAAAAAAAAAAYAAAAAwYMAAAAAAAGDAAAAAGhAAAEAAD1SggAJCAAAAAAEAAAAAAAAAAAAAAAAAAAAAAAABAAIAAAAAAAAFAAAAAAHA4PQPgAAAAAAAAADAAAYAADAAAYAADAAAAA==
> <PUBCHEM_IUPAC_OPENEYE_NAME>
[17-[1,2-bis(trimethylsilyloxy)ethyl]-10,13-dimethyl-3,11-bis(trimethylsilyloxy)-1,2,3,4,5,6,7,8,9,11,12,14,15,16-tetradecahydrocyclopenta[a]phenanthren-17-yl]oxy-trimethyl-silane
> <PUBCHEM_IUPAC_CAS_NAME>
[17-[1,2-bis(trimethylsilyloxy)ethyl]-10,13-dimethyl-3,11-bis(trimethylsilyloxy)-1,2,3,4,5,6,7,8,9,11,12,14,15,16-tetradecahydrocyclopenta[a]phenanthren-17-yl]oxy-trimethylsilane
> <PUBCHEM_IUPAC_NAME_MARKUP>
[17-[1,2-bis(trimethylsilyloxy)ethyl]-10,13-dimethyl-3,11-bis(trimethylsilyloxy)-1,2,3,4,5,6,7,8,9,11,12,14,15,16-tetradecahydrocyclopenta[a]phenanthren-17-yl]oxy-trimethylsilane
> <PUBCHEM_IUPAC_NAME>
[17-[1,2-bis(trimethylsilyloxy)ethyl]-10,13-dimethyl-3,11-bis(trimethylsilyloxy)-1,2,3,4,5,6,7,8,9,11,12,14,15,16-tetradecahydrocyclopenta[a]phenanthren-17-yl]oxy-trimethylsilane
> <PUBCHEM_IUPAC_SYSTEMATIC_NAME>
[17-[1,2-bis(trimethylsilyloxy)ethyl]-10,13-dimethyl-3,11-bis(trimethylsilyloxy)-1,2,3,4,5,6,7,8,9,11,12,14,15,16-tetradecahydrocyclopenta[a]phenanthren-17-yl]oxy-trimethyl-silane
> <PUBCHEM_IUPAC_TRADITIONAL_NAME>
[17-[1,2-bis(trimethylsilyloxy)ethyl]-10,13-dimethyl-3,11-bis(trimethylsilyloxy)-1,2,3,4,5,6,7,8,9,11,12,14,15,16-tetradecahydrocyclopenta[a]phenanthren-17-yl]oxy-trimethyl-silane
> <PUBCHEM_IUPAC_INCHI>
InChI=1S/C36H76O5Si5/c1-34-22-20-28(38-43(6,7)8)24-27(34)18-19-29-30-21-23-36(41-46(15,16)17,32(40-45(12,13)14)26-37-42(3,4)5)35(30,2)25-31(33(29)34)39-44(9,10)11/h27-33H,18-26H2,1-17H3
> <PUBCHEM_IUPAC_INCHIKEY>
DUBRZSYNDDSLBA-UHFFFAOYSA-N
> <PUBCHEM_EXACT_MASS>
728.45390819
> <PUBCHEM_MOLECULAR_FORMULA>
C36H76O5Si5
> <PUBCHEM_MOLECULAR_WEIGHT>
729.4
> <PUBCHEM_OPENEYE_CAN_SMILES>
CC12CCC(CC1CCC3C2C(CC4(C3CCC4(C(CO[Si](C)(C)C)O[Si](C)(C)C)O[Si](C)(C)C)C)O[Si](C)(C)C)O[Si](C)(C)C
> <PUBCHEM_OPENEYE_ISO_SMILES>
CC12CCC(CC1CCC3C2C(CC4(C3CCC4(C(CO[Si](C)(C)C)O[Si](C)(C)C)O[Si](C)(C)C)C)O[Si](C)(C)C)O[Si](C)(C)C
> <PUBCHEM_CACTVS_TPSA>
46.2
> <PUBCHEM_MONOISOTOPIC_WEIGHT>
728.45390819
> <PUBCHEM_TOTAL_CHARGE>
0
> <PUBCHEM_HEAVY_ATOM_COUNT>
46
> <PUBCHEM_ATOM_DEF_STEREO_COUNT>
0
> <PUBCHEM_ATOM_UDEF_STEREO_COUNT>
10
> <PUBCHEM_BOND_DEF_STEREO_COUNT>
0
> <PUBCHEM_BOND_UDEF_STEREO_COUNT>
0
> <PUBCHEM_ISOTOPIC_ATOM_COUNT>
0
> <PUBCHEM_COMPONENT_COUNT>
1
> <PUBCHEM_CACTVS_TAUTO_COUNT>
-1
> <PUBCHEM_COORDINATE_TYPE>
1
5
255
> <PUBCHEM_BONDANNOTATIONS>
11  25  3
12  20  3
13  21  3
14  17  3
15  28  3
16  26  3
19  23  3
26  31  3
17  7  3
30  9  3
$$$$
