528057
  -OEChem-10302200292D
 82 81  0     1  0  0  0  0  0999 V2000
    8.0622   -2.0670    0.0000 Si  0  0  0  0  0  0  0  0  0  0  0  0
    3.7320   -2.5670    0.0000 Si  0  0  0  0  0  0  0  0  0  0  0  0
    4.5981    1.9330    0.0000 Si  0  0  0  0  0  0  0  0  0  0  0  0
    4.5981   -2.0670    0.0000 O   0  0  0  0  0  0  0  0  0  0  0  0
    4.5981    0.9330    0.0000 O   0  0  0  0  0  0  0  0  0  0  0  0
    5.4641   -3.5670    0.0000 O   0  0  0  0  0  0  0  0  0  0  0  0
    6.3301    0.9330    0.0000 O   0  0  0  0  0  0  0  0  0  0  0  0
    7.1962   -2.5670    0.0000 N   0  0  0  0  0  0  0  0  0  0  0  0
    8.9282   -1.5670    0.0000 C   0  0  0  0  0  0  0  0  0  0  0  0
    6.3301   -2.0670    0.0000 C   0  0  3  0  0  0  0  0  0  0  0  0
    7.5622   -1.2010    0.0000 C   0  0  0  0  0  0  0  0  0  0  0  0
    8.5622   -2.9330    0.0000 C   0  0  0  0  0  0  0  0  0  0  0  0
    2.8660   -3.0670    0.0000 C   0  0  0  0  0  0  0  0  0  0  0  0
    9.7942   -1.0670    0.0000 C   0  0  0  0  0  0  0  0  0  0  0  0
    8.4282   -0.7010    0.0000 C   0  0  0  0  0  0  0  0  0  0  0  0
    9.4282   -2.4330    0.0000 C   0  0  0  0  0  0  0  0  0  0  0  0
    6.3301   -1.0670    0.0000 C   0  0  0  0  0  0  0  0  0  0  0  0
    4.5981    2.9330    0.0000 C   0  0  0  0  0  0  0  0  0  0  0  0
    5.4641   -2.5670    0.0000 C   0  0  0  0  0  0  0  0  0  0  0  0
    5.4641   -0.5670    0.0000 C   0  0  0  0  0  0  0  0  0  0  0  0
    3.2320   -1.7010    0.0000 C   0  0  0  0  0  0  0  0  0  0  0  0
    4.2320   -3.4330    0.0000 C   0  0  0  0  0  0  0  0  0  0  0  0
    2.0000   -3.5670    0.0000 C   0  0  0  0  0  0  0  0  0  0  0  0
    2.3660   -2.2010    0.0000 C   0  0  0  0  0  0  0  0  0  0  0  0
    3.3660   -3.9330    0.0000 C   0  0  0  0  0  0  0  0  0  0  0  0
    4.5981    3.9330    0.0000 C   0  0  0  0  0  0  0  0  0  0  0  0
    3.5981    2.9330    0.0000 C   0  0  0  0  0  0  0  0  0  0  0  0
    5.5981    2.9330    0.0000 C   0  0  0  0  0  0  0  0  0  0  0  0
    3.5981    1.9330    0.0000 C   0  0  0  0  0  0  0  0  0  0  0  0
    5.5981    1.9330    0.0000 C   0  0  0  0  0  0  0  0  0  0  0  0
    5.4641    0.4330    0.0000 C   0  0  0  0  0  0  0  0  0  0  0  0
    7.1962   -3.1870    0.0000 H   0  0  0  0  0  0  0  0  0  0  0  0
    6.8671   -1.7570    0.0000 H   0  0  0  0  0  0  0  0  0  0  0  0
    8.0991   -0.8910    0.0000 H   0  0  0  0  0  0  0  0  0  0  0  0
    7.2522   -0.6640    0.0000 H   0  0  0  0  0  0  0  0  0  0  0  0
    7.0252   -1.5110    0.0000 H   0  0  0  0  0  0  0  0  0  0  0  0
    8.0252   -3.2430    0.0000 H   0  0  0  0  0  0  0  0  0  0  0  0
    8.8722   -3.4700    0.0000 H   0  0  0  0  0  0  0  0  0  0  0  0
    9.0991   -2.6230    0.0000 H   0  0  0  0  0  0  0  0  0  0  0  0
   10.1042   -1.6039    0.0000 H   0  0  0  0  0  0  0  0  0  0  0  0
   10.3312   -0.7570    0.0000 H   0  0  0  0  0  0  0  0  0  0  0  0
    9.4842   -0.5301    0.0000 H   0  0  0  0  0  0  0  0  0  0  0  0
    8.9651   -0.3910    0.0000 H   0  0  0  0  0  0  0  0  0  0  0  0
    8.1182   -0.1640    0.0000 H   0  0  0  0  0  0  0  0  0  0  0  0
    7.8913   -1.0110    0.0000 H   0  0  0  0  0  0  0  0  0  0  0  0
    8.8913   -2.7430    0.0000 H   0  0  0  0  0  0  0  0  0  0  0  0
    9.7382   -2.9700    0.0000 H   0  0  0  0  0  0  0  0  0  0  0  0
    9.9651   -2.1230    0.0000 H   0  0  0  0  0  0  0  0  0  0  0  0
    6.9407   -1.1746    0.0000 H   0  0  0  0  0  0  0  0  0  0  0  0
    6.5422   -0.4844    0.0000 H   0  0  0  0  0  0  0  0  0  0  0  0
    4.8535   -0.4593    0.0000 H   0  0  0  0  0  0  0  0  0  0  0  0
    5.2520   -1.1496    0.0000 H   0  0  0  0  0  0  0  0  0  0  0  0
    3.7690   -1.3910    0.0000 H   0  0  0  0  0  0  0  0  0  0  0  0
    2.9220   -1.1640    0.0000 H   0  0  0  0  0  0  0  0  0  0  0  0
    2.6951   -2.0110    0.0000 H   0  0  0  0  0  0  0  0  0  0  0  0
    3.6951   -3.7430    0.0000 H   0  0  0  0  0  0  0  0  0  0  0  0
    4.5420   -3.9700    0.0000 H   0  0  0  0  0  0  0  0  0  0  0  0
    4.7690   -3.1230    0.0000 H   0  0  0  0  0  0  0  0  0  0  0  0
    1.6900   -3.0300    0.0000 H   0  0  0  0  0  0  0  0  0  0  0  0
    1.4631   -3.8770    0.0000 H   0  0  0  0  0  0  0  0  0  0  0  0
    2.3100   -4.1039    0.0000 H   0  0  0  0  0  0  0  0  0  0  0  0
    2.9030   -1.8910    0.0000 H   0  0  0  0  0  0  0  0  0  0  0  0
    2.0560   -1.6640    0.0000 H   0  0  0  0  0  0  0  0  0  0  0  0
    1.8291   -2.5110    0.0000 H   0  0  0  0  0  0  0  0  0  0  0  0
    2.8291   -4.2430    0.0000 H   0  0  0  0  0  0  0  0  0  0  0  0
    3.6760   -4.4700    0.0000 H   0  0  0  0  0  0  0  0  0  0  0  0
    3.9030   -3.6230    0.0000 H   0  0  0  0  0  0  0  0  0  0  0  0
    5.2181    3.9330    0.0000 H   0  0  0  0  0  0  0  0  0  0  0  0
    4.5981    4.5530    0.0000 H   0  0  0  0  0  0  0  0  0  0  0  0
    3.9781    3.9330    0.0000 H   0  0  0  0  0  0  0  0  0  0  0  0
    3.5981    3.5530    0.0000 H   0  0  0  0  0  0  0  0  0  0  0  0
    2.9781    2.9330    0.0000 H   0  0  0  0  0  0  0  0  0  0  0  0
    3.5981    2.3130    0.0000 H   0  0  0  0  0  0  0  0  0  0  0  0
    5.5981    2.3130    0.0000 H   0  0  0  0  0  0  0  0  0  0  0  0
    6.2181    2.9330    0.0000 H   0  0  0  0  0  0  0  0  0  0  0  0
    5.5981    3.5530    0.0000 H   0  0  0  0  0  0  0  0  0  0  0  0
    3.5981    2.5530    0.0000 H   0  0  0  0  0  0  0  0  0  0  0  0
    2.9781    1.9330    0.0000 H   0  0  0  0  0  0  0  0  0  0  0  0
    3.5981    1.3130    0.0000 H   0  0  0  0  0  0  0  0  0  0  0  0
    5.5981    1.3130    0.0000 H   0  0  0  0  0  0  0  0  0  0  0  0
    6.2181    1.9330    0.0000 H   0  0  0  0  0  0  0  0  0  0  0  0
    5.5981    2.5530    0.0000 H   0  0  0  0  0  0  0  0  0  0  0  0
  1  8  1  0  0  0  0
  1  9  1  0  0  0  0
  1 11  1  0  0  0  0
  1 12  1  0  0  0  0
  2  4  1  0  0  0  0
  2 13  1  0  0  0  0
  2 21  1  0  0  0  0
  2 22  1  0  0  0  0
  3  5  1  0  0  0  0
  3 18  1  0  0  0  0
  3 29  1  0  0  0  0
  3 30  1  0  0  0  0
  4 19  1  0  0  0  0
  5 31  1  0  0  0  0
  6 19  2  0  0  0  0
  7 31  2  0  0  0  0
  8 10  1  0  0  0  0
  8 32  1  0  0  0  0
  9 14  1  0  0  0  0
  9 15  1  0  0  0  0
  9 16  1  0  0  0  0
 10 17  1  0  0  0  0
 10 19  1  0  0  0  0
 10 33  1  0  0  0  0
 11 34  1  0  0  0  0
 11 35  1  0  0  0  0
 11 36  1  0  0  0  0
 12 37  1  0  0  0  0
 12 38  1  0  0  0  0
 12 39  1  0  0  0  0
 13 23  1  0  0  0  0
 13 24  1  0  0  0  0
 13 25  1  0  0  0  0
 14 40  1  0  0  0  0
 14 41  1  0  0  0  0
 14 42  1  0  0  0  0
 15 43  1  0  0  0  0
 15 44  1  0  0  0  0
 15 45  1  0  0  0  0
 16 46  1  0  0  0  0
 16 47  1  0  0  0  0
 16 48  1  0  0  0  0
 17 20  1  0  0  0  0
 17 49  1  0  0  0  0
 17 50  1  0  0  0  0
 18 26  1  0  0  0  0
 18 27  1  0  0  0  0
 18 28  1  0  0  0  0
 20 31  1  0  0  0  0
 20 51  1  0  0  0  0
 20 52  1  0  0  0  0
 21 53  1  0  0  0  0
 21 54  1  0  0  0  0
 21 55  1  0  0  0  0
 22 56  1  0  0  0  0
 22 57  1  0  0  0  0
 22 58  1  0  0  0  0
 23 59  1  0  0  0  0
 23 60  1  0  0  0  0
 23 61  1  0  0  0  0
 24 62  1  0  0  0  0
 24 63  1  0  0  0  0
 24 64  1  0  0  0  0
 25 65  1  0  0  0  0
 25 66  1  0  0  0  0
 25 67  1  0  0  0  0
 26 68  1  0  0  0  0
 26 69  1  0  0  0  0
 26 70  1  0  0  0  0
 27 71  1  0  0  0  0
 27 72  1  0  0  0  0
 27 73  1  0  0  0  0
 28 74  1  0  0  0  0
 28 75  1  0  0  0  0
 28 76  1  0  0  0  0
 29 77  1  0  0  0  0
 29 78  1  0  0  0  0
 29 79  1  0  0  0  0
 30 80  1  0  0  0  0
 30 81  1  0  0  0  0
 30 82  1  0  0  0  0
M  END
> <PUBCHEM_COMPOUND_CID>
528057
> <PUBCHEM_COMPOUND_CANONICALIZED>
1
> <PUBCHEM_CACTVS_COMPLEXITY>
639
> <PUBCHEM_CACTVS_HBOND_ACCEPTOR>
5
> <PUBCHEM_CACTVS_HBOND_DONOR>
1
> <PUBCHEM_CACTVS_ROTATABLE_BOND>
13
> <PUBCHEM_CACTVS_SUBSKEYS>
AAADcfB6OAwAAAAAAAAAAAAAAAAAAAAAAAAAAAAAAAAAAAAAAAAAHhARAEAADCjBoARCCABAAAEIAACQCAAAAAAAAAAAAIGAAAACABIAgAAAAAAEEAAAAACsJgAAAAAAAAAAAAAAAAAAAAAAAAAAAAAAAA==
> <PUBCHEM_IUPAC_OPENEYE_NAME>
bis[tert-butyl(dimethyl)silyl] 2-[[tert-butyl(dimethyl)silyl]amino]pentanedioate
> <PUBCHEM_IUPAC_CAS_NAME>
2-[[tert-butyl(dimethyl)silyl]amino]pentanedioic acid bis[tert-butyl(dimethyl)silyl] ester
> <PUBCHEM_IUPAC_NAME_MARKUP>
bis[<I>tert</I>-butyl(dimethyl)silyl] 2-[[<I>tert</I>-butyl(dimethyl)silyl]amino]pentanedioate
> <PUBCHEM_IUPAC_NAME>
bis[tert-butyl(dimethyl)silyl] 2-[[tert-butyl(dimethyl)silyl]amino]pentanedioate
> <PUBCHEM_IUPAC_SYSTEMATIC_NAME>
bis[tert-butyl(dimethyl)silyl] 2-[[tert-butyl(dimethyl)silyl]amino]pentanedioate
> <PUBCHEM_IUPAC_TRADITIONAL_NAME>
2-[[tert-butyl(dimethyl)silyl]amino]glutaric acid bis[tert-butyl(dimethyl)silyl] ester
> <PUBCHEM_IUPAC_INCHI>
InChI=1S/C23H51NO4Si3/c1-21(2,3)29(10,11)24-18(20(26)28-31(14,15)23(7,8)9)16-17-19(25)27-30(12,13)22(4,5)6/h18,24H,16-17H2,1-15H3
> <PUBCHEM_IUPAC_INCHIKEY>
WBLAMWCQIMLWPE-UHFFFAOYSA-N
> <PUBCHEM_EXACT_MASS>
489.31258871
> <PUBCHEM_MOLECULAR_FORMULA>
C23H51NO4Si3
> <PUBCHEM_MOLECULAR_WEIGHT>
489.9
> <PUBCHEM_OPENEYE_CAN_SMILES>
CC(C)(C)[Si](C)(C)NC(CCC(=O)O[Si](C)(C)C(C)(C)C)C(=O)O[Si](C)(C)C(C)(C)C
> <PUBCHEM_OPENEYE_ISO_SMILES>
CC(C)(C)[Si](C)(C)NC(CCC(=O)O[Si](C)(C)C(C)(C)C)C(=O)O[Si](C)(C)C(C)(C)C
> <PUBCHEM_CACTVS_TPSA>
64.6
> <PUBCHEM_MONOISOTOPIC_WEIGHT>
489.31258871
> <PUBCHEM_TOTAL_CHARGE>
0
> <PUBCHEM_HEAVY_ATOM_COUNT>
31
> <PUBCHEM_ATOM_DEF_STEREO_COUNT>
0
> <PUBCHEM_ATOM_UDEF_STEREO_COUNT>
1
> <PUBCHEM_BOND_DEF_STEREO_COUNT>
0
> <PUBCHEM_BOND_UDEF_STEREO_COUNT>
0
> <PUBCHEM_ISOTOPIC_ATOM_COUNT>
0
> <PUBCHEM_COMPONENT_COUNT>
1
> <PUBCHEM_CACTVS_TAUTO_COUNT>
-1
> <PUBCHEM_COORDINATE_TYPE>
1
5
255
> <PUBCHEM_BONDANNOTATIONS>
10  17  3
$$$$
