528056
  -OEChem-10302200292D
 80 79  0     1  0  0  0  0  0999 V2000
    8.0622   -1.2500    0.0000 Si  0  0  0  0  0  0  0  0  0  0  0  0
    4.5981    1.7500    0.0000 Si  0  0  0  0  0  0  0  0  0  0  0  0
    3.7320   -1.7500    0.0000 Si  0  0  0  0  0  0  0  0  0  0  0  0
    4.5981   -1.2500    0.0000 O   0  0  0  0  0  0  0  0  0  0  0  0
    5.4641   -2.7500    0.0000 O   0  0  0  0  0  0  0  0  0  0  0  0
    4.5981   -0.2500    0.0000 O   0  0  0  0  0  0  0  0  0  0  0  0
    7.1962   -1.7500    0.0000 N   0  0  0  0  0  0  0  0  0  0  0  0
    5.4641    1.2500    0.0000 N   0  0  0  0  0  0  0  0  0  0  0  0
    8.9282   -0.7500    0.0000 C   0  0  0  0  0  0  0  0  0  0  0  0
    3.7320    2.2500    0.0000 C   0  0  0  0  0  0  0  0  0  0  0  0
    6.3301   -1.2500    0.0000 C   0  0  3  0  0  0  0  0  0  0  0  0
    7.5622   -0.3840    0.0000 C   0  0  0  0  0  0  0  0  0  0  0  0
    8.5622   -2.1160    0.0000 C   0  0  0  0  0  0  0  0  0  0  0  0
    2.8660   -2.2500    0.0000 C   0  0  0  0  0  0  0  0  0  0  0  0
    9.7942   -0.2500    0.0000 C   0  0  0  0  0  0  0  0  0  0  0  0
    8.4282    0.1160    0.0000 C   0  0  0  0  0  0  0  0  0  0  0  0
    9.4282   -1.6160    0.0000 C   0  0  0  0  0  0  0  0  0  0  0  0
    6.3301   -0.2500    0.0000 C   0  0  0  0  0  0  0  0  0  0  0  0
    5.4641   -1.7500    0.0000 C   0  0  0  0  0  0  0  0  0  0  0  0
    5.0981    2.6160    0.0000 C   0  0  0  0  0  0  0  0  0  0  0  0
    4.0981    0.8840    0.0000 C   0  0  0  0  0  0  0  0  0  0  0  0
    2.8660    2.7500    0.0000 C   0  0  0  0  0  0  0  0  0  0  0  0
    4.2320    3.1160    0.0000 C   0  0  0  0  0  0  0  0  0  0  0  0
    3.2320    1.3840    0.0000 C   0  0  0  0  0  0  0  0  0  0  0  0
    5.4641    0.2500    0.0000 C   0  0  0  0  0  0  0  0  0  0  0  0
    3.2320   -0.8840    0.0000 C   0  0  0  0  0  0  0  0  0  0  0  0
    4.2320   -2.6160    0.0000 C   0  0  0  0  0  0  0  0  0  0  0  0
    2.0000   -2.7500    0.0000 C   0  0  0  0  0  0  0  0  0  0  0  0
    2.3660   -1.3840    0.0000 C   0  0  0  0  0  0  0  0  0  0  0  0
    3.3660   -3.1160    0.0000 C   0  0  0  0  0  0  0  0  0  0  0  0
    7.1962   -2.3700    0.0000 H   0  0  0  0  0  0  0  0  0  0  0  0
    6.8671   -0.9400    0.0000 H   0  0  0  0  0  0  0  0  0  0  0  0
    8.0991   -0.0740    0.0000 H   0  0  0  0  0  0  0  0  0  0  0  0
    7.2522    0.1530    0.0000 H   0  0  0  0  0  0  0  0  0  0  0  0
    7.0252   -0.6940    0.0000 H   0  0  0  0  0  0  0  0  0  0  0  0
    8.0252   -2.4260    0.0000 H   0  0  0  0  0  0  0  0  0  0  0  0
    8.8722   -2.6530    0.0000 H   0  0  0  0  0  0  0  0  0  0  0  0
    9.0991   -1.8060    0.0000 H   0  0  0  0  0  0  0  0  0  0  0  0
   10.1042   -0.7869    0.0000 H   0  0  0  0  0  0  0  0  0  0  0  0
   10.3312    0.0600    0.0000 H   0  0  0  0  0  0  0  0  0  0  0  0
    9.4842    0.2869    0.0000 H   0  0  0  0  0  0  0  0  0  0  0  0
    8.9651    0.4260    0.0000 H   0  0  0  0  0  0  0  0  0  0  0  0
    8.1182    0.6530    0.0000 H   0  0  0  0  0  0  0  0  0  0  0  0
    7.8913   -0.1940    0.0000 H   0  0  0  0  0  0  0  0  0  0  0  0
    8.8913   -1.9260    0.0000 H   0  0  0  0  0  0  0  0  0  0  0  0
    9.7382   -2.1530    0.0000 H   0  0  0  0  0  0  0  0  0  0  0  0
    9.9651   -1.3060    0.0000 H   0  0  0  0  0  0  0  0  0  0  0  0
    6.9407   -0.3577    0.0000 H   0  0  0  0  0  0  0  0  0  0  0  0
    6.5422    0.3326    0.0000 H   0  0  0  0  0  0  0  0  0  0  0  0
    6.0010    1.5600    0.0000 H   0  0  0  0  0  0  0  0  0  0  0  0
    5.6350    2.3060    0.0000 H   0  0  0  0  0  0  0  0  0  0  0  0
    5.4081    3.1530    0.0000 H   0  0  0  0  0  0  0  0  0  0  0  0
    4.5611    2.9260    0.0000 H   0  0  0  0  0  0  0  0  0  0  0  0
    3.5611    1.1940    0.0000 H   0  0  0  0  0  0  0  0  0  0  0  0
    3.7881    0.3470    0.0000 H   0  0  0  0  0  0  0  0  0  0  0  0
    4.6350    0.5740    0.0000 H   0  0  0  0  0  0  0  0  0  0  0  0
    3.1760    3.2869    0.0000 H   0  0  0  0  0  0  0  0  0  0  0  0
    2.3291    3.0600    0.0000 H   0  0  0  0  0  0  0  0  0  0  0  0
    2.5560    2.2131    0.0000 H   0  0  0  0  0  0  0  0  0  0  0  0
    4.7690    2.8060    0.0000 H   0  0  0  0  0  0  0  0  0  0  0  0
    4.5420    3.6530    0.0000 H   0  0  0  0  0  0  0  0  0  0  0  0
    3.6951    3.4260    0.0000 H   0  0  0  0  0  0  0  0  0  0  0  0
    2.6951    1.6940    0.0000 H   0  0  0  0  0  0  0  0  0  0  0  0
    2.9220    0.8470    0.0000 H   0  0  0  0  0  0  0  0  0  0  0  0
    3.7690    1.0740    0.0000 H   0  0  0  0  0  0  0  0  0  0  0  0
    3.7690   -0.5740    0.0000 H   0  0  0  0  0  0  0  0  0  0  0  0
    2.9220   -0.3470    0.0000 H   0  0  0  0  0  0  0  0  0  0  0  0
    2.6951   -1.1940    0.0000 H   0  0  0  0  0  0  0  0  0  0  0  0
    3.6951   -2.9260    0.0000 H   0  0  0  0  0  0  0  0  0  0  0  0
    4.5420   -3.1530    0.0000 H   0  0  0  0  0  0  0  0  0  0  0  0
    4.7690   -2.3060    0.0000 H   0  0  0  0  0  0  0  0  0  0  0  0
    1.6900   -2.2131    0.0000 H   0  0  0  0  0  0  0  0  0  0  0  0
    1.4631   -3.0600    0.0000 H   0  0  0  0  0  0  0  0  0  0  0  0
    2.3100   -3.2869    0.0000 H   0  0  0  0  0  0  0  0  0  0  0  0
    2.9030   -1.0740    0.0000 H   0  0  0  0  0  0  0  0  0  0  0  0
    2.0560   -0.8470    0.0000 H   0  0  0  0  0  0  0  0  0  0  0  0
    1.8291   -1.6940    0.0000 H   0  0  0  0  0  0  0  0  0  0  0  0
    2.8291   -3.4260    0.0000 H   0  0  0  0  0  0  0  0  0  0  0  0
    3.6760   -3.6530    0.0000 H   0  0  0  0  0  0  0  0  0  0  0  0
    3.9030   -2.8060    0.0000 H   0  0  0  0  0  0  0  0  0  0  0  0
  1  7  1  0  0  0  0
  1  9  1  0  0  0  0
  1 12  1  0  0  0  0
  1 13  1  0  0  0  0
  2  8  1  0  0  0  0
  2 10  1  0  0  0  0
  2 20  1  0  0  0  0
  2 21  1  0  0  0  0
  3  4  1  0  0  0  0
  3 14  1  0  0  0  0
  3 26  1  0  0  0  0
  3 27  1  0  0  0  0
  4 19  1  0  0  0  0
  5 19  2  0  0  0  0
  6 25  2  0  0  0  0
  7 11  1  0  0  0  0
  7 31  1  0  0  0  0
  8 25  1  0  0  0  0
  8 50  1  0  0  0  0
  9 15  1  0  0  0  0
  9 16  1  0  0  0  0
  9 17  1  0  0  0  0
 10 22  1  0  0  0  0
 10 23  1  0  0  0  0
 10 24  1  0  0  0  0
 11 18  1  0  0  0  0
 11 19  1  0  0  0  0
 11 32  1  0  0  0  0
 12 33  1  0  0  0  0
 12 34  1  0  0  0  0
 12 35  1  0  0  0  0
 13 36  1  0  0  0  0
 13 37  1  0  0  0  0
 13 38  1  0  0  0  0
 14 28  1  0  0  0  0
 14 29  1  0  0  0  0
 14 30  1  0  0  0  0
 15 39  1  0  0  0  0
 15 40  1  0  0  0  0
 15 41  1  0  0  0  0
 16 42  1  0  0  0  0
 16 43  1  0  0  0  0
 16 44  1  0  0  0  0
 17 45  1  0  0  0  0
 17 46  1  0  0  0  0
 17 47  1  0  0  0  0
 18 25  1  0  0  0  0
 18 48  1  0  0  0  0
 18 49  1  0  0  0  0
 20 51  1  0  0  0  0
 20 52  1  0  0  0  0
 20 53  1  0  0  0  0
 21 54  1  0  0  0  0
 21 55  1  0  0  0  0
 21 56  1  0  0  0  0
 22 57  1  0  0  0  0
 22 58  1  0  0  0  0
 22 59  1  0  0  0  0
 23 60  1  0  0  0  0
 23 61  1  0  0  0  0
 23 62  1  0  0  0  0
 24 63  1  0  0  0  0
 24 64  1  0  0  0  0
 24 65  1  0  0  0  0
 26 66  1  0  0  0  0
 26 67  1  0  0  0  0
 26 68  1  0  0  0  0
 27 69  1  0  0  0  0
 27 70  1  0  0  0  0
 27 71  1  0  0  0  0
 28 72  1  0  0  0  0
 28 73  1  0  0  0  0
 28 74  1  0  0  0  0
 29 75  1  0  0  0  0
 29 76  1  0  0  0  0
 29 77  1  0  0  0  0
 30 78  1  0  0  0  0
 30 79  1  0  0  0  0
 30 80  1  0  0  0  0
M  END
> <PUBCHEM_COMPOUND_CID>
528056
> <PUBCHEM_COMPOUND_CANONICALIZED>
1
> <PUBCHEM_CACTVS_COMPLEXITY>
625
> <PUBCHEM_CACTVS_HBOND_ACCEPTOR>
4
> <PUBCHEM_CACTVS_HBOND_DONOR>
2
> <PUBCHEM_CACTVS_ROTATABLE_BOND>
11
> <PUBCHEM_CACTVS_SUBSKEYS>
AAADcfB7MAwAAAAAAAAAAAAAAAAAAAAAAAAAAAAAAAAAAAAAAAAAHhARAEAADCjBoARCCABAAAEIAAGQGAAAAAAAAAAAAIGAAAACABgAwAAAAAAEEAAAAAAnAAAAAAAAAAAAAAAAAAAAAAAAAAAAAAAAAA==
> <PUBCHEM_IUPAC_OPENEYE_NAME>
[tert-butyl(dimethyl)silyl] 2,4-bis[[tert-butyl(dimethyl)silyl]amino]-4-oxo-butanoate
> <PUBCHEM_IUPAC_CAS_NAME>
2,4-bis[[tert-butyl(dimethyl)silyl]amino]-4-oxobutanoic acid [tert-butyl(dimethyl)silyl] ester
> <PUBCHEM_IUPAC_NAME_MARKUP>
[<I>tert</I>-butyl(dimethyl)silyl] 2,4-bis[[<I>tert</I>-butyl(dimethyl)silyl]amino]-4-oxobutanoate
> <PUBCHEM_IUPAC_NAME>
[tert-butyl(dimethyl)silyl] 2,4-bis[[tert-butyl(dimethyl)silyl]amino]-4-oxobutanoate
> <PUBCHEM_IUPAC_SYSTEMATIC_NAME>
[tert-butyl(dimethyl)silyl] 2,4-bis[[tert-butyl(dimethyl)silyl]amino]-4-oxidanylidene-butanoate
> <PUBCHEM_IUPAC_TRADITIONAL_NAME>
2,4-bis[[tert-butyl(dimethyl)silyl]amino]-4-keto-butyric acid [tert-butyl(dimethyl)silyl] ester
> <PUBCHEM_IUPAC_INCHI>
InChI=1S/C22H50N2O3Si3/c1-20(2,3)28(10,11)23-17(19(26)27-30(14,15)22(7,8)9)16-18(25)24-29(12,13)21(4,5)6/h17,23H,16H2,1-15H3,(H,24,25)
> <PUBCHEM_IUPAC_INCHIKEY>
QOAONZDISIOCNC-UHFFFAOYSA-N
> <PUBCHEM_EXACT_MASS>
474.31292306
> <PUBCHEM_MOLECULAR_FORMULA>
C22H50N2O3Si3
> <PUBCHEM_MOLECULAR_WEIGHT>
474.9
> <PUBCHEM_OPENEYE_CAN_SMILES>
CC(C)(C)[Si](C)(C)NC(CC(=O)N[Si](C)(C)C(C)(C)C)C(=O)O[Si](C)(C)C(C)(C)C
> <PUBCHEM_OPENEYE_ISO_SMILES>
CC(C)(C)[Si](C)(C)NC(CC(=O)N[Si](C)(C)C(C)(C)C)C(=O)O[Si](C)(C)C(C)(C)C
> <PUBCHEM_CACTVS_TPSA>
67.4
> <PUBCHEM_MONOISOTOPIC_WEIGHT>
474.31292306
> <PUBCHEM_TOTAL_CHARGE>
0
> <PUBCHEM_HEAVY_ATOM_COUNT>
30
> <PUBCHEM_ATOM_DEF_STEREO_COUNT>
0
> <PUBCHEM_ATOM_UDEF_STEREO_COUNT>
1
> <PUBCHEM_BOND_DEF_STEREO_COUNT>
0
> <PUBCHEM_BOND_UDEF_STEREO_COUNT>
0
> <PUBCHEM_ISOTOPIC_ATOM_COUNT>
0
> <PUBCHEM_COMPONENT_COUNT>
1
> <PUBCHEM_CACTVS_TAUTO_COUNT>
-1
> <PUBCHEM_COORDINATE_TYPE>
1
5
255
> <PUBCHEM_BONDANNOTATIONS>
11  18  3
$$$$
