528192
  -OEChem-10302200292D
 49 50  0     1  0  0  0  0  0999 V2000
    5.6808    1.3731    0.0000 Si  0  0  0  0  0  0  0  0  0  0  0  0
    4.7026    1.1652    0.0000 O   0  0  0  0  0  0  0  0  0  0  0  0
    6.1808    0.5070    0.0000 O   0  0  0  0  0  0  0  0  0  0  0  0
    3.7320   -0.3294    0.0000 O   0  0  0  0  0  0  0  0  0  0  0  0
    6.6808    1.3731    0.0000 C   0  0  0  0  0  0  0  0  0  0  0  0
    5.4728    2.3512    0.0000 C   0  0  0  0  0  0  0  0  0  0  0  0
    4.5981    0.1706    0.0000 C   0  0  3  0  0  0  0  0  0  0  0  0
    7.6808    1.3731    0.0000 C   0  0  0  0  0  0  0  0  0  0  0  0
    7.1808    0.5071    0.0000 C   0  0  0  0  0  0  0  0  0  0  0  0
    6.6808    2.3731    0.0000 C   0  0  0  0  0  0  0  0  0  0  0  0
    5.2649    3.3294    0.0000 C   0  0  0  0  0  0  0  0  0  0  0  0
    4.4947    2.1433    0.0000 C   0  0  0  0  0  0  0  0  0  0  0  0
    6.2160    3.0204    0.0000 C   0  0  0  0  0  0  0  0  0  0  0  0
    5.5116   -0.2361    0.0000 C   0  0  0  0  0  0  0  0  0  0  0  0
    3.7320   -1.3294    0.0000 C   0  0  0  0  0  0  0  0  0  0  0  0
    2.8660   -1.8294    0.0000 C   0  0  0  0  0  0  0  0  0  0  0  0
    4.5981   -1.8294    0.0000 C   0  0  0  0  0  0  0  0  0  0  0  0
    2.8660   -2.8294    0.0000 C   0  0  0  0  0  0  0  0  0  0  0  0
    2.0000   -1.3294    0.0000 C   0  0  0  0  0  0  0  0  0  0  0  0
    4.5981   -2.8294    0.0000 C   0  0  0  0  0  0  0  0  0  0  0  0
    3.7320   -3.3294    0.0000 C   0  0  0  0  0  0  0  0  0  0  0  0
    4.0781    0.5083    0.0000 H   0  0  0  0  0  0  0  0  0  0  0  0
    7.6808    0.7531    0.0000 H   0  0  0  0  0  0  0  0  0  0  0  0
    8.3008    1.3731    0.0000 H   0  0  0  0  0  0  0  0  0  0  0  0
    7.6808    1.9931    0.0000 H   0  0  0  0  0  0  0  0  0  0  0  0
    6.6439    0.1970    0.0000 H   0  0  0  0  0  0  0  0  0  0  0  0
    7.4909   -0.0298    0.0000 H   0  0  0  0  0  0  0  0  0  0  0  0
    7.7177    0.8171    0.0000 H   0  0  0  0  0  0  0  0  0  0  0  0
    7.3008    2.3731    0.0000 H   0  0  0  0  0  0  0  0  0  0  0  0
    6.6808    2.9931    0.0000 H   0  0  0  0  0  0  0  0  0  0  0  0
    6.0608    2.3731    0.0000 H   0  0  0  0  0  0  0  0  0  0  0  0
    5.8714    3.4583    0.0000 H   0  0  0  0  0  0  0  0  0  0  0  0
    5.1360    3.9358    0.0000 H   0  0  0  0  0  0  0  0  0  0  0  0
    4.6585    3.2005    0.0000 H   0  0  0  0  0  0  0  0  0  0  0  0
    4.3658    2.7498    0.0000 H   0  0  0  0  0  0  0  0  0  0  0  0
    3.8882    2.0144    0.0000 H   0  0  0  0  0  0  0  0  0  0  0  0
    4.6236    1.5368    0.0000 H   0  0  0  0  0  0  0  0  0  0  0  0
    6.6308    2.5596    0.0000 H   0  0  0  0  0  0  0  0  0  0  0  0
    6.6767    3.4352    0.0000 H   0  0  0  0  0  0  0  0  0  0  0  0
    5.8011    3.4811    0.0000 H   0  0  0  0  0  0  0  0  0  0  0  0
    5.2016   -0.7730    0.0000 H   0  0  0  0  0  0  0  0  0  0  0  0
    6.0132   -0.6005    0.0000 H   0  0  0  0  0  0  0  0  0  0  0  0
    5.1350   -1.5194    0.0000 H   0  0  0  0  0  0  0  0  0  0  0  0
    2.3291   -3.1394    0.0000 H   0  0  0  0  0  0  0  0  0  0  0  0
    2.3100   -0.7924    0.0000 H   0  0  0  0  0  0  0  0  0  0  0  0
    1.4631   -1.0194    0.0000 H   0  0  0  0  0  0  0  0  0  0  0  0
    1.6900   -1.8663    0.0000 H   0  0  0  0  0  0  0  0  0  0  0  0
    5.1350   -3.1394    0.0000 H   0  0  0  0  0  0  0  0  0  0  0  0
    3.7320   -3.9494    0.0000 H   0  0  0  0  0  0  0  0  0  0  0  0
  1  2  1  0  0  0  0
  1  3  1  0  0  0  0
  1  5  1  0  0  0  0
  1  6  1  0  0  0  0
  2  7  1  0  0  0  0
  3 14  1  0  0  0  0
  4  7  1  0  0  0  0
  4 15  1  0  0  0  0
  5  8  1  0  0  0  0
  5  9  1  0  0  0  0
  5 10  1  0  0  0  0
  6 11  1  0  0  0  0
  6 12  1  0  0  0  0
  6 13  1  0  0  0  0
  7 14  1  0  0  0  0
  7 22  1  0  0  0  0
  8 23  1  0  0  0  0
  8 24  1  0  0  0  0
  8 25  1  0  0  0  0
  9 26  1  0  0  0  0
  9 27  1  0  0  0  0
  9 28  1  0  0  0  0
 10 29  1  0  0  0  0
 10 30  1  0  0  0  0
 10 31  1  0  0  0  0
 11 32  1  0  0  0  0
 11 33  1  0  0  0  0
 11 34  1  0  0  0  0
 12 35  1  0  0  0  0
 12 36  1  0  0  0  0
 12 37  1  0  0  0  0
 13 38  1  0  0  0  0
 13 39  1  0  0  0  0
 13 40  1  0  0  0  0
 14 41  1  0  0  0  0
 14 42  1  0  0  0  0
 15 16  1  0  0  0  0
 15 17  2  0  0  0  0
 16 18  2  0  0  0  0
 16 19  1  0  0  0  0
 17 20  1  0  0  0  0
 17 43  1  0  0  0  0
 18 21  1  0  0  0  0
 18 44  1  0  0  0  0
 19 45  1  0  0  0  0
 19 46  1  0  0  0  0
 19 47  1  0  0  0  0
 20 21  2  0  0  0  0
 20 48  1  0  0  0  0
 21 49  1  0  0  0  0
M  END
> <PUBCHEM_COMPOUND_CID>
528192
> <PUBCHEM_COMPOUND_CANONICALIZED>
1
> <PUBCHEM_CACTVS_COMPLEXITY>
342
> <PUBCHEM_CACTVS_HBOND_ACCEPTOR>
3
> <PUBCHEM_CACTVS_HBOND_DONOR>
0
> <PUBCHEM_CACTVS_ROTATABLE_BOND>
4
> <PUBCHEM_CACTVS_SUBSKEYS>
AAADceB4MAgAAAAAAAAAAAAAAAAAASAAAAAwAAAAAAAAAAABAAAAGhAAAEAADASwuAMyDoAABAGAAiBCAAACCAAgIAAIiAAGCIgdJiKEMRqCOCCkwBEOqAeAwCAOAAAAAAAIAAAAAAAAABAAAAAAAAAAAA==
> <PUBCHEM_IUPAC_OPENEYE_NAME>
2,2-ditert-butyl-4-(2-methylphenoxy)-1,3,2-dioxasilolane
> <PUBCHEM_IUPAC_CAS_NAME>
2,2-ditert-butyl-4-(2-methylphenoxy)-1,3,2-dioxasilolane
> <PUBCHEM_IUPAC_NAME_MARKUP>
2,2-di<I>tert</I>-butyl-4-(2-methylphenoxy)-1,3,2-dioxasilolane
> <PUBCHEM_IUPAC_NAME>
2,2-ditert-butyl-4-(2-methylphenoxy)-1,3,2-dioxasilolane
> <PUBCHEM_IUPAC_SYSTEMATIC_NAME>
2,2-ditert-butyl-4-(2-methylphenoxy)-1,3,2-dioxasilolane
> <PUBCHEM_IUPAC_TRADITIONAL_NAME>
2,2-ditert-butyl-4-(2-methylphenoxy)-1,3,2-dioxasilolane
> <PUBCHEM_IUPAC_INCHI>
InChI=1S/C17H28O3Si/c1-13-10-8-9-11-14(13)19-15-12-18-21(20-15,16(2,3)4)17(5,6)7/h8-11,15H,12H2,1-7H3
> <PUBCHEM_IUPAC_INCHIKEY>
FWKJBSZEEYILSY-UHFFFAOYSA-N
> <PUBCHEM_EXACT_MASS>
308.18077129
> <PUBCHEM_MOLECULAR_FORMULA>
C17H28O3Si
> <PUBCHEM_MOLECULAR_WEIGHT>
308.5
> <PUBCHEM_OPENEYE_CAN_SMILES>
CC1=CC=CC=C1OC2CO[Si](O2)(C(C)(C)C)C(C)(C)C
> <PUBCHEM_OPENEYE_ISO_SMILES>
CC1=CC=CC=C1OC2CO[Si](O2)(C(C)(C)C)C(C)(C)C
> <PUBCHEM_CACTVS_TPSA>
27.7
> <PUBCHEM_MONOISOTOPIC_WEIGHT>
308.18077129
> <PUBCHEM_TOTAL_CHARGE>
0
> <PUBCHEM_HEAVY_ATOM_COUNT>
21
> <PUBCHEM_ATOM_DEF_STEREO_COUNT>
0
> <PUBCHEM_ATOM_UDEF_STEREO_COUNT>
1
> <PUBCHEM_BOND_DEF_STEREO_COUNT>
0
> <PUBCHEM_BOND_UDEF_STEREO_COUNT>
0
> <PUBCHEM_ISOTOPIC_ATOM_COUNT>
0
> <PUBCHEM_COMPONENT_COUNT>
1
> <PUBCHEM_CACTVS_TAUTO_COUNT>
-1
> <PUBCHEM_COORDINATE_TYPE>
1
5
255
> <PUBCHEM_BONDANNOTATIONS>
15  16  8
15  17  8
16  18  8
17  20  8
18  21  8
20  21  8
7  4  3
$$$$
