528191
  -OEChem-10302200292D
 72 74  0     1  0  0  0  0  0999 V2000
    3.6942    0.7157    0.0000 Si  0  0  0  0  0  0  0  0  0  0  0  0
    9.4048   -0.6207    0.0000 Si  0  0  0  0  0  0  0  0  0  0  0  0
    4.3633   -0.0274    0.0000 O   0  0  0  0  0  0  0  0  0  0  0  0
    4.1942    1.5818    0.0000 O   0  0  0  0  0  0  0  0  0  0  0  0
    8.8212    0.1840    0.0000 O   0  0  0  0  0  0  0  0  0  0  0  0
    8.8212   -1.4254    0.0000 O   0  0  0  0  0  0  0  0  0  0  0  0
    3.1942    1.5818    0.0000 C   0  0  0  0  0  0  0  0  0  0  0  0
    2.9511    0.0466    0.0000 C   0  0  0  0  0  0  0  0  0  0  0  0
    9.8115   -1.5342    0.0000 C   0  0  0  0  0  0  0  0  0  0  0  0
   10.2138   -0.0329    0.0000 C   0  0  0  0  0  0  0  0  0  0  0  0
    5.2769    0.3793    0.0000 C   0  0  3  0  0  0  0  0  0  0  0  0
    5.1724    1.3738    0.0000 C   0  0  0  0  0  0  0  0  0  0  0  0
    2.6942    2.4478    0.0000 C   0  0  0  0  0  0  0  0  0  0  0  0
    3.6942    2.4478    0.0000 C   0  0  0  0  0  0  0  0  0  0  0  0
    2.3282    1.0818    0.0000 C   0  0  0  0  0  0  0  0  0  0  0  0
    2.2079   -0.6225    0.0000 C   0  0  0  0  0  0  0  0  0  0  0  0
    3.6202   -0.6966    0.0000 C   0  0  0  0  0  0  0  0  0  0  0  0
    2.0000    0.3556    0.0000 C   0  0  0  0  0  0  0  0  0  0  0  0
    6.1429   -0.1207    0.0000 C   0  0  0  0  0  0  0  0  0  0  0  0
    7.8750   -0.1207    0.0000 C   0  0  0  0  0  0  0  0  0  0  0  0
   10.2183   -2.4478    0.0000 C   0  0  0  0  0  0  0  0  0  0  0  0
    9.2237   -2.3432    0.0000 C   0  0  0  0  0  0  0  0  0  0  0  0
   10.7251   -1.1275    0.0000 C   0  0  0  0  0  0  0  0  0  0  0  0
   11.0228    0.5549    0.0000 C   0  0  0  0  0  0  0  0  0  0  0  0
    9.6260    0.7761    0.0000 C   0  0  0  0  0  0  0  0  0  0  0  0
   11.1273   -0.4396    0.0000 C   0  0  0  0  0  0  0  0  0  0  0  0
    7.8750   -1.1207    0.0000 C   0  0  0  0  0  0  0  0  0  0  0  0
    7.0089    0.3793    0.0000 C   0  0  0  0  0  0  0  0  0  0  0  0
    6.1429   -1.1207    0.0000 C   0  0  0  0  0  0  0  0  0  0  0  0
    7.0089   -1.6207    0.0000 C   0  0  0  0  0  0  0  0  0  0  0  0
    5.2444   -0.2398    0.0000 H   0  0  0  0  0  0  0  0  0  0  0  0
    5.7924    1.3738    0.0000 H   0  0  0  0  0  0  0  0  0  0  0  0
    5.2372    1.9904    0.0000 H   0  0  0  0  0  0  0  0  0  0  0  0
    3.2311    2.7578    0.0000 H   0  0  0  0  0  0  0  0  0  0  0  0
    2.3842    2.9847    0.0000 H   0  0  0  0  0  0  0  0  0  0  0  0
    2.1573    2.1378    0.0000 H   0  0  0  0  0  0  0  0  0  0  0  0
    4.2311    2.1378    0.0000 H   0  0  0  0  0  0  0  0  0  0  0  0
    4.0042    2.9847    0.0000 H   0  0  0  0  0  0  0  0  0  0  0  0
    3.1573    2.7578    0.0000 H   0  0  0  0  0  0  0  0  0  0  0  0
    2.0182    1.6188    0.0000 H   0  0  0  0  0  0  0  0  0  0  0  0
    1.7912    0.7718    0.0000 H   0  0  0  0  0  0  0  0  0  0  0  0
    2.6382    0.5449    0.0000 H   0  0  0  0  0  0  0  0  0  0  0  0
    1.7930   -0.1618    0.0000 H   0  0  0  0  0  0  0  0  0  0  0  0
    1.7472   -1.0374    0.0000 H   0  0  0  0  0  0  0  0  0  0  0  0
    2.6228   -1.0833    0.0000 H   0  0  0  0  0  0  0  0  0  0  0  0
    3.1594   -1.1114    0.0000 H   0  0  0  0  0  0  0  0  0  0  0  0
    4.0350   -1.1573    0.0000 H   0  0  0  0  0  0  0  0  0  0  0  0
    4.0809   -0.2817    0.0000 H   0  0  0  0  0  0  0  0  0  0  0  0
    2.1916    0.9453    0.0000 H   0  0  0  0  0  0  0  0  0  0  0  0
    1.4103    0.5472    0.0000 H   0  0  0  0  0  0  0  0  0  0  0  0
    1.8084   -0.2340    0.0000 H   0  0  0  0  0  0  0  0  0  0  0  0
    9.6519   -2.7000    0.0000 H   0  0  0  0  0  0  0  0  0  0  0  0
   10.4704   -3.0142    0.0000 H   0  0  0  0  0  0  0  0  0  0  0  0
   10.7847   -2.1956    0.0000 H   0  0  0  0  0  0  0  0  0  0  0  0
    8.7221   -1.9788    0.0000 H   0  0  0  0  0  0  0  0  0  0  0  0
    8.8592   -2.8448    0.0000 H   0  0  0  0  0  0  0  0  0  0  0  0
    9.7253   -2.7077    0.0000 H   0  0  0  0  0  0  0  0  0  0  0  0
   10.9772   -1.6939    0.0000 H   0  0  0  0  0  0  0  0  0  0  0  0
   11.2915   -0.8753    0.0000 H   0  0  0  0  0  0  0  0  0  0  0  0
   10.4729   -0.5611    0.0000 H   0  0  0  0  0  0  0  0  0  0  0  0
   11.3872    0.0533    0.0000 H   0  0  0  0  0  0  0  0  0  0  0  0
   11.5244    0.9193    0.0000 H   0  0  0  0  0  0  0  0  0  0  0  0
   10.6584    1.0565    0.0000 H   0  0  0  0  0  0  0  0  0  0  0  0
   10.1276    1.1406    0.0000 H   0  0  0  0  0  0  0  0  0  0  0  0
    9.2616    1.2777    0.0000 H   0  0  0  0  0  0  0  0  0  0  0  0
    9.1244    0.4117    0.0000 H   0  0  0  0  0  0  0  0  0  0  0  0
   10.8752   -1.0060    0.0000 H   0  0  0  0  0  0  0  0  0  0  0  0
   11.6937   -0.6918    0.0000 H   0  0  0  0  0  0  0  0  0  0  0  0
   11.3795    0.1268    0.0000 H   0  0  0  0  0  0  0  0  0  0  0  0
    7.0089    0.9993    0.0000 H   0  0  0  0  0  0  0  0  0  0  0  0
    5.6060   -1.4307    0.0000 H   0  0  0  0  0  0  0  0  0  0  0  0
    7.0089   -2.2407    0.0000 H   0  0  0  0  0  0  0  0  0  0  0  0
  1  3  1  0  0  0  0
  1  4  1  0  0  0  0
  1  7  1  0  0  0  0
  1  8  1  0  0  0  0
  2  5  1  0  0  0  0
  2  6  1  0  0  0  0
  2  9  1  0  0  0  0
  2 10  1  0  0  0  0
  3 11  1  0  0  0  0
  4 12  1  0  0  0  0
  5 20  1  0  0  0  0
  6 27  1  0  0  0  0
  7 13  1  0  0  0  0
  7 14  1  0  0  0  0
  7 15  1  0  0  0  0
  8 16  1  0  0  0  0
  8 17  1  0  0  0  0
  8 18  1  0  0  0  0
  9 21  1  0  0  0  0
  9 22  1  0  0  0  0
  9 23  1  0  0  0  0
 10 24  1  0  0  0  0
 10 25  1  0  0  0  0
 10 26  1  0  0  0  0
 11 12  1  0  0  0  0
 11 19  1  0  0  0  0
 11 31  1  0  0  0  0
 12 32  1  0  0  0  0
 12 33  1  0  0  0  0
 13 34  1  0  0  0  0
 13 35  1  0  0  0  0
 13 36  1  0  0  0  0
 14 37  1  0  0  0  0
 14 38  1  0  0  0  0
 14 39  1  0  0  0  0
 15 40  1  0  0  0  0
 15 41  1  0  0  0  0
 15 42  1  0  0  0  0
 16 43  1  0  0  0  0
 16 44  1  0  0  0  0
 16 45  1  0  0  0  0
 17 46  1  0  0  0  0
 17 47  1  0  0  0  0
 17 48  1  0  0  0  0
 18 49  1  0  0  0  0
 18 50  1  0  0  0  0
 18 51  1  0  0  0  0
 19 28  2  0  0  0  0
 19 29  1  0  0  0  0
 20 27  2  0  0  0  0
 20 28  1  0  0  0  0
 21 52  1  0  0  0  0
 21 53  1  0  0  0  0
 21 54  1  0  0  0  0
 22 55  1  0  0  0  0
 22 56  1  0  0  0  0
 22 57  1  0  0  0  0
 23 58  1  0  0  0  0
 23 59  1  0  0  0  0
 23 60  1  0  0  0  0
 24 61  1  0  0  0  0
 24 62  1  0  0  0  0
 24 63  1  0  0  0  0
 25 64  1  0  0  0  0
 25 65  1  0  0  0  0
 25 66  1  0  0  0  0
 26 67  1  0  0  0  0
 26 68  1  0  0  0  0
 26 69  1  0  0  0  0
 27 30  1  0  0  0  0
 28 70  1  0  0  0  0
 29 30  2  0  0  0  0
 29 71  1  0  0  0  0
 30 72  1  0  0  0  0
M  END
> <PUBCHEM_COMPOUND_CID>
528191
> <PUBCHEM_COMPOUND_CANONICALIZED>
1
> <PUBCHEM_CACTVS_COMPLEXITY>
608
> <PUBCHEM_CACTVS_HBOND_ACCEPTOR>
4
> <PUBCHEM_CACTVS_HBOND_DONOR>
0
> <PUBCHEM_CACTVS_ROTATABLE_BOND>
5
> <PUBCHEM_CACTVS_SUBSKEYS>
AAADcfB4OAwAAAAAAAAAAAAAAAAAASJAAAAwAAAAAAAAAEgBAAAAGhAAAEAADBSguAIyBoAAAAGAAiBCAAACAAAgIAAIiAAGiIgJJiKAERKAMAAkwBEIiAfA4LQOIAABAAAAQABAAAIAAACAAAAAAAAAAA==
> <PUBCHEM_IUPAC_OPENEYE_NAME>
2,2-ditert-butyl-5-(2,2-ditert-butyl-1,3,2-dioxasilolan-4-yl)-1,3,2-benzodioxasilole
> <PUBCHEM_IUPAC_CAS_NAME>
2,2-ditert-butyl-5-(2,2-ditert-butyl-1,3,2-dioxasilolan-4-yl)-1,3,2-benzodioxasilole
> <PUBCHEM_IUPAC_NAME_MARKUP>
2,2-di<I>tert</I>-butyl-5-(2,2-di<I>tert</I>-butyl-1,3,2-dioxasilolan-4-yl)-1,3,2-benzodioxasilole
> <PUBCHEM_IUPAC_NAME>
2,2-ditert-butyl-5-(2,2-ditert-butyl-1,3,2-dioxasilolan-4-yl)-1,3,2-benzodioxasilole
> <PUBCHEM_IUPAC_SYSTEMATIC_NAME>
2,2-ditert-butyl-5-(2,2-ditert-butyl-1,3,2-dioxasilolan-4-yl)-1,3,2-benzodioxasilole
> <PUBCHEM_IUPAC_TRADITIONAL_NAME>
2,2-ditert-butyl-5-(2,2-ditert-butyl-1,3,2-dioxasilolan-4-yl)-1,3,2-benzodioxasilole
> <PUBCHEM_IUPAC_INCHI>
InChI=1S/C24H42O4Si2/c1-21(2,3)29(22(4,5)6)25-16-20(28-29)17-13-14-18-19(15-17)27-30(26-18,23(7,8)9)24(10,11)12/h13-15,20H,16H2,1-12H3
> <PUBCHEM_IUPAC_INCHIKEY>
XBDPEQALEOHOLT-UHFFFAOYSA-N
> <PUBCHEM_EXACT_MASS>
450.26216289
> <PUBCHEM_MOLECULAR_FORMULA>
C24H42O4Si2
> <PUBCHEM_MOLECULAR_WEIGHT>
450.8
> <PUBCHEM_OPENEYE_CAN_SMILES>
CC(C)(C)[Si]1(OCC(O1)C2=CC3=C(C=C2)O[Si](O3)(C(C)(C)C)C(C)(C)C)C(C)(C)C
> <PUBCHEM_OPENEYE_ISO_SMILES>
CC(C)(C)[Si]1(OCC(O1)C2=CC3=C(C=C2)O[Si](O3)(C(C)(C)C)C(C)(C)C)C(C)(C)C
> <PUBCHEM_CACTVS_TPSA>
36.9
> <PUBCHEM_MONOISOTOPIC_WEIGHT>
450.26216289
> <PUBCHEM_TOTAL_CHARGE>
0
> <PUBCHEM_HEAVY_ATOM_COUNT>
30
> <PUBCHEM_ATOM_DEF_STEREO_COUNT>
0
> <PUBCHEM_ATOM_UDEF_STEREO_COUNT>
1
> <PUBCHEM_BOND_DEF_STEREO_COUNT>
0
> <PUBCHEM_BOND_UDEF_STEREO_COUNT>
0
> <PUBCHEM_ISOTOPIC_ATOM_COUNT>
0
> <PUBCHEM_COMPONENT_COUNT>
1
> <PUBCHEM_CACTVS_TAUTO_COUNT>
-1
> <PUBCHEM_COORDINATE_TYPE>
1
5
255
> <PUBCHEM_BONDANNOTATIONS>
11  19  3
19  28  8
19  29  8
20  27  8
20  28  8
27  30  8
29  30  8
$$$$
