528200
  -OEChem-10302200292D
 80 82  0     1  0  0  0  0  0999 V2000
    3.8176   -1.2453    0.0000 Si  0  0  0  0  0  0  0  0  0  0  0  0
    8.7778    0.1583    0.0000 Si  0  0  0  0  0  0  0  0  0  0  0  0
    4.7932   -1.0261    0.0000 O   0  0  0  0  0  0  0  0  0  0  0  0
    3.7245   -2.2410    0.0000 O   0  0  0  0  0  0  0  0  0  0  0  0
    7.9118   -0.3417    0.0000 O   0  0  0  0  0  0  0  0  0  0  0  0
    8.7778    1.1583    0.0000 O   0  0  0  0  0  0  0  0  0  0  0  0
    7.9118    2.6583    0.0000 O   0  0  0  0  0  0  0  0  0  0  0  0
    2.9088   -1.6626    0.0000 C   0  0  0  0  0  0  0  0  0  0  0  0
    3.5984   -0.2697    0.0000 C   0  0  0  0  0  0  0  0  0  0  0  0
    5.3032   -1.8863    0.0000 C   0  0  3  0  0  0  0  0  0  0  0  0
    4.6427   -2.6372    0.0000 C   0  0  0  0  0  0  0  0  0  0  0  0
    6.1634   -1.3763    0.0000 C   0  0  0  0  0  0  0  0  0  0  0  0
    2.0000   -2.0799    0.0000 C   0  0  0  0  0  0  0  0  0  0  0  0
    2.8158   -2.6583    0.0000 C   0  0  0  0  0  0  0  0  0  0  0  0
    2.4915   -0.7538    0.0000 C   0  0  0  0  0  0  0  0  0  0  0  0
    3.3792    0.7060    0.0000 C   0  0  0  0  0  0  0  0  0  0  0  0
    4.5740   -0.0504    0.0000 C   0  0  0  0  0  0  0  0  0  0  0  0
    2.6438    0.0284    0.0000 C   0  0  0  0  0  0  0  0  0  0  0  0
    6.0540   -2.5468    0.0000 C   0  0  0  0  0  0  0  0  0  0  0  0
    9.6439    0.6583    0.0000 C   0  0  0  0  0  0  0  0  0  0  0  0
    9.2778   -0.7078    0.0000 C   0  0  0  0  0  0  0  0  0  0  0  0
    6.1518   -0.3764    0.0000 C   0  0  0  0  0  0  0  0  0  0  0  0
    7.0458    0.1583    0.0000 C   0  0  0  0  0  0  0  0  0  0  0  0
   10.5099    1.1583    0.0000 C   0  0  0  0  0  0  0  0  0  0  0  0
    9.6439    1.6583    0.0000 C   0  0  0  0  0  0  0  0  0  0  0  0
   10.5099    0.1583    0.0000 C   0  0  0  0  0  0  0  0  0  0  0  0
    9.7778   -1.5738    0.0000 C   0  0  0  0  0  0  0  0  0  0  0  0
    8.4118   -1.2078    0.0000 C   0  0  0  0  0  0  0  0  0  0  0  0
   10.2778   -0.7078    0.0000 C   0  0  0  0  0  0  0  0  0  0  0  0
    7.0458    1.1583    0.0000 C   0  0  0  0  0  0  0  0  0  0  0  0
    5.2458    0.1374    0.0000 C   0  0  0  0  0  0  0  0  0  0  0  0
    7.9118    1.6583    0.0000 C   0  0  0  0  0  0  0  0  0  0  0  0
    6.1518    1.6929    0.0000 C   0  0  0  0  0  0  0  0  0  0  0  0
    5.2458    1.1791    0.0000 C   0  0  0  0  0  0  0  0  0  0  0  0
    4.3390   -3.1776    0.0000 H   0  0  0  0  0  0  0  0  0  0  0  0
    5.1485   -2.9958    0.0000 H   0  0  0  0  0  0  0  0  0  0  0  0
    6.3822   -1.9564    0.0000 H   0  0  0  0  0  0  0  0  0  0  0  0
    6.7727   -1.2616    0.0000 H   0  0  0  0  0  0  0  0  0  0  0  0
    1.7413   -1.5164    0.0000 H   0  0  0  0  0  0  0  0  0  0  0  0
    1.4366   -2.3386    0.0000 H   0  0  0  0  0  0  0  0  0  0  0  0
    2.2587   -2.6433    0.0000 H   0  0  0  0  0  0  0  0  0  0  0  0
    2.1984   -2.6006    0.0000 H   0  0  0  0  0  0  0  0  0  0  0  0
    2.7581   -3.2756    0.0000 H   0  0  0  0  0  0  0  0  0  0  0  0
    3.4331   -2.7159    0.0000 H   0  0  0  0  0  0  0  0  0  0  0  0
    3.0550   -0.4951    0.0000 H   0  0  0  0  0  0  0  0  0  0  0  0
    2.2328   -0.1904    0.0000 H   0  0  0  0  0  0  0  0  0  0  0  0
    1.9281   -1.0125    0.0000 H   0  0  0  0  0  0  0  0  0  0  0  0
    3.9841    0.8419    0.0000 H   0  0  0  0  0  0  0  0  0  0  0  0
    3.2432    1.3109    0.0000 H   0  0  0  0  0  0  0  0  0  0  0  0
    2.7742    0.5701    0.0000 H   0  0  0  0  0  0  0  0  0  0  0  0
    4.7099   -0.6554    0.0000 H   0  0  0  0  0  0  0  0  0  0  0  0
    5.1790    0.0855    0.0000 H   0  0  0  0  0  0  0  0  0  0  0  0
    4.4381    0.5545    0.0000 H   0  0  0  0  0  0  0  0  0  0  0  0
    2.8286    0.6202    0.0000 H   0  0  0  0  0  0  0  0  0  0  0  0
    2.0520    0.2132    0.0000 H   0  0  0  0  0  0  0  0  0  0  0  0
    2.4590   -0.5634    0.0000 H   0  0  0  0  0  0  0  0  0  0  0  0
    5.6446   -3.0123    0.0000 H   0  0  0  0  0  0  0  0  0  0  0  0
    6.5196   -2.9563    0.0000 H   0  0  0  0  0  0  0  0  0  0  0  0
    6.4636   -2.0813    0.0000 H   0  0  0  0  0  0  0  0  0  0  0  0
   10.8199    0.6213    0.0000 H   0  0  0  0  0  0  0  0  0  0  0  0
   11.0468    1.4683    0.0000 H   0  0  0  0  0  0  0  0  0  0  0  0
   10.1999    1.6952    0.0000 H   0  0  0  0  0  0  0  0  0  0  0  0
   10.2639    1.6583    0.0000 H   0  0  0  0  0  0  0  0  0  0  0  0
    9.6439    2.2783    0.0000 H   0  0  0  0  0  0  0  0  0  0  0  0
    9.0239    1.6583    0.0000 H   0  0  0  0  0  0  0  0  0  0  0  0
   10.1999   -0.3787    0.0000 H   0  0  0  0  0  0  0  0  0  0  0  0
   11.0468   -0.1517    0.0000 H   0  0  0  0  0  0  0  0  0  0  0  0
   10.8199    0.6952    0.0000 H   0  0  0  0  0  0  0  0  0  0  0  0
    9.2409   -1.8838    0.0000 H   0  0  0  0  0  0  0  0  0  0  0  0
   10.0878   -2.1107    0.0000 H   0  0  0  0  0  0  0  0  0  0  0  0
   10.3148   -1.2638    0.0000 H   0  0  0  0  0  0  0  0  0  0  0  0
    8.1018   -0.6708    0.0000 H   0  0  0  0  0  0  0  0  0  0  0  0
    7.8749   -1.5178    0.0000 H   0  0  0  0  0  0  0  0  0  0  0  0
    8.7218   -1.7447    0.0000 H   0  0  0  0  0  0  0  0  0  0  0  0
   10.2778   -1.3278    0.0000 H   0  0  0  0  0  0  0  0  0  0  0  0
   10.8978   -0.7078    0.0000 H   0  0  0  0  0  0  0  0  0  0  0  0
   10.2778   -0.0878    0.0000 H   0  0  0  0  0  0  0  0  0  0  0  0
    4.7100   -0.1746    0.0000 H   0  0  0  0  0  0  0  0  0  0  0  0
    6.1590    2.3129    0.0000 H   0  0  0  0  0  0  0  0  0  0  0  0
    4.7100    1.4912    0.0000 H   0  0  0  0  0  0  0  0  0  0  0  0
  1  3  1  0  0  0  0
  1  4  1  0  0  0  0
  1  8  1  0  0  0  0
  1  9  1  0  0  0  0
  2  5  1  0  0  0  0
  2  6  1  0  0  0  0
  2 20  1  0  0  0  0
  2 21  1  0  0  0  0
  3 10  1  0  0  0  0
  4 11  1  0  0  0  0
  5 23  1  0  0  0  0
  6 32  1  0  0  0  0
  7 32  2  0  0  0  0
  8 13  1  0  0  0  0
  8 14  1  0  0  0  0
  8 15  1  0  0  0  0
  9 16  1  0  0  0  0
  9 17  1  0  0  0  0
  9 18  1  0  0  0  0
 10 11  1  0  0  0  0
 10 12  1  0  0  0  0
 10 19  1  0  0  0  0
 11 35  1  0  0  0  0
 11 36  1  0  0  0  0
 12 22  1  0  0  0  0
 12 37  1  0  0  0  0
 12 38  1  0  0  0  0
 13 39  1  0  0  0  0
 13 40  1  0  0  0  0
 13 41  1  0  0  0  0
 14 42  1  0  0  0  0
 14 43  1  0  0  0  0
 14 44  1  0  0  0  0
 15 45  1  0  0  0  0
 15 46  1  0  0  0  0
 15 47  1  0  0  0  0
 16 48  1  0  0  0  0
 16 49  1  0  0  0  0
 16 50  1  0  0  0  0
 17 51  1  0  0  0  0
 17 52  1  0  0  0  0
 17 53  1  0  0  0  0
 18 54  1  0  0  0  0
 18 55  1  0  0  0  0
 18 56  1  0  0  0  0
 19 57  1  0  0  0  0
 19 58  1  0  0  0  0
 19 59  1  0  0  0  0
 20 24  1  0  0  0  0
 20 25  1  0  0  0  0
 20 26  1  0  0  0  0
 21 27  1  0  0  0  0
 21 28  1  0  0  0  0
 21 29  1  0  0  0  0
 22 23  2  0  0  0  0
 22 31  1  0  0  0  0
 23 30  1  0  0  0  0
 24 60  1  0  0  0  0
 24 61  1  0  0  0  0
 24 62  1  0  0  0  0
 25 63  1  0  0  0  0
 25 64  1  0  0  0  0
 25 65  1  0  0  0  0
 26 66  1  0  0  0  0
 26 67  1  0  0  0  0
 26 68  1  0  0  0  0
 27 69  1  0  0  0  0
 27 70  1  0  0  0  0
 27 71  1  0  0  0  0
 28 72  1  0  0  0  0
 28 73  1  0  0  0  0
 28 74  1  0  0  0  0
 29 75  1  0  0  0  0
 29 76  1  0  0  0  0
 29 77  1  0  0  0  0
 30 32  1  0  0  0  0
 30 33  2  0  0  0  0
 31 34  2  0  0  0  0
 31 78  1  0  0  0  0
 33 34  1  0  0  0  0
 33 79  1  0  0  0  0
 34 80  1  0  0  0  0
M  END
> <PUBCHEM_COMPOUND_CID>
528200
> <PUBCHEM_COMPOUND_CANONICALIZED>
1
> <PUBCHEM_CACTVS_COMPLEXITY>
755
> <PUBCHEM_CACTVS_HBOND_ACCEPTOR>
5
> <PUBCHEM_CACTVS_HBOND_DONOR>
0
> <PUBCHEM_CACTVS_ROTATABLE_BOND>
6
> <PUBCHEM_CACTVS_SUBSKEYS>
AAADcfB4OAwAAAAAAAAAAAAAAAAAASAAAAA0QAAAAAAAAACRAAAAGhAAAEAADESguAIyDoAAAAGIAiDSCAACAAAkIAAIiAEECMgJJzaAFRKAMUAl4BEIiYfI6PSOAAACAAAIAAAAAAQAABAAAAAAAAAAAA==
> <PUBCHEM_IUPAC_OPENEYE_NAME>
2,2-ditert-butyl-8-[(2,2-ditert-butyl-4-methyl-1,3,2-dioxasilolan-4-yl)methyl]-1,3,2-benzodioxasilin-4-one
> <PUBCHEM_IUPAC_CAS_NAME>
2,2-ditert-butyl-8-[(2,2-ditert-butyl-4-methyl-1,3,2-dioxasilolan-4-yl)methyl]-1,3,2-benzodioxasilin-4-one
> <PUBCHEM_IUPAC_NAME_MARKUP>
2,2-di<I>tert</I>-butyl-8-[(2,2-di<I>tert</I>-butyl-4-methyl-1,3,2-dioxasilolan-4-yl)methyl]-1,3,2-benzodioxasilin-4-one
> <PUBCHEM_IUPAC_NAME>
2,2-ditert-butyl-8-[(2,2-ditert-butyl-4-methyl-1,3,2-dioxasilolan-4-yl)methyl]-1,3,2-benzodioxasilin-4-one
> <PUBCHEM_IUPAC_SYSTEMATIC_NAME>
2,2-ditert-butyl-8-[(2,2-ditert-butyl-4-methyl-1,3,2-dioxasilolan-4-yl)methyl]-1,3,2-benzodioxasilin-4-one
> <PUBCHEM_IUPAC_TRADITIONAL_NAME>
2,2-ditert-butyl-8-[(2,2-ditert-butyl-4-methyl-1,3,2-dioxasilolan-4-yl)methyl]-1,3,2-benzodioxasilin-4-one
> <PUBCHEM_IUPAC_INCHI>
InChI=1S/C27H46O5Si2/c1-23(2,3)33(24(4,5)6)29-18-27(13,32-33)17-19-15-14-16-20-21(19)30-34(25(7,8)9,26(10,11)12)31-22(20)28/h14-16H,17-18H2,1-13H3
> <PUBCHEM_IUPAC_INCHIKEY>
BLPNYOCLCCFTTK-UHFFFAOYSA-N
> <PUBCHEM_EXACT_MASS>
506.28837763
> <PUBCHEM_MOLECULAR_FORMULA>
C27H46O5Si2
> <PUBCHEM_MOLECULAR_WEIGHT>
506.8
> <PUBCHEM_OPENEYE_CAN_SMILES>
CC1(CO[Si](O1)(C(C)(C)C)C(C)(C)C)CC2=C3C(=CC=C2)C(=O)O[Si](O3)(C(C)(C)C)C(C)(C)C
> <PUBCHEM_OPENEYE_ISO_SMILES>
CC1(CO[Si](O1)(C(C)(C)C)C(C)(C)C)CC2=C3C(=CC=C2)C(=O)O[Si](O3)(C(C)(C)C)C(C)(C)C
> <PUBCHEM_CACTVS_TPSA>
54
> <PUBCHEM_MONOISOTOPIC_WEIGHT>
506.28837763
> <PUBCHEM_TOTAL_CHARGE>
0
> <PUBCHEM_HEAVY_ATOM_COUNT>
34
> <PUBCHEM_ATOM_DEF_STEREO_COUNT>
0
> <PUBCHEM_ATOM_UDEF_STEREO_COUNT>
1
> <PUBCHEM_BOND_DEF_STEREO_COUNT>
0
> <PUBCHEM_BOND_UDEF_STEREO_COUNT>
0
> <PUBCHEM_ISOTOPIC_ATOM_COUNT>
0
> <PUBCHEM_COMPONENT_COUNT>
1
> <PUBCHEM_CACTVS_TAUTO_COUNT>
-1
> <PUBCHEM_COORDINATE_TYPE>
1
5
255
> <PUBCHEM_BONDANNOTATIONS>
10  19  3
22  23  8
22  31  8
23  30  8
30  33  8
31  34  8
33  34  8
$$$$
