528351
  -OEChem-10302200292D
 27 29  0     1  0  0  0  0  0999 V2000
    2.0000   -1.9741    0.0000 O   0  0  0  0  0  0  0  0  0  0  0  0
    4.3801    1.6641    0.0000 N   0  0  0  0  0  0  0  0  0  0  0  0
    4.3801    0.6641    0.0000 C   0  0  0  0  0  0  0  0  0  0  0  0
    5.2163   -0.7842    0.0000 C   0  0  0  0  0  0  0  0  0  0  0  0
    3.6890   -1.2193    0.0000 C   0  0  3  0  0  0  0  0  0  0  0  0
    3.5439   -0.7842    0.0000 C   0  0  3  0  0  0  0  0  0  0  0  0
    5.2163    0.1813    0.0000 C   0  0  0  0  0  0  0  0  0  0  0  0
    3.6890   -0.1740    0.0000 C   0  0  0  0  0  0  0  0  0  0  0  0
    3.5439    0.1813    0.0000 C   0  0  0  0  0  0  0  0  0  0  0  0
    4.5947   -1.6961    0.0000 C   0  0  0  0  0  0  0  0  0  0  0  0
    4.3801   -1.0870    0.0000 C   0  0  0  0  0  0  0  0  0  0  0  0
    2.7071   -1.2670    0.0000 C   0  0  0  0  0  0  0  0  0  0  0  0
    5.8087   -0.9669    0.0000 H   0  0  0  0  0  0  0  0  0  0  0  0
    3.5549   -1.8246    0.0000 H   0  0  0  0  0  0  0  0  0  0  0  0
    4.0515   -0.4282    0.0000 H   0  0  0  0  0  0  0  0  0  0  0  0
    5.8269    0.0737    0.0000 H   0  0  0  0  0  0  0  0  0  0  0  0
    5.4283    0.7639    0.0000 H   0  0  0  0  0  0  0  0  0  0  0  0
    3.3454    0.3420    0.0000 H   0  0  0  0  0  0  0  0  0  0  0  0
    3.0956   -0.3535    0.0000 H   0  0  0  0  0  0  0  0  0  0  0  0
    3.3318    0.7639    0.0000 H   0  0  0  0  0  0  0  0  0  0  0  0
    2.9333    0.0737    0.0000 H   0  0  0  0  0  0  0  0  0  0  0  0
    4.2853   -2.2334    0.0000 H   0  0  0  0  0  0  0  0  0  0  0  0
    5.1198   -2.0257    0.0000 H   0  0  0  0  0  0  0  0  0  0  0  0
    4.0101   -1.5845    0.0000 H   0  0  0  0  0  0  0  0  0  0  0  0
    4.7501   -1.5845    0.0000 H   0  0  0  0  0  0  0  0  0  0  0  0
    4.9170    1.9741    0.0000 H   0  0  0  0  0  0  0  0  0  0  0  0
    3.8432    1.9741    0.0000 H   0  0  0  0  0  0  0  0  0  0  0  0
  1 12  2  0  0  0  0
  2  3  1  0  0  0  0
  2 26  1  0  0  0  0
  2 27  1  0  0  0  0
  3  7  1  0  0  0  0
  3  8  1  0  0  0  0
  3  9  1  0  0  0  0
  4  7  1  0  0  0  0
  4 10  1  0  0  0  0
  4 11  1  0  0  0  0
  4 13  1  0  0  0  0
  5  8  1  0  0  0  0
  5 10  1  0  0  0  0
  5 12  1  0  0  0  0
  5 14  1  0  0  0  0
  6  9  1  0  0  0  0
  6 11  1  0  0  0  0
  6 12  1  0  0  0  0
  6 15  1  0  0  0  0
  7 16  1  0  0  0  0
  7 17  1  0  0  0  0
  8 18  1  0  0  0  0
  8 19  1  0  0  0  0
  9 20  1  0  0  0  0
  9 21  1  0  0  0  0
 10 22  1  0  0  0  0
 10 23  1  0  0  0  0
 11 24  1  0  0  0  0
 11 25  1  0  0  0  0
M  END
> <PUBCHEM_COMPOUND_CID>
528351
> <PUBCHEM_COMPOUND_CANONICALIZED>
1
> <PUBCHEM_CACTVS_COMPLEXITY>
230
> <PUBCHEM_CACTVS_HBOND_ACCEPTOR>
2
> <PUBCHEM_CACTVS_HBOND_DONOR>
1
> <PUBCHEM_CACTVS_ROTATABLE_BOND>
0
> <PUBCHEM_CACTVS_SUBSKEYS>
AAADccByIAAAAAAAAAAAAAAAAAAAAAAAAAAwYMGAAAAAAAAAAAAAHgAQAAAADYyBgAAAAABAAAAIAIAQAAAAAAAAAAAAAAEAAAAAABIAgAAAAAAAEAAAAAEciMCOAAAAAAAAAAAAAASAAAAAAAAAAAAAAA==
> <PUBCHEM_IUPAC_OPENEYE_NAME>
5-aminoadamantan-2-one
> <PUBCHEM_IUPAC_CAS_NAME>
5-amino-2-adamantanone
> <PUBCHEM_IUPAC_NAME_MARKUP>
5-aminoadamantan-2-one
> <PUBCHEM_IUPAC_NAME>
5-aminoadamantan-2-one
> <PUBCHEM_IUPAC_SYSTEMATIC_NAME>
5-azanyladamantan-2-one
> <PUBCHEM_IUPAC_TRADITIONAL_NAME>
5-aminoadamantan-2-one
> <PUBCHEM_IUPAC_INCHI>
InChI=1S/C10H15NO/c11-10-3-6-1-7(4-10)9(12)8(2-6)5-10/h6-8H,1-5,11H2
> <PUBCHEM_IUPAC_INCHIKEY>
FXBKMQRDMLOJNV-UHFFFAOYSA-N
> <PUBCHEM_XLOGP3_AA>
0.3
> <PUBCHEM_EXACT_MASS>
165.115364102
> <PUBCHEM_MOLECULAR_FORMULA>
C10H15NO
> <PUBCHEM_MOLECULAR_WEIGHT>
165.23
> <PUBCHEM_OPENEYE_CAN_SMILES>
C1C2CC3CC(C2)(CC1C3=O)N
> <PUBCHEM_OPENEYE_ISO_SMILES>
C1C2CC3CC(C2)(CC1C3=O)N
> <PUBCHEM_CACTVS_TPSA>
43.1
> <PUBCHEM_MONOISOTOPIC_WEIGHT>
165.115364102
> <PUBCHEM_TOTAL_CHARGE>
0
> <PUBCHEM_HEAVY_ATOM_COUNT>
12
> <PUBCHEM_ATOM_DEF_STEREO_COUNT>
0
> <PUBCHEM_ATOM_UDEF_STEREO_COUNT>
2
> <PUBCHEM_BOND_DEF_STEREO_COUNT>
0
> <PUBCHEM_BOND_UDEF_STEREO_COUNT>
0
> <PUBCHEM_ISOTOPIC_ATOM_COUNT>
0
> <PUBCHEM_COMPONENT_COUNT>
1
> <PUBCHEM_CACTVS_TAUTO_COUNT>
-1
> <PUBCHEM_COORDINATE_TYPE>
1
5
255
> <PUBCHEM_BONDANNOTATIONS>
5  10  3
6  11  3
$$$$
