528371
  -OEChem-10302200292D
 46 47  0     1  0  0  0  0  0999 V2000
    7.6178   -0.2135    0.0000 O   0  0  0  0  0  0  0  0  0  0  0  0
    8.7768    1.0737    0.0000 N   0  0  0  0  0  0  0  0  0  0  0  0
   10.4518   -2.0141    0.0000 N   0  0  0  0  0  0  0  0  0  0  0  0
    9.5858    0.4859    0.0000 C   0  0  3  0  0  0  0  0  0  0  0  0
   10.3948    1.0737    0.0000 C   0  0  0  0  0  0  0  0  0  0  0  0
   10.0858    2.0247    0.0000 C   0  0  0  0  0  0  0  0  0  0  0  0
    9.0858    2.0247    0.0000 C   0  0  0  0  0  0  0  0  0  0  0  0
    9.5858   -0.5141    0.0000 C   0  0  0  0  0  0  0  0  0  0  0  0
    7.8258    0.7646    0.0000 C   0  0  0  0  0  0  0  0  0  0  0  0
    7.0826    1.4338    0.0000 C   0  0  0  0  0  0  0  0  0  0  0  0
    6.1316    1.1248    0.0000 C   0  0  0  0  0  0  0  0  0  0  0  0
    5.3884    1.7939    0.0000 C   0  0  0  0  0  0  0  0  0  0  0  0
    4.4374    1.4849    0.0000 C   0  0  0  0  0  0  0  0  0  0  0  0
    8.7198   -1.0141    0.0000 C   0  0  0  0  0  0  0  0  0  0  0  0
   10.4518   -1.0141    0.0000 C   0  0  0  0  0  0  0  0  0  0  0  0
    3.6942    2.1540    0.0000 C   0  0  0  0  0  0  0  0  0  0  0  0
    2.7431    1.8450    0.0000 C   0  0  0  0  0  0  0  0  0  0  0  0
    8.7198   -2.0141    0.0000 C   0  0  0  0  0  0  0  0  0  0  0  0
    9.5858   -2.5141    0.0000 C   0  0  0  0  0  0  0  0  0  0  0  0
    2.0000    2.5141    0.0000 C   0  0  0  0  0  0  0  0  0  0  0  0
   10.1382    0.2044    0.0000 H   0  0  0  0  0  0  0  0  0  0  0  0
   10.7048    0.5367    0.0000 H   0  0  0  0  0  0  0  0  0  0  0  0
   10.9612    1.3258    0.0000 H   0  0  0  0  0  0  0  0  0  0  0  0
   10.6923    2.1536    0.0000 H   0  0  0  0  0  0  0  0  0  0  0  0
   10.0210    2.6413    0.0000 H   0  0  0  0  0  0  0  0  0  0  0  0
    9.1506    2.6413    0.0000 H   0  0  0  0  0  0  0  0  0  0  0  0
    8.4794    2.1536    0.0000 H   0  0  0  0  0  0  0  0  0  0  0  0
    7.5712    1.8155    0.0000 H   0  0  0  0  0  0  0  0  0  0  0  0
    6.7915    1.9812    0.0000 H   0  0  0  0  0  0  0  0  0  0  0  0
    5.6430    0.7431    0.0000 H   0  0  0  0  0  0  0  0  0  0  0  0
    6.4226    0.5773    0.0000 H   0  0  0  0  0  0  0  0  0  0  0  0
    5.8770    2.1756    0.0000 H   0  0  0  0  0  0  0  0  0  0  0  0
    5.0973    2.3413    0.0000 H   0  0  0  0  0  0  0  0  0  0  0  0
    3.9488    1.1032    0.0000 H   0  0  0  0  0  0  0  0  0  0  0  0
    4.7284    0.9374    0.0000 H   0  0  0  0  0  0  0  0  0  0  0  0
    8.1829   -0.7041    0.0000 H   0  0  0  0  0  0  0  0  0  0  0  0
   10.9888   -0.7041    0.0000 H   0  0  0  0  0  0  0  0  0  0  0  0
    4.1828    2.5357    0.0000 H   0  0  0  0  0  0  0  0  0  0  0  0
    3.4031    2.7014    0.0000 H   0  0  0  0  0  0  0  0  0  0  0  0
    2.2546    1.4633    0.0000 H   0  0  0  0  0  0  0  0  0  0  0  0
    3.0342    1.2976    0.0000 H   0  0  0  0  0  0  0  0  0  0  0  0
    8.1829   -2.3241    0.0000 H   0  0  0  0  0  0  0  0  0  0  0  0
    9.5858   -3.1341    0.0000 H   0  0  0  0  0  0  0  0  0  0  0  0
    2.4149    2.9749    0.0000 H   0  0  0  0  0  0  0  0  0  0  0  0
    1.5392    2.9290    0.0000 H   0  0  0  0  0  0  0  0  0  0  0  0
    1.5851    2.0534    0.0000 H   0  0  0  0  0  0  0  0  0  0  0  0
  1  9  2  0  0  0  0
  2  4  1  0  0  0  0
  2  7  1  0  0  0  0
  2  9  1  0  0  0  0
  3 15  1  0  0  0  0
  3 19  2  0  0  0  0
  4  5  1  0  0  0  0
  4  8  1  0  0  0  0
  4 21  1  0  0  0  0
  5  6  1  0  0  0  0
  5 22  1  0  0  0  0
  5 23  1  0  0  0  0
  6  7  1  0  0  0  0
  6 24  1  0  0  0  0
  6 25  1  0  0  0  0
  7 26  1  0  0  0  0
  7 27  1  0  0  0  0
  8 14  1  0  0  0  0
  8 15  2  0  0  0  0
  9 10  1  0  0  0  0
 10 11  1  0  0  0  0
 10 28  1  0  0  0  0
 10 29  1  0  0  0  0
 11 12  1  0  0  0  0
 11 30  1  0  0  0  0
 11 31  1  0  0  0  0
 12 13  1  0  0  0  0
 12 32  1  0  0  0  0
 12 33  1  0  0  0  0
 13 16  1  0  0  0  0
 13 34  1  0  0  0  0
 13 35  1  0  0  0  0
 14 18  2  0  0  0  0
 14 36  1  0  0  0  0
 15 37  1  0  0  0  0
 16 17  1  0  0  0  0
 16 38  1  0  0  0  0
 16 39  1  0  0  0  0
 17 20  1  0  0  0  0
 17 40  1  0  0  0  0
 17 41  1  0  0  0  0
 18 19  1  0  0  0  0
 18 42  1  0  0  0  0
 19 43  1  0  0  0  0
 20 44  1  0  0  0  0
 20 45  1  0  0  0  0
 20 46  1  0  0  0  0
M  END
> <PUBCHEM_COMPOUND_CID>
528371
> <PUBCHEM_COMPOUND_CANONICALIZED>
1
> <PUBCHEM_CACTVS_COMPLEXITY>
293
> <PUBCHEM_CACTVS_HBOND_ACCEPTOR>
2
> <PUBCHEM_CACTVS_HBOND_DONOR>
0
> <PUBCHEM_CACTVS_ROTATABLE_BOND>
7
> <PUBCHEM_CACTVS_SUBSKEYS>
AAADceB7IAAAAAAAAAAAAAAAAAAAAWAAAAAsAAAAAAAAAAABgAAAHgAAAAAADCjBmgQ+gJMIEACoAjF3VACCgCAxAiAI2CE4ZJgIIPLA0ZGEIAhghgDIyAcYiICOAAAAAAAAAAAAAAAAAAAAAAAAAAAAAA==
> <PUBCHEM_IUPAC_OPENEYE_NAME>
1-[2-(3-pyridyl)pyrrolidin-1-yl]octan-1-one
> <PUBCHEM_IUPAC_CAS_NAME>
1-[2-(3-pyridinyl)-1-pyrrolidinyl]-1-octanone
> <PUBCHEM_IUPAC_NAME_MARKUP>
1-(2-pyridin-3-ylpyrrolidin-1-yl)octan-1-one
> <PUBCHEM_IUPAC_NAME>
1-(2-pyridin-3-ylpyrrolidin-1-yl)octan-1-one
> <PUBCHEM_IUPAC_SYSTEMATIC_NAME>
1-(2-pyridin-3-ylpyrrolidin-1-yl)octan-1-one
> <PUBCHEM_IUPAC_TRADITIONAL_NAME>
1-[2-(3-pyridyl)pyrrolidino]octan-1-one
> <PUBCHEM_IUPAC_INCHI>
InChI=1S/C17H26N2O/c1-2-3-4-5-6-11-17(20)19-13-8-10-16(19)15-9-7-12-18-14-15/h7,9,12,14,16H,2-6,8,10-11,13H2,1H3
> <PUBCHEM_IUPAC_INCHIKEY>
KEQBTQJDZSZAMQ-UHFFFAOYSA-N
> <PUBCHEM_XLOGP3_AA>
3.7
> <PUBCHEM_EXACT_MASS>
274.204513457
> <PUBCHEM_MOLECULAR_FORMULA>
C17H26N2O
> <PUBCHEM_MOLECULAR_WEIGHT>
274.4
> <PUBCHEM_OPENEYE_CAN_SMILES>
CCCCCCCC(=O)N1CCCC1C2=CN=CC=C2
> <PUBCHEM_OPENEYE_ISO_SMILES>
CCCCCCCC(=O)N1CCCC1C2=CN=CC=C2
> <PUBCHEM_CACTVS_TPSA>
33.2
> <PUBCHEM_MONOISOTOPIC_WEIGHT>
274.204513457
> <PUBCHEM_TOTAL_CHARGE>
0
> <PUBCHEM_HEAVY_ATOM_COUNT>
20
> <PUBCHEM_ATOM_DEF_STEREO_COUNT>
0
> <PUBCHEM_ATOM_UDEF_STEREO_COUNT>
1
> <PUBCHEM_BOND_DEF_STEREO_COUNT>
0
> <PUBCHEM_BOND_UDEF_STEREO_COUNT>
0
> <PUBCHEM_ISOTOPIC_ATOM_COUNT>
0
> <PUBCHEM_COMPONENT_COUNT>
1
> <PUBCHEM_CACTVS_TAUTO_COUNT>
-1
> <PUBCHEM_COORDINATE_TYPE>
1
5
255
> <PUBCHEM_BONDANNOTATIONS>
14  18  8
18  19  8
3  15  8
3  19  8
4  8  3
8  14  8
8  15  8
$$$$
