528370
  -OEChem-10302200292D
 40 41  0     1  0  0  0  0  0999 V2000
    5.9236   -0.0334    0.0000 O   0  0  0  0  0  0  0  0  0  0  0  0
    7.0826    1.2537    0.0000 N   0  0  0  0  0  0  0  0  0  0  0  0
    8.7576   -1.8341    0.0000 N   0  0  0  0  0  0  0  0  0  0  0  0
    7.8916    0.6659    0.0000 C   0  0  3  0  0  0  0  0  0  0  0  0
    8.7006    1.2537    0.0000 C   0  0  0  0  0  0  0  0  0  0  0  0
    8.3916    2.2048    0.0000 C   0  0  0  0  0  0  0  0  0  0  0  0
    7.3916    2.2048    0.0000 C   0  0  0  0  0  0  0  0  0  0  0  0
    7.8916   -0.3341    0.0000 C   0  0  0  0  0  0  0  0  0  0  0  0
    6.1316    0.9447    0.0000 C   0  0  0  0  0  0  0  0  0  0  0  0
    5.3884    1.6138    0.0000 C   0  0  0  0  0  0  0  0  0  0  0  0
    4.4374    1.3048    0.0000 C   0  0  0  0  0  0  0  0  0  0  0  0
    3.6942    1.9740    0.0000 C   0  0  0  0  0  0  0  0  0  0  0  0
    7.0256   -0.8341    0.0000 C   0  0  0  0  0  0  0  0  0  0  0  0
    8.7576   -0.8341    0.0000 C   0  0  0  0  0  0  0  0  0  0  0  0
    2.7431    1.6649    0.0000 C   0  0  0  0  0  0  0  0  0  0  0  0
    7.0256   -1.8341    0.0000 C   0  0  0  0  0  0  0  0  0  0  0  0
    2.0000    2.3341    0.0000 C   0  0  0  0  0  0  0  0  0  0  0  0
    7.8916   -2.3341    0.0000 C   0  0  0  0  0  0  0  0  0  0  0  0
    8.4440    0.3845    0.0000 H   0  0  0  0  0  0  0  0  0  0  0  0
    9.0106    0.7168    0.0000 H   0  0  0  0  0  0  0  0  0  0  0  0
    9.2670    1.5059    0.0000 H   0  0  0  0  0  0  0  0  0  0  0  0
    8.9981    2.3337    0.0000 H   0  0  0  0  0  0  0  0  0  0  0  0
    8.3268    2.8214    0.0000 H   0  0  0  0  0  0  0  0  0  0  0  0
    7.4564    2.8214    0.0000 H   0  0  0  0  0  0  0  0  0  0  0  0
    6.7852    2.3337    0.0000 H   0  0  0  0  0  0  0  0  0  0  0  0
    5.8770    1.9956    0.0000 H   0  0  0  0  0  0  0  0  0  0  0  0
    5.0973    2.1613    0.0000 H   0  0  0  0  0  0  0  0  0  0  0  0
    3.9488    0.9231    0.0000 H   0  0  0  0  0  0  0  0  0  0  0  0
    4.7284    0.7574    0.0000 H   0  0  0  0  0  0  0  0  0  0  0  0
    4.1828    2.3557    0.0000 H   0  0  0  0  0  0  0  0  0  0  0  0
    3.4031    2.5214    0.0000 H   0  0  0  0  0  0  0  0  0  0  0  0
    6.4887   -0.5241    0.0000 H   0  0  0  0  0  0  0  0  0  0  0  0
    9.2946   -0.5241    0.0000 H   0  0  0  0  0  0  0  0  0  0  0  0
    2.2546    1.2832    0.0000 H   0  0  0  0  0  0  0  0  0  0  0  0
    3.0342    1.1175    0.0000 H   0  0  0  0  0  0  0  0  0  0  0  0
    6.4887   -2.1441    0.0000 H   0  0  0  0  0  0  0  0  0  0  0  0
    2.4149    2.7948    0.0000 H   0  0  0  0  0  0  0  0  0  0  0  0
    1.5392    2.7489    0.0000 H   0  0  0  0  0  0  0  0  0  0  0  0
    1.5851    1.8733    0.0000 H   0  0  0  0  0  0  0  0  0  0  0  0
    7.8916   -2.9541    0.0000 H   0  0  0  0  0  0  0  0  0  0  0  0
  1  9  2  0  0  0  0
  2  4  1  0  0  0  0
  2  7  1  0  0  0  0
  2  9  1  0  0  0  0
  3 14  1  0  0  0  0
  3 18  2  0  0  0  0
  4  5  1  0  0  0  0
  4  8  1  0  0  0  0
  4 19  1  0  0  0  0
  5  6  1  0  0  0  0
  5 20  1  0  0  0  0
  5 21  1  0  0  0  0
  6  7  1  0  0  0  0
  6 22  1  0  0  0  0
  6 23  1  0  0  0  0
  7 24  1  0  0  0  0
  7 25  1  0  0  0  0
  8 13  1  0  0  0  0
  8 14  2  0  0  0  0
  9 10  1  0  0  0  0
 10 11  1  0  0  0  0
 10 26  1  0  0  0  0
 10 27  1  0  0  0  0
 11 12  1  0  0  0  0
 11 28  1  0  0  0  0
 11 29  1  0  0  0  0
 12 15  1  0  0  0  0
 12 30  1  0  0  0  0
 12 31  1  0  0  0  0
 13 16  2  0  0  0  0
 13 32  1  0  0  0  0
 14 33  1  0  0  0  0
 15 17  1  0  0  0  0
 15 34  1  0  0  0  0
 15 35  1  0  0  0  0
 16 18  1  0  0  0  0
 16 36  1  0  0  0  0
 17 37  1  0  0  0  0
 17 38  1  0  0  0  0
 17 39  1  0  0  0  0
 18 40  1  0  0  0  0
M  END
> <PUBCHEM_COMPOUND_CID>
528370
> <PUBCHEM_COMPOUND_CANONICALIZED>
1
> <PUBCHEM_CACTVS_COMPLEXITY>
267
> <PUBCHEM_CACTVS_HBOND_ACCEPTOR>
2
> <PUBCHEM_CACTVS_HBOND_DONOR>
0
> <PUBCHEM_CACTVS_ROTATABLE_BOND>
5
> <PUBCHEM_CACTVS_SUBSKEYS>
AAADceBzIAAAAAAAAAAAAAAAAAAAAWAAAAAsAAAAAAAAAAABgAAAHgAAAAAADCjBmgQ+gJMIEACoAjF3VACCgCAxAiAI2CE4ZJgIIPLA0ZGEIAhghgDIyAcYiIAOAAAAAAAAAAAAAAAAAAAAAAAAAAAAAA==
> <PUBCHEM_IUPAC_OPENEYE_NAME>
1-[2-(3-pyridyl)pyrrolidin-1-yl]hexan-1-one
> <PUBCHEM_IUPAC_CAS_NAME>
1-[2-(3-pyridinyl)-1-pyrrolidinyl]-1-hexanone
> <PUBCHEM_IUPAC_NAME_MARKUP>
1-(2-pyridin-3-ylpyrrolidin-1-yl)hexan-1-one
> <PUBCHEM_IUPAC_NAME>
1-(2-pyridin-3-ylpyrrolidin-1-yl)hexan-1-one
> <PUBCHEM_IUPAC_SYSTEMATIC_NAME>
1-(2-pyridin-3-ylpyrrolidin-1-yl)hexan-1-one
> <PUBCHEM_IUPAC_TRADITIONAL_NAME>
1-[2-(3-pyridyl)pyrrolidino]hexan-1-one
> <PUBCHEM_IUPAC_INCHI>
InChI=1S/C15H22N2O/c1-2-3-4-9-15(18)17-11-6-8-14(17)13-7-5-10-16-12-13/h5,7,10,12,14H,2-4,6,8-9,11H2,1H3
> <PUBCHEM_IUPAC_INCHIKEY>
NKXYWVGCISTJDE-UHFFFAOYSA-N
> <PUBCHEM_XLOGP3_AA>
2.6
> <PUBCHEM_EXACT_MASS>
246.173213330
> <PUBCHEM_MOLECULAR_FORMULA>
C15H22N2O
> <PUBCHEM_MOLECULAR_WEIGHT>
246.35
> <PUBCHEM_OPENEYE_CAN_SMILES>
CCCCCC(=O)N1CCCC1C2=CN=CC=C2
> <PUBCHEM_OPENEYE_ISO_SMILES>
CCCCCC(=O)N1CCCC1C2=CN=CC=C2
> <PUBCHEM_CACTVS_TPSA>
33.2
> <PUBCHEM_MONOISOTOPIC_WEIGHT>
246.173213330
> <PUBCHEM_TOTAL_CHARGE>
0
> <PUBCHEM_HEAVY_ATOM_COUNT>
18
> <PUBCHEM_ATOM_DEF_STEREO_COUNT>
0
> <PUBCHEM_ATOM_UDEF_STEREO_COUNT>
1
> <PUBCHEM_BOND_DEF_STEREO_COUNT>
0
> <PUBCHEM_BOND_UDEF_STEREO_COUNT>
0
> <PUBCHEM_ISOTOPIC_ATOM_COUNT>
0
> <PUBCHEM_COMPONENT_COUNT>
1
> <PUBCHEM_CACTVS_TAUTO_COUNT>
-1
> <PUBCHEM_COORDINATE_TYPE>
1
5
255
> <PUBCHEM_BONDANNOTATIONS>
13  16  8
16  18  8
3  14  8
3  18  8
4  8  3
8  13  8
8  14  8
$$$$
