528360
  -OEChem-10302200292D
 25 25  0     1  0  0  0  0  0999 V2000
    3.7320   -0.3100    0.0000 S   0  0  0  0  0  0  0  0  0  0  0  0
    5.4641   -0.3100    0.0000 S   0  0  0  0  0  0  0  0  0  0  0  0
    4.5981    1.1900    0.0000 N   0  0  0  0  0  0  0  0  0  0  0  0
    3.7320    0.6900    0.0000 C   0  0  3  0  0  0  0  0  0  0  0  0
    5.4641    0.6900    0.0000 C   0  0  3  0  0  0  0  0  0  0  0  0
    4.5981   -0.8100    0.0000 C   0  0  3  0  0  0  0  0  0  0  0  0
    2.8660    1.1900    0.0000 C   0  0  0  0  0  0  0  0  0  0  0  0
    6.3301    1.1900    0.0000 C   0  0  0  0  0  0  0  0  0  0  0  0
    4.5981   -1.8100    0.0000 C   0  0  0  0  0  0  0  0  0  0  0  0
    2.0000    0.6900    0.0000 C   0  0  0  0  0  0  0  0  0  0  0  0
    3.1951    0.3800    0.0000 H   0  0  0  0  0  0  0  0  0  0  0  0
    6.0010    0.3800    0.0000 H   0  0  0  0  0  0  0  0  0  0  0  0
    4.5981    1.8100    0.0000 H   0  0  0  0  0  0  0  0  0  0  0  0
    5.1350   -1.1200    0.0000 H   0  0  0  0  0  0  0  0  0  0  0  0
    3.2646    1.6650    0.0000 H   0  0  0  0  0  0  0  0  0  0  0  0
    2.4675    1.6650    0.0000 H   0  0  0  0  0  0  0  0  0  0  0  0
    6.6401    0.6531    0.0000 H   0  0  0  0  0  0  0  0  0  0  0  0
    6.8671    1.5000    0.0000 H   0  0  0  0  0  0  0  0  0  0  0  0
    6.0201    1.7269    0.0000 H   0  0  0  0  0  0  0  0  0  0  0  0
    3.9781   -1.8100    0.0000 H   0  0  0  0  0  0  0  0  0  0  0  0
    4.5981   -2.4300    0.0000 H   0  0  0  0  0  0  0  0  0  0  0  0
    5.2181   -1.8100    0.0000 H   0  0  0  0  0  0  0  0  0  0  0  0
    1.6900    1.2269    0.0000 H   0  0  0  0  0  0  0  0  0  0  0  0
    1.4631    0.3800    0.0000 H   0  0  0  0  0  0  0  0  0  0  0  0
    2.3100    0.1531    0.0000 H   0  0  0  0  0  0  0  0  0  0  0  0
  1  4  1  0  0  0  0
  1  6  1  0  0  0  0
  2  5  1  0  0  0  0
  2  6  1  0  0  0  0
  3  4  1  0  0  0  0
  3  5  1  0  0  0  0
  3 13  1  0  0  0  0
  4  7  1  0  0  0  0
  4 11  1  0  0  0  0
  5  8  1  0  0  0  0
  5 12  1  0  0  0  0
  6  9  1  0  0  0  0
  6 14  1  0  0  0  0
  7 10  1  0  0  0  0
  7 15  1  0  0  0  0
  7 16  1  0  0  0  0
  8 17  1  0  0  0  0
  8 18  1  0  0  0  0
  8 19  1  0  0  0  0
  9 20  1  0  0  0  0
  9 21  1  0  0  0  0
  9 22  1  0  0  0  0
 10 23  1  0  0  0  0
 10 24  1  0  0  0  0
 10 25  1  0  0  0  0
M  END
> <PUBCHEM_COMPOUND_CID>
528360
> <PUBCHEM_COMPOUND_CANONICALIZED>
1
> <PUBCHEM_CACTVS_COMPLEXITY>
108
> <PUBCHEM_CACTVS_HBOND_ACCEPTOR>
3
> <PUBCHEM_CACTVS_HBOND_DONOR>
1
> <PUBCHEM_CACTVS_ROTATABLE_BOND>
1
> <PUBCHEM_CACTVS_SUBSKEYS>
AAADccBiAABgAAAAAAAAAAAAAAAAAAAAAAAsAAAAAAAAAAAAAAAAHAQQAAAACADFQASCAALAAAgAAAAAAAAAAQBAABAAAIAIAAAAAAAgAAAEAAAAEACgAAAAAAAAAAAAAAAAAAAAAAAAAAAAAAAAAAAAAA==
> <PUBCHEM_IUPAC_OPENEYE_NAME>
4-ethyl-2,6-dimethyl-1,3,5-dithiazinane
> <PUBCHEM_IUPAC_CAS_NAME>
4-ethyl-2,6-dimethyl-1,3,5-dithiazinane
> <PUBCHEM_IUPAC_NAME_MARKUP>
4-ethyl-2,6-dimethyl-1,3,5-dithiazinane
> <PUBCHEM_IUPAC_NAME>
4-ethyl-2,6-dimethyl-1,3,5-dithiazinane
> <PUBCHEM_IUPAC_SYSTEMATIC_NAME>
4-ethyl-2,6-dimethyl-1,3,5-dithiazinane
> <PUBCHEM_IUPAC_TRADITIONAL_NAME>
4-ethyl-2,6-dimethyl-1,3,5-dithiazinane
> <PUBCHEM_IUPAC_INCHI>
InChI=1S/C7H15NS2/c1-4-7-8-5(2)9-6(3)10-7/h5-8H,4H2,1-3H3
> <PUBCHEM_IUPAC_INCHIKEY>
ZORZRADCTZBZSE-UHFFFAOYSA-N
> <PUBCHEM_XLOGP3_AA>
3
> <PUBCHEM_EXACT_MASS>
177.06459183
> <PUBCHEM_MOLECULAR_FORMULA>
C7H15NS2
> <PUBCHEM_MOLECULAR_WEIGHT>
177.3
> <PUBCHEM_OPENEYE_CAN_SMILES>
CCC1NC(SC(S1)C)C
> <PUBCHEM_OPENEYE_ISO_SMILES>
CCC1NC(SC(S1)C)C
> <PUBCHEM_CACTVS_TPSA>
62.6
> <PUBCHEM_MONOISOTOPIC_WEIGHT>
177.06459183
> <PUBCHEM_TOTAL_CHARGE>
0
> <PUBCHEM_HEAVY_ATOM_COUNT>
10
> <PUBCHEM_ATOM_DEF_STEREO_COUNT>
0
> <PUBCHEM_ATOM_UDEF_STEREO_COUNT>
3
> <PUBCHEM_BOND_DEF_STEREO_COUNT>
0
> <PUBCHEM_BOND_UDEF_STEREO_COUNT>
0
> <PUBCHEM_ISOTOPIC_ATOM_COUNT>
0
> <PUBCHEM_COMPONENT_COUNT>
1
> <PUBCHEM_CACTVS_TAUTO_COUNT>
-1
> <PUBCHEM_COORDINATE_TYPE>
1
5
255
> <PUBCHEM_BONDANNOTATIONS>
4  7  3
5  8  3
6  9  3
$$$$
