528340
  -OEChem-10302200292D
 26 25  0     1  0  0  0  0  0999 V2000
    5.1350   -0.5950    0.0000 O   0  0  0  0  0  0  0  0  0  0  0  0
    2.5369    0.9050    0.0000 O   0  0  0  0  0  0  0  0  0  0  0  0
    5.1350    0.4050    0.0000 C   0  0  3  0  0  0  0  0  0  0  0  0
    4.2690    0.9050    0.0000 C   0  0  0  0  0  0  0  0  0  0  0  0
    7.7331    0.9050    0.0000 C   0  0  0  0  0  0  0  0  0  0  0  0
    6.0010    0.9050    0.0000 C   0  0  0  0  0  0  0  0  0  0  0  0
    8.5991    0.4050    0.0000 C   0  0  0  0  0  0  0  0  0  0  0  0
    6.8671    0.4050    0.0000 C   0  0  0  0  0  0  0  0  0  0  0  0
    3.4030    0.4050    0.0000 C   0  0  0  0  0  0  0  0  0  0  0  0
    9.4651    0.9050    0.0000 C   0  0  0  0  0  0  0  0  0  0  0  0
    5.6720    0.0950    0.0000 H   0  0  0  0  0  0  0  0  0  0  0  0
    4.6675    1.3800    0.0000 H   0  0  0  0  0  0  0  0  0  0  0  0
    3.8705    1.3800    0.0000 H   0  0  0  0  0  0  0  0  0  0  0  0
    8.1316    1.3800    0.0000 H   0  0  0  0  0  0  0  0  0  0  0  0
    7.3346    1.3800    0.0000 H   0  0  0  0  0  0  0  0  0  0  0  0
    6.0010    1.5250    0.0000 H   0  0  0  0  0  0  0  0  0  0  0  0
    8.2006   -0.0699    0.0000 H   0  0  0  0  0  0  0  0  0  0  0  0
    8.9976   -0.0699    0.0000 H   0  0  0  0  0  0  0  0  0  0  0  0
    6.8671   -0.2150    0.0000 H   0  0  0  0  0  0  0  0  0  0  0  0
    3.0044   -0.0699    0.0000 H   0  0  0  0  0  0  0  0  0  0  0  0
    3.8015   -0.0699    0.0000 H   0  0  0  0  0  0  0  0  0  0  0  0
    9.7751    0.3681    0.0000 H   0  0  0  0  0  0  0  0  0  0  0  0
   10.0021    1.2150    0.0000 H   0  0  0  0  0  0  0  0  0  0  0  0
    9.1551    1.4419    0.0000 H   0  0  0  0  0  0  0  0  0  0  0  0
    4.5981   -0.9050    0.0000 H   0  0  0  0  0  0  0  0  0  0  0  0
    2.0000    0.5950    0.0000 H   0  0  0  0  0  0  0  0  0  0  0  0
  1  3  1  0  0  0  0
  1 25  1  0  0  0  0
  2  9  1  0  0  0  0
  2 26  1  0  0  0  0
  3  4  1  0  0  0  0
  3  6  1  0  0  0  0
  3 11  1  0  0  0  0
  4  9  1  0  0  0  0
  4 12  1  0  0  0  0
  4 13  1  0  0  0  0
  5  7  1  0  0  0  0
  5  8  1  0  0  0  0
  5 14  1  0  0  0  0
  5 15  1  0  0  0  0
  6  8  2  3  0  0  0
  6 16  1  0  0  0  0
  7 10  1  0  0  0  0
  7 17  1  0  0  0  0
  7 18  1  0  0  0  0
  8 19  1  0  0  0  0
  9 20  1  0  0  0  0
  9 21  1  0  0  0  0
 10 22  1  0  0  0  0
 10 23  1  0  0  0  0
 10 24  1  0  0  0  0
M  END
> <PUBCHEM_COMPOUND_CID>
528340
> <PUBCHEM_COMPOUND_CANONICALIZED>
1
> <PUBCHEM_CACTVS_COMPLEXITY>
89.3
> <PUBCHEM_CACTVS_HBOND_ACCEPTOR>
2
> <PUBCHEM_CACTVS_HBOND_DONOR>
2
> <PUBCHEM_CACTVS_ROTATABLE_BOND>
5
> <PUBCHEM_CACTVS_SUBSKEYS>
AAADceBwMAAAAAAAAAAAAAAAAAAAAAAAAAAAAAAAAAAAAAAAAAAAGgAACAAACBSggAICAAAAAgCAACBCAAAAAAAgAAAICAAAAAgAFAAAAQAAUAAFgAAIEAIAAAAAAAAAAAAAAAAAAAAAAAAAAAAAAAAAAA==
> <PUBCHEM_IUPAC_OPENEYE_NAME>
oct-4-ene-1,3-diol
> <PUBCHEM_IUPAC_CAS_NAME>
4-octene-1,3-diol
> <PUBCHEM_IUPAC_NAME_MARKUP>
oct-4-ene-1,3-diol
> <PUBCHEM_IUPAC_NAME>
oct-4-ene-1,3-diol
> <PUBCHEM_IUPAC_SYSTEMATIC_NAME>
oct-4-ene-1,3-diol
> <PUBCHEM_IUPAC_TRADITIONAL_NAME>
oct-4-ene-1,3-diol
> <PUBCHEM_IUPAC_INCHI>
InChI=1S/C8H16O2/c1-2-3-4-5-8(10)6-7-9/h4-5,8-10H,2-3,6-7H2,1H3
> <PUBCHEM_IUPAC_INCHIKEY>
JMDKQEBFZOIJSC-UHFFFAOYSA-N
> <PUBCHEM_XLOGP3_AA>
1.1
> <PUBCHEM_EXACT_MASS>
144.115029749
> <PUBCHEM_MOLECULAR_FORMULA>
C8H16O2
> <PUBCHEM_MOLECULAR_WEIGHT>
144.21
> <PUBCHEM_OPENEYE_CAN_SMILES>
CCCC=CC(CCO)O
> <PUBCHEM_OPENEYE_ISO_SMILES>
CCCC=CC(CCO)O
> <PUBCHEM_CACTVS_TPSA>
40.5
> <PUBCHEM_MONOISOTOPIC_WEIGHT>
144.115029749
> <PUBCHEM_TOTAL_CHARGE>
0
> <PUBCHEM_HEAVY_ATOM_COUNT>
10
> <PUBCHEM_ATOM_DEF_STEREO_COUNT>
0
> <PUBCHEM_ATOM_UDEF_STEREO_COUNT>
1
> <PUBCHEM_BOND_DEF_STEREO_COUNT>
0
> <PUBCHEM_BOND_UDEF_STEREO_COUNT>
1
> <PUBCHEM_ISOTOPIC_ATOM_COUNT>
0
> <PUBCHEM_COMPONENT_COUNT>
1
> <PUBCHEM_CACTVS_TAUTO_COUNT>
-1
> <PUBCHEM_COORDINATE_TYPE>
1
5
255
> <PUBCHEM_BONDANNOTATIONS>
3  1  3
6  8  1
$$$$
