528363
  -OEChem-10302200292D
 23 23  0     1  0  0  0  0  0999 V2000
    4.5981   -0.3100    0.0000 S   0  0  0  0  0  0  0  0  0  0  0  0
    3.7320    1.1900    0.0000 N   0  0  0  0  0  0  0  0  0  0  0  0
    2.8660   -0.3100    0.0000 N   0  0  0  0  0  0  0  0  0  0  0  0
    2.8660    0.6900    0.0000 C   0  0  0  0  0  0  0  0  0  0  0  0
    4.5981    0.6900    0.0000 C   0  0  3  0  0  0  0  0  0  0  0  0
    3.7320   -0.8100    0.0000 C   0  0  3  0  0  0  0  0  0  0  0  0
    2.0000    1.1900    0.0000 C   0  0  0  0  0  0  0  0  0  0  0  0
    5.4641    1.1900    0.0000 C   0  0  0  0  0  0  0  0  0  0  0  0
    3.7320   -1.8100    0.0000 C   0  0  0  0  0  0  0  0  0  0  0  0
    2.3291    0.3800    0.0000 H   0  0  0  0  0  0  0  0  0  0  0  0
    5.1350    0.3800    0.0000 H   0  0  0  0  0  0  0  0  0  0  0  0
    4.2690   -1.1200    0.0000 H   0  0  0  0  0  0  0  0  0  0  0  0
    3.7320    1.8100    0.0000 H   0  0  0  0  0  0  0  0  0  0  0  0
    2.3291   -0.6200    0.0000 H   0  0  0  0  0  0  0  0  0  0  0  0
    2.3100    1.7269    0.0000 H   0  0  0  0  0  0  0  0  0  0  0  0
    1.4631    1.5000    0.0000 H   0  0  0  0  0  0  0  0  0  0  0  0
    1.6900    0.6531    0.0000 H   0  0  0  0  0  0  0  0  0  0  0  0
    5.7741    0.6531    0.0000 H   0  0  0  0  0  0  0  0  0  0  0  0
    6.0010    1.5000    0.0000 H   0  0  0  0  0  0  0  0  0  0  0  0
    5.1541    1.7269    0.0000 H   0  0  0  0  0  0  0  0  0  0  0  0
    3.1120   -1.8100    0.0000 H   0  0  0  0  0  0  0  0  0  0  0  0
    3.7320   -2.4300    0.0000 H   0  0  0  0  0  0  0  0  0  0  0  0
    4.3520   -1.8100    0.0000 H   0  0  0  0  0  0  0  0  0  0  0  0
  1  5  1  0  0  0  0
  1  6  1  0  0  0  0
  2  4  1  0  0  0  0
  2  5  1  0  0  0  0
  2 13  1  0  0  0  0
  3  4  1  0  0  0  0
  3  6  1  0  0  0  0
  3 14  1  0  0  0  0
  4  7  1  0  0  0  0
  4 10  1  0  0  0  0
  5  8  1  0  0  0  0
  5 11  1  0  0  0  0
  6  9  1  0  0  0  0
  6 12  1  0  0  0  0
  7 15  1  0  0  0  0
  7 16  1  0  0  0  0
  7 17  1  0  0  0  0
  8 18  1  0  0  0  0
  8 19  1  0  0  0  0
  8 20  1  0  0  0  0
  9 21  1  0  0  0  0
  9 22  1  0  0  0  0
  9 23  1  0  0  0  0
M  END
> <PUBCHEM_COMPOUND_CID>
528363
> <PUBCHEM_COMPOUND_CANONICALIZED>
1
> <PUBCHEM_CACTVS_COMPLEXITY>
87.1
> <PUBCHEM_CACTVS_HBOND_ACCEPTOR>
3
> <PUBCHEM_CACTVS_HBOND_DONOR>
2
> <PUBCHEM_CACTVS_ROTATABLE_BOND>
0
> <PUBCHEM_CACTVS_SUBSKEYS>
AAADccBjAABAAAAAAAAAAAAAAAAAAAAAAAAsAAAAAAAAAAAAAAAAHAQQAAAAAADFQASDAALAAAgAAAAAAAAAAABAABAAAIAIAACAAAAAAAAAAAAIEAKgAAAAAAAAAAAAAAAAAAAAAAAAAAAAAAAAAAAAAA==
> <PUBCHEM_IUPAC_OPENEYE_NAME>
2,4,6-trimethyl-1,3,5-thiadiazinane
> <PUBCHEM_IUPAC_CAS_NAME>
2,4,6-trimethyl-1,3,5-thiadiazinane
> <PUBCHEM_IUPAC_NAME_MARKUP>
2,4,6-trimethyl-1,3,5-thiadiazinane
> <PUBCHEM_IUPAC_NAME>
2,4,6-trimethyl-1,3,5-thiadiazinane
> <PUBCHEM_IUPAC_SYSTEMATIC_NAME>
2,4,6-trimethyl-1,3,5-thiadiazinane
> <PUBCHEM_IUPAC_TRADITIONAL_NAME>
2,4,6-trimethyl-1,3,5-thiadiazinane
> <PUBCHEM_IUPAC_INCHI>
InChI=1S/C6H14N2S/c1-4-7-5(2)9-6(3)8-4/h4-8H,1-3H3
> <PUBCHEM_IUPAC_INCHIKEY>
PLCVUJTXVJDGBN-UHFFFAOYSA-N
> <PUBCHEM_XLOGP3_AA>
1.4
> <PUBCHEM_EXACT_MASS>
146.08776963
> <PUBCHEM_MOLECULAR_FORMULA>
C6H14N2S
> <PUBCHEM_MOLECULAR_WEIGHT>
146.26
> <PUBCHEM_OPENEYE_CAN_SMILES>
CC1NC(SC(N1)C)C
> <PUBCHEM_OPENEYE_ISO_SMILES>
CC1NC(SC(N1)C)C
> <PUBCHEM_CACTVS_TPSA>
49.4
> <PUBCHEM_MONOISOTOPIC_WEIGHT>
146.08776963
> <PUBCHEM_TOTAL_CHARGE>
0
> <PUBCHEM_HEAVY_ATOM_COUNT>
9
> <PUBCHEM_ATOM_DEF_STEREO_COUNT>
0
> <PUBCHEM_ATOM_UDEF_STEREO_COUNT>
2
> <PUBCHEM_BOND_DEF_STEREO_COUNT>
0
> <PUBCHEM_BOND_UDEF_STEREO_COUNT>
0
> <PUBCHEM_ISOTOPIC_ATOM_COUNT>
0
> <PUBCHEM_COMPONENT_COUNT>
1
> <PUBCHEM_CACTVS_TAUTO_COUNT>
-1
> <PUBCHEM_COORDINATE_TYPE>
1
5
255
> <PUBCHEM_BONDANNOTATIONS>
5  8  3
6  9  3
$$$$
