528401
  -OEChem-10302200292D
 84 84  0     1  0  0  0  0  0999 V2000
    2.8660   -0.2500    0.0000 Si  0  0  0  0  0  0  0  0  0  0  0  0
    4.9641   -2.6160    0.0000 Si  0  0  0  0  0  0  0  0  0  0  0  0
    3.7320    2.2500    0.0000 Si  0  0  0  0  0  0  0  0  0  0  0  0
    6.3301    2.7500    0.0000 Si  0  0  0  0  0  0  0  0  0  0  0  0
    8.0622   -1.2500    0.0000 Si  0  0  0  0  0  0  0  0  0  0  0  0
    6.3301   -0.2500    0.0000 O   0  0  0  0  0  0  0  0  0  0  0  0
    3.7320   -0.7500    0.0000 O   0  0  0  0  0  0  0  0  0  0  0  0
    4.9641   -1.6160    0.0000 O   0  0  0  0  0  0  0  0  0  0  0  0
    3.7320    1.2500    0.0000 O   0  0  0  0  0  0  0  0  0  0  0  0
    5.4641    2.2500    0.0000 O   0  0  0  0  0  0  0  0  0  0  0  0
    7.1962   -0.7500    0.0000 O   0  0  0  0  0  0  0  0  0  0  0  0
    4.5981   -0.2500    0.0000 C   0  0  3  0  0  0  0  0  0  0  0  0
    5.4641   -0.7500    0.0000 C   0  0  3  0  0  0  0  0  0  0  0  0
    4.5981    0.7500    0.0000 C   0  0  3  0  0  0  0  0  0  0  0  0
    5.4641    1.2500    0.0000 C   0  0  3  0  0  0  0  0  0  0  0  0
    6.3301    0.7500    0.0000 C   0  0  0  0  0  0  0  0  0  0  0  0
    6.3301   -1.2500    0.0000 C   0  0  0  0  0  0  0  0  0  0  0  0
    2.0000    0.2500    0.0000 C   0  0  0  0  0  0  0  0  0  0  0  0
    2.3660   -1.1160    0.0000 C   0  0  0  0  0  0  0  0  0  0  0  0
    3.3660    0.6160    0.0000 C   0  0  0  0  0  0  0  0  0  0  0  0
    4.9641   -3.6160    0.0000 C   0  0  0  0  0  0  0  0  0  0  0  0
    3.9642   -2.6161    0.0000 C   0  0  0  0  0  0  0  0  0  0  0  0
    5.9641   -2.6160    0.0000 C   0  0  0  0  0  0  0  0  0  0  0  0
    3.7320    3.2500    0.0000 C   0  0  0  0  0  0  0  0  0  0  0  0
    2.7320    2.2500    0.0000 C   0  0  0  0  0  0  0  0  0  0  0  0
    4.7320    2.2500    0.0000 C   0  0  0  0  0  0  0  0  0  0  0  0
    7.1962    3.2500    0.0000 C   0  0  0  0  0  0  0  0  0  0  0  0
    5.8301    3.6160    0.0000 C   0  0  0  0  0  0  0  0  0  0  0  0
    6.8301    1.8840    0.0000 C   0  0  0  0  0  0  0  0  0  0  0  0
    8.9282   -1.7500    0.0000 C   0  0  0  0  0  0  0  0  0  0  0  0
    8.5622   -0.3840    0.0000 C   0  0  0  0  0  0  0  0  0  0  0  0
    7.5622   -2.1160    0.0000 C   0  0  0  0  0  0  0  0  0  0  0  0
    4.5981   -0.8700    0.0000 H   0  0  0  0  0  0  0  0  0  0  0  0
    4.5981    1.3700    0.0000 H   0  0  0  0  0  0  0  0  0  0  0  0
    6.0010    1.5600    0.0000 H   0  0  0  0  0  0  0  0  0  0  0  0
    6.9407    0.6423    0.0000 H   0  0  0  0  0  0  0  0  0  0  0  0
    6.5422    1.3326    0.0000 H   0  0  0  0  0  0  0  0  0  0  0  0
    5.9316   -1.7250    0.0000 H   0  0  0  0  0  0  0  0  0  0  0  0
    6.7287   -1.7250    0.0000 H   0  0  0  0  0  0  0  0  0  0  0  0
    2.3100    0.7869    0.0000 H   0  0  0  0  0  0  0  0  0  0  0  0
    1.4631    0.5600    0.0000 H   0  0  0  0  0  0  0  0  0  0  0  0
    1.6900   -0.2869    0.0000 H   0  0  0  0  0  0  0  0  0  0  0  0
    1.8291   -0.8060    0.0000 H   0  0  0  0  0  0  0  0  0  0  0  0
    2.0560   -1.6530    0.0000 H   0  0  0  0  0  0  0  0  0  0  0  0
    2.9030   -1.4260    0.0000 H   0  0  0  0  0  0  0  0  0  0  0  0
    3.9030    0.3060    0.0000 H   0  0  0  0  0  0  0  0  0  0  0  0
    3.6760    1.1530    0.0000 H   0  0  0  0  0  0  0  0  0  0  0  0
    2.8291    0.9260    0.0000 H   0  0  0  0  0  0  0  0  0  0  0  0
    4.3441   -3.6160    0.0000 H   0  0  0  0  0  0  0  0  0  0  0  0
    4.9641   -4.2360    0.0000 H   0  0  0  0  0  0  0  0  0  0  0  0
    5.5841   -3.6160    0.0000 H   0  0  0  0  0  0  0  0  0  0  0  0
    3.9641   -1.9961    0.0000 H   0  0  0  0  0  0  0  0  0  0  0  0
    3.3442   -2.6161    0.0000 H   0  0  0  0  0  0  0  0  0  0  0  0
    3.9642   -3.2361    0.0000 H   0  0  0  0  0  0  0  0  0  0  0  0
    5.9641   -3.2360    0.0000 H   0  0  0  0  0  0  0  0  0  0  0  0
    6.5841   -2.6160    0.0000 H   0  0  0  0  0  0  0  0  0  0  0  0
    5.9641   -1.9960    0.0000 H   0  0  0  0  0  0  0  0  0  0  0  0
    4.3520    3.2500    0.0000 H   0  0  0  0  0  0  0  0  0  0  0  0
    3.7320    3.8700    0.0000 H   0  0  0  0  0  0  0  0  0  0  0  0
    3.1120    3.2500    0.0000 H   0  0  0  0  0  0  0  0  0  0  0  0
    2.7320    2.8700    0.0000 H   0  0  0  0  0  0  0  0  0  0  0  0
    2.1120    2.2500    0.0000 H   0  0  0  0  0  0  0  0  0  0  0  0
    2.7320    1.6300    0.0000 H   0  0  0  0  0  0  0  0  0  0  0  0
    4.7320    1.6300    0.0000 H   0  0  0  0  0  0  0  0  0  0  0  0
    5.3520    2.2500    0.0000 H   0  0  0  0  0  0  0  0  0  0  0  0
    4.7320    2.8700    0.0000 H   0  0  0  0  0  0  0  0  0  0  0  0
    7.5062    2.7131    0.0000 H   0  0  0  0  0  0  0  0  0  0  0  0
    7.7331    3.5600    0.0000 H   0  0  0  0  0  0  0  0  0  0  0  0
    6.8862    3.7869    0.0000 H   0  0  0  0  0  0  0  0  0  0  0  0
    6.3671    3.9260    0.0000 H   0  0  0  0  0  0  0  0  0  0  0  0
    5.5201    4.1530    0.0000 H   0  0  0  0  0  0  0  0  0  0  0  0
    5.2932    3.3060    0.0000 H   0  0  0  0  0  0  0  0  0  0  0  0
    6.2932    1.5740    0.0000 H   0  0  0  0  0  0  0  0  0  0  0  0
    7.1401    1.3470    0.0000 H   0  0  0  0  0  0  0  0  0  0  0  0
    7.3671    2.1940    0.0000 H   0  0  0  0  0  0  0  0  0  0  0  0
    8.6182   -2.2869    0.0000 H   0  0  0  0  0  0  0  0  0  0  0  0
    9.4651   -2.0600    0.0000 H   0  0  0  0  0  0  0  0  0  0  0  0
    9.2382   -1.2131    0.0000 H   0  0  0  0  0  0  0  0  0  0  0  0
    9.0991   -0.6940    0.0000 H   0  0  0  0  0  0  0  0  0  0  0  0
    8.8722    0.1530    0.0000 H   0  0  0  0  0  0  0  0  0  0  0  0
    8.0252   -0.0740    0.0000 H   0  0  0  0  0  0  0  0  0  0  0  0
    7.0252   -1.8060    0.0000 H   0  0  0  0  0  0  0  0  0  0  0  0
    7.2522   -2.6530    0.0000 H   0  0  0  0  0  0  0  0  0  0  0  0
    8.0991   -2.4260    0.0000 H   0  0  0  0  0  0  0  0  0  0  0  0
  1  7  1  0  0  0  0
  1 18  1  0  0  0  0
  1 19  1  0  0  0  0
  1 20  1  0  0  0  0
  2  8  1  0  0  0  0
  2 21  1  0  0  0  0
  2 22  1  0  0  0  0
  2 23  1  0  0  0  0
  3  9  1  0  0  0  0
  3 24  1  0  0  0  0
  3 25  1  0  0  0  0
  3 26  1  0  0  0  0
  4 10  1  0  0  0  0
  4 27  1  0  0  0  0
  4 28  1  0  0  0  0
  4 29  1  0  0  0  0
  5 11  1  0  0  0  0
  5 30  1  0  0  0  0
  5 31  1  0  0  0  0
  5 32  1  0  0  0  0
  6 13  1  0  0  0  0
  6 16  1  0  0  0  0
  7 12  1  0  0  0  0
  8 13  1  0  0  0  0
  9 14  1  0  0  0  0
 10 15  1  0  0  0  0
 11 17  1  0  0  0  0
 12 13  1  0  0  0  0
 12 14  1  0  0  0  0
 12 33  1  0  0  0  0
 13 17  1  0  0  0  0
 14 15  1  0  0  0  0
 14 34  1  0  0  0  0
 15 16  1  0  0  0  0
 15 35  1  0  0  0  0
 16 36  1  0  0  0  0
 16 37  1  0  0  0  0
 17 38  1  0  0  0  0
 17 39  1  0  0  0  0
 18 40  1  0  0  0  0
 18 41  1  0  0  0  0
 18 42  1  0  0  0  0
 19 43  1  0  0  0  0
 19 44  1  0  0  0  0
 19 45  1  0  0  0  0
 20 46  1  0  0  0  0
 20 47  1  0  0  0  0
 20 48  1  0  0  0  0
 21 49  1  0  0  0  0
 21 50  1  0  0  0  0
 21 51  1  0  0  0  0
 22 52  1  0  0  0  0
 22 53  1  0  0  0  0
 22 54  1  0  0  0  0
 23 55  1  0  0  0  0
 23 56  1  0  0  0  0
 23 57  1  0  0  0  0
 24 58  1  0  0  0  0
 24 59  1  0  0  0  0
 24 60  1  0  0  0  0
 25 61  1  0  0  0  0
 25 62  1  0  0  0  0
 25 63  1  0  0  0  0
 26 64  1  0  0  0  0
 26 65  1  0  0  0  0
 26 66  1  0  0  0  0
 27 67  1  0  0  0  0
 27 68  1  0  0  0  0
 27 69  1  0  0  0  0
 28 70  1  0  0  0  0
 28 71  1  0  0  0  0
 28 72  1  0  0  0  0
 29 73  1  0  0  0  0
 29 74  1  0  0  0  0
 29 75  1  0  0  0  0
 30 76  1  0  0  0  0
 30 77  1  0  0  0  0
 30 78  1  0  0  0  0
 31 79  1  0  0  0  0
 31 80  1  0  0  0  0
 31 81  1  0  0  0  0
 32 82  1  0  0  0  0
 32 83  1  0  0  0  0
 32 84  1  0  0  0  0
M  END
> <PUBCHEM_COMPOUND_CID>
528401
> <PUBCHEM_COMPOUND_CANONICALIZED>
1
> <PUBCHEM_CACTVS_COMPLEXITY>
600
> <PUBCHEM_CACTVS_HBOND_ACCEPTOR>
6
> <PUBCHEM_CACTVS_HBOND_DONOR>
0
> <PUBCHEM_CACTVS_ROTATABLE_BOND>
11
> <PUBCHEM_CACTVS_SUBSKEYS>
AAADcfB4OAwAAAAAAAAAAAAAAAAAAAAAAAAkAAAAAAAAAAAAAAAAGhAAAEAACBSggAJCCAAABAEAAAAAAAAAAAAAAAAAAAAAAAARAAIAAAACAAAFAAAGAAHAYAQAAAAAAAAAAAAAAAAAAAAAAAAAAAAAAA==
> <PUBCHEM_IUPAC_OPENEYE_NAME>
trimethyl-[[2,3,4,5-tetrakis(trimethylsilyloxy)tetrahydropyran-2-yl]methoxy]silane
> <PUBCHEM_IUPAC_CAS_NAME>
trimethyl-[[2,3,4,5-tetrakis(trimethylsilyloxy)-2-oxanyl]methoxy]silane
> <PUBCHEM_IUPAC_NAME_MARKUP>
trimethyl-[[2,3,4,5-tetrakis(trimethylsilyloxy)oxan-2-yl]methoxy]silane
> <PUBCHEM_IUPAC_NAME>
trimethyl-[[2,3,4,5-tetrakis(trimethylsilyloxy)oxan-2-yl]methoxy]silane
> <PUBCHEM_IUPAC_SYSTEMATIC_NAME>
trimethyl-[[2,3,4,5-tetrakis(trimethylsilyloxy)oxan-2-yl]methoxy]silane
> <PUBCHEM_IUPAC_TRADITIONAL_NAME>
trimethyl-[[2,3,4,5-tetrakis(trimethylsilyloxy)tetrahydropyran-2-yl]methoxy]silane
> <PUBCHEM_IUPAC_INCHI>
InChI=1S/C21H52O6Si5/c1-28(2,3)23-17-21(27-32(13,14)15)20(26-31(10,11)12)19(25-30(7,8)9)18(16-22-21)24-29(4,5)6/h18-20H,16-17H2,1-15H3
> <PUBCHEM_IUPAC_INCHIKEY>
PJXWXHJDJODISP-UHFFFAOYSA-N
> <PUBCHEM_EXACT_MASS>
540.26102205
> <PUBCHEM_MOLECULAR_FORMULA>
C21H52O6Si5
> <PUBCHEM_MOLECULAR_WEIGHT>
541.1
> <PUBCHEM_OPENEYE_CAN_SMILES>
C[Si](C)(C)OCC1(C(C(C(CO1)O[Si](C)(C)C)O[Si](C)(C)C)O[Si](C)(C)C)O[Si](C)(C)C
> <PUBCHEM_OPENEYE_ISO_SMILES>
C[Si](C)(C)OCC1(C(C(C(CO1)O[Si](C)(C)C)O[Si](C)(C)C)O[Si](C)(C)C)O[Si](C)(C)C
> <PUBCHEM_CACTVS_TPSA>
55.4
> <PUBCHEM_MONOISOTOPIC_WEIGHT>
540.26102205
> <PUBCHEM_TOTAL_CHARGE>
0
> <PUBCHEM_HEAVY_ATOM_COUNT>
32
> <PUBCHEM_ATOM_DEF_STEREO_COUNT>
0
> <PUBCHEM_ATOM_UDEF_STEREO_COUNT>
4
> <PUBCHEM_BOND_DEF_STEREO_COUNT>
0
> <PUBCHEM_BOND_UDEF_STEREO_COUNT>
0
> <PUBCHEM_ISOTOPIC_ATOM_COUNT>
0
> <PUBCHEM_COMPONENT_COUNT>
1
> <PUBCHEM_CACTVS_TAUTO_COUNT>
-1
> <PUBCHEM_COORDINATE_TYPE>
1
5
255
> <PUBCHEM_BONDANNOTATIONS>
15  10  3
13  17  3
12  7  3
14  9  3
$$$$
