528598
  -OEChem-10302200292D
100 99  0     1  0  0  0  0  0999 V2000
    5.4641   -1.7500    0.0000 Si  0  0  0  0  0  0  0  0  0  0  0  0
    8.0622    1.7500    0.0000 Si  0  0  0  0  0  0  0  0  0  0  0  0
    3.7320    0.2500    0.0000 Si  0  0  0  0  0  0  0  0  0  0  0  0
    9.7942   -0.2500    0.0000 Si  0  0  0  0  0  0  0  0  0  0  0  0
    6.3301   -1.2500    0.0000 O   0  0  0  0  0  0  0  0  0  0  0  0
    7.1962    1.2500    0.0000 O   0  0  0  0  0  0  0  0  0  0  0  0
    4.5981   -0.2500    0.0000 O   0  0  0  0  0  0  0  0  0  0  0  0
    8.9282    0.2500    0.0000 O   0  0  0  0  0  0  0  0  0  0  0  0
    5.4641    1.2500    0.0000 O   0  0  0  0  0  0  0  0  0  0  0  0
    8.0622   -1.2500    0.0000 O   0  0  0  0  0  0  0  0  0  0  0  0
    4.5981   -2.2500    0.0000 C   0  0  0  0  0  0  0  0  0  0  0  0
    8.9282    2.2500    0.0000 C   0  0  0  0  0  0  0  0  0  0  0  0
    6.3301   -0.2500    0.0000 C   0  0  3  0  0  0  0  0  0  0  0  0
    7.1962    0.2500    0.0000 C   0  0  3  0  0  0  0  0  0  0  0  0
    2.8660    0.7500    0.0000 C   0  0  0  0  0  0  0  0  0  0  0  0
   10.6603   -0.7500    0.0000 C   0  0  0  0  0  0  0  0  0  0  0  0
    5.9641   -2.6160    0.0000 C   0  0  0  0  0  0  0  0  0  0  0  0
    4.9641   -0.8840    0.0000 C   0  0  0  0  0  0  0  0  0  0  0  0
    7.5622    2.6160    0.0000 C   0  0  0  0  0  0  0  0  0  0  0  0
    8.5622    0.8840    0.0000 C   0  0  0  0  0  0  0  0  0  0  0  0
    3.7320   -2.7500    0.0000 C   0  0  0  0  0  0  0  0  0  0  0  0
    5.0981   -3.1160    0.0000 C   0  0  0  0  0  0  0  0  0  0  0  0
    4.0981   -1.3840    0.0000 C   0  0  0  0  0  0  0  0  0  0  0  0
    9.7942    2.7500    0.0000 C   0  0  0  0  0  0  0  0  0  0  0  0
    8.4282    3.1160    0.0000 C   0  0  0  0  0  0  0  0  0  0  0  0
    9.4282    1.3840    0.0000 C   0  0  0  0  0  0  0  0  0  0  0  0
    5.4641    0.2500    0.0000 C   0  0  0  0  0  0  0  0  0  0  0  0
    8.0622   -0.2500    0.0000 C   0  0  0  0  0  0  0  0  0  0  0  0
    3.2320   -0.6160    0.0000 C   0  0  0  0  0  0  0  0  0  0  0  0
    4.2320    1.1160    0.0000 C   0  0  0  0  0  0  0  0  0  0  0  0
   10.2942    0.6160    0.0000 C   0  0  0  0  0  0  0  0  0  0  0  0
    9.2942   -1.1160    0.0000 C   0  0  0  0  0  0  0  0  0  0  0  0
    2.0000    1.2500    0.0000 C   0  0  0  0  0  0  0  0  0  0  0  0
    2.3660   -0.1160    0.0000 C   0  0  0  0  0  0  0  0  0  0  0  0
    3.3660    1.6160    0.0000 C   0  0  0  0  0  0  0  0  0  0  0  0
   11.5263   -1.2500    0.0000 C   0  0  0  0  0  0  0  0  0  0  0  0
   11.1603    0.1160    0.0000 C   0  0  0  0  0  0  0  0  0  0  0  0
   10.1603   -1.6160    0.0000 C   0  0  0  0  0  0  0  0  0  0  0  0
    6.8671   -0.5600    0.0000 H   0  0  0  0  0  0  0  0  0  0  0  0
    6.6592    0.5600    0.0000 H   0  0  0  0  0  0  0  0  0  0  0  0
    5.4272   -2.9260    0.0000 H   0  0  0  0  0  0  0  0  0  0  0  0
    6.2741   -3.1530    0.0000 H   0  0  0  0  0  0  0  0  0  0  0  0
    6.5010   -2.3060    0.0000 H   0  0  0  0  0  0  0  0  0  0  0  0
    5.5010   -0.5740    0.0000 H   0  0  0  0  0  0  0  0  0  0  0  0
    4.6541   -0.3470    0.0000 H   0  0  0  0  0  0  0  0  0  0  0  0
    4.4272   -1.1940    0.0000 H   0  0  0  0  0  0  0  0  0  0  0  0
    8.0991    2.9260    0.0000 H   0  0  0  0  0  0  0  0  0  0  0  0
    7.2522    3.1530    0.0000 H   0  0  0  0  0  0  0  0  0  0  0  0
    7.0252    2.3060    0.0000 H   0  0  0  0  0  0  0  0  0  0  0  0
    8.0252    0.5740    0.0000 H   0  0  0  0  0  0  0  0  0  0  0  0
    8.8722    0.3470    0.0000 H   0  0  0  0  0  0  0  0  0  0  0  0
    9.0991    1.1940    0.0000 H   0  0  0  0  0  0  0  0  0  0  0  0
    3.4220   -2.2131    0.0000 H   0  0  0  0  0  0  0  0  0  0  0  0
    3.1951   -3.0600    0.0000 H   0  0  0  0  0  0  0  0  0  0  0  0
    4.0420   -3.2869    0.0000 H   0  0  0  0  0  0  0  0  0  0  0  0
    4.5611   -3.4260    0.0000 H   0  0  0  0  0  0  0  0  0  0  0  0
    5.4081   -3.6530    0.0000 H   0  0  0  0  0  0  0  0  0  0  0  0
    5.6350   -2.8060    0.0000 H   0  0  0  0  0  0  0  0  0  0  0  0
    4.6350   -1.0740    0.0000 H   0  0  0  0  0  0  0  0  0  0  0  0
    3.7881   -0.8470    0.0000 H   0  0  0  0  0  0  0  0  0  0  0  0
    3.5611   -1.6940    0.0000 H   0  0  0  0  0  0  0  0  0  0  0  0
   10.1042    2.2131    0.0000 H   0  0  0  0  0  0  0  0  0  0  0  0
   10.3312    3.0600    0.0000 H   0  0  0  0  0  0  0  0  0  0  0  0
    9.4842    3.2869    0.0000 H   0  0  0  0  0  0  0  0  0  0  0  0
    8.9651    3.4260    0.0000 H   0  0  0  0  0  0  0  0  0  0  0  0
    8.1182    3.6530    0.0000 H   0  0  0  0  0  0  0  0  0  0  0  0
    7.8913    2.8060    0.0000 H   0  0  0  0  0  0  0  0  0  0  0  0
    8.8913    1.0740    0.0000 H   0  0  0  0  0  0  0  0  0  0  0  0
    9.7382    0.8470    0.0000 H   0  0  0  0  0  0  0  0  0  0  0  0
    9.9651    1.6940    0.0000 H   0  0  0  0  0  0  0  0  0  0  0  0
    2.6951   -0.3060    0.0000 H   0  0  0  0  0  0  0  0  0  0  0  0
    2.9220   -1.1530    0.0000 H   0  0  0  0  0  0  0  0  0  0  0  0
    3.7690   -0.9260    0.0000 H   0  0  0  0  0  0  0  0  0  0  0  0
    4.7690    0.8060    0.0000 H   0  0  0  0  0  0  0  0  0  0  0  0
    4.5420    1.6530    0.0000 H   0  0  0  0  0  0  0  0  0  0  0  0
    3.6951    1.4260    0.0000 H   0  0  0  0  0  0  0  0  0  0  0  0
   10.8312    0.3060    0.0000 H   0  0  0  0  0  0  0  0  0  0  0  0
   10.6042    1.1530    0.0000 H   0  0  0  0  0  0  0  0  0  0  0  0
    9.7573    0.9260    0.0000 H   0  0  0  0  0  0  0  0  0  0  0  0
    8.7573   -0.8060    0.0000 H   0  0  0  0  0  0  0  0  0  0  0  0
    8.9842   -1.6530    0.0000 H   0  0  0  0  0  0  0  0  0  0  0  0
    9.8312   -1.4260    0.0000 H   0  0  0  0  0  0  0  0  0  0  0  0
    2.3100    1.7869    0.0000 H   0  0  0  0  0  0  0  0  0  0  0  0
    1.4631    1.5600    0.0000 H   0  0  0  0  0  0  0  0  0  0  0  0
    1.6900    0.7131    0.0000 H   0  0  0  0  0  0  0  0  0  0  0  0
    1.8291    0.1940    0.0000 H   0  0  0  0  0  0  0  0  0  0  0  0
    2.0560   -0.6530    0.0000 H   0  0  0  0  0  0  0  0  0  0  0  0
    2.9030   -0.4260    0.0000 H   0  0  0  0  0  0  0  0  0  0  0  0
    3.9030    1.3060    0.0000 H   0  0  0  0  0  0  0  0  0  0  0  0
    3.6760    2.1530    0.0000 H   0  0  0  0  0  0  0  0  0  0  0  0
    2.8291    1.9260    0.0000 H   0  0  0  0  0  0  0  0  0  0  0  0
   11.2163   -1.7869    0.0000 H   0  0  0  0  0  0  0  0  0  0  0  0
   12.0632   -1.5600    0.0000 H   0  0  0  0  0  0  0  0  0  0  0  0
   11.8363   -0.7131    0.0000 H   0  0  0  0  0  0  0  0  0  0  0  0
   11.6972   -0.1940    0.0000 H   0  0  0  0  0  0  0  0  0  0  0  0
   11.4703    0.6530    0.0000 H   0  0  0  0  0  0  0  0  0  0  0  0
   10.6233    0.4260    0.0000 H   0  0  0  0  0  0  0  0  0  0  0  0
    9.6233   -1.3060    0.0000 H   0  0  0  0  0  0  0  0  0  0  0  0
    9.8503   -2.1530    0.0000 H   0  0  0  0  0  0  0  0  0  0  0  0
   10.6972   -1.9260    0.0000 H   0  0  0  0  0  0  0  0  0  0  0  0
  1  5  1  0  0  0  0
  1 11  1  0  0  0  0
  1 17  1  0  0  0  0
  1 18  1  0  0  0  0
  2  6  1  0  0  0  0
  2 12  1  0  0  0  0
  2 19  1  0  0  0  0
  2 20  1  0  0  0  0
  3  7  1  0  0  0  0
  3 15  1  0  0  0  0
  3 29  1  0  0  0  0
  3 30  1  0  0  0  0
  4  8  1  0  0  0  0
  4 16  1  0  0  0  0
  4 31  1  0  0  0  0
  4 32  1  0  0  0  0
  5 13  1  0  0  0  0
  6 14  1  0  0  0  0
  7 27  1  0  0  0  0
  8 28  1  0  0  0  0
  9 27  2  0  0  0  0
 10 28  2  0  0  0  0
 11 21  1  0  0  0  0
 11 22  1  0  0  0  0
 11 23  1  0  0  0  0
 12 24  1  0  0  0  0
 12 25  1  0  0  0  0
 12 26  1  0  0  0  0
 13 14  1  0  0  0  0
 13 27  1  0  0  0  0
 13 39  1  0  0  0  0
 14 28  1  0  0  0  0
 14 40  1  0  0  0  0
 15 33  1  0  0  0  0
 15 34  1  0  0  0  0
 15 35  1  0  0  0  0
 16 36  1  0  0  0  0
 16 37  1  0  0  0  0
 16 38  1  0  0  0  0
 17 41  1  0  0  0  0
 17 42  1  0  0  0  0
 17 43  1  0  0  0  0
 18 44  1  0  0  0  0
 18 45  1  0  0  0  0
 18 46  1  0  0  0  0
 19 47  1  0  0  0  0
 19 48  1  0  0  0  0
 19 49  1  0  0  0  0
 20 50  1  0  0  0  0
 20 51  1  0  0  0  0
 20 52  1  0  0  0  0
 21 53  1  0  0  0  0
 21 54  1  0  0  0  0
 21 55  1  0  0  0  0
 22 56  1  0  0  0  0
 22 57  1  0  0  0  0
 22 58  1  0  0  0  0
 23 59  1  0  0  0  0
 23 60  1  0  0  0  0
 23 61  1  0  0  0  0
 24 62  1  0  0  0  0
 24 63  1  0  0  0  0
 24 64  1  0  0  0  0
 25 65  1  0  0  0  0
 25 66  1  0  0  0  0
 25 67  1  0  0  0  0
 26 68  1  0  0  0  0
 26 69  1  0  0  0  0
 26 70  1  0  0  0  0
 29 71  1  0  0  0  0
 29 72  1  0  0  0  0
 29 73  1  0  0  0  0
 30 74  1  0  0  0  0
 30 75  1  0  0  0  0
 30 76  1  0  0  0  0
 31 77  1  0  0  0  0
 31 78  1  0  0  0  0
 31 79  1  0  0  0  0
 32 80  1  0  0  0  0
 32 81  1  0  0  0  0
 32 82  1  0  0  0  0
 33 83  1  0  0  0  0
 33 84  1  0  0  0  0
 33 85  1  0  0  0  0
 34 86  1  0  0  0  0
 34 87  1  0  0  0  0
 34 88  1  0  0  0  0
 35 89  1  0  0  0  0
 35 90  1  0  0  0  0
 35 91  1  0  0  0  0
 36 92  1  0  0  0  0
 36 93  1  0  0  0  0
 36 94  1  0  0  0  0
 37 95  1  0  0  0  0
 37 96  1  0  0  0  0
 37 97  1  0  0  0  0
 38 98  1  0  0  0  0
 38 99  1  0  0  0  0
 38100  1  0  0  0  0
M  END
> <PUBCHEM_COMPOUND_CID>
528598
> <PUBCHEM_COMPOUND_CANONICALIZED>
1
> <PUBCHEM_CACTVS_COMPLEXITY>
767
> <PUBCHEM_CACTVS_HBOND_ACCEPTOR>
6
> <PUBCHEM_CACTVS_HBOND_DONOR>
0
> <PUBCHEM_CACTVS_ROTATABLE_BOND>
15
> <PUBCHEM_CACTVS_SUBSKEYS>
AAADcfB4OAwAAAAAAAAAAAAAAAAAAAAAAAAAAAAAAAAAAAAAAAAAGhAAAEAADBSgoAJCCAAAAAEIAACQCAIAAAAAAAAAAAFAAAABABQAAAAAAAAFIAAAAABDAAAAAAAAAAAAAAAAAAAAAAAAAAAAAAAAAA==
> <PUBCHEM_IUPAC_OPENEYE_NAME>
bis[tert-butyl(dimethyl)silyl] 2,3-bis[[tert-butyl(dimethyl)silyl]oxy]butanedioate
> <PUBCHEM_IUPAC_CAS_NAME>
2,3-bis[[tert-butyl(dimethyl)silyl]oxy]butanedioic acid bis[tert-butyl(dimethyl)silyl] ester
> <PUBCHEM_IUPAC_NAME_MARKUP>
bis[<I>tert</I>-butyl(dimethyl)silyl] 2,3-bis[[<I>tert</I>-butyl(dimethyl)silyl]oxy]butanedioate
> <PUBCHEM_IUPAC_NAME>
bis[tert-butyl(dimethyl)silyl] 2,3-bis[[tert-butyl(dimethyl)silyl]oxy]butanedioate
> <PUBCHEM_IUPAC_SYSTEMATIC_NAME>
bis[tert-butyl(dimethyl)silyl] 2,3-bis[[tert-butyl(dimethyl)silyl]oxy]butanedioate
> <PUBCHEM_IUPAC_TRADITIONAL_NAME>
2,3-bis[[tert-butyl(dimethyl)silyl]oxy]succinic acid bis[tert-butyl(dimethyl)silyl] ester
> <PUBCHEM_IUPAC_INCHI>
InChI=1S/C28H62O6Si4/c1-25(2,3)35(13,14)31-21(23(29)33-37(17,18)27(7,8)9)22(32-36(15,16)26(4,5)6)24(30)34-38(19,20)28(10,11)12/h21-22H,1-20H3
> <PUBCHEM_IUPAC_INCHIKEY>
ABIHNKRECDUQMP-UHFFFAOYSA-N
> <PUBCHEM_EXACT_MASS>
606.36234583
> <PUBCHEM_MOLECULAR_FORMULA>
C28H62O6Si4
> <PUBCHEM_MOLECULAR_WEIGHT>
607.1
> <PUBCHEM_OPENEYE_CAN_SMILES>
CC(C)(C)[Si](C)(C)OC(C(C(=O)O[Si](C)(C)C(C)(C)C)O[Si](C)(C)C(C)(C)C)C(=O)O[Si](C)(C)C(C)(C)C
> <PUBCHEM_OPENEYE_ISO_SMILES>
CC(C)(C)[Si](C)(C)OC(C(C(=O)O[Si](C)(C)C(C)(C)C)O[Si](C)(C)C(C)(C)C)C(=O)O[Si](C)(C)C(C)(C)C
> <PUBCHEM_CACTVS_TPSA>
71.1
> <PUBCHEM_MONOISOTOPIC_WEIGHT>
606.36234583
> <PUBCHEM_TOTAL_CHARGE>
0
> <PUBCHEM_HEAVY_ATOM_COUNT>
38
> <PUBCHEM_ATOM_DEF_STEREO_COUNT>
0
> <PUBCHEM_ATOM_UDEF_STEREO_COUNT>
2
> <PUBCHEM_BOND_DEF_STEREO_COUNT>
0
> <PUBCHEM_BOND_UDEF_STEREO_COUNT>
0
> <PUBCHEM_ISOTOPIC_ATOM_COUNT>
0
> <PUBCHEM_COMPONENT_COUNT>
1
> <PUBCHEM_CACTVS_TAUTO_COUNT>
-1
> <PUBCHEM_COORDINATE_TYPE>
1
5
255
> <PUBCHEM_BONDANNOTATIONS>
13  27  3
14  28  3
$$$$
