528534
  -OEChem-10302200292D
 83 82  0     1  0  0  0  0  0999 V2000
   10.6603    1.7500    0.0000 C   0  0  3  0  0  0  0  0  0  0  0  0
   11.5263    2.2500    0.0000 C   0  0  0  0  0  0  0  0  0  0  0  0
    9.7942    2.2500    0.0000 C   0  0  0  0  0  0  0  0  0  0  0  0
   10.6603    0.7500    0.0000 C   0  0  0  0  0  0  0  0  0  0  0  0
   12.3923    1.7500    0.0000 C   0  0  0  0  0  0  0  0  0  0  0  0
    8.9282    1.7500    0.0000 C   0  0  0  0  0  0  0  0  0  0  0  0
    9.7942    0.2500    0.0000 C   0  0  0  0  0  0  0  0  0  0  0  0
   13.2583    2.2500    0.0000 C   0  0  0  0  0  0  0  0  0  0  0  0
    8.0622    2.2500    0.0000 C   0  0  0  0  0  0  0  0  0  0  0  0
   14.1244    1.7500    0.0000 C   0  0  0  0  0  0  0  0  0  0  0  0
    7.1962    1.7500    0.0000 C   0  0  0  0  0  0  0  0  0  0  0  0
    9.7942   -0.7500    0.0000 C   0  0  0  0  0  0  0  0  0  0  0  0
   14.9904    2.2500    0.0000 C   0  0  0  0  0  0  0  0  0  0  0  0
    6.3301    2.2500    0.0000 C   0  0  0  0  0  0  0  0  0  0  0  0
   15.8564    1.7500    0.0000 C   0  0  0  0  0  0  0  0  0  0  0  0
    8.9282   -1.2500    0.0000 C   0  0  0  0  0  0  0  0  0  0  0  0
    5.4641    1.7500    0.0000 C   0  0  0  0  0  0  0  0  0  0  0  0
   16.7224    2.2500    0.0000 C   0  0  0  0  0  0  0  0  0  0  0  0
    4.5981    2.2500    0.0000 C   0  0  0  0  0  0  0  0  0  0  0  0
   17.5885    1.7500    0.0000 C   0  0  0  0  0  0  0  0  0  0  0  0
    8.9282   -2.2500    0.0000 C   0  0  0  0  0  0  0  0  0  0  0  0
    3.7320    1.7500    0.0000 C   0  0  0  0  0  0  0  0  0  0  0  0
   18.4545    2.2500    0.0000 C   0  0  0  0  0  0  0  0  0  0  0  0
    2.8660    2.2500    0.0000 C   0  0  0  0  0  0  0  0  0  0  0  0
   19.3205    1.7500    0.0000 C   0  0  0  0  0  0  0  0  0  0  0  0
    2.0000    1.7500    0.0000 C   0  0  0  0  0  0  0  0  0  0  0  0
   20.1865    2.2500    0.0000 C   0  0  0  0  0  0  0  0  0  0  0  0
   11.1972    1.4400    0.0000 H   0  0  0  0  0  0  0  0  0  0  0  0
   11.9248    2.7250    0.0000 H   0  0  0  0  0  0  0  0  0  0  0  0
   11.1278    2.7250    0.0000 H   0  0  0  0  0  0  0  0  0  0  0  0
   10.1928    2.7250    0.0000 H   0  0  0  0  0  0  0  0  0  0  0  0
    9.3957    2.7250    0.0000 H   0  0  0  0  0  0  0  0  0  0  0  0
   10.8723    0.1674    0.0000 H   0  0  0  0  0  0  0  0  0  0  0  0
   11.2708    0.8577    0.0000 H   0  0  0  0  0  0  0  0  0  0  0  0
   11.9938    1.2750    0.0000 H   0  0  0  0  0  0  0  0  0  0  0  0
   12.7908    1.2750    0.0000 H   0  0  0  0  0  0  0  0  0  0  0  0
    8.5297    1.2750    0.0000 H   0  0  0  0  0  0  0  0  0  0  0  0
    9.3267    1.2750    0.0000 H   0  0  0  0  0  0  0  0  0  0  0  0
    9.5822    0.8326    0.0000 H   0  0  0  0  0  0  0  0  0  0  0  0
    9.1836    0.1423    0.0000 H   0  0  0  0  0  0  0  0  0  0  0  0
   13.6569    2.7250    0.0000 H   0  0  0  0  0  0  0  0  0  0  0  0
   12.8598    2.7250    0.0000 H   0  0  0  0  0  0  0  0  0  0  0  0
    8.4607    2.7250    0.0000 H   0  0  0  0  0  0  0  0  0  0  0  0
    7.6636    2.7250    0.0000 H   0  0  0  0  0  0  0  0  0  0  0  0
   13.7258    1.2750    0.0000 H   0  0  0  0  0  0  0  0  0  0  0  0
   14.5229    1.2750    0.0000 H   0  0  0  0  0  0  0  0  0  0  0  0
    6.7976    1.2750    0.0000 H   0  0  0  0  0  0  0  0  0  0  0  0
    7.5947    1.2750    0.0000 H   0  0  0  0  0  0  0  0  0  0  0  0
   10.0063   -1.3326    0.0000 H   0  0  0  0  0  0  0  0  0  0  0  0
   10.4048   -0.6423    0.0000 H   0  0  0  0  0  0  0  0  0  0  0  0
   15.3889    2.7250    0.0000 H   0  0  0  0  0  0  0  0  0  0  0  0
   14.5919    2.7250    0.0000 H   0  0  0  0  0  0  0  0  0  0  0  0
    6.7287    2.7250    0.0000 H   0  0  0  0  0  0  0  0  0  0  0  0
    5.9316    2.7250    0.0000 H   0  0  0  0  0  0  0  0  0  0  0  0
   15.4579    1.2750    0.0000 H   0  0  0  0  0  0  0  0  0  0  0  0
   16.2549    1.2750    0.0000 H   0  0  0  0  0  0  0  0  0  0  0  0
    8.7162   -0.6674    0.0000 H   0  0  0  0  0  0  0  0  0  0  0  0
    8.3176   -1.3577    0.0000 H   0  0  0  0  0  0  0  0  0  0  0  0
    5.0656    1.2750    0.0000 H   0  0  0  0  0  0  0  0  0  0  0  0
    5.8626    1.2750    0.0000 H   0  0  0  0  0  0  0  0  0  0  0  0
   17.1210    2.7250    0.0000 H   0  0  0  0  0  0  0  0  0  0  0  0
   16.3239    2.7250    0.0000 H   0  0  0  0  0  0  0  0  0  0  0  0
    4.9966    2.7250    0.0000 H   0  0  0  0  0  0  0  0  0  0  0  0
    4.1996    2.7250    0.0000 H   0  0  0  0  0  0  0  0  0  0  0  0
   17.1899    1.2750    0.0000 H   0  0  0  0  0  0  0  0  0  0  0  0
   17.9870    1.2750    0.0000 H   0  0  0  0  0  0  0  0  0  0  0  0
    8.3082   -2.2500    0.0000 H   0  0  0  0  0  0  0  0  0  0  0  0
    8.9282   -2.8700    0.0000 H   0  0  0  0  0  0  0  0  0  0  0  0
    9.5482   -2.2500    0.0000 H   0  0  0  0  0  0  0  0  0  0  0  0
    3.3335    1.2750    0.0000 H   0  0  0  0  0  0  0  0  0  0  0  0
    4.1306    1.2750    0.0000 H   0  0  0  0  0  0  0  0  0  0  0  0
   18.8530    2.7250    0.0000 H   0  0  0  0  0  0  0  0  0  0  0  0
   18.0560    2.7250    0.0000 H   0  0  0  0  0  0  0  0  0  0  0  0
    3.2646    2.7250    0.0000 H   0  0  0  0  0  0  0  0  0  0  0  0
    2.4675    2.7250    0.0000 H   0  0  0  0  0  0  0  0  0  0  0  0
   18.9220    1.2750    0.0000 H   0  0  0  0  0  0  0  0  0  0  0  0
   19.7190    1.2750    0.0000 H   0  0  0  0  0  0  0  0  0  0  0  0
    1.6900    2.2869    0.0000 H   0  0  0  0  0  0  0  0  0  0  0  0
    1.4631    1.4400    0.0000 H   0  0  0  0  0  0  0  0  0  0  0  0
    2.3100    1.2131    0.0000 H   0  0  0  0  0  0  0  0  0  0  0  0
   20.4965    1.7131    0.0000 H   0  0  0  0  0  0  0  0  0  0  0  0
   20.7235    2.5600    0.0000 H   0  0  0  0  0  0  0  0  0  0  0  0
   19.8765    2.7869    0.0000 H   0  0  0  0  0  0  0  0  0  0  0  0
  1  2  1  0  0  0  0
  1  3  1  0  0  0  0
  1  4  1  0  0  0  0
  1 28  1  0  0  0  0
  2  5  1  0  0  0  0
  2 29  1  0  0  0  0
  2 30  1  0  0  0  0
  3  6  1  0  0  0  0
  3 31  1  0  0  0  0
  3 32  1  0  0  0  0
  4  7  1  0  0  0  0
  4 33  1  0  0  0  0
  4 34  1  0  0  0  0
  5  8  1  0  0  0  0
  5 35  1  0  0  0  0
  5 36  1  0  0  0  0
  6  9  1  0  0  0  0
  6 37  1  0  0  0  0
  6 38  1  0  0  0  0
  7 12  1  0  0  0  0
  7 39  1  0  0  0  0
  7 40  1  0  0  0  0
  8 10  1  0  0  0  0
  8 41  1  0  0  0  0
  8 42  1  0  0  0  0
  9 11  1  0  0  0  0
  9 43  1  0  0  0  0
  9 44  1  0  0  0  0
 10 13  1  0  0  0  0
 10 45  1  0  0  0  0
 10 46  1  0  0  0  0
 11 14  1  0  0  0  0
 11 47  1  0  0  0  0
 11 48  1  0  0  0  0
 12 16  1  0  0  0  0
 12 49  1  0  0  0  0
 12 50  1  0  0  0  0
 13 15  1  0  0  0  0
 13 51  1  0  0  0  0
 13 52  1  0  0  0  0
 14 17  1  0  0  0  0
 14 53  1  0  0  0  0
 14 54  1  0  0  0  0
 15 18  1  0  0  0  0
 15 55  1  0  0  0  0
 15 56  1  0  0  0  0
 16 21  1  0  0  0  0
 16 57  1  0  0  0  0
 16 58  1  0  0  0  0
 17 19  1  0  0  0  0
 17 59  1  0  0  0  0
 17 60  1  0  0  0  0
 18 20  1  0  0  0  0
 18 61  1  0  0  0  0
 18 62  1  0  0  0  0
 19 22  1  0  0  0  0
 19 63  1  0  0  0  0
 19 64  1  0  0  0  0
 20 23  1  0  0  0  0
 20 65  1  0  0  0  0
 20 66  1  0  0  0  0
 21 67  1  0  0  0  0
 21 68  1  0  0  0  0
 21 69  1  0  0  0  0
 22 24  1  0  0  0  0
 22 70  1  0  0  0  0
 22 71  1  0  0  0  0
 23 25  1  0  0  0  0
 23 72  1  0  0  0  0
 23 73  1  0  0  0  0
 24 26  1  0  0  0  0
 24 74  1  0  0  0  0
 24 75  1  0  0  0  0
 25 27  1  0  0  0  0
 25 76  1  0  0  0  0
 25 77  1  0  0  0  0
 26 78  1  0  0  0  0
 26 79  1  0  0  0  0
 26 80  1  0  0  0  0
 27 81  1  0  0  0  0
 27 82  1  0  0  0  0
 27 83  1  0  0  0  0
M  END
> <PUBCHEM_COMPOUND_CID>
528534
> <PUBCHEM_COMPOUND_CANONICALIZED>
1
> <PUBCHEM_CACTVS_COMPLEXITY>
244
> <PUBCHEM_CACTVS_HBOND_ACCEPTOR>
0
> <PUBCHEM_CACTVS_HBOND_DONOR>
0
> <PUBCHEM_CACTVS_ROTATABLE_BOND>
23
> <PUBCHEM_CACTVS_SUBSKEYS>
AAADcfB4AAAAAAAAAAAAAAAAAAAAAAAAAAAAAAAAAAAAAAAAAAAAGAAAAAAADQCAAAACAAAAAAAAAAAAAAAAAAAAAAAAAAAAAAAAAAIAAAAAAAAAAAAAAAEAgMAOAAAAAAAAAAAAAAAAAAAAAAAAAAAAAA==
> <PUBCHEM_IUPAC_OPENEYE_NAME>
11-pentyldocosane
> <PUBCHEM_IUPAC_CAS_NAME>
11-pentyldocosane
> <PUBCHEM_IUPAC_NAME_MARKUP>
11-pentyldocosane
> <PUBCHEM_IUPAC_NAME>
11-pentyldocosane
> <PUBCHEM_IUPAC_SYSTEMATIC_NAME>
11-pentyldocosane
> <PUBCHEM_IUPAC_TRADITIONAL_NAME>
11-amyldocosane
> <PUBCHEM_IUPAC_INCHI>
InChI=1S/C27H56/c1-4-7-10-12-14-16-18-20-23-26-27(24-21-9-6-3)25-22-19-17-15-13-11-8-5-2/h27H,4-26H2,1-3H3
> <PUBCHEM_IUPAC_INCHIKEY>
TXFJLBXOUSFPDJ-UHFFFAOYSA-N
> <PUBCHEM_XLOGP3_AA>
14.6
> <PUBCHEM_EXACT_MASS>
380.438201786
> <PUBCHEM_MOLECULAR_FORMULA>
C27H56
> <PUBCHEM_MOLECULAR_WEIGHT>
380.7
> <PUBCHEM_OPENEYE_CAN_SMILES>
CCCCCCCCCCCC(CCCCC)CCCCCCCCCC
> <PUBCHEM_OPENEYE_ISO_SMILES>
CCCCCCCCCCCC(CCCCC)CCCCCCCCCC
> <PUBCHEM_CACTVS_TPSA>
0
> <PUBCHEM_MONOISOTOPIC_WEIGHT>
380.438201786
> <PUBCHEM_TOTAL_CHARGE>
0
> <PUBCHEM_HEAVY_ATOM_COUNT>
27
> <PUBCHEM_ATOM_DEF_STEREO_COUNT>
0
> <PUBCHEM_ATOM_UDEF_STEREO_COUNT>
1
> <PUBCHEM_BOND_DEF_STEREO_COUNT>
0
> <PUBCHEM_BOND_UDEF_STEREO_COUNT>
0
> <PUBCHEM_ISOTOPIC_ATOM_COUNT>
0
> <PUBCHEM_COMPONENT_COUNT>
1
> <PUBCHEM_CACTVS_TAUTO_COUNT>
-1
> <PUBCHEM_COORDINATE_TYPE>
1
5
255
> <PUBCHEM_BONDANNOTATIONS>
1  4  3
$$$$
