528545
  -OEChem-10302200292D
 77 76  0     1  0  0  0  0  0999 V2000
    8.9282    2.5000    0.0000 C   0  0  3  0  0  0  0  0  0  0  0  0
    9.7942    3.0000    0.0000 C   0  0  0  0  0  0  0  0  0  0  0  0
    8.0622    3.0000    0.0000 C   0  0  0  0  0  0  0  0  0  0  0  0
    8.9282    1.5000    0.0000 C   0  0  0  0  0  0  0  0  0  0  0  0
   10.6603    2.5000    0.0000 C   0  0  0  0  0  0  0  0  0  0  0  0
    7.1962    2.5000    0.0000 C   0  0  0  0  0  0  0  0  0  0  0  0
    8.0622    1.0000    0.0000 C   0  0  0  0  0  0  0  0  0  0  0  0
   11.5263    3.0000    0.0000 C   0  0  0  0  0  0  0  0  0  0  0  0
    6.3301    3.0000    0.0000 C   0  0  0  0  0  0  0  0  0  0  0  0
    8.0622    0.0000    0.0000 C   0  0  0  0  0  0  0  0  0  0  0  0
   12.3923    2.5000    0.0000 C   0  0  0  0  0  0  0  0  0  0  0  0
    5.4641    2.5000    0.0000 C   0  0  0  0  0  0  0  0  0  0  0  0
    7.1962   -0.5000    0.0000 C   0  0  0  0  0  0  0  0  0  0  0  0
   13.2583    3.0000    0.0000 C   0  0  0  0  0  0  0  0  0  0  0  0
    4.5981    3.0000    0.0000 C   0  0  0  0  0  0  0  0  0  0  0  0
    7.1962   -1.5000    0.0000 C   0  0  0  0  0  0  0  0  0  0  0  0
   14.1244    2.5000    0.0000 C   0  0  0  0  0  0  0  0  0  0  0  0
    3.7320    2.5000    0.0000 C   0  0  0  0  0  0  0  0  0  0  0  0
   14.9904    3.0000    0.0000 C   0  0  0  0  0  0  0  0  0  0  0  0
    6.3301   -2.0000    0.0000 C   0  0  0  0  0  0  0  0  0  0  0  0
    2.8660    3.0000    0.0000 C   0  0  0  0  0  0  0  0  0  0  0  0
   15.8564    2.5000    0.0000 C   0  0  0  0  0  0  0  0  0  0  0  0
    6.3301   -3.0000    0.0000 C   0  0  0  0  0  0  0  0  0  0  0  0
    2.0000    2.5000    0.0000 C   0  0  0  0  0  0  0  0  0  0  0  0
   16.7224    3.0000    0.0000 C   0  0  0  0  0  0  0  0  0  0  0  0
    9.4651    2.1900    0.0000 H   0  0  0  0  0  0  0  0  0  0  0  0
   10.1928    3.4750    0.0000 H   0  0  0  0  0  0  0  0  0  0  0  0
    9.3957    3.4750    0.0000 H   0  0  0  0  0  0  0  0  0  0  0  0
    8.4607    3.4750    0.0000 H   0  0  0  0  0  0  0  0  0  0  0  0
    7.6636    3.4750    0.0000 H   0  0  0  0  0  0  0  0  0  0  0  0
    9.1403    0.9174    0.0000 H   0  0  0  0  0  0  0  0  0  0  0  0
    9.5388    1.6077    0.0000 H   0  0  0  0  0  0  0  0  0  0  0  0
   10.2617    2.0250    0.0000 H   0  0  0  0  0  0  0  0  0  0  0  0
   11.0588    2.0250    0.0000 H   0  0  0  0  0  0  0  0  0  0  0  0
    6.7976    2.0250    0.0000 H   0  0  0  0  0  0  0  0  0  0  0  0
    7.5947    2.0250    0.0000 H   0  0  0  0  0  0  0  0  0  0  0  0
    7.8501    1.5826    0.0000 H   0  0  0  0  0  0  0  0  0  0  0  0
    7.4516    0.8923    0.0000 H   0  0  0  0  0  0  0  0  0  0  0  0
   11.9248    3.4750    0.0000 H   0  0  0  0  0  0  0  0  0  0  0  0
   11.1278    3.4750    0.0000 H   0  0  0  0  0  0  0  0  0  0  0  0
    6.7287    3.4750    0.0000 H   0  0  0  0  0  0  0  0  0  0  0  0
    5.9316    3.4750    0.0000 H   0  0  0  0  0  0  0  0  0  0  0  0
    8.2742   -0.5826    0.0000 H   0  0  0  0  0  0  0  0  0  0  0  0
    8.6728    0.1077    0.0000 H   0  0  0  0  0  0  0  0  0  0  0  0
   11.9938    2.0250    0.0000 H   0  0  0  0  0  0  0  0  0  0  0  0
   12.7908    2.0250    0.0000 H   0  0  0  0  0  0  0  0  0  0  0  0
    5.0656    2.0250    0.0000 H   0  0  0  0  0  0  0  0  0  0  0  0
    5.8626    2.0250    0.0000 H   0  0  0  0  0  0  0  0  0  0  0  0
    6.9841    0.0826    0.0000 H   0  0  0  0  0  0  0  0  0  0  0  0
    6.5856   -0.6077    0.0000 H   0  0  0  0  0  0  0  0  0  0  0  0
   13.6569    3.4750    0.0000 H   0  0  0  0  0  0  0  0  0  0  0  0
   12.8598    3.4750    0.0000 H   0  0  0  0  0  0  0  0  0  0  0  0
    4.9966    3.4750    0.0000 H   0  0  0  0  0  0  0  0  0  0  0  0
    4.1996    3.4750    0.0000 H   0  0  0  0  0  0  0  0  0  0  0  0
    7.4082   -2.0826    0.0000 H   0  0  0  0  0  0  0  0  0  0  0  0
    7.8067   -1.3923    0.0000 H   0  0  0  0  0  0  0  0  0  0  0  0
   13.7258    2.0250    0.0000 H   0  0  0  0  0  0  0  0  0  0  0  0
   14.5229    2.0250    0.0000 H   0  0  0  0  0  0  0  0  0  0  0  0
    3.3335    2.0250    0.0000 H   0  0  0  0  0  0  0  0  0  0  0  0
    4.1306    2.0250    0.0000 H   0  0  0  0  0  0  0  0  0  0  0  0
   15.3889    3.4750    0.0000 H   0  0  0  0  0  0  0  0  0  0  0  0
   14.5919    3.4750    0.0000 H   0  0  0  0  0  0  0  0  0  0  0  0
    6.1181   -1.4174    0.0000 H   0  0  0  0  0  0  0  0  0  0  0  0
    5.7196   -2.1077    0.0000 H   0  0  0  0  0  0  0  0  0  0  0  0
    3.2646    3.4750    0.0000 H   0  0  0  0  0  0  0  0  0  0  0  0
    2.4675    3.4750    0.0000 H   0  0  0  0  0  0  0  0  0  0  0  0
   15.4579    2.0250    0.0000 H   0  0  0  0  0  0  0  0  0  0  0  0
   16.2549    2.0250    0.0000 H   0  0  0  0  0  0  0  0  0  0  0  0
    5.7101   -3.0000    0.0000 H   0  0  0  0  0  0  0  0  0  0  0  0
    6.3301   -3.6200    0.0000 H   0  0  0  0  0  0  0  0  0  0  0  0
    6.9501   -3.0000    0.0000 H   0  0  0  0  0  0  0  0  0  0  0  0
    1.6900    3.0369    0.0000 H   0  0  0  0  0  0  0  0  0  0  0  0
    1.4631    2.1900    0.0000 H   0  0  0  0  0  0  0  0  0  0  0  0
    2.3100    1.9631    0.0000 H   0  0  0  0  0  0  0  0  0  0  0  0
   17.0324    2.4631    0.0000 H   0  0  0  0  0  0  0  0  0  0  0  0
   17.2594    3.3100    0.0000 H   0  0  0  0  0  0  0  0  0  0  0  0
   16.4124    3.5369    0.0000 H   0  0  0  0  0  0  0  0  0  0  0  0
  1  2  1  0  0  0  0
  1  3  1  0  0  0  0
  1  4  1  0  0  0  0
  1 26  1  0  0  0  0
  2  5  1  0  0  0  0
  2 27  1  0  0  0  0
  2 28  1  0  0  0  0
  3  6  1  0  0  0  0
  3 29  1  0  0  0  0
  3 30  1  0  0  0  0
  4  7  1  0  0  0  0
  4 31  1  0  0  0  0
  4 32  1  0  0  0  0
  5  8  1  0  0  0  0
  5 33  1  0  0  0  0
  5 34  1  0  0  0  0
  6  9  1  0  0  0  0
  6 35  1  0  0  0  0
  6 36  1  0  0  0  0
  7 10  1  0  0  0  0
  7 37  1  0  0  0  0
  7 38  1  0  0  0  0
  8 11  1  0  0  0  0
  8 39  1  0  0  0  0
  8 40  1  0  0  0  0
  9 12  1  0  0  0  0
  9 41  1  0  0  0  0
  9 42  1  0  0  0  0
 10 13  1  0  0  0  0
 10 43  1  0  0  0  0
 10 44  1  0  0  0  0
 11 14  1  0  0  0  0
 11 45  1  0  0  0  0
 11 46  1  0  0  0  0
 12 15  1  0  0  0  0
 12 47  1  0  0  0  0
 12 48  1  0  0  0  0
 13 16  1  0  0  0  0
 13 49  1  0  0  0  0
 13 50  1  0  0  0  0
 14 17  1  0  0  0  0
 14 51  1  0  0  0  0
 14 52  1  0  0  0  0
 15 18  1  0  0  0  0
 15 53  1  0  0  0  0
 15 54  1  0  0  0  0
 16 20  1  0  0  0  0
 16 55  1  0  0  0  0
 16 56  1  0  0  0  0
 17 19  1  0  0  0  0
 17 57  1  0  0  0  0
 17 58  1  0  0  0  0
 18 21  1  0  0  0  0
 18 59  1  0  0  0  0
 18 60  1  0  0  0  0
 19 22  1  0  0  0  0
 19 61  1  0  0  0  0
 19 62  1  0  0  0  0
 20 23  1  0  0  0  0
 20 63  1  0  0  0  0
 20 64  1  0  0  0  0
 21 24  1  0  0  0  0
 21 65  1  0  0  0  0
 21 66  1  0  0  0  0
 22 25  1  0  0  0  0
 22 67  1  0  0  0  0
 22 68  1  0  0  0  0
 23 69  1  0  0  0  0
 23 70  1  0  0  0  0
 23 71  1  0  0  0  0
 24 72  1  0  0  0  0
 24 73  1  0  0  0  0
 24 74  1  0  0  0  0
 25 75  1  0  0  0  0
 25 76  1  0  0  0  0
 25 77  1  0  0  0  0
M  END
> <PUBCHEM_COMPOUND_CID>
528545
> <PUBCHEM_COMPOUND_CANONICALIZED>
1
> <PUBCHEM_CACTVS_COMPLEXITY>
220
> <PUBCHEM_CACTVS_HBOND_ACCEPTOR>
0
> <PUBCHEM_CACTVS_HBOND_DONOR>
0
> <PUBCHEM_CACTVS_ROTATABLE_BOND>
21
> <PUBCHEM_CACTVS_SUBSKEYS>
AAADcfB4AAAAAAAAAAAAAAAAAAAAAAAAAAAAAAAAAAAAAAAAAAAAGAAAAAAADQCAAAACAAAAAAAAAAAAAAAAAAAAAAAAAAAAAAAAAAIAAAAAAAAAAAAAAAEAgMAOAAAAAAAAAAAAAAAAAAAAAAAAAAAAAA==
> <PUBCHEM_IUPAC_OPENEYE_NAME>
9-heptyloctadecane
> <PUBCHEM_IUPAC_CAS_NAME>
9-heptyloctadecane
> <PUBCHEM_IUPAC_NAME_MARKUP>
9-heptyloctadecane
> <PUBCHEM_IUPAC_NAME>
9-heptyloctadecane
> <PUBCHEM_IUPAC_SYSTEMATIC_NAME>
9-heptyloctadecane
> <PUBCHEM_IUPAC_TRADITIONAL_NAME>
9-heptyloctadecane
> <PUBCHEM_IUPAC_INCHI>
InChI=1S/C25H52/c1-4-7-10-13-15-18-21-24-25(22-19-16-12-9-6-3)23-20-17-14-11-8-5-2/h25H,4-24H2,1-3H3
> <PUBCHEM_IUPAC_INCHIKEY>
HCGHTSMPJQUZCK-UHFFFAOYSA-N
> <PUBCHEM_XLOGP3_AA>
13.5
> <PUBCHEM_EXACT_MASS>
352.406901659
> <PUBCHEM_MOLECULAR_FORMULA>
C25H52
> <PUBCHEM_MOLECULAR_WEIGHT>
352.7
> <PUBCHEM_OPENEYE_CAN_SMILES>
CCCCCCCCCC(CCCCCCC)CCCCCCCC
> <PUBCHEM_OPENEYE_ISO_SMILES>
CCCCCCCCCC(CCCCCCC)CCCCCCCC
> <PUBCHEM_CACTVS_TPSA>
0
> <PUBCHEM_MONOISOTOPIC_WEIGHT>
352.406901659
> <PUBCHEM_TOTAL_CHARGE>
0
> <PUBCHEM_HEAVY_ATOM_COUNT>
25
> <PUBCHEM_ATOM_DEF_STEREO_COUNT>
0
> <PUBCHEM_ATOM_UDEF_STEREO_COUNT>
1
> <PUBCHEM_BOND_DEF_STEREO_COUNT>
0
> <PUBCHEM_BOND_UDEF_STEREO_COUNT>
0
> <PUBCHEM_ISOTOPIC_ATOM_COUNT>
0
> <PUBCHEM_COMPONENT_COUNT>
1
> <PUBCHEM_CACTVS_TAUTO_COUNT>
-1
> <PUBCHEM_COORDINATE_TYPE>
1
5
255
> <PUBCHEM_BONDANNOTATIONS>
1  4  3
$$$$
