528563
  -OEChem-10302200292D
 54 53  0     1  0  0  0  0  0999 V2000
    8.0622    0.2500    0.0000 Si  0  0  0  0  0  0  0  0  0  0  0  0
    3.7320   -0.2500    0.0000 Si  0  0  0  0  0  0  0  0  0  0  0  0
    7.1962   -0.2500    0.0000 O   0  0  0  0  0  0  0  0  0  0  0  0
    4.5981    0.2500    0.0000 O   0  0  0  0  0  0  0  0  0  0  0  0
    5.4641   -1.2500    0.0000 O   0  0  0  0  0  0  0  0  0  0  0  0
    8.9282    0.7500    0.0000 C   0  0  0  0  0  0  0  0  0  0  0  0
    2.8660   -0.7500    0.0000 C   0  0  0  0  0  0  0  0  0  0  0  0
    9.7942    1.2500    0.0000 C   0  0  0  0  0  0  0  0  0  0  0  0
    8.4282    1.6160    0.0000 C   0  0  0  0  0  0  0  0  0  0  0  0
    9.4282   -0.1160    0.0000 C   0  0  0  0  0  0  0  0  0  0  0  0
    7.5622    1.1160    0.0000 C   0  0  0  0  0  0  0  0  0  0  0  0
    8.5622   -0.6160    0.0000 C   0  0  0  0  0  0  0  0  0  0  0  0
    2.0000   -1.2500    0.0000 C   0  0  0  0  0  0  0  0  0  0  0  0
    2.3660    0.1160    0.0000 C   0  0  0  0  0  0  0  0  0  0  0  0
    3.3660   -1.6160    0.0000 C   0  0  0  0  0  0  0  0  0  0  0  0
    6.3301    0.2500    0.0000 C   0  0  3  0  0  0  0  0  0  0  0  0
    3.2320    0.6160    0.0000 C   0  0  0  0  0  0  0  0  0  0  0  0
    4.2320   -1.1160    0.0000 C   0  0  0  0  0  0  0  0  0  0  0  0
    5.4641   -0.2500    0.0000 C   0  0  0  0  0  0  0  0  0  0  0  0
    6.3301    1.2500    0.0000 C   0  0  0  0  0  0  0  0  0  0  0  0
   10.1042    0.7131    0.0000 H   0  0  0  0  0  0  0  0  0  0  0  0
   10.3312    1.5600    0.0000 H   0  0  0  0  0  0  0  0  0  0  0  0
    9.4842    1.7869    0.0000 H   0  0  0  0  0  0  0  0  0  0  0  0
    8.9651    1.9260    0.0000 H   0  0  0  0  0  0  0  0  0  0  0  0
    8.1182    2.1530    0.0000 H   0  0  0  0  0  0  0  0  0  0  0  0
    7.8913    1.3060    0.0000 H   0  0  0  0  0  0  0  0  0  0  0  0
    8.8913   -0.4260    0.0000 H   0  0  0  0  0  0  0  0  0  0  0  0
    9.7382   -0.6530    0.0000 H   0  0  0  0  0  0  0  0  0  0  0  0
    9.9651    0.1940    0.0000 H   0  0  0  0  0  0  0  0  0  0  0  0
    8.0991    1.4260    0.0000 H   0  0  0  0  0  0  0  0  0  0  0  0
    7.2522    1.6530    0.0000 H   0  0  0  0  0  0  0  0  0  0  0  0
    7.0252    0.8060    0.0000 H   0  0  0  0  0  0  0  0  0  0  0  0
    8.0252   -0.9260    0.0000 H   0  0  0  0  0  0  0  0  0  0  0  0
    8.8722   -1.1530    0.0000 H   0  0  0  0  0  0  0  0  0  0  0  0
    9.0991   -0.3060    0.0000 H   0  0  0  0  0  0  0  0  0  0  0  0
    1.6900   -0.7131    0.0000 H   0  0  0  0  0  0  0  0  0  0  0  0
    1.4631   -1.5600    0.0000 H   0  0  0  0  0  0  0  0  0  0  0  0
    2.3100   -1.7869    0.0000 H   0  0  0  0  0  0  0  0  0  0  0  0
    2.9030    0.4260    0.0000 H   0  0  0  0  0  0  0  0  0  0  0  0
    2.0560    0.6530    0.0000 H   0  0  0  0  0  0  0  0  0  0  0  0
    1.8291   -0.1940    0.0000 H   0  0  0  0  0  0  0  0  0  0  0  0
    2.8291   -1.9260    0.0000 H   0  0  0  0  0  0  0  0  0  0  0  0
    3.6760   -2.1530    0.0000 H   0  0  0  0  0  0  0  0  0  0  0  0
    3.9030   -1.3060    0.0000 H   0  0  0  0  0  0  0  0  0  0  0  0
    6.8671    0.5600    0.0000 H   0  0  0  0  0  0  0  0  0  0  0  0
    3.7690    0.9260    0.0000 H   0  0  0  0  0  0  0  0  0  0  0  0
    2.9220    1.1530    0.0000 H   0  0  0  0  0  0  0  0  0  0  0  0
    2.6951    0.3060    0.0000 H   0  0  0  0  0  0  0  0  0  0  0  0
    3.6951   -1.4260    0.0000 H   0  0  0  0  0  0  0  0  0  0  0  0
    4.5420   -1.6530    0.0000 H   0  0  0  0  0  0  0  0  0  0  0  0
    4.7690   -0.8060    0.0000 H   0  0  0  0  0  0  0  0  0  0  0  0
    6.9501    1.2500    0.0000 H   0  0  0  0  0  0  0  0  0  0  0  0
    6.3301    1.8700    0.0000 H   0  0  0  0  0  0  0  0  0  0  0  0
    5.7101    1.2500    0.0000 H   0  0  0  0  0  0  0  0  0  0  0  0
  1  3  1  0  0  0  0
  1  6  1  0  0  0  0
  1 11  1  0  0  0  0
  1 12  1  0  0  0  0
  2  4  1  0  0  0  0
  2  7  1  0  0  0  0
  2 17  1  0  0  0  0
  2 18  1  0  0  0  0
  3 16  1  0  0  0  0
  4 19  1  0  0  0  0
  5 19  2  0  0  0  0
  6  8  1  0  0  0  0
  6  9  1  0  0  0  0
  6 10  1  0  0  0  0
  7 13  1  0  0  0  0
  7 14  1  0  0  0  0
  7 15  1  0  0  0  0
  8 21  1  0  0  0  0
  8 22  1  0  0  0  0
  8 23  1  0  0  0  0
  9 24  1  0  0  0  0
  9 25  1  0  0  0  0
  9 26  1  0  0  0  0
 10 27  1  0  0  0  0
 10 28  1  0  0  0  0
 10 29  1  0  0  0  0
 11 30  1  0  0  0  0
 11 31  1  0  0  0  0
 11 32  1  0  0  0  0
 12 33  1  0  0  0  0
 12 34  1  0  0  0  0
 12 35  1  0  0  0  0
 13 36  1  0  0  0  0
 13 37  1  0  0  0  0
 13 38  1  0  0  0  0
 14 39  1  0  0  0  0
 14 40  1  0  0  0  0
 14 41  1  0  0  0  0
 15 42  1  0  0  0  0
 15 43  1  0  0  0  0
 15 44  1  0  0  0  0
 16 19  1  0  0  0  0
 16 20  1  0  0  0  0
 16 45  1  0  0  0  0
 17 46  1  0  0  0  0
 17 47  1  0  0  0  0
 17 48  1  0  0  0  0
 18 49  1  0  0  0  0
 18 50  1  0  0  0  0
 18 51  1  0  0  0  0
 20 52  1  0  0  0  0
 20 53  1  0  0  0  0
 20 54  1  0  0  0  0
M  END
> <PUBCHEM_COMPOUND_CID>
528563
> <PUBCHEM_COMPOUND_CANONICALIZED>
1
> <PUBCHEM_CACTVS_COMPLEXITY>
349
> <PUBCHEM_CACTVS_HBOND_ACCEPTOR>
3
> <PUBCHEM_CACTVS_HBOND_DONOR>
0
> <PUBCHEM_CACTVS_ROTATABLE_BOND>
7
> <PUBCHEM_CACTVS_SUBSKEYS>
AAADcfBwMAwAAAAAAAAAAAAAAAAAAAAAAAAAAAAAAAAAAAAAAAAAGhAAAEAADBSgoAJCCAAAAAEIAACQCAIAAAAAAAAAAAFAAAABAAAAAAAAAAAAAAAAAAAAAAAAAAAAAAAAAAAAAAAAAAAAAAAAAAAAAA==
> <PUBCHEM_IUPAC_OPENEYE_NAME>
[tert-butyl(dimethyl)silyl] 2-[tert-butyl(dimethyl)silyl]oxypropanoate
> <PUBCHEM_IUPAC_CAS_NAME>
2-[tert-butyl(dimethyl)silyl]oxypropanoic acid [tert-butyl(dimethyl)silyl] ester
> <PUBCHEM_IUPAC_NAME_MARKUP>
[<I>tert</I>-butyl(dimethyl)silyl] 2-[<I>tert</I>-butyl(dimethyl)silyl]oxypropanoate
> <PUBCHEM_IUPAC_NAME>
[tert-butyl(dimethyl)silyl] 2-[tert-butyl(dimethyl)silyl]oxypropanoate
> <PUBCHEM_IUPAC_SYSTEMATIC_NAME>
[tert-butyl(dimethyl)silyl] 2-[tert-butyl(dimethyl)silyl]oxypropanoate
> <PUBCHEM_IUPAC_TRADITIONAL_NAME>
2-[tert-butyl(dimethyl)silyl]oxypropionic acid [tert-butyl(dimethyl)silyl] ester
> <PUBCHEM_IUPAC_INCHI>
InChI=1S/C15H34O3Si2/c1-12(17-19(8,9)14(2,3)4)13(16)18-20(10,11)15(5,6)7/h12H,1-11H3
> <PUBCHEM_IUPAC_INCHIKEY>
YZJJQQKVFWRPJH-UHFFFAOYSA-N
> <PUBCHEM_EXACT_MASS>
318.20464801
> <PUBCHEM_MOLECULAR_FORMULA>
C15H34O3Si2
> <PUBCHEM_MOLECULAR_WEIGHT>
318.60
> <PUBCHEM_OPENEYE_CAN_SMILES>
CC(C(=O)O[Si](C)(C)C(C)(C)C)O[Si](C)(C)C(C)(C)C
> <PUBCHEM_OPENEYE_ISO_SMILES>
CC(C(=O)O[Si](C)(C)C(C)(C)C)O[Si](C)(C)C(C)(C)C
> <PUBCHEM_CACTVS_TPSA>
35.5
> <PUBCHEM_MONOISOTOPIC_WEIGHT>
318.20464801
> <PUBCHEM_TOTAL_CHARGE>
0
> <PUBCHEM_HEAVY_ATOM_COUNT>
20
> <PUBCHEM_ATOM_DEF_STEREO_COUNT>
0
> <PUBCHEM_ATOM_UDEF_STEREO_COUNT>
1
> <PUBCHEM_BOND_DEF_STEREO_COUNT>
0
> <PUBCHEM_BOND_UDEF_STEREO_COUNT>
0
> <PUBCHEM_ISOTOPIC_ATOM_COUNT>
0
> <PUBCHEM_COMPONENT_COUNT>
1
> <PUBCHEM_CACTVS_TAUTO_COUNT>
-1
> <PUBCHEM_COORDINATE_TYPE>
1
5
255
> <PUBCHEM_BONDANNOTATIONS>
16  20  3
$$$$
