528550
  -OEChem-10302200292D
 54 57  0     1  0  0  0  0  0999 V2000
    6.3981    0.2500    0.0000 C   0  0  3  0  0  0  0  0  0  0  0  0
    5.5321   -0.2500    0.0000 C   0  0  3  0  0  0  0  0  0  0  0  0
    8.1301    0.2500    0.0000 C   0  0  3  0  0  0  0  0  0  0  0  0
    3.8000   -0.2500    0.0000 C   0  0  3  0  0  0  0  0  0  0  0  0
    8.1301    1.2500    0.0000 C   0  0  3  0  0  0  0  0  0  0  0  0
    3.8000   -1.2500    0.0000 C   0  0  3  0  0  0  0  0  0  0  0  0
    7.2641   -0.2500    0.0000 C   0  0  0  0  0  0  0  0  0  0  0  0
    4.6660    0.2500    0.0000 C   0  0  0  0  0  0  0  0  0  0  0  0
    6.3981    1.2500    0.0000 C   0  0  0  0  0  0  0  0  0  0  0  0
    5.5321   -1.2500    0.0000 C   0  0  0  0  0  0  0  0  0  0  0  0
    7.2641    1.7500    0.0000 C   0  0  0  0  0  0  0  0  0  0  0  0
    4.6660   -1.7500    0.0000 C   0  0  0  0  0  0  0  0  0  0  0  0
    9.0241   -0.2847    0.0000 C   0  0  0  0  0  0  0  0  0  0  0  0
    2.9061    0.2847    0.0000 C   0  0  0  0  0  0  0  0  0  0  0  0
    9.0241    1.7847    0.0000 C   0  0  0  0  0  0  0  0  0  0  0  0
    2.9061   -1.7847    0.0000 C   0  0  0  0  0  0  0  0  0  0  0  0
    9.9301    0.2292    0.0000 C   0  0  0  0  0  0  0  0  0  0  0  0
    2.0000   -0.2292    0.0000 C   0  0  0  0  0  0  0  0  0  0  0  0
    9.9301    1.2708    0.0000 C   0  0  0  0  0  0  0  0  0  0  0  0
    2.0000   -1.2708    0.0000 C   0  0  0  0  0  0  0  0  0  0  0  0
    6.3981   -0.3700    0.0000 H   0  0  0  0  0  0  0  0  0  0  0  0
    5.5321    0.3700    0.0000 H   0  0  0  0  0  0  0  0  0  0  0  0
    8.1254   -0.3700    0.0000 H   0  0  0  0  0  0  0  0  0  0  0  0
    3.8048    0.3700    0.0000 H   0  0  0  0  0  0  0  0  0  0  0  0
    8.1254    1.8700    0.0000 H   0  0  0  0  0  0  0  0  0  0  0  0
    3.8048   -1.8700    0.0000 H   0  0  0  0  0  0  0  0  0  0  0  0
    6.8656   -0.7249    0.0000 H   0  0  0  0  0  0  0  0  0  0  0  0
    7.6626   -0.7249    0.0000 H   0  0  0  0  0  0  0  0  0  0  0  0
    5.0646    0.7249    0.0000 H   0  0  0  0  0  0  0  0  0  0  0  0
    4.2675    0.7249    0.0000 H   0  0  0  0  0  0  0  0  0  0  0  0
    6.1860    1.8326    0.0000 H   0  0  0  0  0  0  0  0  0  0  0  0
    5.7875    1.1423    0.0000 H   0  0  0  0  0  0  0  0  0  0  0  0
    5.7441   -1.8326    0.0000 H   0  0  0  0  0  0  0  0  0  0  0  0
    6.1426   -1.1423    0.0000 H   0  0  0  0  0  0  0  0  0  0  0  0
    7.6626    2.2250    0.0000 H   0  0  0  0  0  0  0  0  0  0  0  0
    6.8656    2.2250    0.0000 H   0  0  0  0  0  0  0  0  0  0  0  0
    4.2675   -2.2250    0.0000 H   0  0  0  0  0  0  0  0  0  0  0  0
    5.0646   -2.2250    0.0000 H   0  0  0  0  0  0  0  0  0  0  0  0
    8.6195   -0.7544    0.0000 H   0  0  0  0  0  0  0  0  0  0  0  0
    9.4177   -0.7637    0.0000 H   0  0  0  0  0  0  0  0  0  0  0  0
    3.3107    0.7544    0.0000 H   0  0  0  0  0  0  0  0  0  0  0  0
    2.5124    0.7637    0.0000 H   0  0  0  0  0  0  0  0  0  0  0  0
    9.4177    2.2637    0.0000 H   0  0  0  0  0  0  0  0  0  0  0  0
    8.6195    2.2544    0.0000 H   0  0  0  0  0  0  0  0  0  0  0  0
    2.5124   -2.2637    0.0000 H   0  0  0  0  0  0  0  0  0  0  0  0
    3.3107   -2.2544    0.0000 H   0  0  0  0  0  0  0  0  0  0  0  0
   10.1392   -0.3545    0.0000 H   0  0  0  0  0  0  0  0  0  0  0  0
   10.5410    0.3353    0.0000 H   0  0  0  0  0  0  0  0  0  0  0  0
    1.7909    0.3545    0.0000 H   0  0  0  0  0  0  0  0  0  0  0  0
    1.3891   -0.3353    0.0000 H   0  0  0  0  0  0  0  0  0  0  0  0
   10.5410    1.1647    0.0000 H   0  0  0  0  0  0  0  0  0  0  0  0
   10.1392    1.8545    0.0000 H   0  0  0  0  0  0  0  0  0  0  0  0
    1.3891   -1.1647    0.0000 H   0  0  0  0  0  0  0  0  0  0  0  0
    1.7909   -1.8545    0.0000 H   0  0  0  0  0  0  0  0  0  0  0  0
  1  2  1  0  0  0  0
  1  7  1  0  0  0  0
  1  9  1  0  0  0  0
  1 21  1  0  0  0  0
  2  8  1  0  0  0  0
  2 10  1  0  0  0  0
  2 22  1  0  0  0  0
  3  5  1  0  0  0  0
  3  7  1  0  0  0  0
  3 13  1  0  0  0  0
  3 23  1  0  0  0  0
  4  6  1  0  0  0  0
  4  8  1  0  0  0  0
  4 14  1  0  0  0  0
  4 24  1  0  0  0  0
  5 11  1  0  0  0  0
  5 15  1  0  0  0  0
  5 25  1  0  0  0  0
  6 12  1  0  0  0  0
  6 16  1  0  0  0  0
  6 26  1  0  0  0  0
  7 27  1  0  0  0  0
  7 28  1  0  0  0  0
  8 29  1  0  0  0  0
  8 30  1  0  0  0  0
  9 11  1  0  0  0  0
  9 31  1  0  0  0  0
  9 32  1  0  0  0  0
 10 12  1  0  0  0  0
 10 33  1  0  0  0  0
 10 34  1  0  0  0  0
 11 35  1  0  0  0  0
 11 36  1  0  0  0  0
 12 37  1  0  0  0  0
 12 38  1  0  0  0  0
 13 17  1  0  0  0  0
 13 39  1  0  0  0  0
 13 40  1  0  0  0  0
 14 18  1  0  0  0  0
 14 41  1  0  0  0  0
 14 42  1  0  0  0  0
 15 19  1  0  0  0  0
 15 43  1  0  0  0  0
 15 44  1  0  0  0  0
 16 20  1  0  0  0  0
 16 45  1  0  0  0  0
 16 46  1  0  0  0  0
 17 19  1  0  0  0  0
 17 47  1  0  0  0  0
 17 48  1  0  0  0  0
 18 20  1  0  0  0  0
 18 49  1  0  0  0  0
 18 50  1  0  0  0  0
 19 51  1  0  0  0  0
 19 52  1  0  0  0  0
 20 53  1  0  0  0  0
 20 54  1  0  0  0  0
M  END
> <PUBCHEM_COMPOUND_CID>
528550
> <PUBCHEM_COMPOUND_CANONICALIZED>
1
> <PUBCHEM_CACTVS_COMPLEXITY>
288
> <PUBCHEM_CACTVS_HBOND_ACCEPTOR>
0
> <PUBCHEM_CACTVS_HBOND_DONOR>
0
> <PUBCHEM_CACTVS_ROTATABLE_BOND>
1
> <PUBCHEM_CACTVS_SUBSKEYS>
AAADcfB4AAAAAAAAAAAAAAAAAAAAAAAAAAAwYMGAAAAAAADAAAAAGAAAAAAADQCAAAAAAAAAAAAAAAAAAAAAAAAAAAAAAAAAAAAAAAIAAAAAAAAAAAAAAAEAgMAOgAAAAAAAAACAAAQAACAAAAAAAAAAAA==
> <PUBCHEM_IUPAC_OPENEYE_NAME>
2-decalin-2-yldecalin
> <PUBCHEM_IUPAC_CAS_NAME>
2-(1,2,3,4,4a,5,6,7,8,8a-decahydronaphthalen-2-yl)-1,2,3,4,4a,5,6,7,8,8a-decahydronaphthalene
> <PUBCHEM_IUPAC_NAME_MARKUP>
2-(1,2,3,4,4<I>a</I>,5,6,7,8,8<I>a</I>-decahydronaphthalen-2-yl)-1,2,3,4,4<I>a</I>,5,6,7,8,8<I>a</I>-decahydronaphthalene
> <PUBCHEM_IUPAC_NAME>
2-(1,2,3,4,4a,5,6,7,8,8a-decahydronaphthalen-2-yl)-1,2,3,4,4a,5,6,7,8,8a-decahydronaphthalene
> <PUBCHEM_IUPAC_SYSTEMATIC_NAME>
2-(1,2,3,4,4a,5,6,7,8,8a-decahydronaphthalen-2-yl)-1,2,3,4,4a,5,6,7,8,8a-decahydronaphthalene
> <PUBCHEM_IUPAC_TRADITIONAL_NAME>
2-decalin-2-yldecalin
> <PUBCHEM_IUPAC_INCHI>
InChI=1S/C20H34/c1-3-7-17-13-19(11-9-15(17)5-1)20-12-10-16-6-2-4-8-18(16)14-20/h15-20H,1-14H2
> <PUBCHEM_IUPAC_INCHIKEY>
JZMIQSLLYUOJLU-UHFFFAOYSA-N
> <PUBCHEM_XLOGP3_AA>
8.4
> <PUBCHEM_EXACT_MASS>
274.266051085
> <PUBCHEM_MOLECULAR_FORMULA>
C20H34
> <PUBCHEM_MOLECULAR_WEIGHT>
274.5
> <PUBCHEM_OPENEYE_CAN_SMILES>
C1CCC2CC(CCC2C1)C3CCC4CCCCC4C3
> <PUBCHEM_OPENEYE_ISO_SMILES>
C1CCC2CC(CCC2C1)C3CCC4CCCCC4C3
> <PUBCHEM_CACTVS_TPSA>
0
> <PUBCHEM_MONOISOTOPIC_WEIGHT>
274.266051085
> <PUBCHEM_TOTAL_CHARGE>
0
> <PUBCHEM_HEAVY_ATOM_COUNT>
20
> <PUBCHEM_ATOM_DEF_STEREO_COUNT>
0
> <PUBCHEM_ATOM_UDEF_STEREO_COUNT>
6
> <PUBCHEM_BOND_DEF_STEREO_COUNT>
0
> <PUBCHEM_BOND_UDEF_STEREO_COUNT>
0
> <PUBCHEM_ISOTOPIC_ATOM_COUNT>
0
> <PUBCHEM_COMPONENT_COUNT>
1
> <PUBCHEM_CACTVS_TAUTO_COUNT>
-1
> <PUBCHEM_COORDINATE_TYPE>
1
5
255
> <PUBCHEM_BONDANNOTATIONS>
1  9  3
2  10  3
3  13  3
4  14  3
5  15  3
6  16  3
$$$$
