528645
  -OEChem-10302200292D
 59 59  0     1  0  0  0  0  0999 V2000
    6.4641    0.5000    0.0000 Si  0  0  0  0  0  0  0  0  0  0  0  0
    3.0000    3.5000    0.0000 Si  0  0  0  0  0  0  0  0  0  0  0  0
    3.0000   -3.5000    0.0000 Si  0  0  0  0  0  0  0  0  0  0  0  0
    5.5981    1.0000    0.0000 O   0  0  0  0  0  0  0  0  0  0  0  0
    3.0000    2.5000    0.0000 O   0  0  0  0  0  0  0  0  0  0  0  0
    3.0000   -2.5000    0.0000 O   0  0  0  0  0  0  0  0  0  0  0  0
    4.7320    2.5000    0.0000 O   0  0  0  0  0  0  0  0  0  0  0  0
    4.7320    0.5000    0.0000 C   0  0  3  0  0  0  0  0  0  0  0  0
    3.8660    1.0000    0.0000 C   0  0  0  0  0  0  0  0  0  0  0  0
    4.7320   -0.5000    0.0000 C   0  0  0  0  0  0  0  0  0  0  0  0
    7.3301    0.0000    0.0000 C   0  0  0  0  0  0  0  0  0  0  0  0
    6.9641    1.3660    0.0000 C   0  0  0  0  0  0  0  0  0  0  0  0
    5.9641   -0.3660    0.0000 C   0  0  0  0  0  0  0  0  0  0  0  0
    3.8660   -1.0000    0.0000 C   0  0  0  0  0  0  0  0  0  0  0  0
    3.8660    2.0000    0.0000 C   0  0  0  0  0  0  0  0  0  0  0  0
    3.8660   -2.0000    0.0000 C   0  0  0  0  0  0  0  0  0  0  0  0
    5.5981   -1.0000    0.0000 C   0  0  0  0  0  0  0  0  0  0  0  0
    3.0000    4.5000    0.0000 C   0  0  0  0  0  0  0  0  0  0  0  0
    2.0000    3.5000    0.0000 C   0  0  0  0  0  0  0  0  0  0  0  0
    4.0000    3.5000    0.0000 C   0  0  0  0  0  0  0  0  0  0  0  0
    4.7320   -2.5000    0.0000 C   0  0  0  0  0  0  0  0  0  0  0  0
    5.5981   -2.0000    0.0000 C   0  0  0  0  0  0  0  0  0  0  0  0
    3.0000   -4.5000    0.0000 C   0  0  0  0  0  0  0  0  0  0  0  0
    2.0000   -3.5000    0.0000 C   0  0  0  0  0  0  0  0  0  0  0  0
    4.0000   -3.5000    0.0000 C   0  0  0  0  0  0  0  0  0  0  0  0
    4.7320    1.1200    0.0000 H   0  0  0  0  0  0  0  0  0  0  0  0
    3.2554    1.1077    0.0000 H   0  0  0  0  0  0  0  0  0  0  0  0
    3.6540    0.4174    0.0000 H   0  0  0  0  0  0  0  0  0  0  0  0
    7.0201   -0.5369    0.0000 H   0  0  0  0  0  0  0  0  0  0  0  0
    7.8671   -0.3100    0.0000 H   0  0  0  0  0  0  0  0  0  0  0  0
    7.6401    0.5369    0.0000 H   0  0  0  0  0  0  0  0  0  0  0  0
    7.5010    1.0560    0.0000 H   0  0  0  0  0  0  0  0  0  0  0  0
    7.2741    1.9030    0.0000 H   0  0  0  0  0  0  0  0  0  0  0  0
    6.4272    1.6760    0.0000 H   0  0  0  0  0  0  0  0  0  0  0  0
    5.4272   -0.0560    0.0000 H   0  0  0  0  0  0  0  0  0  0  0  0
    5.6541   -0.9030    0.0000 H   0  0  0  0  0  0  0  0  0  0  0  0
    6.5010   -0.6760    0.0000 H   0  0  0  0  0  0  0  0  0  0  0  0
    3.3291   -0.6900    0.0000 H   0  0  0  0  0  0  0  0  0  0  0  0
    6.1350   -0.6900    0.0000 H   0  0  0  0  0  0  0  0  0  0  0  0
    3.6200    4.5000    0.0000 H   0  0  0  0  0  0  0  0  0  0  0  0
    3.0000    5.1200    0.0000 H   0  0  0  0  0  0  0  0  0  0  0  0
    2.3800    4.5000    0.0000 H   0  0  0  0  0  0  0  0  0  0  0  0
    2.0000    4.1200    0.0000 H   0  0  0  0  0  0  0  0  0  0  0  0
    1.3800    3.5000    0.0000 H   0  0  0  0  0  0  0  0  0  0  0  0
    2.0000    2.8800    0.0000 H   0  0  0  0  0  0  0  0  0  0  0  0
    4.0000    2.8800    0.0000 H   0  0  0  0  0  0  0  0  0  0  0  0
    4.6200    3.5000    0.0000 H   0  0  0  0  0  0  0  0  0  0  0  0
    4.0000    4.1200    0.0000 H   0  0  0  0  0  0  0  0  0  0  0  0
    4.7320   -3.1200    0.0000 H   0  0  0  0  0  0  0  0  0  0  0  0
    6.1350   -2.3100    0.0000 H   0  0  0  0  0  0  0  0  0  0  0  0
    2.3800   -4.5000    0.0000 H   0  0  0  0  0  0  0  0  0  0  0  0
    3.0000   -5.1200    0.0000 H   0  0  0  0  0  0  0  0  0  0  0  0
    3.6200   -4.5000    0.0000 H   0  0  0  0  0  0  0  0  0  0  0  0
    2.0000   -2.8800    0.0000 H   0  0  0  0  0  0  0  0  0  0  0  0
    1.3800   -3.5000    0.0000 H   0  0  0  0  0  0  0  0  0  0  0  0
    2.0000   -4.1200    0.0000 H   0  0  0  0  0  0  0  0  0  0  0  0
    4.0000   -4.1200    0.0000 H   0  0  0  0  0  0  0  0  0  0  0  0
    4.6200   -3.5000    0.0000 H   0  0  0  0  0  0  0  0  0  0  0  0
    4.0000   -2.8800    0.0000 H   0  0  0  0  0  0  0  0  0  0  0  0
  1  4  1  0  0  0  0
  1 11  1  0  0  0  0
  1 12  1  0  0  0  0
  1 13  1  0  0  0  0
  2  5  1  0  0  0  0
  2 18  1  0  0  0  0
  2 19  1  0  0  0  0
  2 20  1  0  0  0  0
  3  6  1  0  0  0  0
  3 23  1  0  0  0  0
  3 24  1  0  0  0  0
  3 25  1  0  0  0  0
  4  8  1  0  0  0  0
  5 15  1  0  0  0  0
  6 16  1  0  0  0  0
  7 15  2  0  0  0  0
  8  9  1  0  0  0  0
  8 10  1  0  0  0  0
  8 26  1  0  0  0  0
  9 15  1  0  0  0  0
  9 27  1  0  0  0  0
  9 28  1  0  0  0  0
 10 14  2  0  0  0  0
 10 17  1  0  0  0  0
 11 29  1  0  0  0  0
 11 30  1  0  0  0  0
 11 31  1  0  0  0  0
 12 32  1  0  0  0  0
 12 33  1  0  0  0  0
 12 34  1  0  0  0  0
 13 35  1  0  0  0  0
 13 36  1  0  0  0  0
 13 37  1  0  0  0  0
 14 16  1  0  0  0  0
 14 38  1  0  0  0  0
 16 21  2  0  0  0  0
 17 22  2  0  0  0  0
 17 39  1  0  0  0  0
 18 40  1  0  0  0  0
 18 41  1  0  0  0  0
 18 42  1  0  0  0  0
 19 43  1  0  0  0  0
 19 44  1  0  0  0  0
 19 45  1  0  0  0  0
 20 46  1  0  0  0  0
 20 47  1  0  0  0  0
 20 48  1  0  0  0  0
 21 22  1  0  0  0  0
 21 49  1  0  0  0  0
 22 50  1  0  0  0  0
 23 51  1  0  0  0  0
 23 52  1  0  0  0  0
 23 53  1  0  0  0  0
 24 54  1  0  0  0  0
 24 55  1  0  0  0  0
 24 56  1  0  0  0  0
 25 57  1  0  0  0  0
 25 58  1  0  0  0  0
 25 59  1  0  0  0  0
M  END
> <PUBCHEM_COMPOUND_CID>
528645
> <PUBCHEM_COMPOUND_CANONICALIZED>
1
> <PUBCHEM_CACTVS_COMPLEXITY>
435
> <PUBCHEM_CACTVS_HBOND_ACCEPTOR>
4
> <PUBCHEM_CACTVS_HBOND_DONOR>
0
> <PUBCHEM_CACTVS_ROTATABLE_BOND>
9
> <PUBCHEM_CACTVS_SUBSKEYS>
AAADcfB4OAwAAAAAAAAAAAAAAAAAAAAAAAAwAAAAAAAAAAABAAAAGhAAAEAADBSgmAJyDoAAAAGIAiDSCAACAAAgIAAIiAEGCIgIJjaAERKAMAAl4BEIiAfIyLCOAAABAAAAAAAAAAIAAAAAAAAAAAAAAA==
> <PUBCHEM_IUPAC_OPENEYE_NAME>
trimethylsilyl 3-trimethylsilyloxy-3-(3-trimethylsilyloxyphenyl)propanoate
> <PUBCHEM_IUPAC_CAS_NAME>
3-trimethylsilyloxy-3-(3-trimethylsilyloxyphenyl)propanoic acid trimethylsilyl ester
> <PUBCHEM_IUPAC_NAME_MARKUP>
trimethylsilyl 3-trimethylsilyloxy-3-(3-trimethylsilyloxyphenyl)propanoate
> <PUBCHEM_IUPAC_NAME>
trimethylsilyl 3-trimethylsilyloxy-3-(3-trimethylsilyloxyphenyl)propanoate
> <PUBCHEM_IUPAC_SYSTEMATIC_NAME>
trimethylsilyl 3-trimethylsilyloxy-3-(3-trimethylsilyloxyphenyl)propanoate
> <PUBCHEM_IUPAC_TRADITIONAL_NAME>
3-trimethylsilyloxy-3-(3-trimethylsilyloxyphenyl)propionic acid trimethylsilyl ester
> <PUBCHEM_IUPAC_INCHI>
InChI=1S/C18H34O4Si3/c1-23(2,3)20-16-12-10-11-15(13-16)17(21-24(4,5)6)14-18(19)22-25(7,8)9/h10-13,17H,14H2,1-9H3
> <PUBCHEM_IUPAC_INCHIKEY>
UXEHNGHKNKIKDF-UHFFFAOYSA-N
> <PUBCHEM_EXACT_MASS>
398.17648916
> <PUBCHEM_MOLECULAR_FORMULA>
C18H34O4Si3
> <PUBCHEM_MOLECULAR_WEIGHT>
398.7
> <PUBCHEM_OPENEYE_CAN_SMILES>
C[Si](C)(C)OC1=CC=CC(=C1)C(CC(=O)O[Si](C)(C)C)O[Si](C)(C)C
> <PUBCHEM_OPENEYE_ISO_SMILES>
C[Si](C)(C)OC1=CC=CC(=C1)C(CC(=O)O[Si](C)(C)C)O[Si](C)(C)C
> <PUBCHEM_CACTVS_TPSA>
44.8
> <PUBCHEM_MONOISOTOPIC_WEIGHT>
398.17648916
> <PUBCHEM_TOTAL_CHARGE>
0
> <PUBCHEM_HEAVY_ATOM_COUNT>
25
> <PUBCHEM_ATOM_DEF_STEREO_COUNT>
0
> <PUBCHEM_ATOM_UDEF_STEREO_COUNT>
1
> <PUBCHEM_BOND_DEF_STEREO_COUNT>
0
> <PUBCHEM_BOND_UDEF_STEREO_COUNT>
0
> <PUBCHEM_ISOTOPIC_ATOM_COUNT>
0
> <PUBCHEM_COMPONENT_COUNT>
1
> <PUBCHEM_CACTVS_TAUTO_COUNT>
-1
> <PUBCHEM_COORDINATE_TYPE>
1
5
255
> <PUBCHEM_BONDANNOTATIONS>
10  14  8
10  17  8
14  16  8
16  21  8
17  22  8
21  22  8
8  9  3
$$$$
