528650
  -OEChem-10302200292D
 81 80  0     1  0  0  0  0  0999 V2000
    9.9282    5.0670    0.0000 Si  0  0  0  0  0  0  0  0  0  0  0  0
    4.7320    5.0670    0.0000 Si  0  0  0  0  0  0  0  0  0  0  0  0
    3.0000   -4.9330    0.0000 Si  0  0  0  0  0  0  0  0  0  0  0  0
    9.0622    5.5670    0.0000 O   0  0  0  0  0  0  0  0  0  0  0  0
    5.5981    5.5670    0.0000 O   0  0  0  0  0  0  0  0  0  0  0  0
    6.4641    4.0670    0.0000 O   0  0  0  0  0  0  0  0  0  0  0  0
    3.0000   -3.9330    0.0000 O   0  0  0  0  0  0  0  0  0  0  0  0
    4.7320   -3.9330    0.0000 O   0  0  0  0  0  0  0  0  0  0  0  0
    8.1962    5.0670    0.0000 C   0  0  3  0  0  0  0  0  0  0  0  0
    8.1962    4.0670    0.0000 C   0  0  0  0  0  0  0  0  0  0  0  0
    7.3301    3.5670    0.0000 C   0  0  0  0  0  0  0  0  0  0  0  0
    7.3301    2.5670    0.0000 C   0  0  0  0  0  0  0  0  0  0  0  0
    6.4641    2.0670    0.0000 C   0  0  0  0  0  0  0  0  0  0  0  0
    6.4641    1.0670    0.0000 C   0  0  0  0  0  0  0  0  0  0  0  0
    5.5981    0.5670    0.0000 C   0  0  0  0  0  0  0  0  0  0  0  0
    7.3301    5.5670    0.0000 C   0  0  0  0  0  0  0  0  0  0  0  0
    5.5981   -0.4330    0.0000 C   0  0  0  0  0  0  0  0  0  0  0  0
    4.7320   -0.9330    0.0000 C   0  0  0  0  0  0  0  0  0  0  0  0
   10.7942    4.5670    0.0000 C   0  0  0  0  0  0  0  0  0  0  0  0
   10.4282    5.9330    0.0000 C   0  0  0  0  0  0  0  0  0  0  0  0
    9.4282    4.2010    0.0000 C   0  0  0  0  0  0  0  0  0  0  0  0
    4.7320   -1.9330    0.0000 C   0  0  0  0  0  0  0  0  0  0  0  0
    6.4641    5.0670    0.0000 C   0  0  0  0  0  0  0  0  0  0  0  0
    3.8660   -2.4330    0.0000 C   0  0  0  0  0  0  0  0  0  0  0  0
    3.8660    4.5670    0.0000 C   0  0  0  0  0  0  0  0  0  0  0  0
    4.2320    5.9330    0.0000 C   0  0  0  0  0  0  0  0  0  0  0  0
    5.2320    4.2010    0.0000 C   0  0  0  0  0  0  0  0  0  0  0  0
    3.8660   -3.4330    0.0000 C   0  0  0  0  0  0  0  0  0  0  0  0
    3.0000   -5.9330    0.0000 C   0  0  0  0  0  0  0  0  0  0  0  0
    2.0000   -4.9330    0.0000 C   0  0  0  0  0  0  0  0  0  0  0  0
    4.0000   -4.9330    0.0000 C   0  0  0  0  0  0  0  0  0  0  0  0
    8.7331    4.7570    0.0000 H   0  0  0  0  0  0  0  0  0  0  0  0
    8.4082    3.4844    0.0000 H   0  0  0  0  0  0  0  0  0  0  0  0
    8.8067    4.1746    0.0000 H   0  0  0  0  0  0  0  0  0  0  0  0
    7.1181    4.1496    0.0000 H   0  0  0  0  0  0  0  0  0  0  0  0
    6.7196    3.4593    0.0000 H   0  0  0  0  0  0  0  0  0  0  0  0
    7.5422    1.9844    0.0000 H   0  0  0  0  0  0  0  0  0  0  0  0
    7.9407    2.6747    0.0000 H   0  0  0  0  0  0  0  0  0  0  0  0
    6.2520    2.6496    0.0000 H   0  0  0  0  0  0  0  0  0  0  0  0
    5.8535    1.9593    0.0000 H   0  0  0  0  0  0  0  0  0  0  0  0
    6.6762    0.4844    0.0000 H   0  0  0  0  0  0  0  0  0  0  0  0
    7.0747    1.1746    0.0000 H   0  0  0  0  0  0  0  0  0  0  0  0
    5.3860    1.1496    0.0000 H   0  0  0  0  0  0  0  0  0  0  0  0
    4.9875    0.4593    0.0000 H   0  0  0  0  0  0  0  0  0  0  0  0
    7.7287    6.0419    0.0000 H   0  0  0  0  0  0  0  0  0  0  0  0
    6.9316    6.0419    0.0000 H   0  0  0  0  0  0  0  0  0  0  0  0
    5.8101   -1.0156    0.0000 H   0  0  0  0  0  0  0  0  0  0  0  0
    6.2087   -0.3254    0.0000 H   0  0  0  0  0  0  0  0  0  0  0  0
    4.5200   -0.3504    0.0000 H   0  0  0  0  0  0  0  0  0  0  0  0
    4.1215   -1.0407    0.0000 H   0  0  0  0  0  0  0  0  0  0  0  0
   10.4842    4.0300    0.0000 H   0  0  0  0  0  0  0  0  0  0  0  0
   11.3312    4.2570    0.0000 H   0  0  0  0  0  0  0  0  0  0  0  0
   11.1042    5.1039    0.0000 H   0  0  0  0  0  0  0  0  0  0  0  0
   10.9651    5.6230    0.0000 H   0  0  0  0  0  0  0  0  0  0  0  0
   10.7382    6.4700    0.0000 H   0  0  0  0  0  0  0  0  0  0  0  0
    9.8913    6.2430    0.0000 H   0  0  0  0  0  0  0  0  0  0  0  0
    8.8913    4.5110    0.0000 H   0  0  0  0  0  0  0  0  0  0  0  0
    9.1182    3.6640    0.0000 H   0  0  0  0  0  0  0  0  0  0  0  0
    9.9651    3.8910    0.0000 H   0  0  0  0  0  0  0  0  0  0  0  0
    4.9441   -2.5156    0.0000 H   0  0  0  0  0  0  0  0  0  0  0  0
    5.3426   -1.8254    0.0000 H   0  0  0  0  0  0  0  0  0  0  0  0
    3.6540   -1.8504    0.0000 H   0  0  0  0  0  0  0  0  0  0  0  0
    3.2554   -2.5407    0.0000 H   0  0  0  0  0  0  0  0  0  0  0  0
    3.5560    5.1039    0.0000 H   0  0  0  0  0  0  0  0  0  0  0  0
    3.3291    4.2570    0.0000 H   0  0  0  0  0  0  0  0  0  0  0  0
    4.1760    4.0300    0.0000 H   0  0  0  0  0  0  0  0  0  0  0  0
    4.7690    6.2430    0.0000 H   0  0  0  0  0  0  0  0  0  0  0  0
    3.9220    6.4700    0.0000 H   0  0  0  0  0  0  0  0  0  0  0  0
    3.6951    5.6230    0.0000 H   0  0  0  0  0  0  0  0  0  0  0  0
    4.6951    3.8910    0.0000 H   0  0  0  0  0  0  0  0  0  0  0  0
    5.5420    3.6640    0.0000 H   0  0  0  0  0  0  0  0  0  0  0  0
    5.7690    4.5110    0.0000 H   0  0  0  0  0  0  0  0  0  0  0  0
    2.3800   -5.9330    0.0000 H   0  0  0  0  0  0  0  0  0  0  0  0
    3.0000   -6.5530    0.0000 H   0  0  0  0  0  0  0  0  0  0  0  0
    3.6200   -5.9330    0.0000 H   0  0  0  0  0  0  0  0  0  0  0  0
    2.0000   -4.3130    0.0000 H   0  0  0  0  0  0  0  0  0  0  0  0
    1.3800   -4.9330    0.0000 H   0  0  0  0  0  0  0  0  0  0  0  0
    2.0000   -5.5530    0.0000 H   0  0  0  0  0  0  0  0  0  0  0  0
    4.0000   -5.5530    0.0000 H   0  0  0  0  0  0  0  0  0  0  0  0
    4.6200   -4.9330    0.0000 H   0  0  0  0  0  0  0  0  0  0  0  0
    4.0000   -4.3130    0.0000 H   0  0  0  0  0  0  0  0  0  0  0  0
  1  4  1  0  0  0  0
  1 19  1  0  0  0  0
  1 20  1  0  0  0  0
  1 21  1  0  0  0  0
  2  5  1  0  0  0  0
  2 25  1  0  0  0  0
  2 26  1  0  0  0  0
  2 27  1  0  0  0  0
  3  7  1  0  0  0  0
  3 29  1  0  0  0  0
  3 30  1  0  0  0  0
  3 31  1  0  0  0  0
  4  9  1  0  0  0  0
  5 23  1  0  0  0  0
  6 23  2  0  0  0  0
  7 28  1  0  0  0  0
  8 28  2  0  0  0  0
  9 10  1  0  0  0  0
  9 16  1  0  0  0  0
  9 32  1  0  0  0  0
 10 11  1  0  0  0  0
 10 33  1  0  0  0  0
 10 34  1  0  0  0  0
 11 12  1  0  0  0  0
 11 35  1  0  0  0  0
 11 36  1  0  0  0  0
 12 13  1  0  0  0  0
 12 37  1  0  0  0  0
 12 38  1  0  0  0  0
 13 14  1  0  0  0  0
 13 39  1  0  0  0  0
 13 40  1  0  0  0  0
 14 15  1  0  0  0  0
 14 41  1  0  0  0  0
 14 42  1  0  0  0  0
 15 17  1  0  0  0  0
 15 43  1  0  0  0  0
 15 44  1  0  0  0  0
 16 23  1  0  0  0  0
 16 45  1  0  0  0  0
 16 46  1  0  0  0  0
 17 18  1  0  0  0  0
 17 47  1  0  0  0  0
 17 48  1  0  0  0  0
 18 22  1  0  0  0  0
 18 49  1  0  0  0  0
 18 50  1  0  0  0  0
 19 51  1  0  0  0  0
 19 52  1  0  0  0  0
 19 53  1  0  0  0  0
 20 54  1  0  0  0  0
 20 55  1  0  0  0  0
 20 56  1  0  0  0  0
 21 57  1  0  0  0  0
 21 58  1  0  0  0  0
 21 59  1  0  0  0  0
 22 24  1  0  0  0  0
 22 60  1  0  0  0  0
 22 61  1  0  0  0  0
 24 28  1  0  0  0  0
 24 62  1  0  0  0  0
 24 63  1  0  0  0  0
 25 64  1  0  0  0  0
 25 65  1  0  0  0  0
 25 66  1  0  0  0  0
 26 67  1  0  0  0  0
 26 68  1  0  0  0  0
 26 69  1  0  0  0  0
 27 70  1  0  0  0  0
 27 71  1  0  0  0  0
 27 72  1  0  0  0  0
 29 73  1  0  0  0  0
 29 74  1  0  0  0  0
 29 75  1  0  0  0  0
 30 76  1  0  0  0  0
 30 77  1  0  0  0  0
 30 78  1  0  0  0  0
 31 79  1  0  0  0  0
 31 80  1  0  0  0  0
 31 81  1  0  0  0  0
M  END
> <PUBCHEM_COMPOUND_CID>
528650
> <PUBCHEM_COMPOUND_CANONICALIZED>
1
> <PUBCHEM_CACTVS_COMPLEXITY>
519
> <PUBCHEM_CACTVS_HBOND_ACCEPTOR>
5
> <PUBCHEM_CACTVS_HBOND_DONOR>
0
> <PUBCHEM_CACTVS_ROTATABLE_BOND>
19
> <PUBCHEM_CACTVS_SUBSKEYS>
AAADcfB4OAwAAAAAAAAAAAAAAAAAAAAAAAAAAAAAAAAAAAAAAAAAGhAAAEAACBSggAJCCAAAAAEIAACQCAAAAAAAAAAAAAEAAAAAABYAAAAAAAAFIAAAAAGIyKCAAAAAAAAAAAAAAAAAAAAAAAAAAAAAAA==
> <PUBCHEM_IUPAC_OPENEYE_NAME>
bis(trimethylsilyl) 3-trimethylsilyloxytetradecanedioate
> <PUBCHEM_IUPAC_CAS_NAME>
3-trimethylsilyloxytetradecanedioic acid bis(trimethylsilyl) ester
> <PUBCHEM_IUPAC_NAME_MARKUP>
bis(trimethylsilyl) 3-trimethylsilyloxytetradecanedioate
> <PUBCHEM_IUPAC_NAME>
bis(trimethylsilyl) 3-trimethylsilyloxytetradecanedioate
> <PUBCHEM_IUPAC_SYSTEMATIC_NAME>
bis(trimethylsilyl) 3-trimethylsilyloxytetradecanedioate
> <PUBCHEM_IUPAC_TRADITIONAL_NAME>
3-trimethylsilyloxytetradecanedioic acid bis(trimethylsilyl) ester
> <PUBCHEM_IUPAC_INCHI>
InChI=1S/C23H50O5Si3/c1-29(2,3)26-21(20-23(25)28-31(7,8)9)18-16-14-12-10-11-13-15-17-19-22(24)27-30(4,5)6/h21H,10-20H2,1-9H3
> <PUBCHEM_IUPAC_INCHIKEY>
GTSHKMRXTVUWIJ-UHFFFAOYSA-N
> <PUBCHEM_EXACT_MASS>
490.29660429
> <PUBCHEM_MOLECULAR_FORMULA>
C23H50O5Si3
> <PUBCHEM_MOLECULAR_WEIGHT>
490.9
> <PUBCHEM_OPENEYE_CAN_SMILES>
C[Si](C)(C)OC(CCCCCCCCCCC(=O)O[Si](C)(C)C)CC(=O)O[Si](C)(C)C
> <PUBCHEM_OPENEYE_ISO_SMILES>
C[Si](C)(C)OC(CCCCCCCCCCC(=O)O[Si](C)(C)C)CC(=O)O[Si](C)(C)C
> <PUBCHEM_CACTVS_TPSA>
61.8
> <PUBCHEM_MONOISOTOPIC_WEIGHT>
490.29660429
> <PUBCHEM_TOTAL_CHARGE>
0
> <PUBCHEM_HEAVY_ATOM_COUNT>
31
> <PUBCHEM_ATOM_DEF_STEREO_COUNT>
0
> <PUBCHEM_ATOM_UDEF_STEREO_COUNT>
1
> <PUBCHEM_BOND_DEF_STEREO_COUNT>
0
> <PUBCHEM_BOND_UDEF_STEREO_COUNT>
0
> <PUBCHEM_ISOTOPIC_ATOM_COUNT>
0
> <PUBCHEM_COMPONENT_COUNT>
1
> <PUBCHEM_CACTVS_TAUTO_COUNT>
-1
> <PUBCHEM_COORDINATE_TYPE>
1
5
255
> <PUBCHEM_BONDANNOTATIONS>
9  10  3
$$$$
