528647
  -OEChem-10302200292D
 75 74  0     1  0  0  0  0  0999 V2000
    9.0622    4.3170    0.0000 Si  0  0  0  0  0  0  0  0  0  0  0  0
    3.8660    4.3170    0.0000 Si  0  0  0  0  0  0  0  0  0  0  0  0
    3.0000   -4.1830    0.0000 Si  0  0  0  0  0  0  0  0  0  0  0  0
    8.1962    4.8170    0.0000 O   0  0  0  0  0  0  0  0  0  0  0  0
    4.7320    4.8170    0.0000 O   0  0  0  0  0  0  0  0  0  0  0  0
    3.0000   -3.1830    0.0000 O   0  0  0  0  0  0  0  0  0  0  0  0
    5.5981    3.3170    0.0000 O   0  0  0  0  0  0  0  0  0  0  0  0
    4.7320   -3.1830    0.0000 O   0  0  0  0  0  0  0  0  0  0  0  0
    7.3301    4.3170    0.0000 C   0  0  3  0  0  0  0  0  0  0  0  0
    7.3301    3.3170    0.0000 C   0  0  0  0  0  0  0  0  0  0  0  0
    6.4641    2.8170    0.0000 C   0  0  0  0  0  0  0  0  0  0  0  0
    6.4641    1.8170    0.0000 C   0  0  0  0  0  0  0  0  0  0  0  0
    5.5981    1.3170    0.0000 C   0  0  0  0  0  0  0  0  0  0  0  0
    6.4641    4.8170    0.0000 C   0  0  0  0  0  0  0  0  0  0  0  0
    5.5981    0.3170    0.0000 C   0  0  0  0  0  0  0  0  0  0  0  0
    4.7320   -0.1830    0.0000 C   0  0  0  0  0  0  0  0  0  0  0  0
    4.7320   -1.1830    0.0000 C   0  0  0  0  0  0  0  0  0  0  0  0
    9.9282    3.8170    0.0000 C   0  0  0  0  0  0  0  0  0  0  0  0
    9.5622    5.1830    0.0000 C   0  0  0  0  0  0  0  0  0  0  0  0
    8.5622    3.4510    0.0000 C   0  0  0  0  0  0  0  0  0  0  0  0
    5.5981    4.3170    0.0000 C   0  0  0  0  0  0  0  0  0  0  0  0
    3.8660   -1.6830    0.0000 C   0  0  0  0  0  0  0  0  0  0  0  0
    3.8660   -2.6830    0.0000 C   0  0  0  0  0  0  0  0  0  0  0  0
    3.0000    3.8170    0.0000 C   0  0  0  0  0  0  0  0  0  0  0  0
    3.3660    5.1830    0.0000 C   0  0  0  0  0  0  0  0  0  0  0  0
    4.3660    3.4510    0.0000 C   0  0  0  0  0  0  0  0  0  0  0  0
    3.0000   -5.1830    0.0000 C   0  0  0  0  0  0  0  0  0  0  0  0
    2.0000   -4.1830    0.0000 C   0  0  0  0  0  0  0  0  0  0  0  0
    4.0000   -4.1830    0.0000 C   0  0  0  0  0  0  0  0  0  0  0  0
    7.3301    4.9370    0.0000 H   0  0  0  0  0  0  0  0  0  0  0  0
    7.5422    2.7344    0.0000 H   0  0  0  0  0  0  0  0  0  0  0  0
    7.9407    3.4246    0.0000 H   0  0  0  0  0  0  0  0  0  0  0  0
    6.2520    3.3996    0.0000 H   0  0  0  0  0  0  0  0  0  0  0  0
    5.8535    2.7093    0.0000 H   0  0  0  0  0  0  0  0  0  0  0  0
    6.6762    1.2344    0.0000 H   0  0  0  0  0  0  0  0  0  0  0  0
    7.0747    1.9246    0.0000 H   0  0  0  0  0  0  0  0  0  0  0  0
    5.3860    1.8996    0.0000 H   0  0  0  0  0  0  0  0  0  0  0  0
    4.9875    1.2093    0.0000 H   0  0  0  0  0  0  0  0  0  0  0  0
    6.8626    5.2919    0.0000 H   0  0  0  0  0  0  0  0  0  0  0  0
    6.0656    5.2919    0.0000 H   0  0  0  0  0  0  0  0  0  0  0  0
    5.8101   -0.2656    0.0000 H   0  0  0  0  0  0  0  0  0  0  0  0
    6.2087    0.4246    0.0000 H   0  0  0  0  0  0  0  0  0  0  0  0
    4.5200    0.3996    0.0000 H   0  0  0  0  0  0  0  0  0  0  0  0
    4.1215   -0.2907    0.0000 H   0  0  0  0  0  0  0  0  0  0  0  0
    4.9441   -1.7656    0.0000 H   0  0  0  0  0  0  0  0  0  0  0  0
    5.3426   -1.0754    0.0000 H   0  0  0  0  0  0  0  0  0  0  0  0
    9.6182    3.2800    0.0000 H   0  0  0  0  0  0  0  0  0  0  0  0
   10.4651    3.5070    0.0000 H   0  0  0  0  0  0  0  0  0  0  0  0
   10.2382    4.3539    0.0000 H   0  0  0  0  0  0  0  0  0  0  0  0
   10.0991    4.8730    0.0000 H   0  0  0  0  0  0  0  0  0  0  0  0
    9.8722    5.7200    0.0000 H   0  0  0  0  0  0  0  0  0  0  0  0
    9.0252    5.4930    0.0000 H   0  0  0  0  0  0  0  0  0  0  0  0
    8.0252    3.7610    0.0000 H   0  0  0  0  0  0  0  0  0  0  0  0
    8.2522    2.9140    0.0000 H   0  0  0  0  0  0  0  0  0  0  0  0
    9.0991    3.1410    0.0000 H   0  0  0  0  0  0  0  0  0  0  0  0
    3.6540   -1.1004    0.0000 H   0  0  0  0  0  0  0  0  0  0  0  0
    3.2554   -1.7907    0.0000 H   0  0  0  0  0  0  0  0  0  0  0  0
    2.6900    4.3539    0.0000 H   0  0  0  0  0  0  0  0  0  0  0  0
    2.4631    3.5070    0.0000 H   0  0  0  0  0  0  0  0  0  0  0  0
    3.3100    3.2800    0.0000 H   0  0  0  0  0  0  0  0  0  0  0  0
    3.9030    5.4930    0.0000 H   0  0  0  0  0  0  0  0  0  0  0  0
    3.0560    5.7200    0.0000 H   0  0  0  0  0  0  0  0  0  0  0  0
    2.8291    4.8730    0.0000 H   0  0  0  0  0  0  0  0  0  0  0  0
    3.8291    3.1410    0.0000 H   0  0  0  0  0  0  0  0  0  0  0  0
    4.6760    2.9140    0.0000 H   0  0  0  0  0  0  0  0  0  0  0  0
    4.9030    3.7610    0.0000 H   0  0  0  0  0  0  0  0  0  0  0  0
    2.3800   -5.1830    0.0000 H   0  0  0  0  0  0  0  0  0  0  0  0
    3.0000   -5.8030    0.0000 H   0  0  0  0  0  0  0  0  0  0  0  0
    3.6200   -5.1830    0.0000 H   0  0  0  0  0  0  0  0  0  0  0  0
    2.0000   -3.5630    0.0000 H   0  0  0  0  0  0  0  0  0  0  0  0
    1.3800   -4.1830    0.0000 H   0  0  0  0  0  0  0  0  0  0  0  0
    2.0000   -4.8030    0.0000 H   0  0  0  0  0  0  0  0  0  0  0  0
    4.0000   -4.8030    0.0000 H   0  0  0  0  0  0  0  0  0  0  0  0
    4.6200   -4.1830    0.0000 H   0  0  0  0  0  0  0  0  0  0  0  0
    4.0000   -3.5630    0.0000 H   0  0  0  0  0  0  0  0  0  0  0  0
  1  4  1  0  0  0  0
  1 18  1  0  0  0  0
  1 19  1  0  0  0  0
  1 20  1  0  0  0  0
  2  5  1  0  0  0  0
  2 24  1  0  0  0  0
  2 25  1  0  0  0  0
  2 26  1  0  0  0  0
  3  6  1  0  0  0  0
  3 27  1  0  0  0  0
  3 28  1  0  0  0  0
  3 29  1  0  0  0  0
  4  9  1  0  0  0  0
  5 21  1  0  0  0  0
  6 23  1  0  0  0  0
  7 21  2  0  0  0  0
  8 23  2  0  0  0  0
  9 10  1  0  0  0  0
  9 14  1  0  0  0  0
  9 30  1  0  0  0  0
 10 11  1  0  0  0  0
 10 31  1  0  0  0  0
 10 32  1  0  0  0  0
 11 12  1  0  0  0  0
 11 33  1  0  0  0  0
 11 34  1  0  0  0  0
 12 13  1  0  0  0  0
 12 35  1  0  0  0  0
 12 36  1  0  0  0  0
 13 15  1  0  0  0  0
 13 37  1  0  0  0  0
 13 38  1  0  0  0  0
 14 21  1  0  0  0  0
 14 39  1  0  0  0  0
 14 40  1  0  0  0  0
 15 16  1  0  0  0  0
 15 41  1  0  0  0  0
 15 42  1  0  0  0  0
 16 17  1  0  0  0  0
 16 43  1  0  0  0  0
 16 44  1  0  0  0  0
 17 22  1  0  0  0  0
 17 45  1  0  0  0  0
 17 46  1  0  0  0  0
 18 47  1  0  0  0  0
 18 48  1  0  0  0  0
 18 49  1  0  0  0  0
 19 50  1  0  0  0  0
 19 51  1  0  0  0  0
 19 52  1  0  0  0  0
 20 53  1  0  0  0  0
 20 54  1  0  0  0  0
 20 55  1  0  0  0  0
 22 23  1  0  0  0  0
 22 56  1  0  0  0  0
 22 57  1  0  0  0  0
 24 58  1  0  0  0  0
 24 59  1  0  0  0  0
 24 60  1  0  0  0  0
 25 61  1  0  0  0  0
 25 62  1  0  0  0  0
 25 63  1  0  0  0  0
 26 64  1  0  0  0  0
 26 65  1  0  0  0  0
 26 66  1  0  0  0  0
 27 67  1  0  0  0  0
 27 68  1  0  0  0  0
 27 69  1  0  0  0  0
 28 70  1  0  0  0  0
 28 71  1  0  0  0  0
 28 72  1  0  0  0  0
 29 73  1  0  0  0  0
 29 74  1  0  0  0  0
 29 75  1  0  0  0  0
M  END
> <PUBCHEM_COMPOUND_CID>
528647
> <PUBCHEM_COMPOUND_CANONICALIZED>
1
> <PUBCHEM_CACTVS_COMPLEXITY>
490
> <PUBCHEM_CACTVS_HBOND_ACCEPTOR>
5
> <PUBCHEM_CACTVS_HBOND_DONOR>
0
> <PUBCHEM_CACTVS_ROTATABLE_BOND>
17
> <PUBCHEM_CACTVS_SUBSKEYS>
AAADcfB4OAwAAAAAAAAAAAAAAAAAAAAAAAAAAAAAAAAAAAAAAAAAGhAAAEAACBSggAJCCAAAAAEIAACQCAAAAAAAAAAAAAEAAAAAABYAAAAAAAAFIAAAAAGIyKCAAAAAAAAAAAAAAAAAAAAAAAAAAAAAAA==
> <PUBCHEM_IUPAC_OPENEYE_NAME>
bis(trimethylsilyl) 3-trimethylsilyloxydodecanedioate
> <PUBCHEM_IUPAC_CAS_NAME>
3-trimethylsilyloxydodecanedioic acid bis(trimethylsilyl) ester
> <PUBCHEM_IUPAC_NAME_MARKUP>
bis(trimethylsilyl) 3-trimethylsilyloxydodecanedioate
> <PUBCHEM_IUPAC_NAME>
bis(trimethylsilyl) 3-trimethylsilyloxydodecanedioate
> <PUBCHEM_IUPAC_SYSTEMATIC_NAME>
bis(trimethylsilyl) 3-trimethylsilyloxydodecanedioate
> <PUBCHEM_IUPAC_TRADITIONAL_NAME>
3-trimethylsilyloxydodecanedioic acid bis(trimethylsilyl) ester
> <PUBCHEM_IUPAC_INCHI>
InChI=1S/C21H46O5Si3/c1-27(2,3)24-19(18-21(23)26-29(7,8)9)16-14-12-10-11-13-15-17-20(22)25-28(4,5)6/h19H,10-18H2,1-9H3
> <PUBCHEM_IUPAC_INCHIKEY>
CEEATCPCGFSGDV-UHFFFAOYSA-N
> <PUBCHEM_EXACT_MASS>
462.26530417
> <PUBCHEM_MOLECULAR_FORMULA>
C21H46O5Si3
> <PUBCHEM_MOLECULAR_WEIGHT>
462.8
> <PUBCHEM_OPENEYE_CAN_SMILES>
C[Si](C)(C)OC(CCCCCCCCC(=O)O[Si](C)(C)C)CC(=O)O[Si](C)(C)C
> <PUBCHEM_OPENEYE_ISO_SMILES>
C[Si](C)(C)OC(CCCCCCCCC(=O)O[Si](C)(C)C)CC(=O)O[Si](C)(C)C
> <PUBCHEM_CACTVS_TPSA>
61.8
> <PUBCHEM_MONOISOTOPIC_WEIGHT>
462.26530417
> <PUBCHEM_TOTAL_CHARGE>
0
> <PUBCHEM_HEAVY_ATOM_COUNT>
29
> <PUBCHEM_ATOM_DEF_STEREO_COUNT>
0
> <PUBCHEM_ATOM_UDEF_STEREO_COUNT>
1
> <PUBCHEM_BOND_DEF_STEREO_COUNT>
0
> <PUBCHEM_BOND_UDEF_STEREO_COUNT>
0
> <PUBCHEM_ISOTOPIC_ATOM_COUNT>
0
> <PUBCHEM_COMPONENT_COUNT>
1
> <PUBCHEM_CACTVS_TAUTO_COUNT>
-1
> <PUBCHEM_COORDINATE_TYPE>
1
5
255
> <PUBCHEM_BONDANNOTATIONS>
9  10  3
$$$$
