528660
  -OEChem-10302200292D
 31 31  0     1  0  0  0  0  0999 V2000
    5.2320    0.9330    0.0000 Si  0  0  0  0  0  0  0  0  0  0  0  0
    4.2320    0.9330    0.0000 O   0  0  0  0  0  0  0  0  0  0  0  0
    3.7320   -1.9330    0.0000 O   0  0  0  0  0  0  0  0  0  0  0  0
    2.0000   -1.9330    0.0000 O   0  0  0  0  0  0  0  0  0  0  0  0
    3.7320    0.0670    0.0000 C   0  0  3  0  0  0  0  0  0  0  0  0
    4.5981   -0.4330    0.0000 C   0  0  0  0  0  0  0  0  0  0  0  0
    2.8660   -0.4330    0.0000 C   0  0  0  0  0  0  0  0  0  0  0  0
    3.2320    0.9330    0.0000 C   0  0  0  0  0  0  0  0  0  0  0  0
    4.5981   -1.4330    0.0000 C   0  0  0  0  0  0  0  0  0  0  0  0
    2.8660   -1.4330    0.0000 C   0  0  0  0  0  0  0  0  0  0  0  0
    6.2320    0.9330    0.0000 C   0  0  0  0  0  0  0  0  0  0  0  0
    5.2320    1.9330    0.0000 C   0  0  0  0  0  0  0  0  0  0  0  0
    5.2320   -0.0670    0.0000 C   0  0  0  0  0  0  0  0  0  0  0  0
    5.2087   -0.5407    0.0000 H   0  0  0  0  0  0  0  0  0  0  0  0
    4.8101    0.1496    0.0000 H   0  0  0  0  0  0  0  0  0  0  0  0
    2.6540    0.1496    0.0000 H   0  0  0  0  0  0  0  0  0  0  0  0
    2.2554   -0.5407    0.0000 H   0  0  0  0  0  0  0  0  0  0  0  0
    3.7690    1.2430    0.0000 H   0  0  0  0  0  0  0  0  0  0  0  0
    2.9220    1.4700    0.0000 H   0  0  0  0  0  0  0  0  0  0  0  0
    2.6951    0.6230    0.0000 H   0  0  0  0  0  0  0  0  0  0  0  0
    4.8101   -2.0156    0.0000 H   0  0  0  0  0  0  0  0  0  0  0  0
    5.2087   -1.3254    0.0000 H   0  0  0  0  0  0  0  0  0  0  0  0
    6.2320    0.3130    0.0000 H   0  0  0  0  0  0  0  0  0  0  0  0
    6.8520    0.9330    0.0000 H   0  0  0  0  0  0  0  0  0  0  0  0
    6.2320    1.5530    0.0000 H   0  0  0  0  0  0  0  0  0  0  0  0
    5.8520    1.9330    0.0000 H   0  0  0  0  0  0  0  0  0  0  0  0
    5.2320    2.5530    0.0000 H   0  0  0  0  0  0  0  0  0  0  0  0
    4.6120    1.9330    0.0000 H   0  0  0  0  0  0  0  0  0  0  0  0
    4.6120   -0.0670    0.0000 H   0  0  0  0  0  0  0  0  0  0  0  0
    5.2320   -0.6870    0.0000 H   0  0  0  0  0  0  0  0  0  0  0  0
    5.8520   -0.0670    0.0000 H   0  0  0  0  0  0  0  0  0  0  0  0
  1  2  1  0  0  0  0
  1 11  1  0  0  0  0
  1 12  1  0  0  0  0
  1 13  1  0  0  0  0
  2  5  1  0  0  0  0
  3  9  1  0  0  0  0
  3 10  1  0  0  0  0
  4 10  2  0  0  0  0
  5  6  1  0  0  0  0
  5  7  1  0  0  0  0
  5  8  1  0  0  0  0
  6  9  1  0  0  0  0
  6 14  1  0  0  0  0
  6 15  1  0  0  0  0
  7 10  1  0  0  0  0
  7 16  1  0  0  0  0
  7 17  1  0  0  0  0
  8 18  1  0  0  0  0
  8 19  1  0  0  0  0
  8 20  1  0  0  0  0
  9 21  1  0  0  0  0
  9 22  1  0  0  0  0
 11 23  1  0  0  0  0
 11 24  1  0  0  0  0
 11 25  1  0  0  0  0
 12 26  1  0  0  0  0
 12 27  1  0  0  0  0
 12 28  1  0  0  0  0
 13 29  1  0  0  0  0
 13 30  1  0  0  0  0
 13 31  1  0  0  0  0
M  END
> <PUBCHEM_COMPOUND_CID>
528660
> <PUBCHEM_COMPOUND_CANONICALIZED>
1
> <PUBCHEM_CACTVS_COMPLEXITY>
209
> <PUBCHEM_CACTVS_HBOND_ACCEPTOR>
3
> <PUBCHEM_CACTVS_HBOND_DONOR>
0
> <PUBCHEM_CACTVS_ROTATABLE_BOND>
2
> <PUBCHEM_CACTVS_SUBSKEYS>
AAADceBwMAgAAAAAAAAAAAAAAAAAAAAAAAAkAAAAAAAAAAAAAAAAGhAAAEAADESggAJCCAAABAEIAACQCAAAAAAAAAAAAAEAAAAAABYAAAACAAAFIAAAAACIBAAKAAAAAAAAAAAAAAAAAAAAAAAAAAAAAA==
> <PUBCHEM_IUPAC_OPENEYE_NAME>
4-methyl-4-trimethylsilyloxy-tetrahydropyran-2-one
> <PUBCHEM_IUPAC_CAS_NAME>
4-methyl-4-trimethylsilyloxy-2-oxanone
> <PUBCHEM_IUPAC_NAME_MARKUP>
4-methyl-4-trimethylsilyloxyoxan-2-one
> <PUBCHEM_IUPAC_NAME>
4-methyl-4-trimethylsilyloxyoxan-2-one
> <PUBCHEM_IUPAC_SYSTEMATIC_NAME>
4-methyl-4-trimethylsilyloxy-oxan-2-one
> <PUBCHEM_IUPAC_TRADITIONAL_NAME>
4-methyl-4-trimethylsilyloxy-tetrahydropyran-2-one
> <PUBCHEM_IUPAC_INCHI>
InChI=1S/C9H18O3Si/c1-9(12-13(2,3)4)5-6-11-8(10)7-9/h5-7H2,1-4H3
> <PUBCHEM_IUPAC_INCHIKEY>
CNPIMSSHNMVFPM-UHFFFAOYSA-N
> <PUBCHEM_EXACT_MASS>
202.10252097
> <PUBCHEM_MOLECULAR_FORMULA>
C9H18O3Si
> <PUBCHEM_MOLECULAR_WEIGHT>
202.32
> <PUBCHEM_OPENEYE_CAN_SMILES>
CC1(CCOC(=O)C1)O[Si](C)(C)C
> <PUBCHEM_OPENEYE_ISO_SMILES>
CC1(CCOC(=O)C1)O[Si](C)(C)C
> <PUBCHEM_CACTVS_TPSA>
35.5
> <PUBCHEM_MONOISOTOPIC_WEIGHT>
202.10252097
> <PUBCHEM_TOTAL_CHARGE>
0
> <PUBCHEM_HEAVY_ATOM_COUNT>
13
> <PUBCHEM_ATOM_DEF_STEREO_COUNT>
0
> <PUBCHEM_ATOM_UDEF_STEREO_COUNT>
1
> <PUBCHEM_BOND_DEF_STEREO_COUNT>
0
> <PUBCHEM_BOND_UDEF_STEREO_COUNT>
0
> <PUBCHEM_ISOTOPIC_ATOM_COUNT>
0
> <PUBCHEM_COMPONENT_COUNT>
1
> <PUBCHEM_CACTVS_TAUTO_COUNT>
-1
> <PUBCHEM_COORDINATE_TYPE>
1
5
255
> <PUBCHEM_BONDANNOTATIONS>
5  8  3
$$$$
