528666
  -OEChem-10302200292D
 32 31  0     1  0  0  0  0  0999 V2000
    7.1962    0.9050    0.0000 S   0  0  0  0  0  0  0  0  0  0  0  0
    2.8660    0.4050    0.0000 Si  0  0  0  0  0  0  0  0  0  0  0  0
    3.7320   -0.0950    0.0000 O   0  0  0  0  0  0  0  0  0  0  0  0
    4.5981    1.4050    0.0000 O   0  0  0  0  0  0  0  0  0  0  0  0
    5.4641   -1.0950    0.0000 N   0  0  0  0  0  0  0  0  0  0  0  0
    6.3301    0.4050    0.0000 C   0  0  0  0  0  0  0  0  0  0  0  0
    5.4641   -0.0950    0.0000 C   0  0  3  0  0  0  0  0  0  0  0  0
    4.5981    0.4050    0.0000 C   0  0  0  0  0  0  0  0  0  0  0  0
    6.8301   -0.4610    0.0000 C   0  0  0  0  0  0  0  0  0  0  0  0
    5.8301    1.2710    0.0000 C   0  0  0  0  0  0  0  0  0  0  0  0
    2.0000    0.9050    0.0000 C   0  0  0  0  0  0  0  0  0  0  0  0
    2.3660   -0.4610    0.0000 C   0  0  0  0  0  0  0  0  0  0  0  0
    3.3660    1.2710    0.0000 C   0  0  0  0  0  0  0  0  0  0  0  0
    6.0010   -0.4050    0.0000 H   0  0  0  0  0  0  0  0  0  0  0  0
    6.2932   -0.7710    0.0000 H   0  0  0  0  0  0  0  0  0  0  0  0
    7.1401   -0.9980    0.0000 H   0  0  0  0  0  0  0  0  0  0  0  0
    7.3671   -0.1510    0.0000 H   0  0  0  0  0  0  0  0  0  0  0  0
    6.3671    1.5810    0.0000 H   0  0  0  0  0  0  0  0  0  0  0  0
    5.5201    1.8080    0.0000 H   0  0  0  0  0  0  0  0  0  0  0  0
    5.2932    0.9610    0.0000 H   0  0  0  0  0  0  0  0  0  0  0  0
    2.3100    1.4419    0.0000 H   0  0  0  0  0  0  0  0  0  0  0  0
    1.4631    1.2150    0.0000 H   0  0  0  0  0  0  0  0  0  0  0  0
    1.6900    0.3681    0.0000 H   0  0  0  0  0  0  0  0  0  0  0  0
    1.8291   -0.1510    0.0000 H   0  0  0  0  0  0  0  0  0  0  0  0
    2.0560   -0.9980    0.0000 H   0  0  0  0  0  0  0  0  0  0  0  0
    2.9030   -0.7710    0.0000 H   0  0  0  0  0  0  0  0  0  0  0  0
    3.9030    0.9610    0.0000 H   0  0  0  0  0  0  0  0  0  0  0  0
    3.6760    1.8080    0.0000 H   0  0  0  0  0  0  0  0  0  0  0  0
    2.8291    1.5810    0.0000 H   0  0  0  0  0  0  0  0  0  0  0  0
    4.9272   -1.4050    0.0000 H   0  0  0  0  0  0  0  0  0  0  0  0
    6.0010   -1.4050    0.0000 H   0  0  0  0  0  0  0  0  0  0  0  0
    7.7331    0.5950    0.0000 H   0  0  0  0  0  0  0  0  0  0  0  0
  1  6  1  0  0  0  0
  1 32  1  0  0  0  0
  2  3  1  0  0  0  0
  2 11  1  0  0  0  0
  2 12  1  0  0  0  0
  2 13  1  0  0  0  0
  3  8  1  0  0  0  0
  4  8  2  0  0  0  0
  5  7  1  0  0  0  0
  5 30  1  0  0  0  0
  5 31  1  0  0  0  0
  6  7  1  0  0  0  0
  6  9  1  0  0  0  0
  6 10  1  0  0  0  0
  7  8  1  0  0  0  0
  7 14  1  0  0  0  0
  9 15  1  0  0  0  0
  9 16  1  0  0  0  0
  9 17  1  0  0  0  0
 10 18  1  0  0  0  0
 10 19  1  0  0  0  0
 10 20  1  0  0  0  0
 11 21  1  0  0  0  0
 11 22  1  0  0  0  0
 11 23  1  0  0  0  0
 12 24  1  0  0  0  0
 12 25  1  0  0  0  0
 12 26  1  0  0  0  0
 13 27  1  0  0  0  0
 13 28  1  0  0  0  0
 13 29  1  0  0  0  0
M  END
> <PUBCHEM_COMPOUND_CID>
528666
> <PUBCHEM_COMPOUND_CANONICALIZED>
1
> <PUBCHEM_CACTVS_COMPLEXITY>
201
> <PUBCHEM_CACTVS_HBOND_ACCEPTOR>
4
> <PUBCHEM_CACTVS_HBOND_DONOR>
2
> <PUBCHEM_CACTVS_ROTATABLE_BOND>
4
> <PUBCHEM_CACTVS_SUBSKEYS>
AAADceByMAhAAAAAAAAAAAAAAAAAAAAAAAAAAAAAAAAAAAAAAAAAHhQQAEAADCjBwARCCABAAAUIAACQCAAAAAAAAAAAAIGAAAACABAAAAAAAAAEAAAAAAAAAAAIAAAAAAAAAAAAAAAAAAAAAAAAAAAAAA==
> <PUBCHEM_IUPAC_OPENEYE_NAME>
trimethylsilyl 2-amino-3-methyl-3-sulfanyl-butanoate
> <PUBCHEM_IUPAC_CAS_NAME>
2-amino-3-mercapto-3-methylbutanoic acid trimethylsilyl ester
> <PUBCHEM_IUPAC_NAME_MARKUP>
trimethylsilyl 2-amino-3-methyl-3-sulfanylbutanoate
> <PUBCHEM_IUPAC_NAME>
trimethylsilyl 2-amino-3-methyl-3-sulfanylbutanoate
> <PUBCHEM_IUPAC_SYSTEMATIC_NAME>
trimethylsilyl 2-azanyl-3-methyl-3-sulfanyl-butanoate
> <PUBCHEM_IUPAC_TRADITIONAL_NAME>
2-amino-3-mercapto-3-methyl-butyric acid trimethylsilyl ester
> <PUBCHEM_IUPAC_INCHI>
InChI=1S/C8H19NO2SSi/c1-8(2,12)6(9)7(10)11-13(3,4)5/h6,12H,9H2,1-5H3
> <PUBCHEM_IUPAC_INCHIKEY>
YWSZLWBMEYZAFC-UHFFFAOYSA-N
> <PUBCHEM_EXACT_MASS>
221.09057656
> <PUBCHEM_MOLECULAR_FORMULA>
C8H19NO2SSi
> <PUBCHEM_MOLECULAR_WEIGHT>
221.39
> <PUBCHEM_OPENEYE_CAN_SMILES>
CC(C)(C(C(=O)O[Si](C)(C)C)N)S
> <PUBCHEM_OPENEYE_ISO_SMILES>
CC(C)(C(C(=O)O[Si](C)(C)C)N)S
> <PUBCHEM_CACTVS_TPSA>
53.3
> <PUBCHEM_MONOISOTOPIC_WEIGHT>
221.09057656
> <PUBCHEM_TOTAL_CHARGE>
0
> <PUBCHEM_HEAVY_ATOM_COUNT>
13
> <PUBCHEM_ATOM_DEF_STEREO_COUNT>
0
> <PUBCHEM_ATOM_UDEF_STEREO_COUNT>
1
> <PUBCHEM_BOND_DEF_STEREO_COUNT>
0
> <PUBCHEM_BOND_UDEF_STEREO_COUNT>
0
> <PUBCHEM_ISOTOPIC_ATOM_COUNT>
0
> <PUBCHEM_COMPONENT_COUNT>
1
> <PUBCHEM_CACTVS_TAUTO_COUNT>
-1
> <PUBCHEM_COORDINATE_TYPE>
1
5
255
> <PUBCHEM_BONDANNOTATIONS>
7  5  3
$$$$
