528749
  -OEChem-10302200292D
 34 34  0     1  0  0  0  0  0999 V2000
    6.3301   -0.3100    0.0000 S   0  0  0  0  0  0  0  0  0  0  0  0
    8.0622   -0.3100    0.0000 S   0  0  0  0  0  0  0  0  0  0  0  0
    7.1962    1.1900    0.0000 N   0  0  0  0  0  0  0  0  0  0  0  0
    6.3301    0.6900    0.0000 C   0  0  3  0  0  0  0  0  0  0  0  0
    5.4641    1.1900    0.0000 C   0  0  0  0  0  0  0  0  0  0  0  0
    4.5981    0.6900    0.0000 C   0  0  0  0  0  0  0  0  0  0  0  0
    8.0622    0.6900    0.0000 C   0  0  3  0  0  0  0  0  0  0  0  0
    7.1962   -0.8100    0.0000 C   0  0  3  0  0  0  0  0  0  0  0  0
    3.7320    1.1900    0.0000 C   0  0  0  0  0  0  0  0  0  0  0  0
    2.8660    0.6900    0.0000 C   0  0  0  0  0  0  0  0  0  0  0  0
    8.9282    1.1900    0.0000 C   0  0  0  0  0  0  0  0  0  0  0  0
    7.1962   -1.8100    0.0000 C   0  0  0  0  0  0  0  0  0  0  0  0
    2.0000    1.1900    0.0000 C   0  0  0  0  0  0  0  0  0  0  0  0
    5.7932    0.3800    0.0000 H   0  0  0  0  0  0  0  0  0  0  0  0
    5.8626    1.6650    0.0000 H   0  0  0  0  0  0  0  0  0  0  0  0
    5.0656    1.6650    0.0000 H   0  0  0  0  0  0  0  0  0  0  0  0
    4.1996    0.2151    0.0000 H   0  0  0  0  0  0  0  0  0  0  0  0
    4.9966    0.2151    0.0000 H   0  0  0  0  0  0  0  0  0  0  0  0
    8.0622    1.3100    0.0000 H   0  0  0  0  0  0  0  0  0  0  0  0
    7.1962    1.8100    0.0000 H   0  0  0  0  0  0  0  0  0  0  0  0
    6.6592   -1.1200    0.0000 H   0  0  0  0  0  0  0  0  0  0  0  0
    4.1306    1.6650    0.0000 H   0  0  0  0  0  0  0  0  0  0  0  0
    3.3335    1.6650    0.0000 H   0  0  0  0  0  0  0  0  0  0  0  0
    2.4675    0.2151    0.0000 H   0  0  0  0  0  0  0  0  0  0  0  0
    3.2646    0.2151    0.0000 H   0  0  0  0  0  0  0  0  0  0  0  0
    9.2382    0.6531    0.0000 H   0  0  0  0  0  0  0  0  0  0  0  0
    9.4651    1.5000    0.0000 H   0  0  0  0  0  0  0  0  0  0  0  0
    8.6182    1.7269    0.0000 H   0  0  0  0  0  0  0  0  0  0  0  0
    6.5762   -1.8100    0.0000 H   0  0  0  0  0  0  0  0  0  0  0  0
    7.1962   -2.4300    0.0000 H   0  0  0  0  0  0  0  0  0  0  0  0
    7.8162   -1.8100    0.0000 H   0  0  0  0  0  0  0  0  0  0  0  0
    2.3100    1.7269    0.0000 H   0  0  0  0  0  0  0  0  0  0  0  0
    1.4631    1.5000    0.0000 H   0  0  0  0  0  0  0  0  0  0  0  0
    1.6900    0.6531    0.0000 H   0  0  0  0  0  0  0  0  0  0  0  0
  1  4  1  0  0  0  0
  1  8  1  0  0  0  0
  2  7  1  0  0  0  0
  2  8  1  0  0  0  0
  3  4  1  0  0  0  0
  3  7  1  0  0  0  0
  3 20  1  0  0  0  0
  4  5  1  0  0  0  0
  4 14  1  0  0  0  0
  5  6  1  0  0  0  0
  5 15  1  0  0  0  0
  5 16  1  0  0  0  0
  6  9  1  0  0  0  0
  6 17  1  0  0  0  0
  6 18  1  0  0  0  0
  7 11  1  0  0  0  0
  7 19  1  0  0  0  0
  8 12  1  0  0  0  0
  8 21  1  0  0  0  0
  9 10  1  0  0  0  0
  9 22  1  0  0  0  0
  9 23  1  0  0  0  0
 10 13  1  0  0  0  0
 10 24  1  0  0  0  0
 10 25  1  0  0  0  0
 11 26  1  0  0  0  0
 11 27  1  0  0  0  0
 11 28  1  0  0  0  0
 12 29  1  0  0  0  0
 12 30  1  0  0  0  0
 12 31  1  0  0  0  0
 13 32  1  0  0  0  0
 13 33  1  0  0  0  0
 13 34  1  0  0  0  0
M  END
> <PUBCHEM_COMPOUND_CID>
528749
> <PUBCHEM_COMPOUND_CANONICALIZED>
1
> <PUBCHEM_CACTVS_COMPLEXITY>
141
> <PUBCHEM_CACTVS_HBOND_ACCEPTOR>
3
> <PUBCHEM_CACTVS_HBOND_DONOR>
1
> <PUBCHEM_CACTVS_ROTATABLE_BOND>
4
> <PUBCHEM_CACTVS_SUBSKEYS>
AAADceByAABgAAAAAAAAAAAAAAAAAAAAAAAsAAAAAAAAAAAAAAAAHAQQAAAACADFQASCAALAAAgAAAAAAAAAAQBAABAAAIAIAAAAAAIggAAEAAAAEACgAAEQAAAAAAAAAAAAAAAAAAAAAAAAAAAAAAAAAA==
> <PUBCHEM_IUPAC_OPENEYE_NAME>
2,4-dimethyl-6-pentyl-1,3,5-dithiazinane
> <PUBCHEM_IUPAC_CAS_NAME>
2,4-dimethyl-6-pentyl-1,3,5-dithiazinane
> <PUBCHEM_IUPAC_NAME_MARKUP>
2,4-dimethyl-6-pentyl-1,3,5-dithiazinane
> <PUBCHEM_IUPAC_NAME>
2,4-dimethyl-6-pentyl-1,3,5-dithiazinane
> <PUBCHEM_IUPAC_SYSTEMATIC_NAME>
2,4-dimethyl-6-pentyl-1,3,5-dithiazinane
> <PUBCHEM_IUPAC_TRADITIONAL_NAME>
4-amyl-2,6-dimethyl-1,3,5-dithiazinane
> <PUBCHEM_IUPAC_INCHI>
InChI=1S/C10H21NS2/c1-4-5-6-7-10-11-8(2)12-9(3)13-10/h8-11H,4-7H2,1-3H3
> <PUBCHEM_IUPAC_INCHIKEY>
CHNBDSZQZNEBGF-UHFFFAOYSA-N
> <PUBCHEM_XLOGP3_AA>
4.4
> <PUBCHEM_EXACT_MASS>
219.11154202
> <PUBCHEM_MOLECULAR_FORMULA>
C10H21NS2
> <PUBCHEM_MOLECULAR_WEIGHT>
219.4
> <PUBCHEM_OPENEYE_CAN_SMILES>
CCCCCC1NC(SC(S1)C)C
> <PUBCHEM_OPENEYE_ISO_SMILES>
CCCCCC1NC(SC(S1)C)C
> <PUBCHEM_CACTVS_TPSA>
62.6
> <PUBCHEM_MONOISOTOPIC_WEIGHT>
219.11154202
> <PUBCHEM_TOTAL_CHARGE>
0
> <PUBCHEM_HEAVY_ATOM_COUNT>
13
> <PUBCHEM_ATOM_DEF_STEREO_COUNT>
0
> <PUBCHEM_ATOM_UDEF_STEREO_COUNT>
3
> <PUBCHEM_BOND_DEF_STEREO_COUNT>
0
> <PUBCHEM_BOND_UDEF_STEREO_COUNT>
0
> <PUBCHEM_ISOTOPIC_ATOM_COUNT>
0
> <PUBCHEM_COMPONENT_COUNT>
1
> <PUBCHEM_CACTVS_TAUTO_COUNT>
-1
> <PUBCHEM_COORDINATE_TYPE>
1
5
255
> <PUBCHEM_BONDANNOTATIONS>
4  5  3
7  11  3
8  12  3
$$$$
