528770
  -OEChem-10302200292D
 28 30  0     1  0  0  0  0  0999 V2000
    4.5483   -0.8789    0.0000 C   0  0  3  0  0  0  0  0  0  0  0  0
    6.1798    0.6791    0.0000 C   0  0  3  0  0  0  0  0  0  0  0  0
    4.2062    0.0608    0.0000 C   0  0  3  0  0  0  0  0  0  0  0  0
    5.9210   -0.2868    0.0000 C   0  0  3  0  0  0  0  0  0  0  0  0
    5.4432    1.6617    0.0000 C   0  0  0  0  0  0  0  0  0  0  0  0
    7.5787    0.1703    0.0000 C   0  0  0  0  0  0  0  0  0  0  0  0
    7.3199   -0.7957    0.0000 C   0  0  0  0  0  0  0  0  0  0  0  0
    3.7633   -1.4888    0.0000 C   0  0  0  0  0  0  0  0  0  0  0  0
    3.2129    0.0236    0.0000 C   0  0  0  0  0  0  0  0  0  0  0  0
    2.9397   -0.9323    0.0000 C   0  0  0  0  0  0  0  0  0  0  0  0
    7.8199   -1.6617    0.0000 C   0  0  0  0  0  0  0  0  0  0  0  0
    2.0000   -1.2743    0.0000 C   0  0  0  0  0  0  0  0  0  0  0  0
    4.8638   -1.4126    0.0000 H   0  0  0  0  0  0  0  0  0  0  0  0
    6.5492    1.1770    0.0000 H   0  0  0  0  0  0  0  0  0  0  0  0
    4.1010    0.6718    0.0000 H   0  0  0  0  0  0  0  0  0  0  0  0
    6.3825    0.1272    0.0000 H   0  0  0  0  0  0  0  0  0  0  0  0
    5.7610    2.1940    0.0000 H   0  0  0  0  0  0  0  0  0  0  0  0
    4.8300    1.7536    0.0000 H   0  0  0  0  0  0  0  0  0  0  0  0
    8.1727   -0.0075    0.0000 H   0  0  0  0  0  0  0  0  0  0  0  0
    7.7737    0.7588    0.0000 H   0  0  0  0  0  0  0  0  0  0  0  0
    3.3641   -1.9632    0.0000 H   0  0  0  0  0  0  0  0  0  0  0  0
    4.1931   -1.9357    0.0000 H   0  0  0  0  0  0  0  0  0  0  0  0
    2.8303    0.5115    0.0000 H   0  0  0  0  0  0  0  0  0  0  0  0
    7.5099   -2.1986    0.0000 H   0  0  0  0  0  0  0  0  0  0  0  0
    8.4399   -1.6617    0.0000 H   0  0  0  0  0  0  0  0  0  0  0  0
    1.7880   -0.6917    0.0000 H   0  0  0  0  0  0  0  0  0  0  0  0
    1.4174   -1.4863    0.0000 H   0  0  0  0  0  0  0  0  0  0  0  0
    2.2120   -1.8569    0.0000 H   0  0  0  0  0  0  0  0  0  0  0  0
  1  3  1  0  0  0  0
  1  4  1  0  0  0  0
  1  8  1  0  0  0  0
  1 13  1  0  0  0  0
  2  3  1  0  0  0  0
  2  5  1  0  0  0  0
  2  6  1  0  0  0  0
  2 14  1  0  0  0  0
  3  9  1  0  0  0  0
  3 15  1  0  0  0  0
  4  5  1  0  0  0  0
  4  7  1  0  0  0  0
  4 16  1  0  0  0  0
  5 17  1  0  0  0  0
  5 18  1  0  0  0  0
  6  7  1  0  0  0  0
  6 19  1  0  0  0  0
  6 20  1  0  0  0  0
  7 11  2  0  0  0  0
  8 10  1  0  0  0  0
  8 21  1  0  0  0  0
  8 22  1  0  0  0  0
  9 10  2  0  0  0  0
  9 23  1  0  0  0  0
 10 12  1  0  0  0  0
 11 24  1  0  0  0  0
 11 25  1  0  0  0  0
 12 26  1  0  0  0  0
 12 27  1  0  0  0  0
 12 28  1  0  0  0  0
M  END
> <PUBCHEM_COMPOUND_CID>
528770
> <PUBCHEM_COMPOUND_CANONICALIZED>
1
> <PUBCHEM_CACTVS_COMPLEXITY>
272
> <PUBCHEM_CACTVS_HBOND_ACCEPTOR>
0
> <PUBCHEM_CACTVS_HBOND_DONOR>
0
> <PUBCHEM_CACTVS_ROTATABLE_BOND>
0
> <PUBCHEM_CACTVS_SUBSKEYS>
AAADceBwAAAAAAAAAAAAAAAAAAAAAYMEAAAwAAAAAAAQAAAAAAAAGAAAAAAADQCAAAACAAAAAACAAiBCAAAAAAAgAAAACAAAAAgAAAIAAQAAAAAAgAAIAAMAgMAOgAAAAAAAAAAAAAQAACAAAQAACAAAAA==
> <PUBCHEM_IUPAC_OPENEYE_NAME>
4-methyl-8-methylene-tricyclo[5.2.1.02,6]dec-3-ene
> <PUBCHEM_IUPAC_CAS_NAME>
4-methyl-8-methylenetricyclo[5.2.1.02,6]dec-3-ene
> <PUBCHEM_IUPAC_NAME_MARKUP>
4-methyl-8-methylidenetricyclo[5.2.1.0<SUP>2,6</SUP>]dec-3-ene
> <PUBCHEM_IUPAC_NAME>
4-methyl-8-methylidenetricyclo[5.2.1.02,6]dec-3-ene
> <PUBCHEM_IUPAC_SYSTEMATIC_NAME>
4-methyl-8-methylidene-tricyclo[5.2.1.02,6]dec-3-ene
> <PUBCHEM_IUPAC_TRADITIONAL_NAME>
4-methyl-8-methylene-tricyclo[5.2.1.02,6]dec-3-ene
> <PUBCHEM_IUPAC_INCHI>
InChI=1S/C12H16/c1-7-3-11-9-5-8(2)10(6-9)12(11)4-7/h3,9-12H,2,4-6H2,1H3
> <PUBCHEM_IUPAC_INCHIKEY>
IFNHGXABAREXJX-UHFFFAOYSA-N
> <PUBCHEM_XLOGP3_AA>
2.5
> <PUBCHEM_EXACT_MASS>
160.125200510
> <PUBCHEM_MOLECULAR_FORMULA>
C12H16
> <PUBCHEM_MOLECULAR_WEIGHT>
160.25
> <PUBCHEM_OPENEYE_CAN_SMILES>
CC1=CC2C3CC(C2C1)C(=C)C3
> <PUBCHEM_OPENEYE_ISO_SMILES>
CC1=CC2C3CC(C2C1)C(=C)C3
> <PUBCHEM_CACTVS_TPSA>
0
> <PUBCHEM_MONOISOTOPIC_WEIGHT>
160.125200510
> <PUBCHEM_TOTAL_CHARGE>
0
> <PUBCHEM_HEAVY_ATOM_COUNT>
12
> <PUBCHEM_ATOM_DEF_STEREO_COUNT>
0
> <PUBCHEM_ATOM_UDEF_STEREO_COUNT>
4
> <PUBCHEM_BOND_DEF_STEREO_COUNT>
0
> <PUBCHEM_BOND_UDEF_STEREO_COUNT>
0
> <PUBCHEM_ISOTOPIC_ATOM_COUNT>
0
> <PUBCHEM_COMPONENT_COUNT>
1
> <PUBCHEM_CACTVS_TAUTO_COUNT>
-1
> <PUBCHEM_COORDINATE_TYPE>
1
5
255
> <PUBCHEM_BONDANNOTATIONS>
1  8  3
2  5  3
3  9  3
4  5  3
$$$$
