528765
  -OEChem-10302200292D
 28 30  0     1  0  0  0  0  0999 V2000
    4.9813    0.1265    0.0000 C   0  0  3  0  0  0  0  0  0  0  0  0
    3.6086   -0.4656    0.0000 C   0  0  3  0  0  0  0  0  0  0  0  0
    3.2666    0.4741    0.0000 C   0  0  3  0  0  0  0  0  0  0  0  0
    5.2401    1.0924    0.0000 C   0  0  3  0  0  0  0  0  0  0  0  0
    4.5035    2.0750    0.0000 C   0  0  0  0  0  0  0  0  0  0  0  0
    2.2732    0.4369    0.0000 C   0  0  0  0  0  0  0  0  0  0  0  0
    6.3802   -0.3824    0.0000 C   0  0  0  0  0  0  0  0  0  0  0  0
    2.8237   -1.0756    0.0000 C   0  0  0  0  0  0  0  0  0  0  0  0
    6.6390    0.5836    0.0000 C   0  0  0  0  0  0  0  0  0  0  0  0
    4.7225   -0.8395    0.0000 C   0  0  0  0  0  0  0  0  0  0  0  0
    2.0000   -0.5190    0.0000 C   0  0  0  0  0  0  0  0  0  0  0  0
    2.8568   -2.0750    0.0000 C   0  0  0  0  0  0  0  0  0  0  0  0
    3.9241   -0.9993    0.0000 H   0  0  0  0  0  0  0  0  0  0  0  0
    3.1613    1.0851    0.0000 H   0  0  0  0  0  0  0  0  0  0  0  0
    5.6095    1.5904    0.0000 H   0  0  0  0  0  0  0  0  0  0  0  0
    4.8213    2.6074    0.0000 H   0  0  0  0  0  0  0  0  0  0  0  0
    3.8904    2.1670    0.0000 H   0  0  0  0  0  0  0  0  0  0  0  0
    2.3152    1.0554    0.0000 H   0  0  0  0  0  0  0  0  0  0  0  0
    1.6624    0.5436    0.0000 H   0  0  0  0  0  0  0  0  0  0  0  0
    6.6666   -0.9323    0.0000 H   0  0  0  0  0  0  0  0  0  0  0  0
    7.1890    0.8699    0.0000 H   0  0  0  0  0  0  0  0  0  0  0  0
    4.1236   -0.6790    0.0000 H   0  0  0  0  0  0  0  0  0  0  0  0
    4.5620   -1.4383    0.0000 H   0  0  0  0  0  0  0  0  0  0  0  0
    5.3213   -0.9999    0.0000 H   0  0  0  0  0  0  0  0  0  0  0  0
    1.4174   -0.7310    0.0000 H   0  0  0  0  0  0  0  0  0  0  0  0
    2.2372   -2.0956    0.0000 H   0  0  0  0  0  0  0  0  0  0  0  0
    2.8774   -2.6947    0.0000 H   0  0  0  0  0  0  0  0  0  0  0  0
    3.4765   -2.0544    0.0000 H   0  0  0  0  0  0  0  0  0  0  0  0
  1  2  1  0  0  0  0
  1  5  1  0  0  0  0
  1  7  1  0  0  0  0
  1 10  1  0  0  0  0
  2  3  1  0  0  0  0
  2  8  1  0  0  0  0
  2 13  1  0  0  0  0
  3  4  1  0  0  0  0
  3  6  1  0  0  0  0
  3 14  1  0  0  0  0
  4  5  1  0  0  0  0
  4  9  1  0  0  0  0
  4 15  1  0  0  0  0
  5 16  1  0  0  0  0
  5 17  1  0  0  0  0
  6 11  1  0  0  0  0
  6 18  1  0  0  0  0
  6 19  1  0  0  0  0
  7  9  2  0  0  0  0
  7 20  1  0  0  0  0
  8 11  2  0  0  0  0
  8 12  1  0  0  0  0
  9 21  1  0  0  0  0
 10 22  1  0  0  0  0
 10 23  1  0  0  0  0
 10 24  1  0  0  0  0
 11 25  1  0  0  0  0
 12 26  1  0  0  0  0
 12 27  1  0  0  0  0
 12 28  1  0  0  0  0
M  END
> <PUBCHEM_COMPOUND_CID>
528765
> <PUBCHEM_COMPOUND_CANONICALIZED>
1
> <PUBCHEM_CACTVS_COMPLEXITY>
284
> <PUBCHEM_CACTVS_HBOND_ACCEPTOR>
0
> <PUBCHEM_CACTVS_HBOND_DONOR>
0
> <PUBCHEM_CACTVS_ROTATABLE_BOND>
0
> <PUBCHEM_CACTVS_SUBSKEYS>
AAADceBwAAAAAAAAAAAAAAAAAAAAAYIEAAAgAAAAAAAQAAAAAAAAGAAAAAAADwCAAAACAAAAAACAAiBCAAAAAAAgAAAICAAAAAgAAAIAAQAAAAAAgAAIAAMAgMAPgAAAAAAAAAAAAAAAAAAAAQAACAAAAA==
> <PUBCHEM_IUPAC_OPENEYE_NAME>
1,3-dimethyltricyclo[5.2.1.02,6]deca-3,8-diene
> <PUBCHEM_IUPAC_CAS_NAME>
1,3-dimethyltricyclo[5.2.1.02,6]deca-3,8-diene
> <PUBCHEM_IUPAC_NAME_MARKUP>
1,3-dimethyltricyclo[5.2.1.0<SUP>2,6</SUP>]deca-3,8-diene
> <PUBCHEM_IUPAC_NAME>
1,3-dimethyltricyclo[5.2.1.02,6]deca-3,8-diene
> <PUBCHEM_IUPAC_SYSTEMATIC_NAME>
1,3-dimethyltricyclo[5.2.1.02,6]deca-3,8-diene
> <PUBCHEM_IUPAC_TRADITIONAL_NAME>
1,3-dimethyltricyclo[5.2.1.02,6]deca-3,8-diene
> <PUBCHEM_IUPAC_INCHI>
InChI=1S/C12H16/c1-8-3-4-10-9-5-6-12(2,7-9)11(8)10/h3,5-6,9-11H,4,7H2,1-2H3
> <PUBCHEM_IUPAC_INCHIKEY>
TZVCGTNKPZJPJS-UHFFFAOYSA-N
> <PUBCHEM_XLOGP3_AA>
2.9
> <PUBCHEM_EXACT_MASS>
160.125200510
> <PUBCHEM_MOLECULAR_FORMULA>
C12H16
> <PUBCHEM_MOLECULAR_WEIGHT>
160.25
> <PUBCHEM_OPENEYE_CAN_SMILES>
CC1=CCC2C1C3(CC2C=C3)C
> <PUBCHEM_OPENEYE_ISO_SMILES>
CC1=CCC2C1C3(CC2C=C3)C
> <PUBCHEM_CACTVS_TPSA>
0
> <PUBCHEM_MONOISOTOPIC_WEIGHT>
160.125200510
> <PUBCHEM_TOTAL_CHARGE>
0
> <PUBCHEM_HEAVY_ATOM_COUNT>
12
> <PUBCHEM_ATOM_DEF_STEREO_COUNT>
0
> <PUBCHEM_ATOM_UDEF_STEREO_COUNT>
4
> <PUBCHEM_BOND_DEF_STEREO_COUNT>
0
> <PUBCHEM_BOND_UDEF_STEREO_COUNT>
0
> <PUBCHEM_ISOTOPIC_ATOM_COUNT>
0
> <PUBCHEM_COMPONENT_COUNT>
1
> <PUBCHEM_CACTVS_TAUTO_COUNT>
-1
> <PUBCHEM_COORDINATE_TYPE>
1
5
255
> <PUBCHEM_BONDANNOTATIONS>
1  10  3
2  8  3
3  6  3
4  5  3
$$$$
