528875
  -OEChem-10302200292D
 40 40  0     1  0  0  0  0  0999 V2000
    5.5981    2.0000    0.0000 F   0  0  0  0  0  0  0  0  0  0  0  0
    3.5981    2.0000    0.0000 F   0  0  0  0  0  0  0  0  0  0  0  0
    8.0622    0.0000    0.0000 F   0  0  0  0  0  0  0  0  0  0  0  0
    7.6962   -1.3660    0.0000 F   0  0  0  0  0  0  0  0  0  0  0  0
    6.6962    0.3660    0.0000 F   0  0  0  0  0  0  0  0  0  0  0  0
    6.3301   -3.0000    0.0000 F   0  0  0  0  0  0  0  0  0  0  0  0
    7.3301   -2.0000    0.0000 F   0  0  0  0  0  0  0  0  0  0  0  0
    5.3301   -2.0000    0.0000 F   0  0  0  0  0  0  0  0  0  0  0  0
    4.5981    4.0000    0.0000 F   0  0  0  0  0  0  0  0  0  0  0  0
    5.5981    3.0000    0.0000 F   0  0  0  0  0  0  0  0  0  0  0  0
    3.5981    3.0000    0.0000 F   0  0  0  0  0  0  0  0  0  0  0  0
    5.4641   -0.5000    0.0000 O   0  0  0  0  0  0  0  0  0  0  0  0
    4.5981   -2.0000    0.0000 O   0  0  0  0  0  0  0  0  0  0  0  0
    5.4641    0.5000    0.0000 O   0  0  0  0  0  0  0  0  0  0  0  0
    3.7320    0.5000    0.0000 N   0  0  0  0  0  0  0  0  0  0  0  0
    3.7320   -0.5000    0.0000 C   0  0  3  0  0  0  0  0  0  0  0  0
    2.8660   -1.0000    0.0000 C   0  0  0  0  0  0  0  0  0  0  0  0
    2.8660   -2.0000    0.0000 C   0  0  0  0  0  0  0  0  0  0  0  0
    4.5981   -1.0000    0.0000 C   0  0  0  0  0  0  0  0  0  0  0  0
    6.3301   -1.0000    0.0000 C   0  0  0  0  0  0  0  0  0  0  0  0
    4.5981    1.0000    0.0000 C   0  0  0  0  0  0  0  0  0  0  0  0
    2.0000   -2.5000    0.0000 C   0  0  0  0  0  0  0  0  0  0  0  0
    3.7320   -2.5000    0.0000 C   0  0  0  0  0  0  0  0  0  0  0  0
    4.5981    2.0000    0.0000 C   0  0  0  0  0  0  0  0  0  0  0  0
    7.1962   -0.5000    0.0000 C   0  0  0  0  0  0  0  0  0  0  0  0
    6.3301   -2.0000    0.0000 C   0  0  0  0  0  0  0  0  0  0  0  0
    2.0000   -3.5000    0.0000 C   0  0  0  0  0  0  0  0  0  0  0  0
    3.7320   -3.5000    0.0000 C   0  0  0  0  0  0  0  0  0  0  0  0
    4.5981    3.0000    0.0000 C   0  0  0  0  0  0  0  0  0  0  0  0
    2.8660   -4.0000    0.0000 C   0  0  0  0  0  0  0  0  0  0  0  0
    4.2690   -0.1900    0.0000 H   0  0  0  0  0  0  0  0  0  0  0  0
    2.6540   -0.4174    0.0000 H   0  0  0  0  0  0  0  0  0  0  0  0
    2.2554   -1.1077    0.0000 H   0  0  0  0  0  0  0  0  0  0  0  0
    3.1951    0.8100    0.0000 H   0  0  0  0  0  0  0  0  0  0  0  0
    5.7932   -1.3100    0.0000 H   0  0  0  0  0  0  0  0  0  0  0  0
    1.4631   -2.1900    0.0000 H   0  0  0  0  0  0  0  0  0  0  0  0
    4.2690   -2.1900    0.0000 H   0  0  0  0  0  0  0  0  0  0  0  0
    1.4631   -3.8100    0.0000 H   0  0  0  0  0  0  0  0  0  0  0  0
    4.2690   -3.8100    0.0000 H   0  0  0  0  0  0  0  0  0  0  0  0
    2.8660   -4.6200    0.0000 H   0  0  0  0  0  0  0  0  0  0  0  0
  1 24  1  0  0  0  0
  2 24  1  0  0  0  0
  3 25  1  0  0  0  0
  4 25  1  0  0  0  0
  5 25  1  0  0  0  0
  6 26  1  0  0  0  0
  7 26  1  0  0  0  0
  8 26  1  0  0  0  0
  9 29  1  0  0  0  0
 10 29  1  0  0  0  0
 11 29  1  0  0  0  0
 12 19  1  0  0  0  0
 12 20  1  0  0  0  0
 13 19  2  0  0  0  0
 14 21  2  0  0  0  0
 15 16  1  0  0  0  0
 15 21  1  0  0  0  0
 15 34  1  0  0  0  0
 16 17  1  0  0  0  0
 16 19  1  0  0  0  0
 16 31  1  0  0  0  0
 17 18  1  0  0  0  0
 17 32  1  0  0  0  0
 17 33  1  0  0  0  0
 18 22  2  0  0  0  0
 18 23  1  0  0  0  0
 20 25  1  0  0  0  0
 20 26  1  0  0  0  0
 20 35  1  0  0  0  0
 21 24  1  0  0  0  0
 22 27  1  0  0  0  0
 22 36  1  0  0  0  0
 23 28  2  0  0  0  0
 23 37  1  0  0  0  0
 24 29  1  0  0  0  0
 27 30  2  0  0  0  0
 27 38  1  0  0  0  0
 28 30  1  0  0  0  0
 28 39  1  0  0  0  0
 30 40  1  0  0  0  0
M  END
> <PUBCHEM_COMPOUND_CID>
528875
> <PUBCHEM_COMPOUND_CANONICALIZED>
1
> <PUBCHEM_CACTVS_COMPLEXITY>
592
> <PUBCHEM_CACTVS_HBOND_ACCEPTOR>
14
> <PUBCHEM_CACTVS_HBOND_DONOR>
1
> <PUBCHEM_CACTVS_ROTATABLE_BOND>
7
> <PUBCHEM_CACTVS_SUBSKEYS>
AAADccByMcAAAAAAAAAAAAAAAAAAAAAAAAAwAAAAAAAAAAABAAAAHwAQAAAADDzhmBYwCILABACIAiHSGAACAAAgAAAIiIGIAIgKIDKAkTGHIAAklgCYiAeYyKCOAAAAAAAAAAAAAAAAAAAAAAAAAAAAAA==
> <PUBCHEM_IUPAC_OPENEYE_NAME>
[2,2,2-trifluoro-1-(trifluoromethyl)ethyl] 2-(2,2,3,3,3-pentafluoropropanoylamino)-3-phenyl-propanoate
> <PUBCHEM_IUPAC_CAS_NAME>
2-[(2,2,3,3,3-pentafluoro-1-oxopropyl)amino]-3-phenylpropanoic acid 1,1,1,3,3,3-hexafluoropropan-2-yl ester
> <PUBCHEM_IUPAC_NAME_MARKUP>
1,1,1,3,3,3-hexafluoropropan-2-yl 2-(2,2,3,3,3-pentafluoropropanoylamino)-3-phenylpropanoate
> <PUBCHEM_IUPAC_NAME>
1,1,1,3,3,3-hexafluoropropan-2-yl 2-(2,2,3,3,3-pentafluoropropanoylamino)-3-phenylpropanoate
> <PUBCHEM_IUPAC_SYSTEMATIC_NAME>
1,1,1,3,3,3-hexakis(fluoranyl)propan-2-yl 2-[2,2,3,3,3-pentakis(fluoranyl)propanoylamino]-3-phenyl-propanoate
> <PUBCHEM_IUPAC_TRADITIONAL_NAME>
2-(2,2,3,3,3-pentafluoropropanoylamino)-3-phenyl-propionic acid [2,2,2-trifluoro-1-(trifluoromethyl)ethyl] ester
> <PUBCHEM_IUPAC_INCHI>
InChI=1S/C15H10F11NO3/c16-12(17,15(24,25)26)11(29)27-8(6-7-4-2-1-3-5-7)9(28)30-10(13(18,19)20)14(21,22)23/h1-5,8,10H,6H2,(H,27,29)
> <PUBCHEM_IUPAC_INCHIKEY>
ZJQYABQTYMRQJI-UHFFFAOYSA-N
> <PUBCHEM_XLOGP3_AA>
5.5
> <PUBCHEM_EXACT_MASS>
461.04850296
> <PUBCHEM_MOLECULAR_FORMULA>
C15H10F11NO3
> <PUBCHEM_MOLECULAR_WEIGHT>
461.23
> <PUBCHEM_OPENEYE_CAN_SMILES>
C1=CC=C(C=C1)CC(C(=O)OC(C(F)(F)F)C(F)(F)F)NC(=O)C(C(F)(F)F)(F)F
> <PUBCHEM_OPENEYE_ISO_SMILES>
C1=CC=C(C=C1)CC(C(=O)OC(C(F)(F)F)C(F)(F)F)NC(=O)C(C(F)(F)F)(F)F
> <PUBCHEM_CACTVS_TPSA>
55.4
> <PUBCHEM_MONOISOTOPIC_WEIGHT>
461.04850296
> <PUBCHEM_TOTAL_CHARGE>
0
> <PUBCHEM_HEAVY_ATOM_COUNT>
30
> <PUBCHEM_ATOM_DEF_STEREO_COUNT>
0
> <PUBCHEM_ATOM_UDEF_STEREO_COUNT>
1
> <PUBCHEM_BOND_DEF_STEREO_COUNT>
0
> <PUBCHEM_BOND_UDEF_STEREO_COUNT>
0
> <PUBCHEM_ISOTOPIC_ATOM_COUNT>
0
> <PUBCHEM_COMPONENT_COUNT>
1
> <PUBCHEM_CACTVS_TAUTO_COUNT>
-1
> <PUBCHEM_COORDINATE_TYPE>
1
5
255
> <PUBCHEM_BONDANNOTATIONS>
16  17  3
18  22  8
18  23  8
22  27  8
23  28  8
27  30  8
28  30  8
$$$$
