528873
  -OEChem-10302200292D
 58 58  0     1  0  0  0  0  0999 V2000
   10.1603   -4.6160    0.0000 F   0  0  0  0  0  0  0  0  0  0  0  0
   11.1603   -2.8840    0.0000 F   0  0  0  0  0  0  0  0  0  0  0  0
    7.1962   -5.7500    0.0000 F   0  0  0  0  0  0  0  0  0  0  0  0
    6.1962   -4.7500    0.0000 F   0  0  0  0  0  0  0  0  0  0  0  0
    8.1962   -4.7500    0.0000 F   0  0  0  0  0  0  0  0  0  0  0  0
    5.4641   -2.7500    0.0000 F   0  0  0  0  0  0  0  0  0  0  0  0
    5.8301   -4.1160    0.0000 F   0  0  0  0  0  0  0  0  0  0  0  0
    6.8301   -2.3840    0.0000 F   0  0  0  0  0  0  0  0  0  0  0  0
   12.3923   -4.7500    0.0000 F   0  0  0  0  0  0  0  0  0  0  0  0
   11.0263   -5.1160    0.0000 F   0  0  0  0  0  0  0  0  0  0  0  0
   12.0263   -3.3840    0.0000 F   0  0  0  0  0  0  0  0  0  0  0  0
    9.0622    3.7500    0.0000 F   0  0  0  0  0  0  0  0  0  0  0  0
    7.0622    3.7500    0.0000 F   0  0  0  0  0  0  0  0  0  0  0  0
    3.2320    0.3840    0.0000 F   0  0  0  0  0  0  0  0  0  0  0  0
    4.2320    2.1160    0.0000 F   0  0  0  0  0  0  0  0  0  0  0  0
    8.0622    5.7500    0.0000 F   0  0  0  0  0  0  0  0  0  0  0  0
    9.0622    4.7500    0.0000 F   0  0  0  0  0  0  0  0  0  0  0  0
    7.0622    4.7500    0.0000 F   0  0  0  0  0  0  0  0  0  0  0  0
    2.0000    2.2500    0.0000 F   0  0  0  0  0  0  0  0  0  0  0  0
    2.3660    0.8840    0.0000 F   0  0  0  0  0  0  0  0  0  0  0  0
    3.3660    2.6160    0.0000 F   0  0  0  0  0  0  0  0  0  0  0  0
    8.0622   -3.2500    0.0000 O   0  0  0  0  0  0  0  0  0  0  0  0
    7.1962    2.2500    0.0000 O   0  0  0  0  0  0  0  0  0  0  0  0
    7.1962   -1.7500    0.0000 O   0  0  0  0  0  0  0  0  0  0  0  0
    5.4641    1.2500    0.0000 O   0  0  0  0  0  0  0  0  0  0  0  0
    8.9282   -3.7500    0.0000 O   0  0  0  0  0  0  0  0  0  0  0  0
    8.9282    2.2500    0.0000 O   0  0  0  0  0  0  0  0  0  0  0  0
    4.5981   -0.2500    0.0000 O   0  0  0  0  0  0  0  0  0  0  0  0
    9.7942   -2.2500    0.0000 N   0  0  0  0  0  0  0  0  0  0  0  0
    8.9282   -1.7500    0.0000 C   0  0  3  0  0  0  0  0  0  0  0  0
    8.9282   -0.7500    0.0000 C   0  0  0  0  0  0  0  0  0  0  0  0
    8.0622   -0.2500    0.0000 C   0  0  0  0  0  0  0  0  0  0  0  0
    8.0622   -2.2500    0.0000 C   0  0  0  0  0  0  0  0  0  0  0  0
    8.0622    0.7500    0.0000 C   0  0  0  0  0  0  0  0  0  0  0  0
    7.1962   -0.7500    0.0000 C   0  0  0  0  0  0  0  0  0  0  0  0
    7.1962   -3.7500    0.0000 C   0  0  0  0  0  0  0  0  0  0  0  0
    7.1962    1.2500    0.0000 C   0  0  0  0  0  0  0  0  0  0  0  0
    9.7942   -3.2500    0.0000 C   0  0  0  0  0  0  0  0  0  0  0  0
    6.3301    0.7500    0.0000 C   0  0  0  0  0  0  0  0  0  0  0  0
    6.3301   -0.2500    0.0000 C   0  0  0  0  0  0  0  0  0  0  0  0
   10.6603   -3.7500    0.0000 C   0  0  0  0  0  0  0  0  0  0  0  0
    7.1962   -4.7500    0.0000 C   0  0  0  0  0  0  0  0  0  0  0  0
    6.3301   -3.2500    0.0000 C   0  0  0  0  0  0  0  0  0  0  0  0
   11.5263   -4.2500    0.0000 C   0  0  0  0  0  0  0  0  0  0  0  0
    8.0622    2.7500    0.0000 C   0  0  0  0  0  0  0  0  0  0  0  0
    4.5981    0.7500    0.0000 C   0  0  0  0  0  0  0  0  0  0  0  0
    8.0622    3.7500    0.0000 C   0  0  0  0  0  0  0  0  0  0  0  0
    3.7320    1.2500    0.0000 C   0  0  0  0  0  0  0  0  0  0  0  0
    8.0622    4.7500    0.0000 C   0  0  0  0  0  0  0  0  0  0  0  0
    2.8660    1.7500    0.0000 C   0  0  0  0  0  0  0  0  0  0  0  0
    9.4651   -1.4400    0.0000 H   0  0  0  0  0  0  0  0  0  0  0  0
    9.5388   -0.8577    0.0000 H   0  0  0  0  0  0  0  0  0  0  0  0
    9.1403   -0.1674    0.0000 H   0  0  0  0  0  0  0  0  0  0  0  0
   10.3312   -1.9400    0.0000 H   0  0  0  0  0  0  0  0  0  0  0  0
    8.5991    1.0600    0.0000 H   0  0  0  0  0  0  0  0  0  0  0  0
    7.1962   -1.3700    0.0000 H   0  0  0  0  0  0  0  0  0  0  0  0
    7.7331   -4.0600    0.0000 H   0  0  0  0  0  0  0  0  0  0  0  0
    5.7932   -0.5600    0.0000 H   0  0  0  0  0  0  0  0  0  0  0  0
  1 41  1  0  0  0  0
  2 41  1  0  0  0  0
  3 42  1  0  0  0  0
  4 42  1  0  0  0  0
  5 42  1  0  0  0  0
  6 43  1  0  0  0  0
  7 43  1  0  0  0  0
  8 43  1  0  0  0  0
  9 44  1  0  0  0  0
 10 44  1  0  0  0  0
 11 44  1  0  0  0  0
 12 47  1  0  0  0  0
 13 47  1  0  0  0  0
 14 48  1  0  0  0  0
 15 48  1  0  0  0  0
 16 49  1  0  0  0  0
 17 49  1  0  0  0  0
 18 49  1  0  0  0  0
 19 50  1  0  0  0  0
 20 50  1  0  0  0  0
 21 50  1  0  0  0  0
 22 33  1  0  0  0  0
 22 36  1  0  0  0  0
 23 37  1  0  0  0  0
 23 45  1  0  0  0  0
 24 33  2  0  0  0  0
 25 39  1  0  0  0  0
 25 46  1  0  0  0  0
 26 38  2  0  0  0  0
 27 45  2  0  0  0  0
 28 46  2  0  0  0  0
 29 30  1  0  0  0  0
 29 38  1  0  0  0  0
 29 54  1  0  0  0  0
 30 31  1  0  0  0  0
 30 33  1  0  0  0  0
 30 51  1  0  0  0  0
 31 32  1  0  0  0  0
 31 52  1  0  0  0  0
 31 53  1  0  0  0  0
 32 34  2  0  0  0  0
 32 35  1  0  0  0  0
 34 37  1  0  0  0  0
 34 55  1  0  0  0  0
 35 40  2  0  0  0  0
 35 56  1  0  0  0  0
 36 42  1  0  0  0  0
 36 43  1  0  0  0  0
 36 57  1  0  0  0  0
 37 39  2  0  0  0  0
 38 41  1  0  0  0  0
 39 40  1  0  0  0  0
 40 58  1  0  0  0  0
 41 44  1  0  0  0  0
 45 47  1  0  0  0  0
 46 48  1  0  0  0  0
 47 49  1  0  0  0  0
 48 50  1  0  0  0  0
M  END
> <PUBCHEM_COMPOUND_CID>
528873
> <PUBCHEM_COMPOUND_CANONICALIZED>
1
> <PUBCHEM_CACTVS_COMPLEXITY>
1240
> <PUBCHEM_CACTVS_HBOND_ACCEPTOR>
28
> <PUBCHEM_CACTVS_HBOND_DONOR>
1
> <PUBCHEM_CACTVS_ROTATABLE_BOND>
13
> <PUBCHEM_CACTVS_SUBSKEYS>
AAADccB6OcAAAAAAAAAAAAAAAAAAAAAAAAAwAAAAAAAAAAABAAAAHwAQAAAADDzhmBYwDoLABACIAiHSGAACCAAgIAAIiIGOiIgPJjKEsTuHOiKk1hGaqAeY2LOOIAABAAAAQABAAAIAAACAAAAAAAAAAA==
> <PUBCHEM_IUPAC_OPENEYE_NAME>
[4-[3-oxo-2-(2,2,3,3,3-pentafluoropropanoylamino)-3-[2,2,2-trifluoro-1-(trifluoromethyl)ethoxy]propyl]-2-(2,2,3,3,3-pentafluoropropanoyloxy)phenyl] 2,2,3,3,3-pentafluoropropanoate
> <PUBCHEM_IUPAC_CAS_NAME>
2,2,3,3,3-pentafluoropropanoic acid [4-[3-(1,1,1,3,3,3-hexafluoropropan-2-yloxy)-3-oxo-2-[(2,2,3,3,3-pentafluoro-1-oxopropyl)amino]propyl]-2-(2,2,3,3,3-pentafluoro-1-oxopropoxy)phenyl] ester
> <PUBCHEM_IUPAC_NAME_MARKUP>
[4-[3-(1,1,1,3,3,3-hexafluoropropan-2-yloxy)-3-oxo-2-(2,2,3,3,3-pentafluoropropanoylamino)propyl]-2-(2,2,3,3,3-pentafluoropropanoyloxy)phenyl] 2,2,3,3,3-pentafluoropropanoate
> <PUBCHEM_IUPAC_NAME>
[4-[3-(1,1,1,3,3,3-hexafluoropropan-2-yloxy)-3-oxo-2-(2,2,3,3,3-pentafluoropropanoylamino)propyl]-2-(2,2,3,3,3-pentafluoropropanoyloxy)phenyl] 2,2,3,3,3-pentafluoropropanoate
> <PUBCHEM_IUPAC_SYSTEMATIC_NAME>
[4-[3-[1,1,1,3,3,3-hexakis(fluoranyl)propan-2-yloxy]-3-oxidanylidene-2-[2,2,3,3,3-pentakis(fluoranyl)propanoylamino]propyl]-2-[2,2,3,3,3-pentakis(fluoranyl)propanoyloxy]phenyl] 2,2,3,3,3-pentakis(fluoranyl)propanoate
> <PUBCHEM_IUPAC_TRADITIONAL_NAME>
2,2,3,3,3-pentafluoropropionic acid [4-[3-keto-2-(2,2,3,3,3-pentafluoropropanoylamino)-3-[2,2,2-trifluoro-1-(trifluoromethyl)ethoxy]propyl]-2-(2,2,3,3,3-pentafluoropropanoyloxy)phenyl] ester
> <PUBCHEM_IUPAC_INCHI>
InChI=1S/C21H8F21NO7/c22-14(23,19(34,35)36)11(45)43-6(9(44)50-10(17(28,29)30)18(31,32)33)3-5-1-2-7(48-12(46)15(24,25)20(37,38)39)8(4-5)49-13(47)16(26,27)21(40,41)42/h1-2,4,6,10H,3H2,(H,43,45)
> <PUBCHEM_IUPAC_INCHIKEY>
IBBQYKLYEGERBB-UHFFFAOYSA-N
> <PUBCHEM_XLOGP3_AA>
8.6
> <PUBCHEM_EXACT_MASS>
784.9965430
> <PUBCHEM_MOLECULAR_FORMULA>
C21H8F21NO7
> <PUBCHEM_MOLECULAR_WEIGHT>
785.3
> <PUBCHEM_OPENEYE_CAN_SMILES>
C1=CC(=C(C=C1CC(C(=O)OC(C(F)(F)F)C(F)(F)F)NC(=O)C(C(F)(F)F)(F)F)OC(=O)C(C(F)(F)F)(F)F)OC(=O)C(C(F)(F)F)(F)F
> <PUBCHEM_OPENEYE_ISO_SMILES>
C1=CC(=C(C=C1CC(C(=O)OC(C(F)(F)F)C(F)(F)F)NC(=O)C(C(F)(F)F)(F)F)OC(=O)C(C(F)(F)F)(F)F)OC(=O)C(C(F)(F)F)(F)F
> <PUBCHEM_CACTVS_TPSA>
108
> <PUBCHEM_MONOISOTOPIC_WEIGHT>
784.9965430
> <PUBCHEM_TOTAL_CHARGE>
0
> <PUBCHEM_HEAVY_ATOM_COUNT>
50
> <PUBCHEM_ATOM_DEF_STEREO_COUNT>
0
> <PUBCHEM_ATOM_UDEF_STEREO_COUNT>
1
> <PUBCHEM_BOND_DEF_STEREO_COUNT>
0
> <PUBCHEM_BOND_UDEF_STEREO_COUNT>
0
> <PUBCHEM_ISOTOPIC_ATOM_COUNT>
0
> <PUBCHEM_COMPONENT_COUNT>
1
> <PUBCHEM_CACTVS_TAUTO_COUNT>
-1
> <PUBCHEM_COORDINATE_TYPE>
1
5
255
> <PUBCHEM_BONDANNOTATIONS>
30  31  3
32  34  8
32  35  8
34  37  8
35  40  8
37  39  8
39  40  8
$$$$
