528816
  -OEChem-10302200292D
 43 45  0     1  0  0  0  0  0999 V2000
    2.8680   -0.4529    0.0000 Si  0  0  0  0  0  0  0  0  0  0  0  0
    7.2660   -0.9254    0.0000 O   0  0  0  0  0  0  0  0  0  0  0  0
    3.7359   -0.9495    0.0000 O   0  0  0  0  0  0  0  0  0  0  0  0
    7.2660    2.0746    0.0000 O   0  0  0  0  0  0  0  0  0  0  0  0
    5.5176    2.1092    0.0000 O   0  0  0  0  0  0  0  0  0  0  0  0
    8.1320   -0.4254    0.0000 C   0  0  3  0  0  0  0  0  0  0  0  0
    8.1320    0.5746    0.0000 C   0  0  0  0  0  0  0  0  0  0  0  0
    6.4000    0.5746    0.0000 C   0  0  0  0  0  0  0  0  0  0  0  0
    6.4000   -0.4254    0.0000 C   0  0  0  0  0  0  0  0  0  0  0  0
    7.2660    1.0746    0.0000 C   0  0  0  0  0  0  0  0  0  0  0  0
    8.9981   -0.9254    0.0000 C   0  0  0  0  0  0  0  0  0  0  0  0
    4.6000   -0.4462    0.0000 C   0  0  0  0  0  0  0  0  0  0  0  0
    5.5060   -0.9601    0.0000 C   0  0  0  0  0  0  0  0  0  0  0  0
    5.5060    1.1093    0.0000 C   0  0  0  0  0  0  0  0  0  0  0  0
    4.6000    0.5954    0.0000 C   0  0  0  0  0  0  0  0  0  0  0  0
    2.0000    0.0438    0.0000 C   0  0  0  0  0  0  0  0  0  0  0  0
    2.3713   -1.3208    0.0000 C   0  0  0  0  0  0  0  0  0  0  0  0
    3.3646    0.4151    0.0000 C   0  0  0  0  0  0  0  0  0  0  0  0
    8.9981   -1.9254    0.0000 C   0  0  0  0  0  0  0  0  0  0  0  0
    9.8641   -0.4254    0.0000 C   0  0  0  0  0  0  0  0  0  0  0  0
    9.8641   -2.4254    0.0000 C   0  0  0  0  0  0  0  0  0  0  0  0
   10.7301   -0.9254    0.0000 C   0  0  0  0  0  0  0  0  0  0  0  0
   10.7301   -1.9254    0.0000 C   0  0  0  0  0  0  0  0  0  0  0  0
    8.6690   -0.1154    0.0000 H   0  0  0  0  0  0  0  0  0  0  0  0
    8.7426    0.4669    0.0000 H   0  0  0  0  0  0  0  0  0  0  0  0
    8.3441    1.1572    0.0000 H   0  0  0  0  0  0  0  0  0  0  0  0
    5.5132   -1.5800    0.0000 H   0  0  0  0  0  0  0  0  0  0  0  0
    2.3079    0.5819    0.0000 H   0  0  0  0  0  0  0  0  0  0  0  0
    1.4619    0.3517    0.0000 H   0  0  0  0  0  0  0  0  0  0  0  0
    1.6921   -0.4944    0.0000 H   0  0  0  0  0  0  0  0  0  0  0  0
    1.8332   -1.0129    0.0000 H   0  0  0  0  0  0  0  0  0  0  0  0
    2.0634   -1.8590    0.0000 H   0  0  0  0  0  0  0  0  0  0  0  0
    2.9094   -1.6288    0.0000 H   0  0  0  0  0  0  0  0  0  0  0  0
    3.9027    0.1071    0.0000 H   0  0  0  0  0  0  0  0  0  0  0  0
    3.6725    0.9532    0.0000 H   0  0  0  0  0  0  0  0  0  0  0  0
    2.8265    0.7230    0.0000 H   0  0  0  0  0  0  0  0  0  0  0  0
    4.0642    0.9075    0.0000 H   0  0  0  0  0  0  0  0  0  0  0  0
    8.4611   -2.2354    0.0000 H   0  0  0  0  0  0  0  0  0  0  0  0
    9.8641    0.1946    0.0000 H   0  0  0  0  0  0  0  0  0  0  0  0
    9.8641   -3.0454    0.0000 H   0  0  0  0  0  0  0  0  0  0  0  0
   11.2671   -0.6154    0.0000 H   0  0  0  0  0  0  0  0  0  0  0  0
   11.2671   -2.2354    0.0000 H   0  0  0  0  0  0  0  0  0  0  0  0
    4.9843    2.4254    0.0000 H   0  0  0  0  0  0  0  0  0  0  0  0
  1  3  1  0  0  0  0
  1 16  1  0  0  0  0
  1 17  1  0  0  0  0
  1 18  1  0  0  0  0
  2  6  1  0  0  0  0
  2  9  1  0  0  0  0
  3 12  1  0  0  0  0
  4 10  2  0  0  0  0
  5 14  1  0  0  0  0
  5 43  1  0  0  0  0
  6  7  1  0  0  0  0
  6 11  1  0  0  0  0
  6 24  1  0  0  0  0
  7 10  1  0  0  0  0
  7 25  1  0  0  0  0
  7 26  1  0  0  0  0
  8  9  1  0  0  0  0
  8 10  1  0  0  0  0
  8 14  2  0  0  0  0
  9 13  2  0  0  0  0
 11 19  2  0  0  0  0
 11 20  1  0  0  0  0
 12 13  1  0  0  0  0
 12 15  2  0  0  0  0
 13 27  1  0  0  0  0
 14 15  1  0  0  0  0
 15 37  1  0  0  0  0
 16 28  1  0  0  0  0
 16 29  1  0  0  0  0
 16 30  1  0  0  0  0
 17 31  1  0  0  0  0
 17 32  1  0  0  0  0
 17 33  1  0  0  0  0
 18 34  1  0  0  0  0
 18 35  1  0  0  0  0
 18 36  1  0  0  0  0
 19 21  1  0  0  0  0
 19 38  1  0  0  0  0
 20 22  2  0  0  0  0
 20 39  1  0  0  0  0
 21 23  2  0  0  0  0
 21 40  1  0  0  0  0
 22 23  1  0  0  0  0
 22 41  1  0  0  0  0
 23 42  1  0  0  0  0
M  END
> <PUBCHEM_COMPOUND_CID>
528816
> <PUBCHEM_COMPOUND_CANONICALIZED>
1
> <PUBCHEM_CACTVS_COMPLEXITY>
427
> <PUBCHEM_CACTVS_HBOND_ACCEPTOR>
4
> <PUBCHEM_CACTVS_HBOND_DONOR>
1
> <PUBCHEM_CACTVS_ROTATABLE_BOND>
3
> <PUBCHEM_CACTVS_SUBSKEYS>
AAADceB4OAgAAAAAAAAAAAAAAAAAAAAAAAA0YIAAAAAAAACRQAAAGhAACEAADBSgmAJyBoAABgGIAqBSAAACCAAkIAAIiAEGCMgMJzaGNRqCeWCl4BUIuQeI7OzOIAAACAAIAABAAAAQABAAAAAAAAAAAA==
> <PUBCHEM_IUPAC_OPENEYE_NAME>
5-hydroxy-2-phenyl-7-trimethylsilyloxy-chroman-4-one
> <PUBCHEM_IUPAC_CAS_NAME>
5-hydroxy-2-phenyl-7-trimethylsilyloxy-3,4-dihydro-2H-1-benzopyran-4-one
> <PUBCHEM_IUPAC_NAME_MARKUP>
5-hydroxy-2-phenyl-7-trimethylsilyloxy-2,3-dihydrochromen-4-one
> <PUBCHEM_IUPAC_NAME>
5-hydroxy-2-phenyl-7-trimethylsilyloxy-2,3-dihydrochromen-4-one
> <PUBCHEM_IUPAC_SYSTEMATIC_NAME>
5-oxidanyl-2-phenyl-7-trimethylsilyloxy-2,3-dihydrochromen-4-one
> <PUBCHEM_IUPAC_TRADITIONAL_NAME>
5-hydroxy-2-phenyl-7-trimethylsilyloxy-chroman-4-one
> <PUBCHEM_IUPAC_INCHI>
InChI=1S/C18H20O4Si/c1-23(2,3)22-13-9-14(19)18-15(20)11-16(21-17(18)10-13)12-7-5-4-6-8-12/h4-10,16,19H,11H2,1-3H3
> <PUBCHEM_IUPAC_INCHIKEY>
JMQOOZKTUSOQGK-UHFFFAOYSA-N
> <PUBCHEM_EXACT_MASS>
328.11308565
> <PUBCHEM_MOLECULAR_FORMULA>
C18H20O4Si
> <PUBCHEM_MOLECULAR_WEIGHT>
328.4
> <PUBCHEM_OPENEYE_CAN_SMILES>
C[Si](C)(C)OC1=CC(=C2C(=O)CC(OC2=C1)C3=CC=CC=C3)O
> <PUBCHEM_OPENEYE_ISO_SMILES>
C[Si](C)(C)OC1=CC(=C2C(=O)CC(OC2=C1)C3=CC=CC=C3)O
> <PUBCHEM_CACTVS_TPSA>
55.8
> <PUBCHEM_MONOISOTOPIC_WEIGHT>
328.11308565
> <PUBCHEM_TOTAL_CHARGE>
0
> <PUBCHEM_HEAVY_ATOM_COUNT>
23
> <PUBCHEM_ATOM_DEF_STEREO_COUNT>
0
> <PUBCHEM_ATOM_UDEF_STEREO_COUNT>
1
> <PUBCHEM_BOND_DEF_STEREO_COUNT>
0
> <PUBCHEM_BOND_UDEF_STEREO_COUNT>
0
> <PUBCHEM_ISOTOPIC_ATOM_COUNT>
0
> <PUBCHEM_COMPONENT_COUNT>
1
> <PUBCHEM_CACTVS_TAUTO_COUNT>
-1
> <PUBCHEM_COORDINATE_TYPE>
1
5
255
> <PUBCHEM_BONDANNOTATIONS>
11  19  8
11  20  8
12  13  8
12  15  8
14  15  8
19  21  8
20  22  8
21  23  8
22  23  8
6  11  3
8  14  8
8  9  8
9  13  8
$$$$
