528828
  -OEChem-10302200292D
 78 81  0     1  0  0  0  0  0999 V2000
    6.5251   -0.6074    0.0000 C   0  0  3  0  0  0  0  0  0  0  0  0
    6.5251   -1.6074    0.0000 C   0  0  3  0  0  0  0  0  0  0  0  0
    5.6591   -2.1074    0.0000 C   0  0  3  0  0  0  0  0  0  0  0  0
    4.7931   -1.6074    0.0000 C   0  0  3  0  0  0  0  0  0  0  0  0
    3.8831   -2.1143    0.0000 C   0  0  3  0  0  0  0  0  0  0  0  0
    7.4714   -0.3027    0.0000 C   0  0  3  0  0  0  0  0  0  0  0  0
    5.6591   -0.1074    0.0000 C   0  0  0  0  0  0  0  0  0  0  0  0
    4.7931   -0.6074    0.0000 C   0  0  0  0  0  0  0  0  0  0  0  0
    3.8751   -3.1559    0.0000 C   0  0  3  0  0  0  0  0  0  0  0  0
    7.4714   -1.9122    0.0000 C   0  0  0  0  0  0  0  0  0  0  0  0
    5.6752   -3.1489    0.0000 C   0  0  0  0  0  0  0  0  0  0  0  0
    8.0550   -1.1074    0.0000 C   0  0  0  0  0  0  0  0  0  0  0  0
    4.7771   -3.6767    0.0000 C   0  0  0  0  0  0  0  0  0  0  0  0
    2.9562   -1.5502    0.0000 C   0  0  0  0  0  0  0  0  0  0  0  0
    6.5251    0.3926    0.0000 C   0  0  0  0  0  0  0  0  0  0  0  0
    7.7820    0.6478    0.0000 C   0  0  3  0  0  0  0  0  0  0  0  0
    2.9396   -3.7056    0.0000 C   0  0  0  0  0  0  0  0  0  0  0  0
    3.8908   -1.1143    0.0000 C   0  0  0  0  0  0  0  0  0  0  0  0
    2.0084   -2.0781    0.0000 C   0  0  0  0  0  0  0  0  0  0  0  0
    2.0000   -3.1631    0.0000 C   0  0  0  0  0  0  0  0  0  0  0  0
    8.7605    0.8540    0.0000 C   0  0  0  0  0  0  0  0  0  0  0  0
    7.1142    1.3921    0.0000 C   0  0  0  0  0  0  0  0  0  0  0  0
    9.0712    1.8046    0.0000 C   0  0  0  0  0  0  0  0  0  0  0  0
   10.0497    2.0108    0.0000 C   0  0  3  0  0  0  0  0  0  0  0  0
   10.3604    2.9613    0.0000 C   0  0  0  0  0  0  0  0  0  0  0  0
   10.7175    1.2665    0.0000 C   0  0  0  0  0  0  0  0  0  0  0  0
   11.3389    3.1675    0.0000 C   0  0  0  0  0  0  0  0  0  0  0  0
    9.6925    3.7056    0.0000 C   0  0  0  0  0  0  0  0  0  0  0  0
    6.5908   -2.2240    0.0000 H   0  0  0  0  0  0  0  0  0  0  0  0
    6.1984   -2.4133    0.0000 H   0  0  0  0  0  0  0  0  0  0  0  0
    5.3300   -1.2974    0.0000 H   0  0  0  0  0  0  0  0  0  0  0  0
    8.0838   -0.2065    0.0000 H   0  0  0  0  0  0  0  0  0  0  0  0
    6.0576    0.3675    0.0000 H   0  0  0  0  0  0  0  0  0  0  0  0
    5.2606    0.3675    0.0000 H   0  0  0  0  0  0  0  0  0  0  0  0
    4.5810   -0.0248    0.0000 H   0  0  0  0  0  0  0  0  0  0  0  0
    4.1825   -0.7151    0.0000 H   0  0  0  0  0  0  0  0  0  0  0  0
    3.8774   -3.7759    0.0000 H   0  0  0  0  0  0  0  0  0  0  0  0
    7.2203   -2.4791    0.0000 H   0  0  0  0  0  0  0  0  0  0  0  0
    8.0087   -2.2214    0.0000 H   0  0  0  0  0  0  0  0  0  0  0  0
    5.8932   -3.7293    0.0000 H   0  0  0  0  0  0  0  0  0  0  0  0
    6.2843   -3.0334    0.0000 H   0  0  0  0  0  0  0  0  0  0  0  0
    8.5158   -1.5222    0.0000 H   0  0  0  0  0  0  0  0  0  0  0  0
    8.5158   -0.6927    0.0000 H   0  0  0  0  0  0  0  0  0  0  0  0
    4.3798   -4.1527    0.0000 H   0  0  0  0  0  0  0  0  0  0  0  0
    5.1781   -4.1496    0.0000 H   0  0  0  0  0  0  0  0  0  0  0  0
    3.3645   -1.0835    0.0000 H   0  0  0  0  0  0  0  0  0  0  0  0
    2.5663   -1.0682    0.0000 H   0  0  0  0  0  0  0  0  0  0  0  0
    7.1451    0.3926    0.0000 H   0  0  0  0  0  0  0  0  0  0  0  0
    6.5251    1.0126    0.0000 H   0  0  0  0  0  0  0  0  0  0  0  0
    5.9051    0.3926    0.0000 H   0  0  0  0  0  0  0  0  0  0  0  0
    7.9746    1.2371    0.0000 H   0  0  0  0  0  0  0  0  0  0  0  0
    2.5423   -4.1816    0.0000 H   0  0  0  0  0  0  0  0  0  0  0  0
    3.3406   -4.1785    0.0000 H   0  0  0  0  0  0  0  0  0  0  0  0
    4.5108   -1.1191    0.0000 H   0  0  0  0  0  0  0  0  0  0  0  0
    3.8956   -0.4943    0.0000 H   0  0  0  0  0  0  0  0  0  0  0  0
    3.2708   -1.1095    0.0000 H   0  0  0  0  0  0  0  0  0  0  0  0
    1.8038   -1.4929    0.0000 H   0  0  0  0  0  0  0  0  0  0  0  0
    1.3967   -2.1795    0.0000 H   0  0  0  0  0  0  0  0  0  0  0  0
    1.3900   -3.0523    0.0000 H   0  0  0  0  0  0  0  0  0  0  0  0
    1.7864   -3.7452    0.0000 H   0  0  0  0  0  0  0  0  0  0  0  0
    8.7811    0.2344    0.0000 H   0  0  0  0  0  0  0  0  0  0  0  0
    9.3743    0.7667    0.0000 H   0  0  0  0  0  0  0  0  0  0  0  0
    7.5756    1.8062    0.0000 H   0  0  0  0  0  0  0  0  0  0  0  0
    6.7001    1.8536    0.0000 H   0  0  0  0  0  0  0  0  0  0  0  0
    6.6527    0.9781    0.0000 H   0  0  0  0  0  0  0  0  0  0  0  0
    9.0506    2.4242    0.0000 H   0  0  0  0  0  0  0  0  0  0  0  0
    8.4574    1.8919    0.0000 H   0  0  0  0  0  0  0  0  0  0  0  0
    9.8571    1.4215    0.0000 H   0  0  0  0  0  0  0  0  0  0  0  0
   10.5530    3.5506    0.0000 H   0  0  0  0  0  0  0  0  0  0  0  0
   10.2561    0.8524    0.0000 H   0  0  0  0  0  0  0  0  0  0  0  0
   11.1316    0.8050    0.0000 H   0  0  0  0  0  0  0  0  0  0  0  0
   11.1790    1.6805    0.0000 H   0  0  0  0  0  0  0  0  0  0  0  0
   11.4667    2.5608    0.0000 H   0  0  0  0  0  0  0  0  0  0  0  0
   11.9455    3.2954    0.0000 H   0  0  0  0  0  0  0  0  0  0  0  0
   11.2110    3.7742    0.0000 H   0  0  0  0  0  0  0  0  0  0  0  0
   10.1540    4.1197    0.0000 H   0  0  0  0  0  0  0  0  0  0  0  0
    9.2784    4.1671    0.0000 H   0  0  0  0  0  0  0  0  0  0  0  0
    9.2310    3.2915    0.0000 H   0  0  0  0  0  0  0  0  0  0  0  0
  1  2  1  0  0  0  0
  1  6  1  0  0  0  0
  1  7  1  0  0  0  0
  1 15  1  0  0  0  0
  2  3  1  0  0  0  0
  2 10  1  0  0  0  0
  2 29  1  0  0  0  0
  3  4  1  0  0  0  0
  3 11  1  0  0  0  0
  3 30  1  0  0  0  0
  4  5  1  0  0  0  0
  4  8  1  0  0  0  0
  4 31  1  0  0  0  0
  5  9  1  0  0  0  0
  5 14  1  0  0  0  0
  5 18  1  0  0  0  0
  6 12  1  0  0  0  0
  6 16  1  0  0  0  0
  6 32  1  0  0  0  0
  7  8  1  0  0  0  0
  7 33  1  0  0  0  0
  7 34  1  0  0  0  0
  8 35  1  0  0  0  0
  8 36  1  0  0  0  0
  9 13  1  0  0  0  0
  9 17  1  0  0  0  0
  9 37  1  0  0  0  0
 10 12  1  0  0  0  0
 10 38  1  0  0  0  0
 10 39  1  0  0  0  0
 11 13  1  0  0  0  0
 11 40  1  0  0  0  0
 11 41  1  0  0  0  0
 12 42  1  0  0  0  0
 12 43  1  0  0  0  0
 13 44  1  0  0  0  0
 13 45  1  0  0  0  0
 14 19  1  0  0  0  0
 14 46  1  0  0  0  0
 14 47  1  0  0  0  0
 15 48  1  0  0  0  0
 15 49  1  0  0  0  0
 15 50  1  0  0  0  0
 16 21  1  0  0  0  0
 16 22  1  0  0  0  0
 16 51  1  0  0  0  0
 17 20  1  0  0  0  0
 17 52  1  0  0  0  0
 17 53  1  0  0  0  0
 18 54  1  0  0  0  0
 18 55  1  0  0  0  0
 18 56  1  0  0  0  0
 19 20  1  0  0  0  0
 19 57  1  0  0  0  0
 19 58  1  0  0  0  0
 20 59  1  0  0  0  0
 20 60  1  0  0  0  0
 21 23  1  0  0  0  0
 21 61  1  0  0  0  0
 21 62  1  0  0  0  0
 22 63  1  0  0  0  0
 22 64  1  0  0  0  0
 22 65  1  0  0  0  0
 23 24  1  0  0  0  0
 23 66  1  0  0  0  0
 23 67  1  0  0  0  0
 24 25  1  0  0  0  0
 24 26  1  0  0  0  0
 24 68  1  0  0  0  0
 25 27  1  0  0  0  0
 25 28  1  0  0  0  0
 25 69  1  0  0  0  0
 26 70  1  0  0  0  0
 26 71  1  0  0  0  0
 26 72  1  0  0  0  0
 27 73  1  0  0  0  0
 27 74  1  0  0  0  0
 27 75  1  0  0  0  0
 28 76  1  0  0  0  0
 28 77  1  0  0  0  0
 28 78  1  0  0  0  0
M  END
> <PUBCHEM_COMPOUND_CID>
528828
> <PUBCHEM_COMPOUND_CANONICALIZED>
1
> <PUBCHEM_CACTVS_COMPLEXITY>
534
> <PUBCHEM_CACTVS_HBOND_ACCEPTOR>
0
> <PUBCHEM_CACTVS_HBOND_DONOR>
0
> <PUBCHEM_CACTVS_ROTATABLE_BOND>
5
> <PUBCHEM_CACTVS_SUBSKEYS>
AAADcfB4AAAAAAAAAAAAAAAAAAAAAYAAAAAwYMAAAAAAAGDAAAAAGAAAAAAADwCAAAACAAAAAAAAAAAAAAAAAAAAAAAAAAAAAAAAAAIAAAAAAAAAAAAAAAEAgMAPgAAAAAAAAACAAAQAACAAAQAACAAAAA==
> <PUBCHEM_IUPAC_OPENEYE_NAME>
10,13-dimethyl-17-(1,4,5-trimethylhexyl)-2,3,4,5,6,7,8,9,11,12,14,15,16,17-tetradecahydro-1H-cyclopenta[a]phenanthrene
> <PUBCHEM_IUPAC_CAS_NAME>
17-(5,6-dimethylheptan-2-yl)-10,13-dimethyl-2,3,4,5,6,7,8,9,11,12,14,15,16,17-tetradecahydro-1H-cyclopenta[a]phenanthrene
> <PUBCHEM_IUPAC_NAME_MARKUP>
17-(5,6-dimethylheptan-2-yl)-10,13-dimethyl-2,3,4,5,6,7,8,9,11,12,14,15,16,17-tetradecahydro-1<I>H</I>-cyclopenta[a]phenanthrene
> <PUBCHEM_IUPAC_NAME>
17-(5,6-dimethylheptan-2-yl)-10,13-dimethyl-2,3,4,5,6,7,8,9,11,12,14,15,16,17-tetradecahydro-1H-cyclopenta[a]phenanthrene
> <PUBCHEM_IUPAC_SYSTEMATIC_NAME>
17-(5,6-dimethylheptan-2-yl)-10,13-dimethyl-2,3,4,5,6,7,8,9,11,12,14,15,16,17-tetradecahydro-1H-cyclopenta[a]phenanthrene
> <PUBCHEM_IUPAC_TRADITIONAL_NAME>
10,13-dimethyl-17-(1,4,5-trimethylhexyl)-2,3,4,5,6,7,8,9,11,12,14,15,16,17-tetradecahydro-1H-cyclopenta[a]phenanthrene
> <PUBCHEM_IUPAC_INCHI>
InChI=1S/C28H50/c1-19(2)20(3)10-11-21(4)24-14-15-25-23-13-12-22-9-7-8-17-27(22,5)26(23)16-18-28(24,25)6/h19-26H,7-18H2,1-6H3
> <PUBCHEM_IUPAC_INCHIKEY>
WAAWMJYYKITCGF-UHFFFAOYSA-N
> <PUBCHEM_XLOGP3_AA>
11.3
> <PUBCHEM_EXACT_MASS>
386.391251595
> <PUBCHEM_MOLECULAR_FORMULA>
C28H50
> <PUBCHEM_MOLECULAR_WEIGHT>
386.7
> <PUBCHEM_OPENEYE_CAN_SMILES>
CC(C)C(C)CCC(C)C1CCC2C1(CCC3C2CCC4C3(CCCC4)C)C
> <PUBCHEM_OPENEYE_ISO_SMILES>
CC(C)C(C)CCC(C)C1CCC2C1(CCC3C2CCC4C3(CCCC4)C)C
> <PUBCHEM_CACTVS_TPSA>
0
> <PUBCHEM_MONOISOTOPIC_WEIGHT>
386.391251595
> <PUBCHEM_TOTAL_CHARGE>
0
> <PUBCHEM_HEAVY_ATOM_COUNT>
28
> <PUBCHEM_ATOM_DEF_STEREO_COUNT>
0
> <PUBCHEM_ATOM_UDEF_STEREO_COUNT>
9
> <PUBCHEM_BOND_DEF_STEREO_COUNT>
0
> <PUBCHEM_BOND_UDEF_STEREO_COUNT>
0
> <PUBCHEM_ISOTOPIC_ATOM_COUNT>
0
> <PUBCHEM_COMPONENT_COUNT>
1
> <PUBCHEM_CACTVS_TAUTO_COUNT>
-1
> <PUBCHEM_COORDINATE_TYPE>
1
5
255
> <PUBCHEM_BONDANNOTATIONS>
1  15  3
16  22  3
2  10  3
24  26  3
3  11  3
4  8  3
5  18  3
6  12  3
9  17  3
$$$$
